                         Program Version 4.2.0 -  RELEASE  -
|  1> # Test redundant internal optimization
|  2> #
|  3> ! RKS B3LYP  Opt TightSCF SmallPrint
|  4>
|  5> %basis
|  6>         Basis "6-31G"
|  7> end
|  8>
|  9> %geom
| 10> Constraints
| 11> { D 4  0  15  12  150.0   C } # D for Dihedral angle
| 12> { D 0  15  12  16  0.0   C } # D for Dihedral angle
| 13> { D 0  4  3  2   C } # D for Dihedral angle
| 14> { D 4  3  2  1   C } # D for Dihedral angle
| 15> { D 3  2  1  0   C } # D for Dihedral angle
| 16> { D 2  1  0  4   C } # D for Dihedral angle
| 17> { D 1  0  4  3   C } # D for Dihedral angle
| 18> { D 16  20  19  18   C } # D for Dihedral angle
| 19> { D 20  19  18  17   C } # D for Dihedral angle
| 20> { D 19  18  17  16   C } # D for Dihedral angle
| 21> { D 18  17  16  20   C } # D for Dihedral angle
| 22> { D 17  16  20  19   C } # D for Dihedral angle
| 23> { D 15  12  16  20   C } # D for Dihedral angle
| 24> end
| 25> end
| 26>
| 27>
| 28> #%pal
| 29> #nprocs 8
| 30> #end
| 31>
| 32> * xyz 0 1
| 33> C  -21.048   26.222   46.251
| 34> C  -20.361   27.558   45.944
| 35> C  -20.329   28.222   47.341
| 36> C  -20.110   27.022   48.296
| 37> O  -20.473   25.807   47.535
| 38> H  -20.833   25.428   45.533
| 39> H  -19.344   27.382   45.576
| 40> H  -20.898   28.157   45.201
| 41> H  -19.543   28.978   47.434
| 42> H  -21.289   28.710   47.548
| 43> H  -20.733   27.082   49.195
| 44> H  -19.064   26.913   48.597
| 45> C  -23.210   27.459   45.431
| 46> H  -23.951   26.977   44.782
| 47> H  -23.718   28.238   46.014
| 48> O  -22.586   26.394   46.375
| 49> C  -22.153   28.156   44.531
| 50> C  -21.508   27.163   43.558
| 51> C  -22.594   27.050   42.461
| 52> C  -23.185   28.482   42.403
| 53> O  -22.794   29.149   43.663
| 54> H  -21.444   28.695   45.163
| 55> H  -20.585   27.586   43.146
| 56> O  -21.170   25.797   44.214
| 57> H  -22.190   26.726   41.496
| 58> H  -23.360   26.327   42.763
| 59> H  -24.277   28.481   42.321
| 60> H  -22.769   29.072   41.582
| 61> H  -22.081   25.355   44.633
| 62> *
| 63>
| 64>                          ****END OF INPUT****
 Total Charge           Charge          ....    0
 Multiplicity           Mult            ....    1
 Number of Electrons    NEL             ....  102
FINAL SINGLE POINT ENERGY      -652.582013390579
FINAL SINGLE POINT ENERGY      -652.686537702354
FINAL SINGLE POINT ENERGY      -652.741848877195
FINAL SINGLE POINT ENERGY      -652.777098086536
FINAL SINGLE POINT ENERGY      -652.798942395098
FINAL SINGLE POINT ENERGY      -652.812656833907
FINAL SINGLE POINT ENERGY      -652.821364732145
FINAL SINGLE POINT ENERGY      -652.827051690437
FINAL SINGLE POINT ENERGY      -652.830744356888
FINAL SINGLE POINT ENERGY      -652.832973681534
FINAL SINGLE POINT ENERGY      -652.836804718695
FINAL SINGLE POINT ENERGY      -652.836902189764
FINAL SINGLE POINT ENERGY      -652.836973821616
FINAL SINGLE POINT ENERGY      -652.837043615724
FINAL SINGLE POINT ENERGY      -652.837091345249
FINAL SINGLE POINT ENERGY      -652.837092350074
FINAL SINGLE POINT ENERGY      -652.837080870001
FINAL SINGLE POINT ENERGY      -652.837074111809
FINAL SINGLE POINT ENERGY      -652.837072919747
                    ***********************HURRAY********************

CARTESIAN COORDINATES (ANGSTROEM)
---------------------------------
  C    -21.002038   26.168814   46.524462
  C    -19.902867   27.204201   46.284298
  C    -20.025610   28.107759   47.542031
  C    -20.414779   27.093669   48.640306
  O    -20.912052   25.895490   47.930299
  H    -20.861574   25.215545   46.012252
  H    -18.941391   26.676847   46.287153
  H    -19.974946   27.735798   45.341994
  H    -19.093779   28.633874   47.769591
  H    -20.814022   28.855404   47.402570
  H    -21.201934   27.458804   49.305729
  H    -19.557485   26.771009   49.239569
  C    -22.984562   27.553950   45.352018
  H    -23.779452   26.974670   44.864255
  H    -23.477627   28.326471   45.951476
  O    -22.373147   26.631737   46.310704
  C    -22.208888   28.308183   44.247370
  C    -21.574988   27.439216   43.141364
  C    -22.823737   27.057217   42.273234
  C    -23.689974   28.333348   42.367282
  O    -23.201229   29.106492   43.534697
  H    -21.501591   29.020109   44.676347
  H    -20.876027   28.045420   42.560171
  O    -20.807453   26.284684   43.550299
  H    -22.545518   26.802909   41.248035
  H    -23.325402   26.189739   42.718888
  H    -24.754815   28.121252   42.504645
  H    -23.570765   28.977272   41.490745
  H    -21.402348   25.598117   43.915217

 Multiplicity           Mult            ....    1
 Number of Electrons    NEL             ....  102
 Basis Dimension        Dim             ....  149

ORBITAL ENERGIES
----------------

  NO   OCC          E(Eh)            E(eV)
   0   2.0000     -19.157041      -521.2896
   1   2.0000     -19.152194      -521.1577
   2   2.0000     -19.133451      -520.6477
   3   2.0000     -19.129765      -520.5474
   4   2.0000     -10.279733      -279.7258
   5   2.0000     -10.253427      -279.0099
   6   2.0000     -10.243706      -278.7454
   7   2.0000     -10.239234      -278.6237
   8   2.0000     -10.233899      -278.4785
   9   2.0000     -10.220978      -278.1270
  10   2.0000     -10.201708      -277.6026
  11   2.0000     -10.184511      -277.1346
  12   2.0000     -10.180101      -277.0146
  13   2.0000      -1.047590       -28.5064
  14   2.0000      -1.041206       -28.3327
  15   2.0000      -1.028315       -27.9819
  16   2.0000      -0.980067       -26.6690
  17   2.0000      -0.787587       -21.4313
  18   2.0000      -0.781009       -21.2523
  19   2.0000      -0.772737       -21.0272
  20   2.0000      -0.735145       -20.0043
  21   2.0000      -0.683929       -18.6106
  22   2.0000      -0.621385       -16.9088
  23   2.0000      -0.605372       -16.4730
  24   2.0000      -0.596393       -16.2287
  25   2.0000      -0.568570       -15.4716
  26   2.0000      -0.536474       -14.5982
  27   2.0000      -0.515098       -14.0165
  28   2.0000      -0.499200       -13.5839
  29   2.0000      -0.482691       -13.1347
  30   2.0000      -0.470785       -12.8107
  31   2.0000      -0.458875       -12.4866
  32   2.0000      -0.445100       -12.1118
  33   2.0000      -0.439548       -11.9607
  34   2.0000      -0.434169       -11.8143
  35   2.0000      -0.421459       -11.4685
  36   2.0000      -0.410646       -11.1742
  37   2.0000      -0.400409       -10.8957
  38   2.0000      -0.384219       -10.4551
  39   2.0000      -0.375528       -10.2186
  40   2.0000      -0.361475        -9.8362
  41   2.0000      -0.355444        -9.6721
  42   2.0000      -0.349048        -9.4981
  43   2.0000      -0.340523        -9.2661
  44   2.0000      -0.323305        -8.7976
  45   2.0000      -0.308509        -8.3950
  46   2.0000      -0.292477        -7.9587
  47   2.0000      -0.275968        -7.5095
  48   2.0000      -0.257509        -7.0072
  49   2.0000      -0.249808        -6.7976
  50   2.0000      -0.241695        -6.5768
  51   0.0000       0.044361         1.2071
  52   0.0000       0.068695         1.8693
  53   0.0000       0.077967         2.1216
  54   0.0000       0.085923         2.3381
  55   0.0000       0.100728         2.7410

MULLIKEN ATOMIC CHARGES
-----------------------
   0 C :    0.317842
   1 C :   -0.267529
   2 C :   -0.307909
   3 C :   -0.003031
   4 O :   -0.498147
   5 H :    0.133112
   6 H :    0.147043
   7 H :    0.158728
   8 H :    0.140571
   9 H :    0.149721
  10 H :    0.150585
  11 H :    0.143842
  12 C :    0.009803
  13 H :    0.133994
  14 H :    0.163333
  15 O :   -0.555505
  16 C :    0.043062
  17 C :    0.096021
  18 C :   -0.322653
  19 C :   -0.018385
  20 O :   -0.519468
  21 H :    0.159533
  22 H :    0.166814
  23 O :   -0.599173
  24 H :    0.160441
  25 H :    0.142323
  26 H :    0.152237
  27 H :    0.154828
  28 H :    0.367969
Sum of atomic charges:   -0.0000000

LOEWDIN ATOMIC CHARGES
----------------------
   0 C :    0.191480
   1 C :   -0.226756
   2 C :   -0.221433
   3 C :   -0.027604
   4 O :   -0.304204
   5 H :    0.092941
   6 H :    0.119332
   7 H :    0.120088
   8 H :    0.114080
   9 H :    0.110262
  10 H :    0.106961
  11 H :    0.102711
  12 C :   -0.042715
  13 H :    0.098627
  14 H :    0.116376
  15 O :   -0.361115
  16 C :    0.003921
  17 C :    0.031399
  18 C :   -0.238524
  19 C :   -0.032496
  20 O :   -0.315128
  21 H :    0.112299
  22 H :    0.118439
  23 O :   -0.399974
  24 H :    0.125233
  25 H :    0.108422
  26 H :    0.106167
  27 H :    0.108469
  28 H :    0.282744

  Mayer bond orders larger than 0.100000
B(  0-C ,  1-C ) :   0.9307 B(  0-C ,  4-O ) :   0.9269 B(  0-C ,  5-H ) :   0.9230
B(  0-C , 15-O ) :   0.8262 B(  1-C ,  2-C ) :   0.9431 B(  1-C ,  6-H ) :   0.9336
B(  1-C ,  7-H ) :   0.9200 B(  2-C ,  3-C ) :   0.9525 B(  2-C ,  8-H ) :   0.9458
B(  2-C ,  9-H ) :   0.9453 B(  3-C ,  4-O ) :   0.8365 B(  3-C , 10-H ) :   0.9349
B(  3-C , 11-H ) :   0.9395 B( 12-C , 13-H ) :   0.9287 B( 12-C , 14-H ) :   0.9244
B( 12-C , 15-O ) :   0.8403 B( 12-C , 16-C ) :   0.8820 B( 16-C , 17-C ) :   0.8744
B( 16-C , 20-O ) :   0.8238 B( 16-C , 21-H ) :   0.9250 B( 17-C , 18-C ) :   0.9245
B( 17-C , 22-H ) :   0.9323 B( 17-C , 23-O ) :   0.8983 B( 18-C , 19-C ) :   0.9395
B( 18-C , 24-H ) :   0.9413 B( 18-C , 25-H ) :   0.9402 B( 19-C , 20-O ) :   0.8351
B( 19-C , 26-H ) :   0.9316 B( 19-C , 27-H ) :   0.9376 B( 23-O , 28-H ) :   0.7828

FINAL SINGLE POINT ENERGY      -652.837076247659

DIPOLE MOMENT
-------------
                                X             Y             Z
Electronic contribution:     -1.15045      -1.98145       0.91254
Nuclear contribution   :      1.28306       2.34862      -1.89370
                        -----------------------------------------
Total Dipole Moment    :      0.13260       0.36717      -0.98116
                        -----------------------------------------
Magnitude (a.u.)       :      1.05597
Magnitude (Debye)      :      2.68407

Rotational constants in cm-1:     0.057999     0.014867     0.014106
Rotational constants in MHz :  1738.773987   445.703365   422.895238

                             ****ORCA TERMINATED NORMALLY****
TOTAL RUN TIME: 0 days 1 hours 52 minutes 47 seconds 638 msec
