                         Program Version 4.2.0 -  RELEASE  -
|  1> # Test redundant internal optimization
|  2> #
|  3> ! RKS B3LYP  Opt TightSCF SmallPrint
|  4>
|  5> %basis
|  6>         Basis "6-31G"
|  7> end
|  8>
|  9> %geom
| 10> Constraints
| 11> { D 4  0  15  12  345.0   C } # D for Dihedral angle
| 12> { D 0  15  12  16  210.0   C } # D for Dihedral angle
| 13> { D 0  4  3  2   C } # D for Dihedral angle
| 14> { D 4  3  2  1   C } # D for Dihedral angle
| 15> { D 3  2  1  0   C } # D for Dihedral angle
| 16> { D 2  1  0  4   C } # D for Dihedral angle
| 17> { D 1  0  4  3   C } # D for Dihedral angle
| 18> { D 16  20  19  18   C } # D for Dihedral angle
| 19> { D 20  19  18  17   C } # D for Dihedral angle
| 20> { D 19  18  17  16   C } # D for Dihedral angle
| 21> { D 18  17  16  20   C } # D for Dihedral angle
| 22> { D 17  16  20  19   C } # D for Dihedral angle
| 23> { D 15  12  16  20   C } # D for Dihedral angle
| 24> end
| 25> end
| 26>
| 27>
| 28> #%pal
| 29> #nprocs 8
| 30> #end
| 31>
| 32> * xyz 0 1
| 33> C  -21.048   26.222   46.251
| 34> C  -20.361   27.558   45.944
| 35> C  -20.329   28.222   47.341
| 36> C  -20.110   27.022   48.296
| 37> O  -20.473   25.807   47.535
| 38> H  -20.833   25.428   45.533
| 39> H  -19.344   27.382   45.576
| 40> H  -20.898   28.157   45.201
| 41> H  -19.543   28.978   47.434
| 42> H  -21.289   28.710   47.548
| 43> H  -20.733   27.082   49.195
| 44> H  -19.064   26.913   48.597
| 45> C  -23.221   25.764   47.645
| 46> H  -22.624   24.897   47.956
| 47> H  -23.229   26.489   48.470
| 48> O  -22.586   26.394   46.375
| 49> C  -24.684   25.294   47.415
| 50> C  -24.747   24.153   46.393
| 51> C  -24.328   22.937   47.253
| 52> C  -24.940   23.259   48.639
| 53> O  -25.232   24.708   48.643
| 54> H  -25.303   26.158   47.168
| 55> H  -25.773   24.033   46.027
| 56> O  -23.815   24.377   45.170
| 57> H  -24.689   21.987   46.847
| 58> H  -23.235   22.881   47.316
| 59> H  -24.257   23.029   49.463
| 60> H  -25.886   22.738   48.808
| 61> H  -22.782   24.500   45.513
| 62> *
| 63>
| 64>                          ****END OF INPUT****
 Total Charge           Charge          ....    0
 Multiplicity           Mult            ....    1
 Number of Electrons    NEL             ....  102
FINAL SINGLE POINT ENERGY      -652.827002614296
FINAL SINGLE POINT ENERGY      -652.851818752206
FINAL SINGLE POINT ENERGY      -652.858214484770
FINAL SINGLE POINT ENERGY      -652.860822025751
FINAL SINGLE POINT ENERGY      -652.862396798569
FINAL SINGLE POINT ENERGY      -652.863726748689
FINAL SINGLE POINT ENERGY      -652.864634942888
FINAL SINGLE POINT ENERGY      -652.865119232468
FINAL SINGLE POINT ENERGY      -652.865261347362
FINAL SINGLE POINT ENERGY      -652.865283422970
FINAL SINGLE POINT ENERGY      -652.865290129154
                    ***********************HURRAY********************

CARTESIAN COORDINATES (ANGSTROEM)
---------------------------------
  C    -21.036665   26.143013   46.363266
  C    -20.457607   27.498902   45.966605
  C    -20.383730   28.220990   47.329554
  C    -20.033892   27.087201   48.315544
  O    -20.376079   25.819696   47.599590
  H    -20.836445   25.315161   45.679168
  H    -19.459254   27.351228   45.539103
  H    -21.083732   28.018603   45.238245
  H    -19.638840   29.022357   47.340035
  H    -21.357914   28.658533   47.568969
  H    -20.604375   27.124194   49.246687
  H    -18.966803   27.029295   48.545214
  C    -23.130886   25.734406   47.715653
  H    -22.533544   24.908497   48.110559
  H    -23.180265   26.520982   48.476081
  O    -22.498698   26.267311   46.493775
  C    -24.550218   25.276837   47.361555
  C    -24.637879   24.120955   46.351149
  C    -24.326687   22.890685   47.250501
  C    -24.973694   23.269634   48.598577
  O    -25.181134   24.746587   48.569058
  H    -25.145466   26.139214   47.047240
  H    -25.671787   24.055266   45.989301
  O    -23.762758   24.220825   45.208096
  H    -24.731834   21.966015   46.831984
  H    -23.240135   22.778082   47.327661
  H    -24.350750   23.019728   49.462928
  H    -25.961541   22.820069   48.733904
  H    -23.243385   25.054733   45.291998

 Multiplicity           Mult            ....    1
 Number of Electrons    NEL             ....  102
 Basis Dimension        Dim             ....  149

ORBITAL ENERGIES
----------------

  NO   OCC          E(Eh)            E(eV)
   0   2.0000     -19.161282      -521.4050
   1   2.0000     -19.159391      -521.3535
   2   2.0000     -19.137814      -520.7664
   3   2.0000     -19.113511      -520.1051
   4   2.0000     -10.291893      -280.0567
   5   2.0000     -10.239962      -278.6435
   6   2.0000     -10.231894      -278.4240
   7   2.0000     -10.231588      -278.4157
   8   2.0000     -10.228355      -278.3277
   9   2.0000     -10.224185      -278.2142
  10   2.0000     -10.197530      -277.4889
  11   2.0000     -10.195197      -277.4254
  12   2.0000     -10.176650      -276.9207
  13   2.0000      -1.067102       -29.0373
  14   2.0000      -1.024295       -27.8725
  15   2.0000      -1.005390       -27.3581
  16   2.0000      -0.991093       -26.9690
  17   2.0000      -0.800280       -21.7767
  18   2.0000      -0.773017       -21.0349
  19   2.0000      -0.766164       -20.8484
  20   2.0000      -0.737207       -20.0604
  21   2.0000      -0.675434       -18.3795
  22   2.0000      -0.612013       -16.6537
  23   2.0000      -0.598955       -16.2984
  24   2.0000      -0.593297       -16.1444
  25   2.0000      -0.574444       -15.6314
  26   2.0000      -0.528641       -14.3850
  27   2.0000      -0.517612       -14.0849
  28   2.0000      -0.504374       -13.7247
  29   2.0000      -0.487784       -13.2733
  30   2.0000      -0.474763       -12.9189
  31   2.0000      -0.458203       -12.4683
  32   2.0000      -0.442248       -12.0342
  33   2.0000      -0.431902       -11.7527
  34   2.0000      -0.426265       -11.5993
  35   2.0000      -0.417047       -11.3484
  36   2.0000      -0.408082       -11.1045
  37   2.0000      -0.385727       -10.4962
  38   2.0000      -0.381848       -10.3906
  39   2.0000      -0.370071       -10.0701
  40   2.0000      -0.365917        -9.9571
  41   2.0000      -0.360355        -9.8058
  42   2.0000      -0.354726        -9.6526
  43   2.0000      -0.338260        -9.2045
  44   2.0000      -0.334063        -9.0903
  45   2.0000      -0.316162        -8.6032
  46   2.0000      -0.289734        -7.8841
  47   2.0000      -0.277090        -7.5400
  48   2.0000      -0.266911        -7.2630
  49   2.0000      -0.244659        -6.6575
  50   2.0000      -0.242322        -6.5939
  51   0.0000       0.058815         1.6005
  52   0.0000       0.074101         2.0164
  53   0.0000       0.094590         2.5739
  54   0.0000       0.098680         2.6852
  55   0.0000       0.101465         2.7610

MULLIKEN ATOMIC CHARGES
-----------------------
   0 C :    0.295475
   1 C :   -0.256394
   2 C :   -0.306723
   3 C :   -0.017493
   4 O :   -0.509118
   5 H :    0.165007
   6 H :    0.150151
   7 H :    0.163649
   8 H :    0.150803
   9 H :    0.161748
  10 H :    0.152504
  11 H :    0.154997
  12 C :   -0.014317
  13 H :    0.169298
  14 H :    0.151238
  15 O :   -0.571219
  16 C :    0.040221
  17 C :    0.125061
  18 C :   -0.303789
  19 C :   -0.016092
  20 O :   -0.522159
  21 H :    0.158204
  22 H :    0.141770
  23 O :   -0.645108
  24 H :    0.148160
  25 H :    0.154376
  26 H :    0.141043
  27 H :    0.148008
  28 H :    0.390697
Sum of atomic charges:    0.0000000

LOEWDIN ATOMIC CHARGES
----------------------
   0 C :    0.179676
   1 C :   -0.216297
   2 C :   -0.217689
   3 C :   -0.030165
   4 O :   -0.313846
   5 H :    0.107942
   6 H :    0.116756
   7 H :    0.127354
   8 H :    0.119335
   9 H :    0.118461
  10 H :    0.107347
  11 H :    0.109654
  12 C :   -0.046441
  13 H :    0.115030
  14 H :    0.106747
  15 O :   -0.355416
  16 C :    0.016051
  17 C :    0.042168
  18 C :   -0.234477
  19 C :   -0.031009
  20 O :   -0.323859
  21 H :    0.113482
  22 H :    0.101002
  23 O :   -0.438689
  24 H :    0.120127
  25 H :    0.115261
  26 H :    0.101658
  27 H :    0.105271
  28 H :    0.284565

  Mayer bond orders larger than 0.100000
B(  0-C ,  1-C ) :   0.9412 B(  0-C ,  4-O ) :   0.9249 B(  0-C ,  5-H ) :   0.9232
B(  0-C , 15-O ) :   0.7926 B(  1-C ,  2-C ) :   0.9517 B(  1-C ,  6-H ) :   0.9352
B(  1-C ,  7-H ) :   0.9351 B(  2-C ,  3-C ) :   0.9551 B(  2-C ,  8-H ) :   0.9439
B(  2-C ,  9-H ) :   0.9445 B(  3-C ,  4-O ) :   0.8214 B(  3-C , 10-H ) :   0.9336
B(  3-C , 11-H ) :   0.9398 B( 12-C , 13-H ) :   0.9138 B( 12-C , 14-H ) :   0.9277
B( 12-C , 15-O ) :   0.7781 B( 12-C , 16-C ) :   0.9054 B( 16-C , 17-C ) :   0.9160
B( 16-C , 20-O ) :   0.8569 B( 16-C , 21-H ) :   0.9286 B( 17-C , 18-C ) :   0.9078
B( 17-C , 22-H ) :   0.9273 B( 17-C , 23-O ) :   0.9249 B( 18-C , 19-C ) :   0.9403
B( 18-C , 24-H ) :   0.9456 B( 18-C , 25-H ) :   0.9409 B( 19-C , 20-O ) :   0.8315
B( 19-C , 26-H ) :   0.9347 B( 19-C , 27-H ) :   0.9387 B( 23-O , 28-H ) :   0.7232

FINAL SINGLE POINT ENERGY      -652.865291736122

DIPOLE MOMENT
-------------
                                X             Y             Z
Electronic contribution:     -2.36382      -1.21968      -1.36010
Nuclear contribution   :      3.28924       2.01109       1.79571
                        -----------------------------------------
Total Dipole Moment    :      0.92542       0.79141       0.43562
                        -----------------------------------------
Magnitude (a.u.)       :      1.29325
Magnitude (Debye)      :      3.28718

Rotational constants in cm-1:     0.054217     0.014404     0.013185
Rotational constants in MHz :  1625.383703   431.824095   395.266402

                             ****ORCA TERMINATED NORMALLY****
TOTAL RUN TIME: 0 days 0 hours 40 minutes 54 seconds 666 msec
