                         Program Version 4.2.1 -  RELEASE  -
|  1> # Test redundant internal optimization
|  2> #
|  3> ! RKS B3LYP  Opt TightSCF SmallPrint
|  4>
|  5> %basis
|  6>         Basis "6-31G"
|  7> end
|  8>
|  9> %geom
| 10> Constraints
| 11> { D 4  0  19  14  285.0   C } # D for Dihedral angle
| 12> { D 0  19  14  12  150.0   C } # D for Dihedral angle
| 13> { D 0  4  3  2   C } # D for Dihedral angle
| 14> { D 4  3  2  1   C } # D for Dihedral angle
| 15> { D 3  2  1  0   C } # D for Dihedral angle
| 16> { D 2  1  0  4   C } # D for Dihedral angle
| 17> { D 1  0  4  3   C } # D for Dihedral angle
| 18> { D 14  15  16  17   C } # D for Dihedral angle
| 19> { D 15  16  17  12   C } # D for Dihedral angle
| 20> { D 16  17  12  14   C } # D for Dihedral angle
| 21> { D 17  12  14  15   C } # D for Dihedral angle
| 22> { D 12  14  15  16   C } # D for Dihedral angle
| 23> end
| 24> end
| 25>
| 26>
| 27> #%pal
| 28> #nprocs 8
| 29> #end
| 30>
| 31> * xyz 0 1
| 32> C  -21.048   26.222   46.251
| 33> C  -20.361   27.558   45.944
| 34> C  -20.329   28.222   47.341
| 35> C  -20.110   27.022   48.296
| 36> O  -20.473   25.807   47.535
| 37> H  -20.833   25.428   45.533
| 38> H  -19.344   27.382   45.576
| 39> H  -20.898   28.157   45.201
| 40> H  -19.543   28.978   47.434
| 41> H  -21.289   28.710   47.548
| 42> H  -20.733   27.082   49.195
| 43> H  -19.064   26.913   48.597
| 44> C  -24.482   25.328   47.246
| 45> H  -24.906   24.357   47.548
| 46> C  -23.203   25.146   46.420
| 47> C  -23.776   24.788   45.029
| 48> C  -25.070   25.637   44.952
| 49> O  -25.400   26.027   46.340
| 50> H  -24.365   25.957   48.130
| 51> O  -22.472   26.381   46.366
| 52> H  -22.541   24.370   46.819
| 53> H  -23.081   25.011   44.213
| 54> H  -24.014   23.718   44.983
| 55> H  -25.912   25.083   44.525
| 56> H  -24.929   26.562   44.383
| 57> *
| 58>
| 59>                          ****END OF INPUT****
 Total Charge           Charge          ....    0
 Multiplicity           Mult            ....    1
 Number of Electrons    NEL             ....   86
FINAL SINGLE POINT ENERGY      -538.435919442684
FINAL SINGLE POINT ENERGY      -538.437662549045
FINAL SINGLE POINT ENERGY      -538.437981135834
FINAL SINGLE POINT ENERGY      -538.437997879580
FINAL SINGLE POINT ENERGY      -538.438003906032
                    ***********************HURRAY********************

CARTESIAN COORDINATES (ANGSTROEM)
---------------------------------
  C    -20.997665   26.189600   46.233196
  C    -20.398911   27.568070   45.951586
  C    -20.402868   28.207552   47.358801
  C    -20.105987   27.010292   48.289377
  O    -20.400639   25.791932   47.492078
  H    -20.749471   25.402081   45.515073
  H    -19.376627   27.448348   45.575101
  H    -20.986442   28.128304   45.221595
  H    -19.661432   29.005938   47.460806
  H    -21.392754   28.622589   47.568274
  H    -20.726616   27.003051   49.188993
  H    -19.052468   26.946327   48.577636
  C    -24.455914   25.380335   47.239500
  H    -24.911209   24.434060   47.566731
  C    -23.196214   25.115932   46.414811
  C    -23.792615   24.759740   45.039754
  C    -25.040801   25.670037   44.947208
  O    -25.340709   26.104301   46.326616
  H    -24.268719   26.022686   48.100514
  O    -22.425129   26.357666   46.343825
  H    -22.574333   24.322789   46.843914
  H    -23.080487   24.934085   44.227639
  H    -24.073257   23.699739   45.026862
  H    -25.911385   25.147186   44.535115
  H    -24.853351   26.573357   44.359998

 Multiplicity           Mult            ....    1
 Number of Electrons    NEL             ....   86
 Basis Dimension        Dim             ....  127

ORBITAL ENERGIES
----------------

  NO   OCC          E(Eh)            E(eV)
   0   2.0000     -19.142274      -520.8877
   1   2.0000     -19.139052      -520.8001
   2   2.0000     -19.125319      -520.4264
   3   2.0000     -10.278148      -279.6826
   4   2.0000     -10.236973      -278.5622
   5   2.0000     -10.224123      -278.2125
   6   2.0000     -10.219028      -278.0739
   7   2.0000     -10.218917      -278.0709
   8   2.0000     -10.185987      -277.1748
   9   2.0000     -10.184088      -277.1231
  10   2.0000     -10.183203      -277.0990
  11   2.0000      -1.054407       -28.6919
  12   2.0000      -1.012375       -27.5481
  13   2.0000      -0.989027       -26.9128
  14   2.0000      -0.791259       -21.5312
  15   2.0000      -0.774657       -21.0795
  16   2.0000      -0.739818       -20.1315
  17   2.0000      -0.718872       -19.5615
  18   2.0000      -0.606770       -16.5111
  19   2.0000      -0.597826       -16.2677
  20   2.0000      -0.595438       -16.2027
  21   2.0000      -0.574125       -15.6227
  22   2.0000      -0.522130       -14.2079
  23   2.0000      -0.500921       -13.6308
  24   2.0000      -0.482728       -13.1357
  25   2.0000      -0.475619       -12.9423
  26   2.0000      -0.455077       -12.3833
  27   2.0000      -0.436980       -11.8908
  28   2.0000      -0.426038       -11.5931
  29   2.0000      -0.417931       -11.3725
  30   2.0000      -0.402879       -10.9629
  31   2.0000      -0.382537       -10.4093
  32   2.0000      -0.373454       -10.1622
  33   2.0000      -0.366615        -9.9761
  34   2.0000      -0.356122        -9.6906
  35   2.0000      -0.353390        -9.6162
  36   2.0000      -0.341653        -9.2969
  37   2.0000      -0.327480        -8.9112
  38   2.0000      -0.301704        -8.2098
  39   2.0000      -0.294756        -8.0207
  40   2.0000      -0.268879        -7.3166
  41   2.0000      -0.251678        -6.8485
  42   2.0000      -0.230969        -6.2850
  43   0.0000       0.080916         2.2018
  44   0.0000       0.098688         2.6854
  45   0.0000       0.104049         2.8313
  46   0.0000       0.109274         2.9735
  47   0.0000       0.118392         3.2216

MULLIKEN ATOMIC CHARGES
-----------------------
   0 C :    0.280325
   1 C :   -0.259093
   2 C :   -0.299304
   3 C :   -0.002736
   4 O :   -0.513999
   5 H :    0.139237
   6 H :    0.143512
   7 H :    0.157019
   8 H :    0.140489
   9 H :    0.167530
  10 H :    0.146748
  11 H :    0.141792
  12 C :    0.007176
  13 H :    0.123981
  14 C :    0.051646
  15 C :   -0.289686
  16 C :    0.006184
  17 O :   -0.519822
  18 H :    0.163583
  19 O :   -0.509634
  20 H :    0.152246
  21 H :    0.147270
  22 H :    0.141718
  23 H :    0.133234
  24 H :    0.150584
Sum of atomic charges:   -0.0000000

LOEWDIN ATOMIC CHARGES
----------------------
   0 C :    0.169746
   1 C :   -0.214612
   2 C :   -0.215901
   3 C :   -0.027428
   4 O :   -0.332985
   5 H :    0.094823
   6 H :    0.113192
   7 H :    0.124257
   8 H :    0.113199
   9 H :    0.121688
  10 H :    0.105202
  11 H :    0.102279
  12 C :   -0.033876
  13 H :    0.091551
  14 C :    0.033979
  15 C :   -0.234274
  16 C :   -0.027720
  17 O :   -0.329443
  18 H :    0.121137
  19 O :   -0.320229
  20 H :    0.110286
  21 H :    0.118483
  22 H :    0.112502
  23 H :    0.097365
  24 H :    0.106778

  Mayer bond orders larger than 0.100000
B(  0-C ,  1-C ) :   0.9490 B(  0-C ,  4-O ) :   0.9031 B(  0-C ,  5-H ) :   0.9183
B(  0-C , 19-O ) :   0.8697 B(  1-C ,  2-C ) :   0.9567 B(  1-C ,  6-H ) :   0.9405
B(  1-C ,  7-H ) :   0.9362 B(  2-C ,  3-C ) :   0.9555 B(  2-C ,  8-H ) :   0.9452
B(  2-C ,  9-H ) :   0.9431 B(  3-C ,  4-O ) :   0.8359 B(  3-C , 10-H ) :   0.9358
B(  3-C , 11-H ) :   0.9405 B( 12-C , 13-H ) :   0.9148 B( 12-C , 14-C ) :   0.9360
B( 12-C , 17-O ) :   0.8709 B( 12-C , 18-H ) :   0.9320 B( 14-C , 15-C ) :   0.9385
B( 14-C , 19-O ) :   0.8226 B( 14-C , 20-H ) :   0.9158 B( 15-C , 16-C ) :   0.9449
B( 15-C , 21-H ) :   0.9409 B( 15-C , 22-H ) :   0.9376 B( 16-C , 17-O ) :   0.8582
B( 16-C , 23-H ) :   0.9335 B( 16-C , 24-H ) :   0.9364

FINAL SINGLE POINT ENERGY      -538.438004235038

DIPOLE MOMENT
-------------
                                X             Y             Z
Electronic contribution:     -1.41734      -1.12342       1.00347
Nuclear contribution   :      2.15690       0.91514      -1.39930
                        -----------------------------------------
Total Dipole Moment    :      0.73957      -0.20828      -0.39583
                        -----------------------------------------
Magnitude (a.u.)       :      0.86430
Magnitude (Debye)      :      2.19689

Rotational constants in cm-1:     0.081971     0.019987     0.019592
Rotational constants in MHz :  2457.435871   599.191408   587.340777

                             ****ORCA TERMINATED NORMALLY****
TOTAL RUN TIME: 0 days 0 hours 5 minutes 47 seconds 276 msec
