                         Program Version 4.2.0 -  RELEASE  -
|  1> # Test redundant internal optimization
|  2> #
|  3> ! RKS B3LYP  Opt TightSCF SmallPrint
|  4>
|  5> %basis
|  6>         Basis "6-31G"
|  7> end
|  8>
|  9> %geom
| 10> Constraints
| 11> { D 4  0  15  12  0.0   C } # D for Dihedral angle
| 12> { D 0  15  12  16  165.0   C } # D for Dihedral angle
| 13> { D 0  4  3  2   C } # D for Dihedral angle
| 14> { D 4  3  2  1   C } # D for Dihedral angle
| 15> { D 3  2  1  0   C } # D for Dihedral angle
| 16> { D 2  1  0  4   C } # D for Dihedral angle
| 17> { D 1  0  4  3   C } # D for Dihedral angle
| 18> { D 16  20  19  18   C } # D for Dihedral angle
| 19> { D 20  19  18  17   C } # D for Dihedral angle
| 20> { D 19  18  17  16   C } # D for Dihedral angle
| 21> { D 18  17  16  20   C } # D for Dihedral angle
| 22> { D 17  16  20  19   C } # D for Dihedral angle
| 23> { D 15  12  16  20   C } # D for Dihedral angle
| 24> end
| 25> end
| 26>
| 27>
| 28> #%pal
| 29> #nprocs 8
| 30> #end
| 31>
| 32> * xyz 0 1
| 33> C  -21.048   26.222   46.251
| 34> C  -20.361   27.558   45.944
| 35> C  -20.329   28.222   47.341
| 36> C  -20.110   27.022   48.296
| 37> O  -20.473   25.807   47.535
| 38> H  -20.833   25.428   45.533
| 39> H  -19.344   27.382   45.576
| 40> H  -20.898   28.157   45.201
| 41> H  -19.543   28.978   47.434
| 42> H  -21.289   28.710   47.548
| 43> H  -20.733   27.082   49.195
| 44> H  -19.064   26.913   48.597
| 45> C  -23.172   26.101   47.783
| 46> H  -23.182   25.017   47.953
| 47> H  -22.551   26.564   48.561
| 48> O  -22.586   26.394   46.375
| 49> C  -24.621   26.635   47.954
| 50> C  -25.124   26.432   49.388
| 51> C  -24.439   27.605   50.129
| 52> C  -24.440   28.737   49.073
| 53> O  -24.657   28.089   47.762
| 54> H  -25.258   26.194   47.185
| 55> H  -26.214   26.536   49.423
| 56> O  -24.746   25.045   49.976
| 57> H  -24.963   27.890   51.048
| 58> H  -23.412   27.330   50.401
| 59> H  -23.493   29.288   49.048
| 60> H  -25.259   29.447   49.222
| 61> H  -23.658   24.918   49.952
| 62> *
| 63>
| 64>                          ****END OF INPUT****
 Total Charge           Charge          ....    0
 Multiplicity           Mult            ....    1
 Number of Electrons    NEL             ....  102
FINAL SINGLE POINT ENERGY      -652.824575826987
FINAL SINGLE POINT ENERGY      -652.848407517875
FINAL SINGLE POINT ENERGY      -652.853454529686
FINAL SINGLE POINT ENERGY      -652.854151005012
FINAL SINGLE POINT ENERGY      -652.854268203835
FINAL SINGLE POINT ENERGY      -652.854294362684
FINAL SINGLE POINT ENERGY      -652.854296758608
                    ***********************HURRAY********************

CARTESIAN COORDINATES (ANGSTROEM)
---------------------------------
  C    -21.101931   26.244851   46.306488
  C    -20.514500   27.609671   45.944790
  C    -20.255955   28.221324   47.340738
  C    -19.844044   26.999818   48.191864
  O    -20.313402   25.803812   47.437314
  H    -20.985604   25.477496   45.537192
  H    -19.577918   27.467666   45.392755
  H    -21.205071   28.200110   45.339476
  H    -19.483433   28.996249   47.327688
  H    -21.182415   28.667268   47.717859
  H    -20.296161   26.990557   49.188662
  H    -18.759395   26.896979   48.292836
  C    -23.045166   26.049539   47.887073
  H    -23.081527   24.962949   48.042546
  H    -22.415390   26.485158   48.672098
  O    -22.526514   26.364098   46.571338
  C    -24.457430   26.623987   47.950334
  C    -25.159817   26.422194   49.304825
  C    -24.595045   27.612592   50.137272
  C    -24.459250   28.732154   49.083321
  O    -24.481365   28.072159   47.752679
  H    -25.033519   26.204176   47.120907
  H    -26.238337   26.528615   49.171125
  O    -24.998030   25.118206   49.911127
  H    -25.251881   27.884010   50.967895
  H    -23.619198   27.332433   50.555877
  H    -23.530492   29.303512   49.185470
  H    -25.302742   29.429396   49.108767
  H    -24.084470   25.002023   50.243684

 Multiplicity           Mult            ....    1
 Number of Electrons    NEL             ....  102
 Basis Dimension        Dim             ....  149

ORBITAL ENERGIES
----------------

  NO   OCC          E(Eh)            E(eV)
   0   2.0000     -19.150097      -521.1006
   1   2.0000     -19.149647      -521.0884
   2   2.0000     -19.136649      -520.7347
   3   2.0000     -19.134306      -520.6709
   4   2.0000     -10.277057      -279.6529
   5   2.0000     -10.245059      -278.7822
   6   2.0000     -10.233981      -278.4808
   7   2.0000     -10.231643      -278.4171
   8   2.0000     -10.228564      -278.3334
   9   2.0000     -10.228253      -278.3249
  10   2.0000     -10.196116      -277.4504
  11   2.0000     -10.189720      -277.2764
  12   2.0000     -10.182557      -277.0815
  13   2.0000      -1.053878       -28.6775
  14   2.0000      -1.033099       -28.1121
  15   2.0000      -1.015165       -27.6241
  16   2.0000      -0.990439       -26.9512
  17   2.0000      -0.789995       -21.4969
  18   2.0000      -0.782473       -21.2922
  19   2.0000      -0.769723       -20.9452
  20   2.0000      -0.732912       -19.9436
  21   2.0000      -0.678820       -18.4716
  22   2.0000      -0.611462       -16.6387
  23   2.0000      -0.603434       -16.4203
  24   2.0000      -0.592023       -16.1098
  25   2.0000      -0.572577       -15.5806
  26   2.0000      -0.529823       -14.4172
  27   2.0000      -0.510274       -13.8853
  28   2.0000      -0.499541       -13.5932
  29   2.0000      -0.494076       -13.4445
  30   2.0000      -0.471490       -12.8299
  31   2.0000      -0.456301       -12.4166
  32   2.0000      -0.448933       -12.2161
  33   2.0000      -0.433740       -11.8027
  34   2.0000      -0.427563       -11.6346
  35   2.0000      -0.415396       -11.3035
  36   2.0000      -0.403407       -10.9773
  37   2.0000      -0.401707       -10.9310
  38   2.0000      -0.379556       -10.3283
  39   2.0000      -0.369361       -10.0508
  40   2.0000      -0.360434        -9.8079
  41   2.0000      -0.355412        -9.6712
  42   2.0000      -0.348017        -9.4700
  43   2.0000      -0.338789        -9.2189
  44   2.0000      -0.324107        -8.8194
  45   2.0000      -0.313327        -8.5261
  46   2.0000      -0.306598        -8.3430
  47   2.0000      -0.270775        -7.3682
  48   2.0000      -0.263160        -7.1609
  49   2.0000      -0.245595        -6.6830
  50   2.0000      -0.240671        -6.5490
  51   0.0000       0.046897         1.2761
  52   0.0000       0.057876         1.5749
  53   0.0000       0.089485         2.4350
  54   0.0000       0.093185         2.5357
  55   0.0000       0.105171         2.8618

MULLIKEN ATOMIC CHARGES
-----------------------
   0 C :    0.299453
   1 C :   -0.252710
   2 C :   -0.315195
   3 C :   -0.020720
   4 O :   -0.512943
   5 H :    0.156294
   6 H :    0.141872
   7 H :    0.169306
   8 H :    0.146496
   9 H :    0.166490
  10 H :    0.135400
  11 H :    0.152439
  12 C :    0.006276
  13 H :    0.140069
  14 H :    0.117440
  15 O :   -0.533142
  16 C :    0.091219
  17 C :    0.076398
  18 C :   -0.318504
  19 C :   -0.015230
  20 O :   -0.505440
  21 H :    0.167301
  22 H :    0.172751
  23 O :   -0.598711
  24 H :    0.157955
  25 H :    0.128314
  26 H :    0.138277
  27 H :    0.151508
  28 H :    0.357338
Sum of atomic charges:   -0.0000000

LOEWDIN ATOMIC CHARGES
----------------------
   0 C :    0.183715
   1 C :   -0.219162
   2 C :   -0.221573
   3 C :   -0.034995
   4 O :   -0.321903
   5 H :    0.104762
   6 H :    0.112246
   7 H :    0.130416
   8 H :    0.117119
   9 H :    0.118530
  10 H :    0.095719
  11 H :    0.107206
  12 C :   -0.042107
  13 H :    0.101370
  14 H :    0.087391
  15 O :   -0.329686
  16 C :    0.021404
  17 C :    0.034053
  18 C :   -0.241622
  19 C :   -0.032670
  20 O :   -0.314447
  21 H :    0.121311
  22 H :    0.121293
  23 O :   -0.406241
  24 H :    0.122746
  25 H :    0.101658
  26 H :    0.098370
  27 H :    0.106476
  28 H :    0.278620

  Mayer bond orders larger than 0.100000
B(  0-C ,  1-C ) :   0.9312 B(  0-C ,  4-O ) :   0.9060 B(  0-C ,  5-H ) :   0.9292
B(  0-C , 15-O ) :   0.8474 B(  1-C ,  2-C ) :   0.9524 B(  1-C ,  6-H ) :   0.9358
B(  1-C ,  7-H ) :   0.9341 B(  2-C ,  3-C ) :   0.9531 B(  2-C ,  8-H ) :   0.9444
B(  2-C ,  9-H ) :   0.9395 B(  3-C ,  4-O ) :   0.8335 B(  3-C , 10-H ) :   0.9300
B(  3-C , 11-H ) :   0.9396 B( 12-C , 13-H ) :   0.9080 B( 12-C , 14-H ) :   0.9121
B( 12-C , 15-O ) :   0.8366 B( 12-C , 16-C ) :   0.9019 B( 16-C , 17-C ) :   0.8753
B( 16-C , 20-O ) :   0.8656 B( 16-C , 21-H ) :   0.9276 B( 17-C , 18-C ) :   0.9220
B( 17-C , 22-H ) :   0.9323 B( 17-C , 23-O ) :   0.8999 B( 18-C , 19-C ) :   0.9386
B( 18-C , 24-H ) :   0.9418 B( 18-C , 25-H ) :   0.9414 B( 19-C , 20-O ) :   0.8545
B( 19-C , 26-H ) :   0.9297 B( 19-C , 27-H ) :   0.9374 B( 23-O , 28-H ) :   0.7970

FINAL SINGLE POINT ENERGY      -652.854297335226

DIPOLE MOMENT
-------------
                                X             Y             Z
Electronic contribution:     -2.97876      -4.30104      -2.67958
Nuclear contribution   :      3.79321       5.16977       3.58763
                        -----------------------------------------
Total Dipole Moment    :      0.81444       0.86873       0.90805
                        -----------------------------------------
Magnitude (a.u.)       :      1.49752
Magnitude (Debye)      :      3.80640

Rotational constants in cm-1:     0.045823     0.015532     0.014536
Rotational constants in MHz :  1373.730983   465.651609   435.765528

                             ****ORCA TERMINATED NORMALLY****
TOTAL RUN TIME: 0 days 1 hours 15 minutes 52 seconds 175 msec
