                         Program Version 4.2.0 -  RELEASE  -
|  1> # Test redundant internal optimization
|  2> #
|  3> ! RKS B3LYP  Opt TightSCF SmallPrint
|  4>
|  5> %basis
|  6>         Basis "6-31G"
|  7> end
|  8>
|  9> %geom
| 10> Constraints
| 11> { D 4  0  15  12  60.0   C } # D for Dihedral angle
| 12> { D 0  15  12  16  240.0   C } # D for Dihedral angle
| 13> { D 0  4  3  2   C } # D for Dihedral angle
| 14> { D 4  3  2  1   C } # D for Dihedral angle
| 15> { D 3  2  1  0   C } # D for Dihedral angle
| 16> { D 2  1  0  4   C } # D for Dihedral angle
| 17> { D 1  0  4  3   C } # D for Dihedral angle
| 18> { D 16  20  19  18   C } # D for Dihedral angle
| 19> { D 20  19  18  17   C } # D for Dihedral angle
| 20> { D 19  18  17  16   C } # D for Dihedral angle
| 21> { D 18  17  16  20   C } # D for Dihedral angle
| 22> { D 17  16  20  19   C } # D for Dihedral angle
| 23> { D 15  12  16  20   C } # D for Dihedral angle
| 24> end
| 25> end
| 26>
| 27>
| 28> #%pal
| 29> #nprocs 8
| 30> #end
| 31>
| 32> * xyz 0 1
| 33> C  -21.048   26.222   46.251
| 34> C  -20.361   27.558   45.944
| 35> C  -20.329   28.222   47.341
| 36> C  -20.110   27.022   48.296
| 37> O  -20.473   25.807   47.535
| 38> H  -20.833   25.428   45.533
| 39> H  -19.344   27.382   45.576
| 40> H  -20.898   28.157   45.201
| 41> H  -19.543   28.978   47.434
| 42> H  -21.289   28.710   47.548
| 43> H  -20.733   27.082   49.195
| 44> H  -19.064   26.913   48.597
| 45> C  -23.051   27.452   47.413
| 46> H  -22.171   27.909   47.883
| 47> H  -23.628   28.245   46.921
| 48> O  -22.586   26.394   46.375
| 49> C  -23.941   26.844   48.533
| 50> C  -24.475   27.931   49.471
| 51> C  -25.645   28.513   48.643
| 52> C  -26.205   27.272   47.905
| 53> O  -25.147   26.240   47.957
| 54> H  -23.390   26.045   49.033
| 55> O  -24.999   27.291   50.786
| 56> H  -23.722   28.684   49.730
| 57> H  -26.401   29.005   49.264
| 58> H  -25.268   29.252   47.926
| 59> H  -26.449   27.482   46.857
| 60> H  -27.087   26.855   48.398
| 61> H  -25.755   26.534   50.551
| 62> *
| 63>
| 64>                          ****END OF INPUT****
 Total Charge           Charge          ....    0
 Multiplicity           Mult            ....    1
 Number of Electrons    NEL             ....  102
FINAL SINGLE POINT ENERGY      -652.795790685402
FINAL SINGLE POINT ENERGY      -652.830560416913
FINAL SINGLE POINT ENERGY      -652.848520332157
FINAL SINGLE POINT ENERGY      -652.851890690341
FINAL SINGLE POINT ENERGY      -652.852417425037
FINAL SINGLE POINT ENERGY      -652.852508296094
FINAL SINGLE POINT ENERGY      -652.852518687126
FINAL SINGLE POINT ENERGY      -652.852518977788
                    ***********************HURRAY********************

CARTESIAN COORDINATES (ANGSTROEM)
---------------------------------
  C    -21.198989   26.357513   46.447273
  C    -20.286796   27.475640   45.917702
  C    -19.879092   28.211695   47.229022
  C    -19.785645   27.048664   48.250862
  O    -20.534933   25.914170   47.656382
  H    -21.215544   25.489544   45.786138
  H    -19.412590   27.017941   45.443698
  H    -20.788852   28.119177   45.190733
  H    -18.923524   28.736613   47.129640
  H    -20.629017   28.953935   47.514040
  H    -20.218754   27.291446   49.226280
  H    -18.756088   26.708942   48.395694
  C    -23.131352   27.623448   47.504374
  H    -22.340415   28.133222   48.061833
  H    -23.672511   28.365420   46.905454
  O    -22.605298   26.624261   46.586287
  C    -24.059869   26.937817   48.508500
  C    -24.717927   27.903388   49.504238
  C    -25.918878   28.439838   48.679470
  C    -26.340385   27.208701   47.839675
  O    -25.189909   26.274284   47.854756
  H    -23.493330   26.153063   49.018015
  O    -25.158987   27.197691   50.696406
  H    -24.056809   28.693315   49.864824
  H    -26.710099   28.800394   49.341190
  H    -25.598763   29.269540   48.038294
  H    -26.578300   27.463539   46.802704
  H    -27.194050   26.678097   48.272770
  H    -25.548298   26.337702   50.430747

 Multiplicity           Mult            ....    1
 Number of Electrons    NEL             ....  102
 Basis Dimension        Dim             ....  149

ORBITAL ENERGIES
----------------

  NO   OCC          E(Eh)            E(eV)
   0   2.0000     -19.143300      -520.9157
   1   2.0000     -19.141359      -520.8629
   2   2.0000     -19.137944      -520.7699
   3   2.0000     -19.137722      -520.7639
   4   2.0000     -10.277828      -279.6739
   5   2.0000     -10.242541      -278.7137
   6   2.0000     -10.234498      -278.4949
   7   2.0000     -10.232031      -278.4277
   8   2.0000     -10.230731      -278.3923
   9   2.0000     -10.228013      -278.3184
  10   2.0000     -10.196303      -277.4555
  11   2.0000     -10.191563      -277.3265
  12   2.0000     -10.189464      -277.2694
  13   2.0000      -1.052122       -28.6297
  14   2.0000      -1.034410       -28.1477
  15   2.0000      -1.005176       -27.3522
  16   2.0000      -0.994344       -27.0575
  17   2.0000      -0.790667       -21.5151
  18   2.0000      -0.785306       -21.3693
  19   2.0000      -0.770007       -20.9529
  20   2.0000      -0.733935       -19.9714
  21   2.0000      -0.678927       -18.4745
  22   2.0000      -0.606741       -16.5103
  23   2.0000      -0.604916       -16.4606
  24   2.0000      -0.599686       -16.3183
  25   2.0000      -0.574897       -15.6437
  26   2.0000      -0.521501       -14.1908
  27   2.0000      -0.516567       -14.0565
  28   2.0000      -0.502453       -13.6725
  29   2.0000      -0.489235       -13.3128
  30   2.0000      -0.474431       -12.9099
  31   2.0000      -0.462233       -12.5780
  32   2.0000      -0.448285       -12.1985
  33   2.0000      -0.440343       -11.9823
  34   2.0000      -0.424966       -11.5639
  35   2.0000      -0.419994       -11.4286
  36   2.0000      -0.403037       -10.9672
  37   2.0000      -0.392192       -10.6721
  38   2.0000      -0.382750       -10.4151
  39   2.0000      -0.372378       -10.1329
  40   2.0000      -0.363422        -9.8892
  41   2.0000      -0.360383        -9.8065
  42   2.0000      -0.348794        -9.4912
  43   2.0000      -0.331016        -9.0074
  44   2.0000      -0.317250        -8.6328
  45   2.0000      -0.311588        -8.4787
  46   2.0000      -0.298542        -8.1237
  47   2.0000      -0.269671        -7.3381
  48   2.0000      -0.267887        -7.2896
  49   2.0000      -0.255838        -6.9617
  50   2.0000      -0.236860        -6.4453
  51   0.0000       0.062999         1.7143
  52   0.0000       0.075357         2.0506
  53   0.0000       0.083725         2.2783
  54   0.0000       0.097358         2.6492
  55   0.0000       0.099992         2.7209

MULLIKEN ATOMIC CHARGES
-----------------------
   0 C :    0.294361
   1 C :   -0.269888
   2 C :   -0.318879
   3 C :   -0.014120
   4 O :   -0.505630
   5 H :    0.169756
   6 H :    0.155475
   7 H :    0.150132
   8 H :    0.146573
   9 H :    0.147476
  10 H :    0.144504
  11 H :    0.150158
  12 C :   -0.012036
  13 H :    0.125501
  14 H :    0.139236
  15 O :   -0.505266
  16 C :    0.075378
  17 C :    0.074889
  18 C :   -0.293428
  19 C :   -0.028128
  20 O :   -0.507890
  21 H :    0.176473
  22 O :   -0.602904
  23 H :    0.145120
  24 H :    0.162956
  25 H :    0.138055
  26 H :    0.149026
  27 H :    0.145543
  28 H :    0.367558
Sum of atomic charges:   -0.0000000

LOEWDIN ATOMIC CHARGES
----------------------
   0 C :    0.174319
   1 C :   -0.228359
   2 C :   -0.225581
   3 C :   -0.036114
   4 O :   -0.323317
   5 H :    0.115177
   6 H :    0.121605
   7 H :    0.119579
   8 H :    0.116200
   9 H :    0.106874
  10 H :    0.101387
  11 H :    0.106405
  12 C :   -0.043002
  13 H :    0.098811
  14 H :    0.103129
  15 O :   -0.307163
  16 C :    0.013730
  17 C :    0.033131
  18 C :   -0.240954
  19 C :   -0.037922
  20 O :   -0.318727
  21 H :    0.124830
  22 O :   -0.414958
  23 H :    0.111532
  24 H :    0.126713
  25 H :    0.109915
  26 H :    0.105531
  27 H :    0.102367
  28 H :    0.284862

  Mayer bond orders larger than 0.100000
B(  0-C ,  1-C ) :   0.9135 B(  0-C ,  4-O ) :   0.8927 B(  0-C ,  5-H ) :   0.9354
B(  0-C , 15-O ) :   0.9128 B(  1-C ,  2-C ) :   0.9543 B(  1-C ,  6-H ) :   0.9351
B(  1-C ,  7-H ) :   0.9381 B(  2-C ,  3-C ) :   0.9452 B(  2-C ,  8-H ) :   0.9446
B(  2-C ,  9-H ) :   0.9400 B(  3-C ,  4-O ) :   0.8478 B(  3-C , 10-H ) :   0.9327
B(  3-C , 11-H ) :   0.9382 B( 12-C , 13-H ) :   0.9030 B( 12-C , 14-H ) :   0.9335
B( 12-C , 15-O ) :   0.8435 B( 12-C , 16-C ) :   0.8868 B( 16-C , 17-C ) :   0.8969
B( 16-C , 20-O ) :   0.8661 B( 16-C , 21-H ) :   0.9224 B( 17-C , 18-C ) :   0.9107
B( 17-C , 22-O ) :   0.8938 B( 17-C , 23-H ) :   0.9335 B( 18-C , 19-C ) :   0.9395
B( 18-C , 24-H ) :   0.9376 B( 18-C , 25-H ) :   0.9349 B( 19-C , 20-O ) :   0.8529
B( 19-C , 26-H ) :   0.9337 B( 19-C , 27-H ) :   0.9381 B( 22-O , 28-H ) :   0.7923

FINAL SINGLE POINT ENERGY      -652.852517250805

DIPOLE MOMENT
-------------
                                X             Y             Z
Electronic contribution:     -2.27580      -5.71925       0.77810
Nuclear contribution   :      2.72386       7.23016      -1.17800
                        -----------------------------------------
Total Dipole Moment    :      0.44807       1.51090      -0.39990
                        -----------------------------------------
Magnitude (a.u.)       :      1.62589
Magnitude (Debye)      :      4.13268

Rotational constants in cm-1:     0.054399     0.013304     0.012428
Rotational constants in MHz :  1630.838410   398.849349   372.579939

                             ****ORCA TERMINATED NORMALLY****
TOTAL RUN TIME: 0 days 0 hours 26 minutes 12 seconds 457 msec
