                         Program Version 4.2.0 -  RELEASE  -
|  1> # Test redundant internal optimization
|  2> #
|  3> ! RKS B3LYP  Opt TightSCF SmallPrint
|  4>
|  5> %basis
|  6>         Basis "6-31G"
|  7> end
|  8>
|  9> %geom
| 10> Constraints
| 11> { D 4  0  15  12  90.0   C } # D for Dihedral angle
| 12> { D 0  15  12  16  45.0   C } # D for Dihedral angle
| 13> { D 0  4  3  2   C } # D for Dihedral angle
| 14> { D 4  3  2  1   C } # D for Dihedral angle
| 15> { D 3  2  1  0   C } # D for Dihedral angle
| 16> { D 2  1  0  4   C } # D for Dihedral angle
| 17> { D 1  0  4  3   C } # D for Dihedral angle
| 18> { D 16  20  19  18   C } # D for Dihedral angle
| 19> { D 20  19  18  17   C } # D for Dihedral angle
| 20> { D 19  18  17  16   C } # D for Dihedral angle
| 21> { D 18  17  16  20   C } # D for Dihedral angle
| 22> { D 17  16  20  19   C } # D for Dihedral angle
| 23> { D 15  12  16  20   C } # D for Dihedral angle
| 24> end
| 25> end
| 26>
| 27>
| 28> #%pal
| 29> #nprocs 8
| 30> #end
| 31>
| 32> * xyz 0 1
| 33> C  -21.048   26.222   46.251
| 34> C  -20.361   27.558   45.944
| 35> C  -20.329   28.222   47.341
| 36> C  -20.110   27.022   48.296
| 37> O  -20.473   25.807   47.535
| 38> H  -20.833   25.428   45.533
| 39> H  -19.344   27.382   45.576
| 40> H  -20.898   28.157   45.201
| 41> H  -19.543   28.978   47.434
| 42> H  -21.289   28.710   47.548
| 43> H  -20.733   27.082   49.195
| 44> H  -19.064   26.913   48.597
| 45> C  -23.061   27.816   46.783
| 46> H  -24.138   27.906   46.593
| 47> H  -22.886   27.986   47.853
| 48> O  -22.586   26.394   46.375
| 49> C  -22.330   28.941   46.000
| 50> C  -22.658   28.881   44.504
| 51> C  -24.055   29.546   44.462
| 52> C  -23.960   30.631   45.564
| 53> O  -22.816   30.259   46.423
| 54> H  -21.264   28.903   46.231
| 55> H  -21.931   29.472   43.935
| 56> O  -22.663   27.434   43.937
| 57> H  -24.294   29.968   43.481
| 58> H  -24.829   28.810   44.708
| 59> H  -24.866   30.685   46.177
| 60> H  -23.749   31.623   45.157
| 61> H  -23.384   26.824   44.492
| 62> *
| 63>
| 64>                          ****END OF INPUT****
 Total Charge           Charge          ....    0
 Multiplicity           Mult            ....    1
 Number of Electrons    NEL             ....  102
FINAL SINGLE POINT ENERGY      -652.700069719167
FINAL SINGLE POINT ENERGY      -652.813298498667
FINAL SINGLE POINT ENERGY      -652.837875084415
FINAL SINGLE POINT ENERGY      -652.845279801753
FINAL SINGLE POINT ENERGY      -652.846463580955
FINAL SINGLE POINT ENERGY      -652.846798350469
FINAL SINGLE POINT ENERGY      -652.846903796528
FINAL SINGLE POINT ENERGY      -652.846920276309
FINAL SINGLE POINT ENERGY      -652.846916356379
FINAL SINGLE POINT ENERGY      -652.846915699966
                    ***********************HURRAY********************

CARTESIAN COORDINATES (ANGSTROEM)
---------------------------------
  C    -21.181669   26.240821   46.494200
  C    -20.061242   27.161245   45.991465
  C    -19.677625   27.949289   47.281327
  C    -19.869874   26.878202   48.385636
  O    -20.718486   25.823115   47.792067
  H    -21.276752   25.324969   45.909976
  H    -19.227206   26.521005   45.684726
  H    -20.354873   27.775931   45.140193
  H    -18.650011   28.322886   47.246691
  H    -20.333983   28.803565   47.452805
  H    -20.360858   27.268044   49.282192
  H    -18.928051   26.402775   48.674705
  C    -23.193670   28.001309   46.736540
  H    -24.225693   27.837363   46.417666
  H    -23.210047   28.209644   47.813950
  O    -22.574112   26.685817   46.513779
  C    -22.620621   29.250730   46.041851
  C    -22.752967   29.223710   44.507868
  C    -24.261488   29.571386   44.312363
  C    -24.536058   30.568236   45.458120
  O    -23.434114   30.394601   46.449148
  H    -21.609157   29.475117   46.366589
  H    -22.125127   29.997966   44.061019
  O    -22.347156   27.986438   43.877744
  H    -24.454901   29.996468   43.324325
  H    -24.858886   28.658143   44.407223
  H    -25.491903   30.397860   45.962736
  H    -24.493732   31.609362   45.126020
  H    -22.664740   27.224004   44.413078

 Multiplicity           Mult            ....    1
 Number of Electrons    NEL             ....  102
 Basis Dimension        Dim             ....  149

ORBITAL ENERGIES
----------------

  NO   OCC          E(Eh)            E(eV)
   0   2.0000     -19.150236      -521.1044
   1   2.0000     -19.149709      -521.0901
   2   2.0000     -19.142887      -520.9044
   3   2.0000     -19.141600      -520.8694
   4   2.0000     -10.285210      -279.8748
   5   2.0000     -10.245269      -278.7880
   6   2.0000     -10.240941      -278.6702
   7   2.0000     -10.239429      -278.6290
   8   2.0000     -10.235465      -278.5212
   9   2.0000     -10.228565      -278.3334
  10   2.0000     -10.193448      -277.3778
  11   2.0000     -10.192402      -277.3493
  12   2.0000     -10.189285      -277.2646
  13   2.0000      -1.051065       -28.6009
  14   2.0000      -1.036194       -28.1963
  15   2.0000      -1.017051       -27.6754
  16   2.0000      -0.994824       -27.0705
  17   2.0000      -0.788839       -21.4654
  18   2.0000      -0.783812       -21.3286
  19   2.0000      -0.775207       -21.0945
  20   2.0000      -0.739294       -20.1172
  21   2.0000      -0.687260       -18.7013
  22   2.0000      -0.612180       -16.6583
  23   2.0000      -0.608707       -16.5638
  24   2.0000      -0.605083       -16.4652
  25   2.0000      -0.574030       -15.6201
  26   2.0000      -0.536994       -14.6123
  27   2.0000      -0.508056       -13.8249
  28   2.0000      -0.503858       -13.7107
  29   2.0000      -0.488932       -13.3045
  30   2.0000      -0.473794       -12.8926
  31   2.0000      -0.459947       -12.5158
  32   2.0000      -0.450783       -12.2664
  33   2.0000      -0.437853       -11.9146
  34   2.0000      -0.426654       -11.6098
  35   2.0000      -0.419045       -11.4028
  36   2.0000      -0.417067       -11.3490
  37   2.0000      -0.405046       -11.0219
  38   2.0000      -0.388189       -10.5632
  39   2.0000      -0.376795       -10.2531
  40   2.0000      -0.362750        -9.8709
  41   2.0000      -0.354939        -9.6584
  42   2.0000      -0.352296        -9.5865
  43   2.0000      -0.345248        -9.3947
  44   2.0000      -0.316557        -8.6140
  45   2.0000      -0.313164        -8.5216
  46   2.0000      -0.300229        -8.1696
  47   2.0000      -0.278257        -7.5718
  48   2.0000      -0.267019        -7.2660
  49   2.0000      -0.255878        -6.9628
  50   2.0000      -0.246637        -6.7113
  51   0.0000       0.052614         1.4317
  52   0.0000       0.069750         1.8980
  53   0.0000       0.082181         2.2363
  54   0.0000       0.092201         2.5089
  55   0.0000       0.104787         2.8514

MULLIKEN ATOMIC CHARGES
-----------------------
   0 C :    0.311952
   1 C :   -0.307413
   2 C :   -0.319011
   3 C :   -0.009144
   4 O :   -0.501242
   5 H :    0.168613
   6 H :    0.157996
   7 H :    0.179177
   8 H :    0.147357
   9 H :    0.153777
  10 H :    0.146858
  11 H :    0.147695
  12 C :   -0.025552
  13 H :    0.160407
  14 H :    0.162728
  15 O :   -0.555860
  16 C :    0.042479
  17 C :    0.104354
  18 C :   -0.310373
  19 C :   -0.016691
  20 O :   -0.519821
  21 H :    0.160022
  22 H :    0.159350
  23 O :   -0.616867
  24 H :    0.154826
  25 H :    0.147664
  26 H :    0.146451
  27 H :    0.153008
  28 H :    0.377260
Sum of atomic charges:    0.0000000

LOEWDIN ATOMIC CHARGES
----------------------
   0 C :    0.180864
   1 C :   -0.239880
   2 C :   -0.224876
   3 C :   -0.031704
   4 O :   -0.313471
   5 H :    0.113522
   6 H :    0.125465
   7 H :    0.130426
   8 H :    0.117624
   9 H :    0.108701
  10 H :    0.103825
  11 H :    0.104347
  12 C :   -0.048956
  13 H :    0.115005
  14 H :    0.112650
  15 O :   -0.345105
  16 C :    0.001116
  17 C :    0.035723
  18 C :   -0.237880
  19 C :   -0.031208
  20 O :   -0.319904
  21 H :    0.113291
  22 H :    0.114218
  23 O :   -0.414212
  24 H :    0.123359
  25 H :    0.111978
  26 H :    0.104313
  27 H :    0.108013
  28 H :    0.282756

  Mayer bond orders larger than 0.100000
B(  0-C ,  1-C ) :   0.9221 B(  0-C ,  4-O ) :   0.9172 B(  0-C ,  5-H ) :   0.9345
B(  0-C , 15-O ) :   0.8474 B(  1-C ,  2-C ) :   0.9515 B(  1-C ,  6-H ) :   0.9308
B(  1-C ,  7-H ) :   0.9052 B(  2-C ,  3-C ) :   0.9441 B(  2-C ,  8-H ) :   0.9454
B(  2-C ,  9-H ) :   0.9254 B(  3-C ,  4-O ) :   0.8428 B(  3-C , 10-H ) :   0.9352
B(  3-C , 11-H ) :   0.9386 B( 12-C , 13-H ) :   0.9343 B( 12-C , 14-H ) :   0.9228
B( 12-C , 15-O ) :   0.8147 B( 12-C , 16-C ) :   0.8794 B( 16-C , 17-C ) :   0.8952
B( 16-C , 20-O ) :   0.8399 B( 16-C , 21-H ) :   0.9102 B( 17-C , 18-C ) :   0.9109
B( 17-C , 22-H ) :   0.9342 B( 17-C , 23-O ) :   0.9030 B( 18-C , 19-C ) :   0.9371
B( 18-C , 24-H ) :   0.9441 B( 18-C , 25-H ) :   0.9417 B( 19-C , 20-O ) :   0.8317
B( 19-C , 26-H ) :   0.9334 B( 19-C , 27-H ) :   0.9382 B( 23-O , 28-H ) :   0.7504

FINAL SINGLE POINT ENERGY      -652.846916130225

DIPOLE MOMENT
-------------
                                X             Y             Z
Electronic contribution:     -1.17040      -2.87270       0.60966
Nuclear contribution   :      1.28094       3.66450      -0.86324
                        -----------------------------------------
Total Dipole Moment    :      0.11054       0.79180      -0.25358
                        -----------------------------------------
Magnitude (a.u.)       :      0.83873
Magnitude (Debye)      :      2.13188

Rotational constants in cm-1:     0.052682     0.015850     0.014927
Rotational constants in MHz :  1579.377646   475.179839   447.500795

                             ****ORCA TERMINATED NORMALLY****
TOTAL RUN TIME: 0 days 0 hours 40 minutes 6 seconds 835 msec
