                         Program Version 4.2.0 -  RELEASE  -
|  1> # Test redundant internal optimization
|  2> #
|  3> ! RKS B3LYP  Opt TightSCF SmallPrint
|  4>
|  5> %basis
|  6>         Basis "6-31G"
|  7> end
|  8>
|  9> %geom
| 10> Constraints
| 11> { D 4  0  15  12  195.0   C } # D for Dihedral angle
| 12> { D 0  15  12  16  135.0   C } # D for Dihedral angle
| 13> { D 0  4  3  2   C } # D for Dihedral angle
| 14> { D 4  3  2  1   C } # D for Dihedral angle
| 15> { D 3  2  1  0   C } # D for Dihedral angle
| 16> { D 2  1  0  4   C } # D for Dihedral angle
| 17> { D 1  0  4  3   C } # D for Dihedral angle
| 18> { D 16  20  19  18   C } # D for Dihedral angle
| 19> { D 20  19  18  17   C } # D for Dihedral angle
| 20> { D 19  18  17  16   C } # D for Dihedral angle
| 21> { D 18  17  16  20   C } # D for Dihedral angle
| 22> { D 17  16  20  19   C } # D for Dihedral angle
| 23> { D 15  12  16  20   C } # D for Dihedral angle
| 24> end
| 25> end
| 26>
| 27>
| 28> #%pal
| 29> #nprocs 8
| 30> #end
| 31>
| 32> * xyz 0 1
| 33> C  -21.048   26.222   46.251
| 34> C  -20.361   27.558   45.944
| 35> C  -20.329   28.222   47.341
| 36> C  -20.110   27.022   48.296
| 37> O  -20.473   25.807   47.535
| 38> H  -20.833   25.428   45.533
| 39> H  -19.344   27.382   45.576
| 40> H  -20.898   28.157   45.201
| 41> H  -19.543   28.978   47.434
| 42> H  -21.289   28.710   47.548
| 43> H  -20.733   27.082   49.195
| 44> H  -19.064   26.913   48.597
| 45> C  -23.353   26.472   45.026
| 46> H  -23.644   27.513   44.835
| 47> H  -22.712   26.138   44.200
| 48> O  -22.586   26.394   46.375
| 49> C  -24.635   25.595   45.013
| 50> C  -25.302   25.605   43.633
| 51> C  -24.421   24.601   42.852
| 52> C  -24.047   23.551   43.928
| 53> O  -24.296   24.187   45.240
| 54> H  -25.288   25.903   45.833
| 55> O  -26.762   25.085   43.742
| 56> H  -25.323   26.599   43.173
| 57> H  -24.941   24.156   41.997
| 58> H  -23.523   25.103   42.473
| 59> H  -22.996   23.248   43.870
| 60> H  -24.677   22.658   43.877
| 61> H  -26.765   24.090   44.201
| 62> *
| 63>
| 64>                          ****END OF INPUT****
 Total Charge           Charge          ....    0
 Multiplicity           Mult            ....    1
 Number of Electrons    NEL             ....  102
FINAL SINGLE POINT ENERGY      -652.829436120462
FINAL SINGLE POINT ENERGY      -652.852712482169
FINAL SINGLE POINT ENERGY      -652.856478325390
FINAL SINGLE POINT ENERGY      -652.857176230123
FINAL SINGLE POINT ENERGY      -652.857270204574
FINAL SINGLE POINT ENERGY      -652.857280746153
                    ***********************HURRAY********************

CARTESIAN COORDINATES (ANGSTROEM)
---------------------------------
  C    -21.070936   26.233308   46.151727
  C    -20.369293   27.573167   45.941585
  C    -20.446062   28.202081   47.354492
  C    -20.298580   26.977961   48.281803
  O    -20.605879   25.795472   47.433621
  H    -20.826363   25.451911   45.424266
  H    -19.327326   27.395676   45.648942
  H    -20.841472   28.191351   45.172151
  H    -19.668146   28.952427   47.523560
  H    -21.422377   28.675556   47.494945
  H    -20.991653   26.988615   49.126226
  H    -19.277307   26.841224   48.649356
  C    -23.210764   26.498668   44.957875
  H    -23.511481   27.541891   44.783772
  H    -22.548804   26.193356   44.133084
  O    -22.516114   26.390596   46.226234
  C    -24.448827   25.604105   44.999343
  C    -25.265228   25.587405   43.699241
  C    -24.484510   24.549948   42.850652
  C    -24.005124   23.523592   43.906867
  O    -24.101829   24.199375   45.224468
  H    -25.064872   25.905004   45.852065
  O    -26.631388   25.157977   43.949544
  H    -25.353208   26.561609   43.216067
  H    -25.133209   24.110049   42.088807
  H    -23.638583   25.029415   42.344876
  H    -22.972540   23.199164   43.746293
  H    -24.644287   22.636596   43.951252
  H    -26.619840   24.411501   44.585887

 Multiplicity           Mult            ....    1
 Number of Electrons    NEL             ....  102
 Basis Dimension        Dim             ....  149

ORBITAL ENERGIES
----------------

  NO   OCC          E(Eh)            E(eV)
   0   2.0000     -19.141049      -520.8544
   1   2.0000     -19.139374      -520.8088
   2   2.0000     -19.138173      -520.7762
   3   2.0000     -19.137887      -520.7684
   4   2.0000     -10.278291      -279.6865
   5   2.0000     -10.244259      -278.7605
   6   2.0000     -10.236164      -278.5402
   7   2.0000     -10.233659      -278.4720
   8   2.0000     -10.230603      -278.3889
   9   2.0000     -10.223030      -278.1828
  10   2.0000     -10.191558      -277.3264
  11   2.0000     -10.186617      -277.1919
  12   2.0000     -10.185805      -277.1698
  13   2.0000      -1.052578       -28.6421
  14   2.0000      -1.036443       -28.2030
  15   2.0000      -1.006966       -27.4009
  16   2.0000      -0.992438       -27.0056
  17   2.0000      -0.787884       -21.4394
  18   2.0000      -0.783445       -21.3186
  19   2.0000      -0.768415       -20.9096
  20   2.0000      -0.730606       -19.8808
  21   2.0000      -0.676537       -18.4095
  22   2.0000      -0.605053       -16.4643
  23   2.0000      -0.600868       -16.3504
  24   2.0000      -0.591342       -16.0912
  25   2.0000      -0.584196       -15.8968
  26   2.0000      -0.527084       -14.3427
  27   2.0000      -0.509226       -13.8567
  28   2.0000      -0.496796       -13.5185
  29   2.0000      -0.489734       -13.3263
  30   2.0000      -0.476915       -12.9775
  31   2.0000      -0.460079       -12.5194
  32   2.0000      -0.452280       -12.3072
  33   2.0000      -0.447115       -12.1666
  34   2.0000      -0.421733       -11.4759
  35   2.0000      -0.412626       -11.2281
  36   2.0000      -0.397598       -10.8192
  37   2.0000      -0.394967       -10.7476
  38   2.0000      -0.374425       -10.1886
  39   2.0000      -0.371960       -10.1216
  40   2.0000      -0.364684        -9.9236
  41   2.0000      -0.356335        -9.6964
  42   2.0000      -0.351269        -9.5585
  43   2.0000      -0.333663        -9.0794
  44   2.0000      -0.311809        -8.4847
  45   2.0000      -0.306774        -8.3477
  46   2.0000      -0.303597        -8.2613
  47   2.0000      -0.272062        -7.4032
  48   2.0000      -0.260717        -7.0945
  49   2.0000      -0.252384        -6.8677
  50   2.0000      -0.240312        -6.5392
  51   0.0000       0.061112         1.6629
  52   0.0000       0.082504         2.2450
  53   0.0000       0.083915         2.2835
  54   0.0000       0.098249         2.6735
  55   0.0000       0.107889         2.9358

MULLIKEN ATOMIC CHARGES
-----------------------
   0 C :    0.302417
   1 C :   -0.271853
   2 C :   -0.298562
   3 C :   -0.001016
   4 O :   -0.499493
   5 H :    0.140014
   6 H :    0.144043
   7 H :    0.139927
   8 H :    0.141621
   9 H :    0.159769
  10 H :    0.156518
  11 H :    0.140888
  12 C :   -0.009884
  13 H :    0.132555
  14 H :    0.119415
  15 O :   -0.498537
  16 C :    0.073480
  17 C :    0.074661
  18 C :   -0.290972
  19 C :   -0.033283
  20 O :   -0.505575
  21 H :    0.172781
  22 O :   -0.600160
  23 H :    0.148734
  24 H :    0.163744
  25 H :    0.137139
  26 H :    0.145610
  27 H :    0.149455
  28 H :    0.366567
Sum of atomic charges:    0.0000000

LOEWDIN ATOMIC CHARGES
----------------------
   0 C :    0.182279
   1 C :   -0.232247
   2 C :   -0.216919
   3 C :   -0.024671
   4 O :   -0.299890
   5 H :    0.096634
   6 H :    0.113477
   7 H :    0.112299
   8 H :    0.114107
   9 H :    0.118005
  10 H :    0.110593
  11 H :    0.102026
  12 C :   -0.043227
  13 H :    0.098317
  14 H :    0.091324
  15 O :   -0.325318
  16 C :    0.015187
  17 C :    0.034350
  18 C :   -0.240832
  19 C :   -0.039718
  20 O :   -0.317951
  21 H :    0.122589
  22 O :   -0.413457
  23 H :    0.113905
  24 H :    0.127162
  25 H :    0.109540
  26 H :    0.103795
  27 H :    0.104159
  28 H :    0.284482

  Mayer bond orders larger than 0.100000
B(  0-C ,  1-C ) :   0.9260 B(  0-C ,  4-O ) :   0.9426 B(  0-C ,  5-H ) :   0.9186
B(  0-C , 15-O ) :   0.8328 B(  1-C ,  2-C ) :   0.9534 B(  1-C ,  6-H ) :   0.9341
B(  1-C ,  7-H ) :   0.9369 B(  2-C ,  3-C ) :   0.9556 B(  2-C ,  8-H ) :   0.9451
B(  2-C ,  9-H ) :   0.9443 B(  3-C ,  4-O ) :   0.8360 B(  3-C , 10-H ) :   0.9341
B(  3-C , 11-H ) :   0.9397 B( 12-C , 13-H ) :   0.9154 B( 12-C , 14-H ) :   0.9159
B( 12-C , 15-O ) :   0.8535 B( 12-C , 16-C ) :   0.8936 B( 16-C , 17-C ) :   0.8972
B( 16-C , 20-O ) :   0.8670 B( 16-C , 21-H ) :   0.9232 B( 17-C , 18-C ) :   0.9098
B( 17-C , 22-O ) :   0.8960 B( 17-C , 23-H ) :   0.9332 B( 18-C , 19-C ) :   0.9391
B( 18-C , 24-H ) :   0.9375 B( 18-C , 25-H ) :   0.9351 B( 19-C , 20-O ) :   0.8544
B( 19-C , 26-H ) :   0.9344 B( 19-C , 27-H ) :   0.9372 B( 22-O , 28-H ) :   0.7928

FINAL SINGLE POINT ENERGY      -652.857282791237

DIPOLE MOMENT
-------------
                                X             Y             Z
Electronic contribution:     -3.56130      -3.40979       2.40514
Nuclear contribution   :      4.35949       4.17709      -3.40291
                        -----------------------------------------
Total Dipole Moment    :      0.79818       0.76729      -0.99777
                        -----------------------------------------
Magnitude (a.u.)       :      1.49043
Magnitude (Debye)      :      3.78837

Rotational constants in cm-1:     0.068527     0.011374     0.011016
Rotational constants in MHz :  2054.374229   340.987641   330.252367

                             ****ORCA TERMINATED NORMALLY****
TOTAL RUN TIME: 0 days 2 hours 14 minutes 31 seconds 336 msec
