                         Program Version 4.2.0 -  RELEASE  -
|  1> # Test redundant internal optimization
|  2> #
|  3> ! RKS B3LYP  Opt TightSCF SmallPrint
|  4>
|  5> %basis
|  6>         Basis "6-31G"
|  7> end
|  8>
|  9> %geom
| 10> Constraints
| 11> { D 4  0  15  12  135.0   C } # D for Dihedral angle
| 12> { D 0  15  12  16  90.0   C } # D for Dihedral angle
| 13> { D 0  4  3  2   C } # D for Dihedral angle
| 14> { D 4  3  2  1   C } # D for Dihedral angle
| 15> { D 3  2  1  0   C } # D for Dihedral angle
| 16> { D 2  1  0  4   C } # D for Dihedral angle
| 17> { D 1  0  4  3   C } # D for Dihedral angle
| 18> { D 16  20  19  18   C } # D for Dihedral angle
| 19> { D 20  19  18  17   C } # D for Dihedral angle
| 20> { D 19  18  17  16   C } # D for Dihedral angle
| 21> { D 18  17  16  20   C } # D for Dihedral angle
| 22> { D 17  16  20  19   C } # D for Dihedral angle
| 23> { D 15  12  16  20   C } # D for Dihedral angle
| 24> end
| 25> end
| 26>
| 27>
| 28> #%pal
| 29> #nprocs 8
| 30> #end
| 31>
| 32> * xyz 0 1
| 33> C  -21.048   26.222   46.251
| 34> C  -20.361   27.558   45.944
| 35> C  -20.329   28.222   47.341
| 36> C  -20.110   27.022   48.296
| 37> O  -20.473   25.807   47.535
| 38> H  -20.833   25.428   45.533
| 39> H  -19.344   27.382   45.576
| 40> H  -20.898   28.157   45.201
| 41> H  -19.543   28.978   47.434
| 42> H  -21.289   28.710   47.548
| 43> H  -20.733   27.082   49.195
| 44> H  -19.064   26.913   48.597
| 45> C  -23.162   27.680   45.721
| 46> H  -24.052   28.001   46.276
| 47> H  -22.424   28.492   45.755
| 48> O  -22.586   26.394   46.375
| 49> C  -23.563   27.469   44.234
| 50> C  -24.716   26.467   44.106
| 51> C  -25.936   27.345   44.471
| 52> C  -25.561   28.730   43.887
| 53> O  -24.099   28.711   43.667
| 54> H  -22.673   27.212   43.657
| 55> O  -24.822   25.963   42.640
| 56> H  -24.606   25.597   44.762
| 57> H  -26.875   26.959   44.060
| 58> H  -26.046   27.401   45.561
| 59> H  -25.811   29.553   44.565
| 60> H  -26.031   28.916   42.918
| 61> H  -24.933   26.818   41.963
| 62> *
| 63>
| 64>                          ****END OF INPUT****
 Total Charge           Charge          ....    0
 Multiplicity           Mult            ....    1
 Number of Electrons    NEL             ....  102
FINAL SINGLE POINT ENERGY      -652.825744283674
FINAL SINGLE POINT ENERGY      -652.848890500938
FINAL SINGLE POINT ENERGY      -652.854039275561
FINAL SINGLE POINT ENERGY      -652.856403160322
FINAL SINGLE POINT ENERGY      -652.856675267004
FINAL SINGLE POINT ENERGY      -652.856733771774
                    ***********************HURRAY********************

CARTESIAN COORDINATES (ANGSTROEM)
---------------------------------
  C    -21.147038   26.317341   46.223971
  C    -20.241817   27.514496   45.926719
  C    -20.161964   28.212139   47.310816
  C    -20.183325   27.017593   48.290942
  O    -20.709163   25.867203   47.517172
  H    -21.020932   25.468220   45.549499
  H    -19.258696   27.128583   45.636223
  H    -20.590115   28.169401   45.124261
  H    -19.259614   28.821677   47.416896
  H    -21.029153   28.862711   47.466462
  H    -20.828147   27.183798   49.157774
  H    -19.183623   26.735342   48.633166
  C    -23.188187   27.787021   45.731134
  H    -24.059523   27.987815   46.362192
  H    -22.534685   28.663994   45.776791
  O    -22.581612   26.592862   46.295900
  C    -23.612241   27.557152   44.278133
  C    -24.686374   26.478409   44.079838
  C    -25.977540   27.254398   44.438519
  C    -25.691627   28.684648   43.916111
  O    -24.219920   28.780540   43.738636
  H    -22.732754   27.342867   43.661052
  O    -24.698839   26.004658   42.704170
  H    -24.519619   25.595949   44.695701
  H    -26.849489   26.795484   43.966797
  H    -26.134143   27.249764   45.522660
  H    -26.017413   29.465385   44.610089
  H    -26.145899   28.874915   42.938805
  H    -24.657548   26.774635   42.098570

 Multiplicity           Mult            ....    1
 Number of Electrons    NEL             ....  102
 Basis Dimension        Dim             ....  149

ORBITAL ENERGIES
----------------

  NO   OCC          E(Eh)            E(eV)
   0   2.0000     -19.147208      -521.0220
   1   2.0000     -19.142496      -520.8938
   2   2.0000     -19.140004      -520.8260
   3   2.0000     -19.136074      -520.7190
   4   2.0000     -10.282091      -279.7899
   5   2.0000     -10.236472      -278.5486
   6   2.0000     -10.234099      -278.4840
   7   2.0000     -10.233971      -278.4805
   8   2.0000     -10.233838      -278.4769
   9   2.0000     -10.227833      -278.3135
  10   2.0000     -10.195541      -277.4348
  11   2.0000     -10.194520      -277.4070
  12   2.0000     -10.188627      -277.2466
  13   2.0000      -1.052049       -28.6277
  14   2.0000      -1.037192       -28.2234
  15   2.0000      -1.005562       -27.3627
  16   2.0000      -0.994483       -27.0612
  17   2.0000      -0.792019       -21.5519
  18   2.0000      -0.781624       -21.2691
  19   2.0000      -0.769682       -20.9441
  20   2.0000      -0.735995       -20.0274
  21   2.0000      -0.680915       -18.5286
  22   2.0000      -0.606148       -16.4941
  23   2.0000      -0.603725       -16.4282
  24   2.0000      -0.603207       -16.4141
  25   2.0000      -0.572127       -15.5684
  26   2.0000      -0.528766       -14.3885
  27   2.0000      -0.513340       -13.9687
  28   2.0000      -0.501600       -13.6492
  29   2.0000      -0.493696       -13.4341
  30   2.0000      -0.474617       -12.9150
  31   2.0000      -0.461174       -12.5492
  32   2.0000      -0.451317       -12.2809
  33   2.0000      -0.439909       -11.9705
  34   2.0000      -0.427505       -11.6330
  35   2.0000      -0.413067       -11.2401
  36   2.0000      -0.407148       -11.0791
  37   2.0000      -0.393460       -10.7066
  38   2.0000      -0.383745       -10.4422
  39   2.0000      -0.368868       -10.0374
  40   2.0000      -0.364223        -9.9110
  41   2.0000      -0.360480        -9.8091
  42   2.0000      -0.357980        -9.7411
  43   2.0000      -0.331745        -9.0273
  44   2.0000      -0.316715        -8.6183
  45   2.0000      -0.308750        -8.4015
  46   2.0000      -0.295773        -8.0484
  47   2.0000      -0.277762        -7.5583
  48   2.0000      -0.266578        -7.2540
  49   2.0000      -0.258154        -7.0247
  50   2.0000      -0.239907        -6.5282
  51   0.0000       0.062562         1.7024
  52   0.0000       0.071173         1.9367
  53   0.0000       0.090439         2.4610
  54   0.0000       0.096349         2.6218
  55   0.0000       0.102125         2.7790

MULLIKEN ATOMIC CHARGES
-----------------------
   0 C :    0.317195
   1 C :   -0.308340
   2 C :   -0.304047
   3 C :   -0.001798
   4 O :   -0.494686
   5 H :    0.158829
   6 H :    0.157998
   7 H :    0.152214
   8 H :    0.147211
   9 H :    0.153594
  10 H :    0.151573
  11 H :    0.144886
  12 C :   -0.025952
  13 H :    0.151379
  14 H :    0.143697
  15 O :   -0.525409
  16 C :    0.055824
  17 C :    0.090828
  18 C :   -0.304013
  19 C :   -0.029921
  20 O :   -0.528181
  21 H :    0.153315
  22 O :   -0.601941
  23 H :    0.179058
  24 H :    0.161420
  25 H :    0.151753
  26 H :    0.146562
  27 H :    0.146633
  28 H :    0.360322
Sum of atomic charges:    0.0000000

LOEWDIN ATOMIC CHARGES
----------------------
   0 C :    0.182125
   1 C :   -0.234308
   2 C :   -0.218856
   3 C :   -0.027772
   4 O :   -0.307483
   5 H :    0.106048
   6 H :    0.123572
   7 H :    0.117188
   8 H :    0.116933
   9 H :    0.111433
  10 H :    0.107688
  11 H :    0.104164
  12 C :   -0.043731
  13 H :    0.110396
  14 H :    0.102787
  15 O :   -0.333111
  16 C :    0.003747
  17 C :    0.037748
  18 C :   -0.241771
  19 C :   -0.037767
  20 O :   -0.333850
  21 H :    0.109634
  22 O :   -0.414365
  23 H :    0.129246
  24 H :    0.126899
  25 H :    0.116673
  26 H :    0.103983
  27 H :    0.102577
  28 H :    0.280174

  Mayer bond orders larger than 0.100000
B(  0-C ,  1-C ) :   0.9323 B(  0-C ,  4-O ) :   0.9279 B(  0-C ,  5-H ) :   0.9280
B(  0-C , 15-O ) :   0.8449 B(  1-C ,  2-C ) :   0.9492 B(  1-C ,  6-H ) :   0.9332
B(  1-C ,  7-H ) :   0.9266 B(  2-C ,  3-C ) :   0.9510 B(  2-C ,  8-H ) :   0.9453
B(  2-C ,  9-H ) :   0.9416 B(  3-C ,  4-O ) :   0.8412 B(  3-C , 10-H ) :   0.9343
B(  3-C , 11-H ) :   0.9395 B( 12-C , 13-H ) :   0.9366 B( 12-C , 14-H ) :   0.9065
B( 12-C , 15-O ) :   0.8467 B( 12-C , 16-C ) :   0.8759 B( 16-C , 17-C ) :   0.9117
B( 16-C , 20-O ) :   0.8421 B( 16-C , 21-H ) :   0.9272 B( 17-C , 18-C ) :   0.9139
B( 17-C , 22-O ) :   0.8893 B( 17-C , 23-H ) :   0.9227 B( 18-C , 19-C ) :   0.9419
B( 18-C , 24-H ) :   0.9381 B( 18-C , 25-H ) :   0.9335 B( 19-C , 20-O ) :   0.8416
B( 19-C , 26-H ) :   0.9357 B( 19-C , 27-H ) :   0.9382 B( 22-O , 28-H ) :   0.7976

FINAL SINGLE POINT ENERGY      -652.856739249969

DIPOLE MOMENT
-------------
                                X             Y             Z
Electronic contribution:     -0.80120      -3.77763      -1.92913
Nuclear contribution   :      0.96192       5.09962       2.06786
                        -----------------------------------------
Total Dipole Moment    :      0.16072       1.32200       0.13873
                        -----------------------------------------
Magnitude (a.u.)       :      1.33894
Magnitude (Debye)      :      3.40331

Rotational constants in cm-1:     0.061045     0.012371     0.011730
Rotational constants in MHz :  1830.089982   370.882567   351.671063

                             ****ORCA TERMINATED NORMALLY****
TOTAL RUN TIME: 0 days 1 hours 22 minutes 17 seconds 912 msec
