                         Program Version 4.2.1 -  RELEASE  -
|  1> # Test redundant internal optimization
|  2> #
|  3> ! RKS B3LYP  Opt TightSCF SmallPrint
|  4>
|  5> %basis
|  6>         Basis "6-31G"
|  7> end
|  8>
|  9> %geom
| 10> Constraints
| 11> { D 4  0  19  14  195.0   C } # D for Dihedral angle
| 12> { D 0  19  14  12  285.0   C } # D for Dihedral angle
| 13> { D 0  4  3  2   C } # D for Dihedral angle
| 14> { D 4  3  2  1   C } # D for Dihedral angle
| 15> { D 3  2  1  0   C } # D for Dihedral angle
| 16> { D 2  1  0  4   C } # D for Dihedral angle
| 17> { D 1  0  4  3   C } # D for Dihedral angle
| 18> { D 14  15  16  17   C } # D for Dihedral angle
| 19> { D 15  16  17  12   C } # D for Dihedral angle
| 20> { D 16  17  12  14   C } # D for Dihedral angle
| 21> { D 17  12  14  15   C } # D for Dihedral angle
| 22> { D 12  14  15  16   C } # D for Dihedral angle
| 23> end
| 24> end
| 25>
| 26>
| 27> #%pal
| 28> #nprocs 8
| 29> #end
| 30>
| 31> * xyz 0 1
| 32> C  -21.048   26.222   46.251
| 33> C  -20.361   27.558   45.944
| 34> C  -20.329   28.222   47.341
| 35> C  -20.110   27.022   48.296
| 36> O  -20.473   25.807   47.535
| 37> H  -20.833   25.428   45.533
| 38> H  -19.344   27.382   45.576
| 39> H  -20.898   28.157   45.201
| 40> H  -19.543   28.978   47.434
| 41> H  -21.289   28.710   47.548
| 42> H  -20.733   27.082   49.195
| 43> H  -19.064   26.913   48.597
| 44> C  -22.939   27.822   44.461
| 45> H  -23.672   28.013   43.662
| 46> C  -23.163   26.451   45.109
| 47> C  -22.513   25.504   44.074
| 48> C  -21.314   26.330   43.545
| 49> O  -21.584   27.740   43.904
| 50> H  -22.946   28.660   45.160
| 51> O  -22.472   26.381   46.366
| 52> H  -24.222   26.227   45.284
| 53> H  -22.203   24.549   44.508
| 54> H  -23.220   25.289   43.262
| 55> H  -21.195   26.253   42.459
| 56> H  -20.370   26.052   44.025
| 57> *
| 58>
| 59>                          ****END OF INPUT****
 Total Charge           Charge          ....    0
 Multiplicity           Mult            ....    1
 Number of Electrons    NEL             ....   86
FINAL SINGLE POINT ENERGY      -538.375035112647
FINAL SINGLE POINT ENERGY      -538.424194119790
FINAL SINGLE POINT ENERGY      -538.427537001606
FINAL SINGLE POINT ENERGY      -538.428205100486
FINAL SINGLE POINT ENERGY      -538.428337385116
FINAL SINGLE POINT ENERGY      -538.428387757448
FINAL SINGLE POINT ENERGY      -538.428387492674
FINAL SINGLE POINT ENERGY      -538.428389467556
                    ***********************HURRAY********************

CARTESIAN COORDINATES (ANGSTROEM)
---------------------------------
  C    -20.789523   26.263591   46.327378
  C    -20.078947   27.603615   46.146475
  C    -20.292800   28.270172   47.527761
  C    -20.226121   27.072659   48.498267
  O    -20.443969   25.864636   47.662404
  H    -20.464368   25.465304   45.654941
  H    -19.011474   27.409180   45.979573
  H    -20.458191   28.177097   45.300271
  H    -19.536954   29.029890   47.747855
  H    -21.278991   28.742849   47.566340
  H    -20.995401   27.100684   49.274612
  H    -19.243022   26.956564   48.964938
  C    -22.972633   27.791522   44.344824
  H    -23.875302   27.932522   43.734154
  C    -23.024667   26.448290   45.079808
  C    -22.622943   25.468593   43.959418
  C    -21.588827   26.265955   43.127579
  O    -21.781195   27.698184   43.485610
  H    -22.838839   28.646061   45.009380
  O    -22.248453   26.375876   46.309285
  H    -24.038359   26.242619   45.436447
  H    -22.228378   24.529365   44.356061
  H    -23.508044   25.233195   43.358763
  H    -21.736949   26.154417   42.048117
  H    -20.553651   26.009160   43.369741

 Multiplicity           Mult            ....    1
 Number of Electrons    NEL             ....   86
 Basis Dimension        Dim             ....  127

ORBITAL ENERGIES
----------------

  NO   OCC          E(Eh)            E(eV)
   0   2.0000     -19.143123      -520.9109
   1   2.0000     -19.136033      -520.7179
   2   2.0000     -19.133553      -520.6504
   3   2.0000     -10.274845      -279.5927
   4   2.0000     -10.243665      -278.7443
   5   2.0000     -10.232520      -278.4410
   6   2.0000     -10.228240      -278.3246
   7   2.0000     -10.218885      -278.0700
   8   2.0000     -10.194076      -277.3949
   9   2.0000     -10.179298      -276.9928
  10   2.0000     -10.172859      -276.8176
  11   2.0000      -1.047733       -28.5103
  12   2.0000      -1.021146       -27.7868
  13   2.0000      -0.985455       -26.8156
  14   2.0000      -0.788640       -21.4600
  15   2.0000      -0.775574       -21.1044
  16   2.0000      -0.748493       -20.3675
  17   2.0000      -0.720799       -19.6139
  18   2.0000      -0.618085       -16.8189
  19   2.0000      -0.608947       -16.5703
  20   2.0000      -0.592472       -16.1220
  21   2.0000      -0.563295       -15.3280
  22   2.0000      -0.519708       -14.1420
  23   2.0000      -0.507407       -13.8072
  24   2.0000      -0.484580       -13.1861
  25   2.0000      -0.478540       -13.0217
  26   2.0000      -0.453390       -12.3374
  27   2.0000      -0.439894       -11.9701
  28   2.0000      -0.434782       -11.8310
  29   2.0000      -0.416978       -11.3465
  30   2.0000      -0.399031       -10.8582
  31   2.0000      -0.393097       -10.6967
  32   2.0000      -0.378660       -10.3039
  33   2.0000      -0.368881       -10.0378
  34   2.0000      -0.361749        -9.8437
  35   2.0000      -0.349100        -9.4995
  36   2.0000      -0.343576        -9.3492
  37   2.0000      -0.319994        -8.7075
  38   2.0000      -0.304687        -8.2910
  39   2.0000      -0.292230        -7.9520
  40   2.0000      -0.263158        -7.1609
  41   2.0000      -0.252880        -6.8812
  42   2.0000      -0.236738        -6.4420
  43   0.0000       0.071237         1.9384
  44   0.0000       0.086662         2.3582
  45   0.0000       0.101182         2.7533
  46   0.0000       0.101813         2.7705
  47   0.0000       0.104813         2.8521

MULLIKEN ATOMIC CHARGES
-----------------------
   0 C :    0.298031
   1 C :   -0.287594
   2 C :   -0.302097
   3 C :   -0.000653
   4 O :   -0.504615
   5 H :    0.133570
   6 H :    0.138937
   7 H :    0.187341
   8 H :    0.139837
   9 H :    0.153398
  10 H :    0.151420
  11 H :    0.139553
  12 C :   -0.019678
  13 H :    0.133265
  14 C :    0.091905
  15 C :   -0.318321
  16 C :   -0.019768
  17 O :   -0.522703
  18 H :    0.160743
  19 O :   -0.515876
  20 H :    0.151951
  21 H :    0.163787
  22 H :    0.152257
  23 H :    0.147786
  24 H :    0.147522
Sum of atomic charges:   -0.0000000

LOEWDIN ATOMIC CHARGES
----------------------
   0 C :    0.182421
   1 C :   -0.238481
   2 C :   -0.217751
   3 C :   -0.026030
   4 O :   -0.306164
   5 H :    0.093150
   6 H :    0.112383
   7 H :    0.133978
   8 H :    0.113332
   9 H :    0.113421
  10 H :    0.107494
  11 H :    0.100980
  12 C :   -0.051968
  13 H :    0.098650
  14 C :    0.041987
  15 C :   -0.238957
  16 C :   -0.037455
  17 O :   -0.336429
  18 H :    0.117108
  19 O :   -0.329537
  20 H :    0.115180
  21 H :    0.126223
  22 H :    0.120421
  23 H :    0.104180
  24 H :    0.101864

  Mayer bond orders larger than 0.100000
B(  0-C ,  1-C ) :   0.9300 B(  0-C ,  4-O ) :   0.9332 B(  0-C ,  5-H ) :   0.9167
B(  0-C , 19-O ) :   0.8262 B(  1-C ,  2-C ) :   0.9496 B(  1-C ,  6-H ) :   0.9346
B(  1-C ,  7-H ) :   0.9061 B(  2-C ,  3-C ) :   0.9532 B(  2-C ,  8-H ) :   0.9452
B(  2-C ,  9-H ) :   0.9452 B(  3-C ,  4-O ) :   0.8354 B(  3-C , 10-H ) :   0.9355
B(  3-C , 11-H ) :   0.9399 B( 12-C , 13-H ) :   0.9162 B( 12-C , 14-C ) :   0.9045
B( 12-C , 17-O ) :   0.8476 B( 12-C , 18-H ) :   0.9322 B( 14-C , 15-C ) :   0.9284
B( 14-C , 19-O ) :   0.8892 B( 14-C , 20-H ) :   0.9357 B( 15-C , 16-C ) :   0.9437
B( 15-C , 21-H ) :   0.9346 B( 15-C , 22-H ) :   0.9382 B( 16-C , 17-O ) :   0.8497
B( 16-C , 23-H ) :   0.9335 B( 16-C , 24-H ) :   0.9319

FINAL SINGLE POINT ENERGY      -538.428390715797

DIPOLE MOMENT
-------------
                                X             Y             Z
Electronic contribution:     -0.85974      -1.73165       1.04715
Nuclear contribution   :      0.61389       1.89793      -1.58948
                        -----------------------------------------
Total Dipole Moment    :     -0.24584       0.16628      -0.54233
                        -----------------------------------------
Magnitude (a.u.)       :      0.61823
Magnitude (Debye)      :      1.57142

Rotational constants in cm-1:     0.074734     0.024508     0.022811
Rotational constants in MHz :  2240.482871   734.734245   683.850541

                             ****ORCA TERMINATED NORMALLY****
TOTAL RUN TIME: 0 days 0 hours 9 minutes 22 seconds 559 msec
