                         Program Version 4.2.0 -  RELEASE  -
|  1> # Test redundant internal optimization
|  2> #
|  3> ! RKS B3LYP  Opt TightSCF SmallPrint
|  4>
|  5> %basis
|  6>         Basis "6-31G"
|  7> end
|  8>
|  9> %geom
| 10> Constraints
| 11> { D 4  0  15  12  345.0   C } # D for Dihedral angle
| 12> { D 0  15  12  16  180.0   C } # D for Dihedral angle
| 13> { D 0  4  3  2   C } # D for Dihedral angle
| 14> { D 4  3  2  1   C } # D for Dihedral angle
| 15> { D 3  2  1  0   C } # D for Dihedral angle
| 16> { D 2  1  0  4   C } # D for Dihedral angle
| 17> { D 1  0  4  3   C } # D for Dihedral angle
| 18> { D 16  20  19  18   C } # D for Dihedral angle
| 19> { D 20  19  18  17   C } # D for Dihedral angle
| 20> { D 19  18  17  16   C } # D for Dihedral angle
| 21> { D 18  17  16  20   C } # D for Dihedral angle
| 22> { D 17  16  20  19   C } # D for Dihedral angle
| 23> { D 15  12  16  20   C } # D for Dihedral angle
| 24> end
| 25> end
| 26>
| 27>
| 28> #%pal
| 29> #nprocs 8
| 30> #end
| 31>
| 32> * xyz 0 1
| 33> C  -21.048   26.222   46.251
| 34> C  -20.361   27.558   45.944
| 35> C  -20.329   28.222   47.341
| 36> C  -20.110   27.022   48.296
| 37> O  -20.473   25.807   47.535
| 38> H  -20.833   25.428   45.533
| 39> H  -19.344   27.382   45.576
| 40> H  -20.898   28.157   45.201
| 41> H  -19.543   28.978   47.434
| 42> H  -21.289   28.710   47.548
| 43> H  -20.733   27.082   49.195
| 44> H  -19.064   26.913   48.597
| 45> C  -23.221   25.764   47.645
| 46> H  -23.015   24.687   47.656
| 47> H  -22.785   26.205   48.551
| 48> O  -22.586   26.394   46.375
| 49> C  -24.760   25.969   47.712
| 50> C  -25.335   25.439   49.030
| 51> C  -24.984   26.584   50.009
| 52> C  -25.131   27.853   49.132
| 53> O  -25.086   27.399   47.726
| 54> H  -25.216   25.545   46.816
| 55> H  -26.421   25.320   48.947
| 56> O  -24.725   24.075   49.457
| 57> H  -25.637   26.607   50.888
| 58> H  -23.952   26.476   50.362
| 59> H  -24.324   28.575   49.301
| 60> H  -26.092   28.354   49.279
| 61> H  -23.638   24.169   49.548
| 62> *
| 63>
| 64>                          ****END OF INPUT****
 Total Charge           Charge          ....    0
 Multiplicity           Mult            ....    1
 Number of Electrons    NEL             ....  102
FINAL SINGLE POINT ENERGY      -652.827427563169
FINAL SINGLE POINT ENERGY      -652.851038571045
FINAL SINGLE POINT ENERGY      -652.855664985379
FINAL SINGLE POINT ENERGY      -652.856423119337
FINAL SINGLE POINT ENERGY      -652.856544565137
FINAL SINGLE POINT ENERGY      -652.856569984936
FINAL SINGLE POINT ENERGY      -652.856572823608
                    ***********************HURRAY********************

CARTESIAN COORDINATES (ANGSTROEM)
---------------------------------
  C    -21.095030   26.215626   46.300706
  C    -20.534068   27.594117   45.952346
  C    -20.348990   28.220366   47.351850
  C    -19.935664   27.018399   48.228582
  O    -20.339742   25.803496   47.464991
  H    -20.931324   25.438680   45.548283
  H    -19.573422   27.475500   45.437699
  H    -21.216020   28.161520   45.315772
  H    -19.598438   29.016809   47.361490
  H    -21.300627   28.640993   47.691107
  H    -20.430942   27.002691   49.204122
  H    -18.853916   26.946765   48.375116
  C    -23.072154   25.722981   47.733611
  H    -22.897441   24.638154   47.740587
  H    -22.599757   26.149691   48.627847
  O    -22.525773   26.329157   46.534268
  C    -24.573797   25.992358   47.721996
  C    -25.314805   25.449509   48.956229
  C    -25.083855   26.588133   49.995066
  C    -25.115273   27.858771   49.118216
  O    -24.894555   27.417646   47.717404
  H    -24.982593   25.595239   46.788956
  H    -26.377991   25.355448   48.725996
  O    -24.922282   24.128170   49.396576
  H    -25.845397   26.591528   50.779844
  H    -24.105678   26.452527   50.475357
  H    -24.342393   28.584913   49.390826
  H    -26.089301   28.356924   49.146965
  H    -24.031772   24.149889   49.803193

 Multiplicity           Mult            ....    1
 Number of Electrons    NEL             ....  102
 Basis Dimension        Dim             ....  149

ORBITAL ENERGIES
----------------

  NO   OCC          E(Eh)            E(eV)
   0   2.0000     -19.148847      -521.0666
   1   2.0000     -19.148322      -521.0523
   2   2.0000     -19.135801      -520.7116
   3   2.0000     -19.134979      -520.6892
   4   2.0000     -10.276821      -279.6465
   5   2.0000     -10.243656      -278.7441
   6   2.0000     -10.232255      -278.4338
   7   2.0000     -10.229694      -278.3641
   8   2.0000     -10.227639      -278.3082
   9   2.0000     -10.227115      -278.2940
  10   2.0000     -10.194579      -277.4086
  11   2.0000     -10.188036      -277.2305
  12   2.0000     -10.183224      -277.0996
  13   2.0000      -1.054144       -28.6847
  14   2.0000      -1.031955       -28.0809
  15   2.0000      -1.013830       -27.5877
  16   2.0000      -0.990291       -26.9472
  17   2.0000      -0.790172       -21.5017
  18   2.0000      -0.780923       -21.2500
  19   2.0000      -0.767785       -20.8925
  20   2.0000      -0.731815       -19.9137
  21   2.0000      -0.677525       -18.4364
  22   2.0000      -0.610019       -16.5995
  23   2.0000      -0.602467       -16.3940
  24   2.0000      -0.590573       -16.0703
  25   2.0000      -0.571188       -15.5428
  26   2.0000      -0.529738       -14.4149
  27   2.0000      -0.508637       -13.8407
  28   2.0000      -0.497309       -13.5325
  29   2.0000      -0.494164       -13.4469
  30   2.0000      -0.471313       -12.8251
  31   2.0000      -0.455117       -12.3844
  32   2.0000      -0.448007       -12.1909
  33   2.0000      -0.431945       -11.7538
  34   2.0000      -0.426033       -11.5929
  35   2.0000      -0.413514       -11.2523
  36   2.0000      -0.402618       -10.9558
  37   2.0000      -0.401927       -10.9370
  38   2.0000      -0.377880       -10.2826
  39   2.0000      -0.367683       -10.0052
  40   2.0000      -0.360078        -9.7982
  41   2.0000      -0.354466        -9.6455
  42   2.0000      -0.348025        -9.4702
  43   2.0000      -0.339061        -9.2263
  44   2.0000      -0.323551        -8.8043
  45   2.0000      -0.312090        -8.4924
  46   2.0000      -0.304066        -8.2741
  47   2.0000      -0.269791        -7.3414
  48   2.0000      -0.262060        -7.1310
  49   2.0000      -0.246806        -6.7159
  50   2.0000      -0.240968        -6.5571
  51   0.0000       0.050178         1.3654
  52   0.0000       0.063556         1.7295
  53   0.0000       0.090647         2.4666
  54   0.0000       0.095229         2.5913
  55   0.0000       0.105381         2.8676

MULLIKEN ATOMIC CHARGES
-----------------------
   0 C :    0.298700
   1 C :   -0.256033
   2 C :   -0.306515
   3 C :   -0.017809
   4 O :   -0.515050
   5 H :    0.152547
   6 H :    0.142300
   7 H :    0.168025
   8 H :    0.144983
   9 H :    0.164964
  10 H :    0.137361
  11 H :    0.150762
  12 C :    0.004120
  13 H :    0.140974
  14 H :    0.117438
  15 O :   -0.530161
  16 C :    0.094621
  17 C :    0.078651
  18 C :   -0.320804
  19 C :   -0.012995
  20 O :   -0.505618
  21 H :    0.163215
  22 H :    0.170015
  23 O :   -0.599151
  24 H :    0.159073
  25 H :    0.129170
  26 H :    0.140467
  27 H :    0.148957
  28 H :    0.357796
Sum of atomic charges:    0.0000000

LOEWDIN ATOMIC CHARGES
----------------------
   0 C :    0.181326
   1 C :   -0.216882
   2 C :   -0.219051
   3 C :   -0.033123
   4 O :   -0.324243
   5 H :    0.101359
   6 H :    0.112480
   7 H :    0.129842
   8 H :    0.116149
   9 H :    0.119684
  10 H :    0.097728
  11 H :    0.106517
  12 C :   -0.045048
  13 H :    0.102033
  14 H :    0.086845
  15 O :   -0.328493
  16 C :    0.022340
  17 C :    0.034690
  18 C :   -0.242110
  19 C :   -0.031761
  20 O :   -0.314166
  21 H :    0.120055
  22 H :    0.120406
  23 O :   -0.406473
  24 H :    0.122953
  25 H :    0.102306
  26 H :    0.100235
  27 H :    0.105559
  28 H :    0.278843

  Mayer bond orders larger than 0.100000
B(  0-C ,  1-C ) :   0.9397 B(  0-C ,  4-O ) :   0.9008 B(  0-C ,  5-H ) :   0.9253
B(  0-C , 15-O ) :   0.8464 B(  1-C ,  2-C ) :   0.9530 B(  1-C ,  6-H ) :   0.9366
B(  1-C ,  7-H ) :   0.9343 B(  2-C ,  3-C ) :   0.9543 B(  2-C ,  8-H ) :   0.9446
B(  2-C ,  9-H ) :   0.9430 B(  3-C ,  4-O ) :   0.8332 B(  3-C , 10-H ) :   0.9322
B(  3-C , 11-H ) :   0.9401 B( 12-C , 13-H ) :   0.9053 B( 12-C , 14-H ) :   0.9151
B( 12-C , 15-O ) :   0.8349 B( 12-C , 16-C ) :   0.9047 B( 16-C , 17-C ) :   0.8744
B( 16-C , 20-O ) :   0.8663 B( 16-C , 21-H ) :   0.9286 B( 17-C , 18-C ) :   0.9218
B( 17-C , 22-H ) :   0.9334 B( 17-C , 23-O ) :   0.8995 B( 18-C , 19-C ) :   0.9392
B( 18-C , 24-H ) :   0.9416 B( 18-C , 25-H ) :   0.9414 B( 19-C , 20-O ) :   0.8543
B( 19-C , 26-H ) :   0.9314 B( 19-C , 27-H ) :   0.9372 B( 23-O , 28-H ) :   0.7967

FINAL SINGLE POINT ENERGY      -652.856573293862

DIPOLE MOMENT
-------------
                                X             Y             Z
Electronic contribution:     -2.46208      -4.01447      -2.86958
Nuclear contribution   :      3.14705       4.76974       3.80880
                        -----------------------------------------
Total Dipole Moment    :      0.68496       0.75527       0.93923
                        -----------------------------------------
Magnitude (a.u.)       :      1.38628
Magnitude (Debye)      :      3.52363

Rotational constants in cm-1:     0.047172     0.014642     0.013714
Rotational constants in MHz :  1414.189005   438.961309   411.144240

                             ****ORCA TERMINATED NORMALLY****
TOTAL RUN TIME: 0 days 0 hours 26 minutes 41 seconds 453 msec
