                         Program Version 4.2.1 -  RELEASE  -
|  1> # Test redundant internal optimization
|  2> #
|  3> ! RKS B3LYP  Opt TightSCF SmallPrint
|  4>
|  5> %basis
|  6>         Basis "6-31G"
|  7> end
|  8>
|  9> %geom
| 10> Constraints
| 11> { D 4  0  19  14  330.0   C } # D for Dihedral angle
| 12> { D 0  19  14  12  120.0   C } # D for Dihedral angle
| 13> { D 0  4  3  2   C } # D for Dihedral angle
| 14> { D 4  3  2  1   C } # D for Dihedral angle
| 15> { D 3  2  1  0   C } # D for Dihedral angle
| 16> { D 2  1  0  4   C } # D for Dihedral angle
| 17> { D 1  0  4  3   C } # D for Dihedral angle
| 18> { D 14  15  16  17   C } # D for Dihedral angle
| 19> { D 15  16  17  12   C } # D for Dihedral angle
| 20> { D 16  17  12  14   C } # D for Dihedral angle
| 21> { D 17  12  14  15   C } # D for Dihedral angle
| 22> { D 12  14  15  16   C } # D for Dihedral angle
| 23> end
| 24> end
| 25>
| 26>
| 27> #%pal
| 28> #nprocs 8
| 29> #end
| 30>
| 31> * xyz 0 1
| 32> C  -21.048   26.222   46.251
| 33> C  -20.361   27.558   45.944
| 34> C  -20.329   28.222   47.341
| 35> C  -20.110   27.022   48.296
| 36> O  -20.473   25.807   47.535
| 37> H  -20.833   25.428   45.533
| 38> H  -19.344   27.382   45.576
| 39> H  -20.898   28.157   45.201
| 40> H  -19.543   28.978   47.434
| 41> H  -21.289   28.710   47.548
| 42> H  -20.733   27.082   49.195
| 43> H  -19.064   26.913   48.597
| 44> C  -23.787   26.365   48.414
| 45> H  -24.011   25.766   49.310
| 46> C  -23.087   25.523   47.341
| 47> C  -24.276   24.754   46.719
| 48> C  -25.433   25.782   46.784
| 49> O  -25.030   26.808   47.771
| 50> H  -23.244   27.263   48.711
| 51> O  -22.472   26.381   46.366
| 52> H  -22.318   24.859   47.750
| 53> H  -24.075   24.415   45.698
| 54> H  -24.511   23.870   47.325
| 55> H  -26.379   25.331   47.101
| 56> H  -25.588   26.297   45.831
| 57> *
| 58>
| 59>                          ****END OF INPUT****
 Total Charge           Charge          ....    0
 Multiplicity           Mult            ....    1
 Number of Electrons    NEL             ....   86
FINAL SINGLE POINT ENERGY      -538.431222494278
FINAL SINGLE POINT ENERGY      -538.434555305794
FINAL SINGLE POINT ENERGY      -538.434962114365
FINAL SINGLE POINT ENERGY      -538.435046400255
FINAL SINGLE POINT ENERGY      -538.435057782993
FINAL SINGLE POINT ENERGY      -538.435061154268
                    ***********************HURRAY********************

CARTESIAN COORDINATES (ANGSTROEM)
---------------------------------
  C    -21.000195   26.188605   46.286246
  C    -20.429350   27.566235   45.950801
  C    -20.358655   28.224690   47.345952
  C    -20.000423   27.047456   48.278831
  O    -20.332037   25.811015   47.513231
  H    -20.767830   25.394281   45.570073
  H    -19.430910   27.446386   45.515108
  H    -21.064853   28.111793   45.250331
  H    -19.618607   29.029441   47.394156
  H    -21.336909   28.641105   47.603021
  H    -20.568337   27.046219   49.213035
  H    -18.932398   26.991262   48.507091
  C    -23.833833   26.345807   48.433694
  H    -24.122200   25.752143   49.314325
  C    -23.117218   25.469181   47.407270
  C    -24.300289   24.757454   46.724761
  C    -25.411168   25.834055   46.719557
  O    -25.014210   26.844051   47.725679
  H    -23.251143   27.212257   48.749797
  O    -22.441291   26.312069   46.417685
  H    -22.397032   24.786313   47.864308
  H    -24.032604   24.417926   45.721936
  H    -24.598325   23.885858   47.319573
  H    -26.393374   25.428814   46.986772
  H    -25.482807   26.350585   45.758765

 Multiplicity           Mult            ....    1
 Number of Electrons    NEL             ....   86
 Basis Dimension        Dim             ....  127

ORBITAL ENERGIES
----------------

  NO   OCC          E(Eh)            E(eV)
   0   2.0000     -19.149508      -521.0846
   1   2.0000     -19.136819      -520.7393
   2   2.0000     -19.123167      -520.3678
   3   2.0000     -10.279255      -279.7127
   4   2.0000     -10.232342      -278.4362
   5   2.0000     -10.231284      -278.4074
   6   2.0000     -10.217392      -278.0294
   7   2.0000     -10.215148      -277.9683
   8   2.0000     -10.187809      -277.2244
   9   2.0000     -10.185318      -277.1566
  10   2.0000     -10.179978      -277.0113
  11   2.0000      -1.054897       -28.7052
  12   2.0000      -1.010395       -27.4942
  13   2.0000      -0.986404       -26.8414
  14   2.0000      -0.793085       -21.5809
  15   2.0000      -0.775243       -21.0954
  16   2.0000      -0.737973       -20.0813
  17   2.0000      -0.719787       -19.5864
  18   2.0000      -0.611404       -16.6371
  19   2.0000      -0.598928       -16.2976
  20   2.0000      -0.593896       -16.1607
  21   2.0000      -0.566310       -15.4101
  22   2.0000      -0.519297       -14.1308
  23   2.0000      -0.502401       -13.6710
  24   2.0000      -0.485941       -13.2231
  25   2.0000      -0.479604       -13.0507
  26   2.0000      -0.452046       -12.3008
  27   2.0000      -0.435219       -11.8429
  28   2.0000      -0.427362       -11.6291
  29   2.0000      -0.413381       -11.2487
  30   2.0000      -0.409853       -11.1527
  31   2.0000      -0.378638       -10.3033
  32   2.0000      -0.369246       -10.0477
  33   2.0000      -0.363493        -9.8912
  34   2.0000      -0.359862        -9.7923
  35   2.0000      -0.354004        -9.6329
  36   2.0000      -0.343878        -9.3574
  37   2.0000      -0.333479        -9.0744
  38   2.0000      -0.299802        -8.1580
  39   2.0000      -0.296180        -8.0595
  40   2.0000      -0.265446        -7.2232
  41   2.0000      -0.253871        -6.9082
  42   2.0000      -0.228146        -6.2082
  43   0.0000       0.075926         2.0660
  44   0.0000       0.094297         2.5660
  45   0.0000       0.100891         2.7454
  46   0.0000       0.107809         2.9336
  47   0.0000       0.112782         3.0689

MULLIKEN ATOMIC CHARGES
-----------------------
   0 C :    0.295076
   1 C :   -0.258765
   2 C :   -0.306158
   3 C :   -0.013960
   4 O :   -0.515340
   5 H :    0.147200
   6 H :    0.143352
   7 H :    0.164809
   8 H :    0.144988
   9 H :    0.167083
  10 H :    0.144029
  11 H :    0.149319
  12 C :    0.005640
  13 H :    0.121872
  14 C :    0.052572
  15 C :   -0.282591
  16 C :    0.006567
  17 O :   -0.522785
  18 H :    0.151401
  19 O :   -0.528373
  20 H :    0.162345
  21 H :    0.151657
  22 H :    0.138667
  23 H :    0.130461
  24 H :    0.150932
Sum of atomic charges:    0.0000000

LOEWDIN ATOMIC CHARGES
----------------------
   0 C :    0.179114
   1 C :   -0.215257
   2 C :   -0.217960
   3 C :   -0.030958
   4 O :   -0.326282
   5 H :    0.097080
   6 H :    0.113297
   7 H :    0.128348
   8 H :    0.116107
   9 H :    0.119768
  10 H :    0.102467
  11 H :    0.106312
  12 C :   -0.040171
  13 H :    0.090266
  14 C :    0.033151
  15 C :   -0.227245
  16 C :   -0.027190
  17 O :   -0.332399
  18 H :    0.112249
  19 O :   -0.333355
  20 H :    0.116066
  21 H :    0.122879
  22 H :    0.110628
  23 H :    0.096068
  24 H :    0.107018

  Mayer bond orders larger than 0.100000
B(  0-C ,  1-C ) :   0.9440 B(  0-C ,  4-O ) :   0.8987 B(  0-C ,  5-H ) :   0.9238
B(  0-C , 19-O ) :   0.8592 B(  1-C ,  2-C ) :   0.9534 B(  1-C ,  6-H ) :   0.9375
B(  1-C ,  7-H ) :   0.9347 B(  2-C ,  3-C ) :   0.9558 B(  2-C ,  8-H ) :   0.9443
B(  2-C ,  9-H ) :   0.9406 B(  3-C ,  4-O ) :   0.8297 B(  3-C , 10-H ) :   0.9340
B(  3-C , 11-H ) :   0.9402 B( 12-C , 13-H ) :   0.9126 B( 12-C , 14-C ) :   0.9264
B( 12-C , 17-O ) :   0.8724 B( 12-C , 18-H ) :   0.9322 B( 14-C , 15-C ) :   0.9472
B( 14-C , 19-O ) :   0.8160 B( 14-C , 20-H ) :   0.9101 B( 15-C , 16-C ) :   0.9459
B( 15-C , 21-H ) :   0.9410 B( 15-C , 22-H ) :   0.9407 B( 16-C , 17-O ) :   0.8557
B( 16-C , 23-H ) :   0.9342 B( 16-C , 24-H ) :   0.9371

FINAL SINGLE POINT ENERGY      -538.435061363740

DIPOLE MOMENT
-------------
                                X             Y             Z
Electronic contribution:     -0.70059      -1.06621      -0.35927
Nuclear contribution   :      1.39409       0.83729       0.35148
                        -----------------------------------------
Total Dipole Moment    :      0.69349      -0.22892      -0.00779
                        -----------------------------------------
Magnitude (a.u.)       :      0.73034
Magnitude (Debye)      :      1.85638

Rotational constants in cm-1:     0.077136     0.022097     0.021356
Rotational constants in MHz :  2312.468055   662.454110   640.230151

                             ****ORCA TERMINATED NORMALLY****
TOTAL RUN TIME: 0 days 0 hours 15 minutes 31 seconds 64 msec
