                         Program Version 4.2.0 -  RELEASE  -
|  1> # Test redundant internal optimization
|  2> #
|  3> ! RKS B3LYP  Opt TightSCF SmallPrint
|  4>
|  5> %basis
|  6>         Basis "6-31G"
|  7> end
|  8>
|  9> %geom
| 10> Constraints
| 11> { D 4  0  15  12  225.0   C } # D for Dihedral angle
| 12> { D 0  15  12  16  120.0   C } # D for Dihedral angle
| 13> { D 0  4  3  2   C } # D for Dihedral angle
| 14> { D 4  3  2  1   C } # D for Dihedral angle
| 15> { D 3  2  1  0   C } # D for Dihedral angle
| 16> { D 2  1  0  4   C } # D for Dihedral angle
| 17> { D 1  0  4  3   C } # D for Dihedral angle
| 18> { D 16  20  19  18   C } # D for Dihedral angle
| 19> { D 20  19  18  17   C } # D for Dihedral angle
| 20> { D 19  18  17  16   C } # D for Dihedral angle
| 21> { D 18  17  16  20   C } # D for Dihedral angle
| 22> { D 17  16  20  19   C } # D for Dihedral angle
| 23> { D 15  12  16  20   C } # D for Dihedral angle
| 24> end
| 25> end
| 26>
| 27>
| 28> #%pal
| 29> #nprocs 8
| 30> #end
| 31>
| 32> * xyz 0 1
| 33> C  -21.048   26.222   46.251
| 34> C  -20.361   27.558   45.944
| 35> C  -20.329   28.222   47.341
| 36> C  -20.110   27.022   48.296
| 37> O  -20.473   25.807   47.535
| 38> H  -20.833   25.428   45.533
| 39> H  -19.344   27.382   45.576
| 40> H  -20.898   28.157   45.201
| 41> H  -19.543   28.978   47.434
| 42> H  -21.289   28.710   47.548
| 43> H  -20.733   27.082   49.195
| 44> H  -19.064   26.913   48.597
| 45> C  -23.415   25.773   45.218
| 46> H  -23.989   26.564   44.718
| 47> H  -22.752   25.309   44.476
| 48> O  -22.586   26.394   46.375
| 49> C  -24.410   24.685   45.709
| 50> C  -23.688   23.586   46.498
| 51> C  -23.506   24.261   47.879
| 52> C  -24.792   25.113   48.027
| 53> O  -25.361   25.255   46.669
| 54> H  -24.992   24.322   44.859
| 55> H  -24.329   22.702   46.582
| 56> O  -22.341   23.157   45.856
| 57> H  -23.388   23.539   48.693
| 58> H  -22.617   24.903   47.870
| 59> H  -24.591   26.108   48.438
| 60> H  -25.550   24.621   48.644
| 61> H  -21.684   24.028   45.762
| 62> *
| 63>
| 64>                          ****END OF INPUT****
 Total Charge           Charge          ....    0
 Multiplicity           Mult            ....    1
 Number of Electrons    NEL             ....  102
FINAL SINGLE POINT ENERGY      -652.826119449158
FINAL SINGLE POINT ENERGY      -652.851203043017
FINAL SINGLE POINT ENERGY      -652.857907234749
FINAL SINGLE POINT ENERGY      -652.861121425948
FINAL SINGLE POINT ENERGY      -652.862055231996
FINAL SINGLE POINT ENERGY      -652.862583889659
FINAL SINGLE POINT ENERGY      -652.862838499866
FINAL SINGLE POINT ENERGY      -652.862961768136
FINAL SINGLE POINT ENERGY      -652.862983888173
FINAL SINGLE POINT ENERGY      -652.862992359270
                    ***********************HURRAY********************

CARTESIAN COORDINATES (ANGSTROEM)
---------------------------------
  C    -21.055458   26.261626   46.173978
  C    -20.366424   27.596149   45.886279
  C    -20.374139   28.266174   47.281673
  C    -20.178228   27.071392   48.241737
  O    -20.523425   25.858574   47.452983
  H    -20.838505   25.458979   45.463179
  H    -19.340479   27.412930   45.544930
  H    -20.893126   28.178015   45.126387
  H    -19.589826   29.020683   47.392526
  H    -21.343669   28.742587   47.453940
  H    -20.827954   27.112371   49.118912
  H    -19.139936   26.948662   48.563118
  C    -23.314868   25.876914   45.232070
  H    -23.871837   26.703171   44.777789
  H    -22.687101   25.405704   44.465356
  O    -22.489423   26.447440   46.294699
  C    -24.310921   24.840684   45.746102
  C    -23.694922   23.616470   46.446036
  C    -23.522440   24.134431   47.908689
  C    -24.754756   25.049649   48.085962
  O    -25.252059   25.365689   46.725784
  H    -24.914777   24.537710   44.880925
  H    -24.394174   22.776042   46.401485
  O    -22.454923   23.170810   45.825703
  H    -23.507784   23.313575   48.633207
  H    -22.594379   24.705559   47.985051
  H    -24.509005   25.985708   48.595129
  H    -25.574679   24.553890   48.615878
  H    -21.696783   23.389410   46.404493

 Multiplicity           Mult            ....    1
 Number of Electrons    NEL             ....  102
 Basis Dimension        Dim             ....  149

ORBITAL ENERGIES
----------------

  NO   OCC          E(Eh)            E(eV)
   0   2.0000     -19.151661      -521.1432
   1   2.0000     -19.143879      -520.9314
   2   2.0000     -19.136635      -520.7343
   3   2.0000     -19.128210      -520.5050
   4   2.0000     -10.285371      -279.8792
   5   2.0000     -10.232990      -278.4538
   6   2.0000     -10.232518      -278.4410
   7   2.0000     -10.225901      -278.2609
   8   2.0000     -10.223953      -278.2079
   9   2.0000     -10.216712      -278.0109
  10   2.0000     -10.190431      -277.2957
  11   2.0000     -10.189706      -277.2760
  12   2.0000     -10.174309      -276.8570
  13   2.0000      -1.058938       -28.8152
  14   2.0000      -1.022101       -27.8128
  15   2.0000      -1.005226       -27.3536
  16   2.0000      -0.996353       -27.1121
  17   2.0000      -0.791312       -21.5327
  18   2.0000      -0.768340       -20.9076
  19   2.0000      -0.761090       -20.7103
  20   2.0000      -0.733683       -19.9645
  21   2.0000      -0.673542       -18.3280
  22   2.0000      -0.605392       -16.4736
  23   2.0000      -0.599372       -16.3097
  24   2.0000      -0.597155       -16.2494
  25   2.0000      -0.565316       -15.3830
  26   2.0000      -0.523182       -14.2365
  27   2.0000      -0.500620       -13.6226
  28   2.0000      -0.498945       -13.5770
  29   2.0000      -0.493298       -13.4233
  30   2.0000      -0.470720       -12.8089
  31   2.0000      -0.452714       -12.3190
  32   2.0000      -0.443676       -12.0730
  33   2.0000      -0.426962       -11.6182
  34   2.0000      -0.425064       -11.5666
  35   2.0000      -0.412242       -11.2177
  36   2.0000      -0.405247       -11.0273
  37   2.0000      -0.396141       -10.7796
  38   2.0000      -0.372910       -10.1474
  39   2.0000      -0.363396        -9.8885
  40   2.0000      -0.360502        -9.8098
  41   2.0000      -0.353111        -9.6086
  42   2.0000      -0.347733        -9.4623
  43   2.0000      -0.327126        -8.9015
  44   2.0000      -0.317226        -8.6322
  45   2.0000      -0.309023        -8.4089
  46   2.0000      -0.302472        -8.2307
  47   2.0000      -0.272713        -7.4209
  48   2.0000      -0.259804        -7.0696
  49   2.0000      -0.257325        -7.0022
  50   2.0000      -0.230198        -6.2640
  51   0.0000       0.065613         1.7854
  52   0.0000       0.079618         2.1665
  53   0.0000       0.091208         2.4819
  54   0.0000       0.102145         2.7795
  55   0.0000       0.110966         3.0195

MULLIKEN ATOMIC CHARGES
-----------------------
   0 C :    0.273296
   1 C :   -0.251799
   2 C :   -0.301422
   3 C :   -0.003089
   4 O :   -0.518605
   5 H :    0.148449
   6 H :    0.143201
   7 H :    0.151646
   8 H :    0.144488
   9 H :    0.167650
  10 H :    0.152849
  11 H :    0.144767
  12 C :   -0.014884
  13 H :    0.152363
  14 H :    0.143622
  15 O :   -0.520572
  16 C :    0.102411
  17 C :    0.092261
  18 C :   -0.350853
  19 C :   -0.002361
  20 O :   -0.522120
  21 H :    0.142521
  22 H :    0.153362
  23 O :   -0.628217
  24 H :    0.139861
  25 H :    0.196999
  26 H :    0.149109
  27 H :    0.138117
  28 H :    0.376949
Sum of atomic charges:   -0.0000000

LOEWDIN ATOMIC CHARGES
----------------------
   0 C :    0.168275
   1 C :   -0.221522
   2 C :   -0.216125
   3 C :   -0.025584
   4 O :   -0.323438
   5 H :    0.099413
   6 H :    0.112866
   7 H :    0.120675
   8 H :    0.115708
   9 H :    0.122083
  10 H :    0.108407
  11 H :    0.103785
  12 C :   -0.040146
  13 H :    0.110374
  14 H :    0.107537
  15 O :   -0.333083
  16 C :    0.018631
  17 C :    0.037576
  18 C :   -0.253016
  19 C :   -0.023358
  20 O :   -0.323497
  21 H :    0.111284
  22 H :    0.108774
  23 O :   -0.424320
  24 H :    0.112185
  25 H :    0.133474
  26 H :    0.106074
  27 H :    0.098693
  28 H :    0.288273

  Mayer bond orders larger than 0.100000
B(  0-C ,  1-C ) :   0.9386 B(  0-C ,  4-O ) :   0.8975 B(  0-C ,  5-H ) :   0.9105
B(  0-C , 15-O ) :   0.8472 B(  1-C ,  2-C ) :   0.9543 B(  1-C ,  6-H ) :   0.9350
B(  1-C ,  7-H ) :   0.9389 B(  2-C ,  3-C ) :   0.9560 B(  2-C ,  8-H ) :   0.9448
B(  2-C ,  9-H ) :   0.9423 B(  3-C ,  4-O ) :   0.8270 B(  3-C , 10-H ) :   0.9350
B(  3-C , 11-H ) :   0.9398 B( 12-C , 13-H ) :   0.9307 B( 12-C , 14-H ) :   0.9063
B( 12-C , 15-O ) :   0.8427 B( 12-C , 16-C ) :   0.9051 B( 16-C , 17-C ) :   0.8943
B( 16-C , 20-O ) :   0.8809 B( 16-C , 21-H ) :   0.9252 B( 17-C , 18-C ) :   0.9469
B( 17-C , 22-H ) :   0.9329 B( 17-C , 23-O ) :   0.8794 B( 18-C , 19-C ) :   0.9446
B( 18-C , 24-H ) :   0.9406 B( 18-C , 25-H ) :   0.9012 B( 19-C , 20-O ) :   0.8398
B( 19-C , 26-H ) :   0.9326 B( 19-C , 27-H ) :   0.9380 B( 23-O , 28-H ) :   0.7859

FINAL SINGLE POINT ENERGY      -652.862993943104

DIPOLE MOMENT
-------------
                                X             Y             Z
Electronic contribution:     -2.71660      -3.08751      -1.63162
Nuclear contribution   :      3.68569       3.73020       1.86411
                        -----------------------------------------
Total Dipole Moment    :      0.96910       0.64269       0.23249
                        -----------------------------------------
Magnitude (a.u.)       :      1.18586
Magnitude (Debye)      :      3.01421

Rotational constants in cm-1:     0.045764     0.016846     0.016714
Rotational constants in MHz :  1371.973556   505.024790   501.075398

                             ****ORCA TERMINATED NORMALLY****
TOTAL RUN TIME: 0 days 0 hours 25 minutes 5 seconds 397 msec
