                         Program Version 4.2.0 -  RELEASE  -
|  1> # Test redundant internal optimization
|  2> #
|  3> ! RKS B3LYP  Opt TightSCF SmallPrint
|  4>
|  5> %basis
|  6>         Basis "6-31G"
|  7> end
|  8>
|  9> %geom
| 10> Constraints
| 11> { D 4  0  15  12  30.0   C } # D for Dihedral angle
| 12> { D 0  15  12  16  180.0   C } # D for Dihedral angle
| 13> { D 0  4  3  2   C } # D for Dihedral angle
| 14> { D 4  3  2  1   C } # D for Dihedral angle
| 15> { D 3  2  1  0   C } # D for Dihedral angle
| 16> { D 2  1  0  4   C } # D for Dihedral angle
| 17> { D 1  0  4  3   C } # D for Dihedral angle
| 18> { D 16  20  19  18   C } # D for Dihedral angle
| 19> { D 20  19  18  17   C } # D for Dihedral angle
| 20> { D 19  18  17  16   C } # D for Dihedral angle
| 21> { D 18  17  16  20   C } # D for Dihedral angle
| 22> { D 17  16  20  19   C } # D for Dihedral angle
| 23> { D 15  12  16  20   C } # D for Dihedral angle
| 24> end
| 25> end
| 26>
| 27>
| 28> #%pal
| 29> #nprocs 8
| 30> #end
| 31>
| 32> * xyz 0 1
| 33> C  -21.048   26.222   46.251
| 34> C  -20.361   27.558   45.944
| 35> C  -20.329   28.222   47.341
| 36> C  -20.110   27.022   48.296
| 37> O  -20.473   25.807   47.535
| 38> H  -20.833   25.428   45.533
| 39> H  -19.344   27.382   45.576
| 40> H  -20.898   28.157   45.201
| 41> H  -19.543   28.978   47.434
| 42> H  -21.289   28.710   47.548
| 43> H  -20.733   27.082   49.195
| 44> H  -19.064   26.913   48.597
| 45> C  -23.091   26.824   47.779
| 46> H  -22.791   26.071   48.518
| 47> H  -22.648   27.785   48.070
| 48> O  -22.586   26.394   46.375
| 49> C  -24.636   26.979   47.840
| 50> C  -25.140   27.954   46.769
| 51> C  -25.126   27.064   45.504
| 52> C  -25.519   25.669   46.050
| 53> O  -25.292   25.710   47.511
| 54> H  -24.930   27.237   48.859
| 55> O  -26.587   28.409   47.102
| 56> H  -24.513   28.846   46.669
| 57> H  -25.812   27.417   44.728
| 58> H  -24.118   27.039   45.072
| 59> H  -24.918   24.863   45.616
| 60> H  -26.578   25.443   45.895
| 61> H  -27.235   27.531   47.207
| 62> *
| 63>
| 64>                          ****END OF INPUT****
 Total Charge           Charge          ....    0
 Multiplicity           Mult            ....    1
 Number of Electrons    NEL             ....  102
FINAL SINGLE POINT ENERGY      -652.828244407682
FINAL SINGLE POINT ENERGY      -652.851795206541
FINAL SINGLE POINT ENERGY      -652.857421031060
FINAL SINGLE POINT ENERGY      -652.859895808334
FINAL SINGLE POINT ENERGY      -652.860092176388
FINAL SINGLE POINT ENERGY      -652.860124688575
FINAL SINGLE POINT ENERGY      -652.860127506699
                    ***********************HURRAY********************

CARTESIAN COORDINATES (ANGSTROEM)
---------------------------------
  C    -21.150035   26.270793   46.430099
  C    -20.405325   27.534702   45.985228
  C    -20.153949   28.253838   47.338788
  C    -19.914698   27.075540   48.312461
  O    -20.467102   25.870375   47.637518
  H    -21.052313   25.441445   45.727376
  H    -19.458871   27.240900   45.518201
  H    -20.982557   28.131492   45.275171
  H    -19.292979   28.928575   47.299090
  H    -21.025564   28.848684   47.627566
  H    -20.414789   27.199334   49.277172
  H    -18.852359   26.879464   48.481640
  C    -23.150228   26.827581   47.853875
  H    -22.887959   26.080724   48.610115
  H    -22.769796   27.806541   48.177365
  O    -22.587782   26.424649   46.572326
  C    -24.670964   26.918362   47.746954
  C    -25.237656   27.916365   46.725323
  C    -25.210510   27.081550   45.417023
  C    -25.533642   25.650277   45.912581
  O    -25.278411   25.642815   47.372540
  H    -25.046066   27.162279   48.748709
  O    -26.586568   28.317019   47.099006
  H    -24.671745   28.846278   46.657693
  H    -25.944921   27.461449   44.701132
  H    -24.211940   27.119145   44.979908
  H    -24.896572   24.895997   45.444497
  H    -26.583740   25.375580   45.768450
  H    -27.105958   27.514250   47.317192

 Multiplicity           Mult            ....    1
 Number of Electrons    NEL             ....  102
 Basis Dimension        Dim             ....  149

ORBITAL ENERGIES
----------------

  NO   OCC          E(Eh)            E(eV)
   0   2.0000     -19.152374      -521.1626
   1   2.0000     -19.146278      -520.9967
   2   2.0000     -19.134218      -520.6685
   3   2.0000     -19.132721      -520.6278
   4   2.0000     -10.284048      -279.8432
   5   2.0000     -10.236649      -278.5534
   6   2.0000     -10.234736      -278.5013
   7   2.0000     -10.232230      -278.4331
   8   2.0000     -10.231827      -278.4222
   9   2.0000     -10.218921      -278.0710
  10   2.0000     -10.198353      -277.5113
  11   2.0000     -10.193091      -277.3681
  12   2.0000     -10.173605      -276.8379
  13   2.0000      -1.059259       -28.8239
  14   2.0000      -1.030258       -28.0347
  15   2.0000      -1.002985       -27.2926
  16   2.0000      -0.994374       -27.0583
  17   2.0000      -0.795128       -21.6365
  18   2.0000      -0.779027       -21.1984
  19   2.0000      -0.763005       -20.7624
  20   2.0000      -0.736386       -20.0381
  21   2.0000      -0.674394       -18.3512
  22   2.0000      -0.609927       -16.5970
  23   2.0000      -0.602920       -16.4063
  24   2.0000      -0.594291       -16.1715
  25   2.0000      -0.569078       -15.4854
  26   2.0000      -0.523911       -14.2564
  27   2.0000      -0.514121       -13.9899
  28   2.0000      -0.499771       -13.5995
  29   2.0000      -0.488991       -13.3061
  30   2.0000      -0.472740       -12.8639
  31   2.0000      -0.455875       -12.4050
  32   2.0000      -0.449951       -12.2438
  33   2.0000      -0.438486       -11.9318
  34   2.0000      -0.424187       -11.5427
  35   2.0000      -0.411522       -11.1981
  36   2.0000      -0.404835       -11.0161
  37   2.0000      -0.384437       -10.4611
  38   2.0000      -0.381327       -10.3764
  39   2.0000      -0.368858       -10.0371
  40   2.0000      -0.366602        -9.9758
  41   2.0000      -0.359951        -9.7948
  42   2.0000      -0.349039        -9.4978
  43   2.0000      -0.334097        -9.0912
  44   2.0000      -0.323054        -8.7907
  45   2.0000      -0.312151        -8.4941
  46   2.0000      -0.298820        -8.1313
  47   2.0000      -0.269468        -7.3326
  48   2.0000      -0.263347        -7.1660
  49   2.0000      -0.253423        -6.8960
  50   2.0000      -0.239732        -6.5235
  51   0.0000       0.062587         1.7031
  52   0.0000       0.077154         2.0995
  53   0.0000       0.089348         2.4313
  54   0.0000       0.101521         2.7625
  55   0.0000       0.106234         2.8908

MULLIKEN ATOMIC CHARGES
-----------------------
   0 C :    0.303228
   1 C :   -0.259730
   2 C :   -0.319252
   3 C :   -0.013479
   4 O :   -0.507755
   5 H :    0.164279
   6 H :    0.150871
   7 H :    0.153022
   8 H :    0.150002
   9 H :    0.154298
  10 H :    0.145659
  11 H :    0.153138
  12 C :    0.009664
  13 H :    0.169593
  14 H :    0.111804
  15 O :   -0.538114
  16 C :    0.064371
  17 C :    0.078904
  18 C :   -0.288379
  19 C :   -0.015591
  20 O :   -0.524813
  21 H :    0.153013
  22 O :   -0.604881
  23 H :    0.143666
  24 H :    0.147899
  25 H :    0.168778
  26 H :    0.154320
  27 H :    0.132875
  28 H :    0.362611
Sum of atomic charges:   -0.0000000

LOEWDIN ATOMIC CHARGES
----------------------
   0 C :    0.180176
   1 C :   -0.225156
   2 C :   -0.223239
   3 C :   -0.033165
   4 O :   -0.316186
   5 H :    0.111594
   6 H :    0.118248
   7 H :    0.121062
   8 H :    0.118212
   9 H :    0.110621
  10 H :    0.103284
  11 H :    0.108401
  12 C :   -0.037393
  13 H :    0.116360
  14 H :    0.087115
  15 O :   -0.332668
  16 C :    0.015979
  17 C :    0.038806
  18 C :   -0.242750
  19 C :   -0.031763
  20 O :   -0.328158
  21 H :    0.114798
  22 O :   -0.418192
  23 H :    0.112255
  24 H :    0.117583
  25 H :    0.127634
  26 H :    0.109618
  27 H :    0.095118
  28 H :    0.281804

  Mayer bond orders larger than 0.100000
B(  0-C ,  1-C ) :   0.9187 B(  0-C ,  4-O ) :   0.9111 B(  0-C ,  5-H ) :   0.9351
B(  0-C , 15-O ) :   0.8597 B(  1-C ,  2-C ) :   0.9527 B(  1-C ,  6-H ) :   0.9341
B(  1-C ,  7-H ) :   0.9372 B(  2-C ,  3-C ) :   0.9500 B(  2-C ,  8-H ) :   0.9443
B(  2-C ,  9-H ) :   0.9405 B(  3-C ,  4-O ) :   0.8348 B(  3-C , 10-H ) :   0.9328
B(  3-C , 11-H ) :   0.9394 B( 12-C , 13-H ) :   0.9133 B( 12-C , 14-H ) :   0.8983
B( 12-C , 15-O ) :   0.8336 B( 12-C , 16-C ) :   0.9108 B( 16-C , 17-C ) :   0.9073
B( 16-C , 20-O ) :   0.8773 B( 16-C , 21-H ) :   0.9233 B( 17-C , 18-C ) :   0.9265
B( 17-C , 22-O ) :   0.8883 B( 17-C , 23-H ) :   0.9365 B( 18-C , 19-C ) :   0.9461
B( 18-C , 24-H ) :   0.9374 B( 18-C , 25-H ) :   0.9187 B( 19-C , 20-O ) :   0.8389
B( 19-C , 26-H ) :   0.9338 B( 19-C , 27-H ) :   0.9381 B( 22-O , 28-H ) :   0.7959

FINAL SINGLE POINT ENERGY      -652.860126017627

DIPOLE MOMENT
-------------
                                X             Y             Z
Electronic contribution:     -3.55103      -3.50884       1.39401
Nuclear contribution   :      4.58687       4.21513      -1.68233
                        -----------------------------------------
Total Dipole Moment    :      1.03584       0.70629      -0.28832
                        -----------------------------------------
Magnitude (a.u.)       :      1.28644
Magnitude (Debye)      :      3.26988

Rotational constants in cm-1:     0.055979     0.013904     0.013534
Rotational constants in MHz :  1678.217760   416.843983   405.724712

                             ****ORCA TERMINATED NORMALLY****
TOTAL RUN TIME: 0 days 0 hours 25 minutes 1 seconds 296 msec
