                         Program Version 4.2.0 -  RELEASE  -
|  1> # Test redundant internal optimization
|  2> #
|  3> ! RKS B3LYP  Opt TightSCF SmallPrint
|  4>
|  5> %basis
|  6>         Basis "6-31G"
|  7> end
|  8>
|  9> %geom
| 10> Constraints
| 11> { D 4  0  15  12  75.0   C } # D for Dihedral angle
| 12> { D 0  15  12  16  165.0   C } # D for Dihedral angle
| 13> { D 0  4  3  2   C } # D for Dihedral angle
| 14> { D 4  3  2  1   C } # D for Dihedral angle
| 15> { D 3  2  1  0   C } # D for Dihedral angle
| 16> { D 2  1  0  4   C } # D for Dihedral angle
| 17> { D 1  0  4  3   C } # D for Dihedral angle
| 18> { D 16  20  19  18   C } # D for Dihedral angle
| 19> { D 20  19  18  17   C } # D for Dihedral angle
| 20> { D 19  18  17  16   C } # D for Dihedral angle
| 21> { D 18  17  16  20   C } # D for Dihedral angle
| 22> { D 17  16  20  19   C } # D for Dihedral angle
| 23> { D 15  12  16  20   C } # D for Dihedral angle
| 24> end
| 25> end
| 26>
| 27>
| 28> #%pal
| 29> #nprocs 8
| 30> #end
| 31>
| 32> * xyz 0 1
| 33> C  -21.048   26.222   46.251
| 34> C  -20.361   27.558   45.944
| 35> C  -20.329   28.222   47.341
| 36> C  -20.110   27.022   48.296
| 37> O  -20.473   25.807   47.535
| 38> H  -20.833   25.428   45.533
| 39> H  -19.344   27.382   45.576
| 40> H  -20.898   28.157   45.201
| 41> H  -19.543   28.978   47.434
| 42> H  -21.289   28.710   47.548
| 43> H  -20.733   27.082   49.195
| 44> H  -19.064   26.913   48.597
| 45> C  -23.049   27.675   47.122
| 46> H  -22.879   27.547   48.198
| 47> H  -22.473   28.546   46.784
| 48> O  -22.586   26.394   46.375
| 49> C  -24.555   27.989   46.899
| 50> C  -24.949   29.317   47.553
| 51> C  -24.424   30.343   46.521
| 52> C  -24.655   29.629   45.166
| 53> O  -24.830   28.193   45.473
| 54> H  -25.150   27.132   47.221
| 55> H  -26.039   29.384   47.644
| 56> O  -24.328   29.511   48.964
| 57> H  -24.941   31.307   46.578
| 58> H  -23.355   30.527   46.683
| 59> H  -23.810   29.748   44.479
| 60> H  -25.568   29.966   44.667
| 61> H  -23.236   29.449   48.898
| 62> *
| 63>
| 64>                          ****END OF INPUT****
 Total Charge           Charge          ....    0
 Multiplicity           Mult            ....    1
 Number of Electrons    NEL             ....  102
FINAL SINGLE POINT ENERGY      -652.799202253394
FINAL SINGLE POINT ENERGY      -652.829543087682
FINAL SINGLE POINT ENERGY      -652.846318443144
FINAL SINGLE POINT ENERGY      -652.849231254721
FINAL SINGLE POINT ENERGY      -652.849700136353
FINAL SINGLE POINT ENERGY      -652.849818543351
FINAL SINGLE POINT ENERGY      -652.849833140060
FINAL SINGLE POINT ENERGY      -652.849834362908
                    ***********************HURRAY********************

CARTESIAN COORDINATES (ANGSTROEM)
---------------------------------
  C    -21.183641   26.339866   46.383421
  C    -20.221030   27.454638   45.943858
  C    -19.816705   28.094292   47.306657
  C    -19.788175   26.864652   48.253254
  O    -20.561185   25.800712   47.575446
  H    -21.224427   25.509481   45.677450
  H    -19.352476   26.995908   45.461235
  H    -20.679263   28.159987   45.245086
  H    -18.841190   28.588830   47.259157
  H    -20.547172   28.837821   47.632899
  H    -20.235333   27.064617   49.232078
  H    -18.774402   26.479943   48.399174
  C    -23.045427   27.831154   47.239687
  H    -22.971208   27.678477   48.325188
  H    -22.464964   28.720254   46.960042
  O    -22.576763   26.662905   46.521623
  C    -24.508527   28.027064   46.844779
  C    -25.176658   29.256849   47.481725
  C    -24.728539   30.399331   46.520712
  C    -24.712770   29.698397   45.144735
  O    -24.678499   28.237710   45.410710
  H    -25.044289   27.101551   47.073056
  H    -26.261325   29.134722   47.446780
  O    -24.880659   29.479130   48.881534
  H    -25.404225   31.258082   46.555388
  H    -23.727115   30.748232   46.806768
  H    -23.845211   29.972495   44.535189
  H    -25.621830   29.896785   44.568317
  H    -23.978996   29.844114   48.990052

 Multiplicity           Mult            ....    1
 Number of Electrons    NEL             ....  102
 Basis Dimension        Dim             ....  149

ORBITAL ENERGIES
----------------

  NO   OCC          E(Eh)            E(eV)
   0   2.0000     -19.152797      -521.1741
   1   2.0000     -19.141212      -520.8589
   2   2.0000     -19.139017      -520.7991
   3   2.0000     -19.138087      -520.7738
   4   2.0000     -10.276373      -279.6343
   5   2.0000     -10.247362      -278.8449
   6   2.0000     -10.233487      -278.4673
   7   2.0000     -10.232903      -278.4515
   8   2.0000     -10.230839      -278.3953
   9   2.0000     -10.229637      -278.3626
  10   2.0000     -10.198886      -277.5258
  11   2.0000     -10.195926      -277.4452
  12   2.0000     -10.192083      -277.3407
  13   2.0000      -1.050969       -28.5983
  14   2.0000      -1.035600       -28.1801
  15   2.0000      -1.017516       -27.6880
  16   2.0000      -0.994997       -27.0752
  17   2.0000      -0.789363       -21.4797
  18   2.0000      -0.785537       -21.3755
  19   2.0000      -0.774141       -21.0655
  20   2.0000      -0.733071       -19.9479
  21   2.0000      -0.685873       -18.6636
  22   2.0000      -0.614162       -16.7122
  23   2.0000      -0.605548       -16.4778
  24   2.0000      -0.598362       -16.2823
  25   2.0000      -0.573775       -15.6132
  26   2.0000      -0.528704       -14.3868
  27   2.0000      -0.508570       -13.8389
  28   2.0000      -0.504671       -13.7328
  29   2.0000      -0.495685       -13.4883
  30   2.0000      -0.474905       -12.9228
  31   2.0000      -0.462518       -12.5858
  32   2.0000      -0.447684       -12.1821
  33   2.0000      -0.435293       -11.8449
  34   2.0000      -0.426123       -11.5954
  35   2.0000      -0.421871       -11.4797
  36   2.0000      -0.411469       -11.1966
  37   2.0000      -0.403798       -10.9879
  38   2.0000      -0.384456       -10.4616
  39   2.0000      -0.378949       -10.3117
  40   2.0000      -0.362246        -9.8572
  41   2.0000      -0.358416        -9.7530
  42   2.0000      -0.349523        -9.5110
  43   2.0000      -0.332309        -9.0426
  44   2.0000      -0.317768        -8.6469
  45   2.0000      -0.314217        -8.5503
  46   2.0000      -0.299906        -8.1609
  47   2.0000      -0.273163        -7.4332
  48   2.0000      -0.264798        -7.2055
  49   2.0000      -0.251065        -6.8318
  50   2.0000      -0.242774        -6.6062
  51   0.0000       0.041778         1.1368
  52   0.0000       0.065178         1.7736
  53   0.0000       0.081716         2.2236
  54   0.0000       0.090716         2.4685
  55   0.0000       0.102310         2.7840

MULLIKEN ATOMIC CHARGES
-----------------------
   0 C :    0.305203
   1 C :   -0.284651
   2 C :   -0.311648
   3 C :   -0.008449
   4 O :   -0.503227
   5 H :    0.170381
   6 H :    0.157834
   7 H :    0.151591
   8 H :    0.145015
   9 H :    0.136108
  10 H :    0.142489
  11 H :    0.147447
  12 C :   -0.013581
  13 H :    0.144125
  14 H :    0.114453
  15 O :   -0.508799
  16 C :    0.094680
  17 C :    0.077369
  18 C :   -0.320448
  19 C :   -0.015061
  20 O :   -0.502273
  21 H :    0.171175
  22 H :    0.173878
  23 O :   -0.598223
  24 H :    0.160271
  25 H :    0.125556
  26 H :    0.142186
  27 H :    0.152509
  28 H :    0.354089
Sum of atomic charges:   -0.0000000

LOEWDIN ATOMIC CHARGES
----------------------
   0 C :    0.175350
   1 C :   -0.230318
   2 C :   -0.224285
   3 C :   -0.033524
   4 O :   -0.321826
   5 H :    0.115931
   6 H :    0.123692
   7 H :    0.119026
   8 H :    0.115079
   9 H :    0.102846
  10 H :    0.101129
  11 H :    0.104246
  12 C :   -0.052825
  13 H :    0.103532
  14 H :    0.084459
  15 O :   -0.303031
  16 C :    0.023219
  17 C :    0.033956
  18 C :   -0.241613
  19 C :   -0.032001
  20 O :   -0.311006
  21 H :    0.123506
  22 H :    0.121982
  23 O :   -0.406541
  24 H :    0.123565
  25 H :    0.100333
  26 H :    0.101227
  27 H :    0.107239
  28 H :    0.276653

  Mayer bond orders larger than 0.100000
B(  0-C ,  1-C ) :   0.9197 B(  0-C ,  4-O ) :   0.8948 B(  0-C ,  5-H ) :   0.9354
B(  0-C , 15-O ) :   0.9073 B(  1-C ,  2-C ) :   0.9551 B(  1-C ,  6-H ) :   0.9352
B(  1-C ,  7-H ) :   0.9350 B(  2-C ,  3-C ) :   0.9466 B(  2-C ,  8-H ) :   0.9457
B(  2-C ,  9-H ) :   0.9413 B(  3-C ,  4-O ) :   0.8521 B(  3-C , 10-H ) :   0.9336
B(  3-C , 11-H ) :   0.9384 B( 12-C , 13-H ) :   0.9040 B( 12-C , 14-H ) :   0.9052
B( 12-C , 15-O ) :   0.8459 B( 12-C , 16-C ) :   0.9029 B( 16-C , 17-C ) :   0.8732
B( 16-C , 20-O ) :   0.8707 B( 16-C , 21-H ) :   0.9274 B( 17-C , 18-C ) :   0.9228
B( 17-C , 22-H ) :   0.9318 B( 17-C , 23-O ) :   0.8970 B( 18-C , 19-C ) :   0.9386
B( 18-C , 24-H ) :   0.9411 B( 18-C , 25-H ) :   0.9415 B( 19-C , 20-O ) :   0.8527
B( 19-C , 26-H ) :   0.9314 B( 19-C , 27-H ) :   0.9368 B( 23-O , 28-H ) :   0.7994

FINAL SINGLE POINT ENERGY      -652.849832603191

DIPOLE MOMENT
-------------
                                X             Y             Z
Electronic contribution:     -3.96881      -5.41901       0.15909
Nuclear contribution   :      4.95058       7.26530      -0.25490
                        -----------------------------------------
Total Dipole Moment    :      0.98176       1.84629      -0.09581
                        -----------------------------------------
Magnitude (a.u.)       :      2.09328
Magnitude (Debye)      :      5.32070

Rotational constants in cm-1:     0.047463     0.014191     0.013239
Rotational constants in MHz :  1422.912096   425.441198   396.890099

                             ****ORCA TERMINATED NORMALLY****
TOTAL RUN TIME: 0 days 0 hours 40 minutes 18 seconds 446 msec
