                         Program Version 4.2.0 -  RELEASE  -
|  1> # Test redundant internal optimization
|  2> #
|  3> ! RKS B3LYP  Opt TightSCF SmallPrint
|  4>
|  5> %basis
|  6>         Basis "6-31G"
|  7> end
|  8>
|  9> %geom
| 10> Constraints
| 11> { D 4  0  15  12  270.0   C } # D for Dihedral angle
| 12> { D 0  15  12  16  30.0   C } # D for Dihedral angle
| 13> { D 0  4  3  2   C } # D for Dihedral angle
| 14> { D 4  3  2  1   C } # D for Dihedral angle
| 15> { D 3  2  1  0   C } # D for Dihedral angle
| 16> { D 2  1  0  4   C } # D for Dihedral angle
| 17> { D 1  0  4  3   C } # D for Dihedral angle
| 18> { D 16  20  19  18   C } # D for Dihedral angle
| 19> { D 20  19  18  17   C } # D for Dihedral angle
| 20> { D 19  18  17  16   C } # D for Dihedral angle
| 21> { D 18  17  16  20   C } # D for Dihedral angle
| 22> { D 17  16  20  19   C } # D for Dihedral angle
| 23> { D 15  12  16  20   C } # D for Dihedral angle
| 24> end
| 25> end
| 26>
| 27>
| 28> #%pal
| 29> #nprocs 8
| 30> #end
| 31>
| 32> * xyz 0 1
| 33> C  -21.048   26.222   46.251
| 34> C  -20.361   27.558   45.944
| 35> C  -20.329   28.222   47.341
| 36> C  -20.110   27.022   48.296
| 37> O  -20.473   25.807   47.535
| 38> H  -20.833   25.428   45.533
| 39> H  -19.344   27.382   45.576
| 40> H  -20.898   28.157   45.201
| 41> H  -19.543   28.978   47.434
| 42> H  -21.289   28.710   47.548
| 43> H  -20.733   27.082   49.195
| 44> H  -19.064   26.913   48.597
| 45> C  -23.420   25.119   46.072
| 46> H  -24.348   25.147   46.656
| 47> H  -23.684   25.077   45.008
| 48> O  -22.586   26.394   46.375
| 49> C  -22.662   23.808   46.423
| 50> C  -23.465   22.572   46.005
| 51> C  -23.181   22.512   44.486
| 52> C  -21.716   23.006   44.382
| 53> O  -21.420   23.711   45.648
| 54> H  -22.380   23.829   47.478
| 55> O  -22.909   21.309   46.718
| 56> H  -24.533   22.655   46.234
| 57> H  -23.313   21.508   44.068
| 58> H  -23.856   23.189   43.949
| 59> H  -21.564   23.695   43.544
| 60> H  -21.002   22.182   44.298
| 61> H  -21.840   21.205   46.501
| 62> *
| 63>
| 64>                          ****END OF INPUT****
 Total Charge           Charge          ....    0
 Multiplicity           Mult            ....    1
 Number of Electrons    NEL             ....  102
FINAL SINGLE POINT ENERGY      -652.826677419893
FINAL SINGLE POINT ENERGY      -652.849226960306
FINAL SINGLE POINT ENERGY      -652.858089336481
FINAL SINGLE POINT ENERGY      -652.860146745520
FINAL SINGLE POINT ENERGY      -652.860553955451
FINAL SINGLE POINT ENERGY      -652.860613634696
FINAL SINGLE POINT ENERGY      -652.860619105844
                    ***********************HURRAY********************

CARTESIAN COORDINATES (ANGSTROEM)
---------------------------------
  C    -20.867979   26.258798   46.208749
  C    -20.412115   27.704301   46.000695
  C    -20.503449   28.276284   47.435970
  C    -20.096212   27.071692   48.314596
  O    -20.250061   25.870348   47.460505
  H    -20.552601   25.526121   45.470985
  H    -19.375999   27.706137   45.642568
  H    -21.039946   28.235874   45.282753
  H    -19.851555   29.141829   47.588369
  H    -21.534389   28.575245   47.645342
  H    -20.725437   26.960402   49.202026
  H    -19.046188   27.107481   48.621531
  C    -23.147860   25.138912   46.068530
  H    -24.021690   25.267249   46.716309
  H    -23.490098   25.201857   45.024336
  O    -22.311386   26.299240   46.336096
  C    -22.552145   23.750116   46.327511
  C    -23.506630   22.596823   45.979573
  C    -23.274005   22.445219   44.452071
  C    -21.765411   22.761574   44.293266
  O    -21.350526   23.478982   45.526257
  H    -22.224059   23.694096   47.369468
  O    -23.149272   21.388955   46.702296
  H    -24.548288   22.791501   46.238541
  H    -23.536148   21.437558   44.120890
  H    -23.891919   23.162192   43.900607
  H    -21.555419   23.394035   43.425123
  H    -21.150146   21.859953   44.225121
  H    -22.173068   21.296225   46.715915

 Multiplicity           Mult            ....    1
 Number of Electrons    NEL             ....  102
 Basis Dimension        Dim             ....  149

ORBITAL ENERGIES
----------------

  NO   OCC          E(Eh)            E(eV)
   0   2.0000     -19.149344      -521.0801
   1   2.0000     -19.141086      -520.8554
   2   2.0000     -19.133863      -520.6589
   3   2.0000     -19.125905      -520.4423
   4   2.0000     -10.262105      -279.2461
   5   2.0000     -10.247118      -278.8382
   6   2.0000     -10.236471      -278.5485
   7   2.0000     -10.235750      -278.5289
   8   2.0000     -10.233059      -278.4557
   9   2.0000     -10.214325      -277.9459
  10   2.0000     -10.193631      -277.3828
  11   2.0000     -10.175196      -276.8812
  12   2.0000     -10.174651      -276.8663
  13   2.0000      -1.045230       -28.4422
  14   2.0000      -1.035643       -28.1813
  15   2.0000      -1.009843       -27.4792
  16   2.0000      -0.981959       -26.7205
  17   2.0000      -0.789716       -21.4893
  18   2.0000      -0.777751       -21.1637
  19   2.0000      -0.764681       -20.8080
  20   2.0000      -0.725999       -19.7554
  21   2.0000      -0.672640       -18.3035
  22   2.0000      -0.608324       -16.5533
  23   2.0000      -0.601280       -16.3617
  24   2.0000      -0.587325       -15.9819
  25   2.0000      -0.568930       -15.4814
  26   2.0000      -0.527410       -14.3516
  27   2.0000      -0.507709       -13.8155
  28   2.0000      -0.494156       -13.4467
  29   2.0000      -0.479322       -13.0430
  30   2.0000      -0.473854       -12.8942
  31   2.0000      -0.455379       -12.3915
  32   2.0000      -0.445204       -12.1146
  33   2.0000      -0.437867       -11.9150
  34   2.0000      -0.419592       -11.4177
  35   2.0000      -0.408793       -11.1238
  36   2.0000      -0.397673       -10.8212
  37   2.0000      -0.390625       -10.6294
  38   2.0000      -0.378199       -10.2913
  39   2.0000      -0.366250        -9.9662
  40   2.0000      -0.363479        -9.8908
  41   2.0000      -0.346426        -9.4267
  42   2.0000      -0.338871        -9.2212
  43   2.0000      -0.333310        -9.0698
  44   2.0000      -0.321405        -8.7459
  45   2.0000      -0.308676        -8.3995
  46   2.0000      -0.291048        -7.9198
  47   2.0000      -0.275732        -7.5030
  48   2.0000      -0.257763        -7.0141
  49   2.0000      -0.252423        -6.8688
  50   2.0000      -0.232534        -6.3276
  51   0.0000       0.062007         1.6873
  52   0.0000       0.083330         2.2675
  53   0.0000       0.090315         2.4576
  54   0.0000       0.099354         2.7035
  55   0.0000       0.106923         2.9095

MULLIKEN ATOMIC CHARGES
-----------------------
   0 C :    0.279731
   1 C :   -0.253536
   2 C :   -0.295446
   3 C :   -0.001243
   4 O :   -0.511517
   5 H :    0.181088
   6 H :    0.140550
   7 H :    0.146902
   8 H :    0.133957
   9 H :    0.159586
  10 H :    0.141541
  11 H :    0.137731
  12 C :    0.017111
  13 H :    0.150293
  14 H :    0.122424
  15 O :   -0.541030
  16 C :    0.041077
  17 C :    0.083422
  18 C :   -0.294986
  19 C :   -0.030195
  20 O :   -0.518435
  21 H :    0.184869
  22 O :   -0.602138
  23 H :    0.153177
  24 H :    0.163028
  25 H :    0.146736
  26 H :    0.144364
  27 H :    0.152834
  28 H :    0.368104
Sum of atomic charges:    0.0000000

LOEWDIN ATOMIC CHARGES
----------------------
   0 C :    0.168060
   1 C :   -0.215733
   2 C :   -0.216104
   3 C :   -0.029342
   4 O :   -0.325836
   5 H :    0.117171
   6 H :    0.111178
   7 H :    0.119079
   8 H :    0.109821
   9 H :    0.117826
  10 H :    0.102242
  11 H :    0.099887
  12 C :   -0.035834
  13 H :    0.114989
  14 H :    0.090200
  15 O :   -0.333380
  16 C :    0.003085
  17 C :    0.039312
  18 C :   -0.240585
  19 C :   -0.039551
  20 O :   -0.323687
  21 H :    0.127135
  22 O :   -0.412429
  23 H :    0.116380
  24 H :    0.127506
  25 H :    0.113774
  26 H :    0.103431
  27 H :    0.105870
  28 H :    0.285537

  Mayer bond orders larger than 0.100000
B(  0-C ,  1-C ) :   0.9433 B(  0-C ,  4-O ) :   0.9002 B(  0-C ,  5-H ) :   0.9007
B(  0-C , 15-O ) :   0.8311 B(  1-C ,  2-C ) :   0.9561 B(  1-C ,  6-H ) :   0.9418
B(  1-C ,  7-H ) :   0.9385 B(  2-C ,  3-C ) :   0.9549 B(  2-C ,  8-H ) :   0.9465
B(  2-C ,  9-H ) :   0.9443 B(  3-C ,  4-O ) :   0.8454 B(  3-C , 10-H ) :   0.9361
B(  3-C , 11-H ) :   0.9404 B( 12-C , 13-H ) :   0.9260 B( 12-C , 14-H ) :   0.9241
B( 12-C , 15-O ) :   0.8614 B( 12-C , 16-C ) :   0.8990 B( 16-C , 17-C ) :   0.8943
B( 16-C , 20-O ) :   0.8358 B( 16-C , 21-H ) :   0.9163 B( 17-C , 18-C ) :   0.9093
B( 17-C , 22-O ) :   0.8941 B( 17-C , 23-H ) :   0.9338 B( 18-C , 19-C ) :   0.9426
B( 18-C , 24-H ) :   0.9376 B( 18-C , 25-H ) :   0.9322 B( 19-C , 20-O ) :   0.8427
B( 19-C , 26-H ) :   0.9349 B( 19-C , 27-H ) :   0.9373 B( 22-O , 28-H ) :   0.7926

FINAL SINGLE POINT ENERGY      -652.860620179062

DIPOLE MOMENT
-------------
                                X             Y             Z
Electronic contribution:     -0.00972      -3.60066       1.71200
Nuclear contribution   :     -0.17582       3.94998      -2.58340
                        -----------------------------------------
Total Dipole Moment    :     -0.18554       0.34932      -0.87140
                        -----------------------------------------
Magnitude (a.u.)       :      0.95697
Magnitude (Debye)      :      2.43241

Rotational constants in cm-1:     0.062606     0.013169     0.012810
Rotational constants in MHz :  1876.887294   394.805536   384.042477

                             ****ORCA TERMINATED NORMALLY****
TOTAL RUN TIME: 0 days 0 hours 25 minutes 1 seconds 187 msec
