                         Program Version 4.2.0 -  RELEASE  -
|  1> # Test redundant internal optimization
|  2> #
|  3> ! RKS B3LYP  Opt TightSCF SmallPrint
|  4>
|  5> %basis
|  6>         Basis "6-31G"
|  7> end
|  8>
|  9> %geom
| 10> Constraints
| 11> { D 4  0  15  12  240.0   C } # D for Dihedral angle
| 12> { D 0  15  12  16  30.0   C } # D for Dihedral angle
| 13> { D 0  4  3  2   C } # D for Dihedral angle
| 14> { D 4  3  2  1   C } # D for Dihedral angle
| 15> { D 3  2  1  0   C } # D for Dihedral angle
| 16> { D 2  1  0  4   C } # D for Dihedral angle
| 17> { D 1  0  4  3   C } # D for Dihedral angle
| 18> { D 16  20  19  18   C } # D for Dihedral angle
| 19> { D 20  19  18  17   C } # D for Dihedral angle
| 20> { D 19  18  17  16   C } # D for Dihedral angle
| 21> { D 18  17  16  20   C } # D for Dihedral angle
| 22> { D 17  16  20  19   C } # D for Dihedral angle
| 23> { D 15  12  16  20   C } # D for Dihedral angle
| 24> end
| 25> end
| 26>
| 27>
| 28> #%pal
| 29> #nprocs 8
| 30> #end
| 31>
| 32> * xyz 0 1
| 33> C  -21.048   26.222   46.251
| 34> C  -20.361   27.558   45.944
| 35> C  -20.329   28.222   47.341
| 36> C  -20.110   27.022   48.296
| 37> O  -20.473   25.807   47.535
| 38> H  -20.833   25.428   45.533
| 39> H  -19.344   27.382   45.576
| 40> H  -20.898   28.157   45.201
| 41> H  -19.543   28.978   47.434
| 42> H  -21.289   28.710   47.548
| 43> H  -20.733   27.082   49.195
| 44> H  -19.064   26.913   48.597
| 45> C  -23.430   25.483   45.442
| 46> H  -24.394   25.269   45.920
| 47> H  -23.625   25.987   44.487
| 48> O  -22.586   26.394   46.375
| 49> C  -22.730   24.131   45.130
| 50> C  -22.571   23.281   46.395
| 51> C  -23.990   22.686   46.554
| 52> C  -24.448   22.473   45.089
| 53> O  -23.568   23.312   44.248
| 54> H  -21.798   24.326   44.595
| 55> O  -21.528   22.156   46.153
| 56> H  -22.253   23.862   47.268
| 57> H  -23.999   21.757   47.133
| 58> H  -24.644   23.404   47.063
| 59> H  -25.489   22.771   44.928
| 60> H  -24.321   21.439   44.758
| 61> H  -21.826   21.558   45.283
| 62> *
| 63>
| 64>                          ****END OF INPUT****
 Total Charge           Charge          ....    0
 Multiplicity           Mult            ....    1
 Number of Electrons    NEL             ....  102
FINAL SINGLE POINT ENERGY      -652.830335466354
FINAL SINGLE POINT ENERGY      -652.853122128519
FINAL SINGLE POINT ENERGY      -652.856786298299
FINAL SINGLE POINT ENERGY      -652.858595961633
FINAL SINGLE POINT ENERGY      -652.858744455103
FINAL SINGLE POINT ENERGY      -652.858771429723
                    ***********************HURRAY********************

CARTESIAN COORDINATES (ANGSTROEM)
---------------------------------
  C    -20.921308   26.188821   46.230875
  C    -20.323874   27.569214   45.955023
  C    -20.475433   28.263279   47.330504
  C    -20.247108   27.105747   48.328204
  O    -20.441864   25.855675   47.551358
  H    -20.585396   25.396047   45.562910
  H    -19.266154   27.463298   45.685879
  H    -20.844427   28.091028   45.148852
  H    -19.763729   29.082108   47.470937
  H    -21.489450   28.661189   47.429097
  H    -20.953012   27.113306   49.162780
  H    -19.225282   27.075452   48.718249
  C    -23.228458   25.461490   45.439387
  H    -24.165833   25.396373   45.998652
  H    -23.439981   25.964020   44.486866
  O    -22.364979   26.306932   46.258696
  C    -22.706315   24.055532   45.114722
  C    -22.501950   23.120723   46.315262
  C    -23.952688   22.659824   46.601737
  C    -24.587340   22.576427   45.191085
  O    -23.715632   23.376175   44.289461
  H    -21.804333   24.099552   44.498488
  O    -21.642030   22.004934   45.948705
  H    -22.016687   23.599505   47.165974
  H    -23.955303   21.701583   47.126926
  H    -24.467885   23.395060   47.229404
  H    -25.602535   22.982551   45.154400
  H    -24.604519   21.556345   44.795134
  H    -21.931498   21.647811   45.082432

 Multiplicity           Mult            ....    1
 Number of Electrons    NEL             ....  102
 Basis Dimension        Dim             ....  149

ORBITAL ENERGIES
----------------

  NO   OCC          E(Eh)            E(eV)
   0   2.0000     -19.148335      -521.0527
   1   2.0000     -19.140605      -520.8423
   2   2.0000     -19.138030      -520.7723
   3   2.0000     -19.135660      -520.7078
   4   2.0000     -10.279733      -279.7257
   5   2.0000     -10.237134      -278.5666
   6   2.0000     -10.236146      -278.5397
   7   2.0000     -10.233601      -278.4704
   8   2.0000     -10.232583      -278.4427
   9   2.0000     -10.222985      -278.1816
  10   2.0000     -10.188430      -277.2413
  11   2.0000     -10.183697      -277.1125
  12   2.0000     -10.183365      -277.1034
  13   2.0000      -1.050611       -28.5886
  14   2.0000      -1.037253       -28.2251
  15   2.0000      -1.004995       -27.3473
  16   2.0000      -0.991550       -26.9815
  17   2.0000      -0.786774       -21.4092
  18   2.0000      -0.778262       -21.1776
  19   2.0000      -0.766633       -20.8612
  20   2.0000      -0.734583       -19.9890
  21   2.0000      -0.675513       -18.3816
  22   2.0000      -0.608928       -16.5698
  23   2.0000      -0.602415       -16.3925
  24   2.0000      -0.596413       -16.2292
  25   2.0000      -0.569556       -15.4984
  26   2.0000      -0.523513       -14.2455
  27   2.0000      -0.521296       -14.1852
  28   2.0000      -0.496149       -13.5009
  29   2.0000      -0.482567       -13.1313
  30   2.0000      -0.466585       -12.6964
  31   2.0000      -0.460709       -12.5365
  32   2.0000      -0.453208       -12.3324
  33   2.0000      -0.431450       -11.7404
  34   2.0000      -0.424534       -11.5522
  35   2.0000      -0.414594       -11.2817
  36   2.0000      -0.400298       -10.8927
  37   2.0000      -0.393200       -10.6995
  38   2.0000      -0.372856       -10.1459
  39   2.0000      -0.368329       -10.0228
  40   2.0000      -0.364104        -9.9078
  41   2.0000      -0.354657        -9.6507
  42   2.0000      -0.349513        -9.5107
  43   2.0000      -0.333521        -9.0756
  44   2.0000      -0.316046        -8.6000
  45   2.0000      -0.308630        -8.3983
  46   2.0000      -0.306760        -8.3474
  47   2.0000      -0.268684        -7.3113
  48   2.0000      -0.264295        -7.1918
  49   2.0000      -0.254500        -6.9253
  50   2.0000      -0.239507        -6.5173
  51   0.0000       0.062225         1.6932
  52   0.0000       0.074858         2.0370
  53   0.0000       0.092840         2.5263
  54   0.0000       0.098145         2.6707
  55   0.0000       0.099839         2.7168

MULLIKEN ATOMIC CHARGES
-----------------------
   0 C :    0.275245
   1 C :   -0.247970
   2 C :   -0.298718
   3 C :   -0.001245
   4 O :   -0.504851
   5 H :    0.151492
   6 H :    0.143353
   7 H :    0.146539
   8 H :    0.140071
   9 H :    0.163883
  10 H :    0.150293
  11 H :    0.141888
  12 C :    0.013312
  13 H :    0.147789
  14 H :    0.148225
  15 O :   -0.532045
  16 C :    0.019538
  17 C :    0.080584
  18 C :   -0.304462
  19 C :   -0.033449
  20 O :   -0.529132
  21 H :    0.161890
  22 O :   -0.602415
  23 H :    0.195389
  24 H :    0.164371
  25 H :    0.152893
  26 H :    0.149097
  27 H :    0.147639
  28 H :    0.360797
Sum of atomic charges:    0.0000000

LOEWDIN ATOMIC CHARGES
----------------------
   0 C :    0.172034
   1 C :   -0.218412
   2 C :   -0.215892
   3 C :   -0.026588
   4 O :   -0.319511
   5 H :    0.102661
   6 H :    0.112397
   7 H :    0.118658
   8 H :    0.113316
   9 H :    0.120025
  10 H :    0.107066
  11 H :    0.102319
  12 C :   -0.036140
  13 H :    0.110442
  14 H :    0.104141
  15 O :   -0.335662
  16 C :   -0.001460
  17 C :    0.033494
  18 C :   -0.241177
  19 C :   -0.038350
  20 O :   -0.329135
  21 H :    0.110492
  22 O :   -0.413836
  23 H :    0.135290
  24 H :    0.127942
  25 H :    0.117303
  26 H :    0.105263
  27 H :    0.103207
  28 H :    0.280112

  Mayer bond orders larger than 0.100000
B(  0-C ,  1-C ) :   0.9427 B(  0-C ,  4-O ) :   0.9132 B(  0-C ,  5-H ) :   0.9110
B(  0-C , 15-O ) :   0.8409 B(  1-C ,  2-C ) :   0.9568 B(  1-C ,  6-H ) :   0.9371
B(  1-C ,  7-H ) :   0.9392 B(  2-C ,  3-C ) :   0.9539 B(  2-C ,  8-H ) :   0.9455
B(  2-C ,  9-H ) :   0.9433 B(  3-C ,  4-O ) :   0.8359 B(  3-C , 10-H ) :   0.9352
B(  3-C , 11-H ) :   0.9398 B( 12-C , 13-H ) :   0.9352 B( 12-C , 14-H ) :   0.9186
B( 12-C , 15-O ) :   0.8380 B( 12-C , 16-C ) :   0.8903 B( 16-C , 17-C ) :   0.9010
B( 16-C , 20-O ) :   0.8314 B( 16-C , 21-H ) :   0.9210 B( 17-C , 18-C ) :   0.9135
B( 17-C , 22-O ) :   0.8860 B( 17-C , 23-H ) :   0.9123 B( 18-C , 19-C ) :   0.9407
B( 18-C , 24-H ) :   0.9372 B( 18-C , 25-H ) :   0.9331 B( 19-C , 20-O ) :   0.8393
B( 19-C , 26-H ) :   0.9354 B( 19-C , 27-H ) :   0.9380 B( 22-O , 28-H ) :   0.7971

FINAL SINGLE POINT ENERGY      -652.858774266675

DIPOLE MOMENT
-------------
                                X             Y             Z
Electronic contribution:      0.29880      -3.38547      -1.68648
Nuclear contribution   :     -0.69788       3.95127       1.57295
                        -----------------------------------------
Total Dipole Moment    :     -0.39908       0.56580      -0.11353
                        -----------------------------------------
Magnitude (a.u.)       :      0.70163
Magnitude (Debye)      :      1.78341

Rotational constants in cm-1:     0.058096     0.013590     0.012536
Rotational constants in MHz :  1741.684395   407.411429   375.830891

                             ****ORCA TERMINATED NORMALLY****
TOTAL RUN TIME: 0 days 1 hours 2 minutes 6 seconds 178 msec
