                         Program Version 4.2.0 -  RELEASE  -
|  1> # Test redundant internal optimization
|  2> #
|  3> ! RKS B3LYP  Opt TightSCF SmallPrint
|  4>
|  5> %basis
|  6>         Basis "6-31G"
|  7> end
|  8>
|  9> %geom
| 10> Constraints
| 11> { D 4  0  15  12  180.0   C } # D for Dihedral angle
| 12> { D 0  15  12  16  30.0   C } # D for Dihedral angle
| 13> { D 0  4  3  2   C } # D for Dihedral angle
| 14> { D 4  3  2  1   C } # D for Dihedral angle
| 15> { D 3  2  1  0   C } # D for Dihedral angle
| 16> { D 2  1  0  4   C } # D for Dihedral angle
| 17> { D 1  0  4  3   C } # D for Dihedral angle
| 18> { D 16  20  19  18   C } # D for Dihedral angle
| 19> { D 20  19  18  17   C } # D for Dihedral angle
| 20> { D 19  18  17  16   C } # D for Dihedral angle
| 21> { D 18  17  16  20   C } # D for Dihedral angle
| 22> { D 17  16  20  19   C } # D for Dihedral angle
| 23> { D 15  12  16  20   C } # D for Dihedral angle
| 24> end
| 25> end
| 26>
| 27>
| 28> #%pal
| 29> #nprocs 8
| 30> #end
| 31>
| 32> * xyz 0 1
| 33> C  -21.048   26.222   46.251
| 34> C  -20.361   27.558   45.944
| 35> C  -20.329   28.222   47.341
| 36> C  -20.110   27.022   48.296
| 37> O  -20.473   25.807   47.535
| 38> H  -20.833   25.428   45.533
| 39> H  -19.344   27.382   45.576
| 40> H  -20.898   28.157   45.201
| 41> H  -19.543   28.978   47.434
| 42> H  -21.289   28.710   47.548
| 43> H  -20.733   27.082   49.195
| 44> H  -19.064   26.913   48.597
| 45> C  -23.309   26.834   45.072
| 46> H  -24.332   26.437   45.074
| 47> H  -23.365   27.928   45.015
| 48> O  -22.586   26.394   46.375
| 49> C  -22.592   26.329   43.789
| 50> C  -22.618   24.799   43.702
| 51> C  -24.054   24.539   43.188
| 52> C  -24.312   25.738   42.242
| 53> O  -23.315   26.772   42.591
| 54> H  -21.594   26.768   43.740
| 55> O  -21.568   24.307   42.668
| 56> H  -22.413   24.310   44.660
| 57> H  -24.154   23.575   42.679
| 58> H  -24.761   24.549   44.027
| 59> H  -25.318   26.155   42.359
| 60> H  -24.156   25.481   41.191
| 61> H  -21.754   24.784   41.698
| 62> *
| 63>
| 64>                          ****END OF INPUT****
 Total Charge           Charge          ....    0
 Multiplicity           Mult            ....    1
 Number of Electrons    NEL             ....  102
FINAL SINGLE POINT ENERGY      -652.828637623114
FINAL SINGLE POINT ENERGY      -652.850714700403
FINAL SINGLE POINT ENERGY      -652.854674652554
FINAL SINGLE POINT ENERGY      -652.855278383572
FINAL SINGLE POINT ENERGY      -652.855373574388
FINAL SINGLE POINT ENERGY      -652.855385471578
                    ***********************HURRAY********************

CARTESIAN COORDINATES (ANGSTROEM)
---------------------------------
  C    -20.994542   26.215966   46.244653
  C    -20.228209   27.508875   45.968099
  C    -20.343097   28.249430   47.325434
  C    -20.289062   27.094729   48.346714
  O    -20.605992   25.862795   47.578037
  H    -20.741005   25.372435   45.599466
  H    -19.183086   27.266060   45.742083
  H    -20.630557   28.092242   45.135643
  H    -19.539958   28.977424   47.473724
  H    -21.301772   28.772766   47.383559
  H    -21.017969   27.197420   49.154349
  H    -19.291868   26.947841   48.772001
  C    -23.158753   26.811062   45.064679
  H    -24.173094   26.430442   45.211055
  H    -23.218012   27.905604   44.996998
  O    -22.439935   26.432514   46.280196
  C    -22.584441   26.304815   43.733139
  C    -22.578643   24.778277   43.558878
  C    -24.058734   24.498740   43.182535
  C    -24.447452   25.740188   42.340880
  O    -23.442441   26.789045   42.645857
  H    -21.589736   26.719029   43.546860
  O    -21.654810   24.379255   42.510152
  H    -22.263321   24.232543   44.447342
  H    -24.142886   23.562567   42.625076
  H    -24.671655   24.416019   44.085677
  H    -25.443777   26.122995   42.581726
  H    -24.397329   25.552267   41.263670
  H    -21.793865   24.946653   41.722517

 Multiplicity           Mult            ....    1
 Number of Electrons    NEL             ....  102
 Basis Dimension        Dim             ....  149

ORBITAL ENERGIES
----------------

  NO   OCC          E(Eh)            E(eV)
   0   2.0000     -19.152496      -521.1659
   1   2.0000     -19.144002      -520.9348
   2   2.0000     -19.139713      -520.8181
   3   2.0000     -19.139682      -520.8172
   4   2.0000     -10.279973      -279.7323
   5   2.0000     -10.245361      -278.7905
   6   2.0000     -10.241870      -278.6954
   7   2.0000     -10.237830      -278.5855
   8   2.0000     -10.232777      -278.4480
   9   2.0000     -10.224178      -278.2140
  10   2.0000     -10.193846      -277.3886
  11   2.0000     -10.187905      -277.2270
  12   2.0000     -10.186849      -277.1983
  13   2.0000      -1.052162       -28.6308
  14   2.0000      -1.043259       -28.3885
  15   2.0000      -1.012831       -27.5605
  16   2.0000      -0.991084       -26.9688
  17   2.0000      -0.786843       -21.4111
  18   2.0000      -0.784663       -21.3518
  19   2.0000      -0.770713       -20.9722
  20   2.0000      -0.737446       -20.0669
  21   2.0000      -0.679909       -18.5013
  22   2.0000      -0.611245       -16.6328
  23   2.0000      -0.606926       -16.5153
  24   2.0000      -0.599917       -16.3246
  25   2.0000      -0.574228       -15.6255
  26   2.0000      -0.530178       -14.4269
  27   2.0000      -0.514172       -13.9913
  28   2.0000      -0.502215       -13.6660
  29   2.0000      -0.486335       -13.2338
  30   2.0000      -0.477625       -12.9968
  31   2.0000      -0.462830       -12.5942
  32   2.0000      -0.451249       -12.2791
  33   2.0000      -0.439501       -11.9594
  34   2.0000      -0.425137       -11.5686
  35   2.0000      -0.419161       -11.4060
  36   2.0000      -0.404434       -11.0052
  37   2.0000      -0.399247       -10.8641
  38   2.0000      -0.378396       -10.2967
  39   2.0000      -0.374733       -10.1970
  40   2.0000      -0.365870        -9.9558
  41   2.0000      -0.358791        -9.7632
  42   2.0000      -0.354613        -9.6495
  43   2.0000      -0.337307        -9.1786
  44   2.0000      -0.316248        -8.6056
  45   2.0000      -0.313130        -8.5207
  46   2.0000      -0.305717        -8.3190
  47   2.0000      -0.275838        -7.5059
  48   2.0000      -0.259461        -7.0603
  49   2.0000      -0.256926        -6.9913
  50   2.0000      -0.245411        -6.6780
  51   0.0000       0.057427         1.5627
  52   0.0000       0.072302         1.9674
  53   0.0000       0.084870         2.3094
  54   0.0000       0.093427         2.5423
  55   0.0000       0.096726         2.6320

MULLIKEN ATOMIC CHARGES
-----------------------
   0 C :    0.294385
   1 C :   -0.281609
   2 C :   -0.297298
   3 C :   -0.001061
   4 O :   -0.503283
   5 H :    0.154155
   6 H :    0.149968
   7 H :    0.145191
   8 H :    0.142672
   9 H :    0.159648
  10 H :    0.154854
  11 H :    0.142618
  12 C :    0.000180
  13 H :    0.149314
  14 H :    0.147432
  15 O :   -0.520900
  16 C :    0.024720
  17 C :    0.085738
  18 C :   -0.303047
  19 C :   -0.033233
  20 O :   -0.526846
  21 H :    0.161913
  22 O :   -0.603369
  23 H :    0.174114
  24 H :    0.163565
  25 H :    0.156740
  26 H :    0.149371
  27 H :    0.150704
  28 H :    0.363366
Sum of atomic charges:   -0.0000000

LOEWDIN ATOMIC CHARGES
----------------------
   0 C :    0.177282
   1 C :   -0.233379
   2 C :   -0.215909
   3 C :   -0.024681
   4 O :   -0.301022
   5 H :    0.100757
   6 H :    0.117071
   7 H :    0.113508
   8 H :    0.114739
   9 H :    0.117455
  10 H :    0.109722
  11 H :    0.102878
  12 C :   -0.044247
  13 H :    0.112397
  14 H :    0.103066
  15 O :   -0.337695
  16 C :   -0.001588
  17 C :    0.033477
  18 C :   -0.240160
  19 C :   -0.038298
  20 O :   -0.326954
  21 H :    0.111682
  22 O :   -0.413537
  23 H :    0.123504
  24 H :    0.127803
  25 H :    0.119428
  26 H :    0.105800
  27 H :    0.104225
  28 H :    0.282674

  Mayer bond orders larger than 0.100000
B(  0-C ,  1-C ) :   0.9272 B(  0-C ,  4-O ) :   0.9339 B(  0-C ,  5-H ) :   0.9107
B(  0-C , 15-O ) :   0.8291 B(  1-C ,  2-C ) :   0.9489 B(  1-C ,  6-H ) :   0.9342
B(  1-C ,  7-H ) :   0.9310 B(  2-C ,  3-C ) :   0.9555 B(  2-C ,  8-H ) :   0.9448
B(  2-C ,  9-H ) :   0.9453 B(  3-C ,  4-O ) :   0.8340 B(  3-C , 10-H ) :   0.9347
B(  3-C , 11-H ) :   0.9397 B( 12-C , 13-H ) :   0.9335 B( 12-C , 14-H ) :   0.9152
B( 12-C , 15-O ) :   0.8436 B( 12-C , 16-C ) :   0.8871 B( 16-C , 17-C ) :   0.8986
B( 16-C , 20-O ) :   0.8338 B( 16-C , 21-H ) :   0.9191 B( 17-C , 18-C ) :   0.9122
B( 17-C , 22-O ) :   0.8889 B( 17-C , 23-H ) :   0.9230 B( 18-C , 19-C ) :   0.9406
B( 18-C , 24-H ) :   0.9377 B( 18-C , 25-H ) :   0.9326 B( 19-C , 20-O ) :   0.8398
B( 19-C , 26-H ) :   0.9352 B( 19-C , 27-H ) :   0.9373 B( 22-O , 28-H ) :   0.7958

FINAL SINGLE POINT ENERGY      -652.855386694889

DIPOLE MOMENT
-------------
                                X             Y             Z
Electronic contribution:      0.07245      -2.50318      -0.74977
Nuclear contribution   :     -0.36233       3.18569       0.29101
                        -----------------------------------------
Total Dipole Moment    :     -0.28988       0.68252      -0.45876
                        -----------------------------------------
Magnitude (a.u.)       :      0.87197
Magnitude (Debye)      :      2.21636

Rotational constants in cm-1:     0.060272     0.013161     0.012624
Rotational constants in MHz :  1806.900262   394.548841   378.462987

                             ****ORCA TERMINATED NORMALLY****
TOTAL RUN TIME: 0 days 0 hours 20 minutes 38 seconds 261 msec
