                         Program Version 4.2.0 -  RELEASE  -
|  1> # Test redundant internal optimization
|  2> #
|  3> ! RKS B3LYP  Opt TightSCF SmallPrint
|  4>
|  5> %basis
|  6>         Basis "6-31G"
|  7> end
|  8>
|  9> %geom
| 10> Constraints
| 11> { D 4  0  15  12  255.0   C } # D for Dihedral angle
| 12> { D 0  15  12  16  270.0   C } # D for Dihedral angle
| 13> { D 0  4  3  2   C } # D for Dihedral angle
| 14> { D 4  3  2  1   C } # D for Dihedral angle
| 15> { D 3  2  1  0   C } # D for Dihedral angle
| 16> { D 2  1  0  4   C } # D for Dihedral angle
| 17> { D 1  0  4  3   C } # D for Dihedral angle
| 18> { D 16  20  19  18   C } # D for Dihedral angle
| 19> { D 20  19  18  17   C } # D for Dihedral angle
| 20> { D 19  18  17  16   C } # D for Dihedral angle
| 21> { D 18  17  16  20   C } # D for Dihedral angle
| 22> { D 17  16  20  19   C } # D for Dihedral angle
| 23> { D 15  12  16  20   C } # D for Dihedral angle
| 24> end
| 25> end
| 26>
| 27>
| 28> #%pal
| 29> #nprocs 8
| 30> #end
| 31>
| 32> * xyz 0 1
| 33> C  -21.048   26.222   46.251
| 34> C  -20.361   27.558   45.944
| 35> C  -20.329   28.222   47.341
| 36> C  -20.110   27.022   48.296
| 37> O  -20.473   25.807   47.535
| 38> H  -20.833   25.428   45.533
| 39> H  -19.344   27.382   45.576
| 40> H  -20.898   28.157   45.201
| 41> H  -19.543   28.978   47.434
| 42> H  -21.289   28.710   47.548
| 43> H  -20.733   27.082   49.195
| 44> H  -19.064   26.913   48.597
| 45> C  -23.431   25.260   45.734
| 46> H  -22.872   24.317   45.787
| 47> H  -24.376   25.130   46.278
| 48> O  -22.586   26.394   46.375
| 49> C  -23.778   25.538   44.245
| 50> C  -22.516   25.565   43.375
| 51> C  -22.231   24.056   43.188
| 52> C  -23.650   23.437   43.117
| 53> O  -24.574   24.438   43.690
| 54> H  -24.390   26.439   44.182
| 55> O  -22.824   26.239   42.010
| 56> H  -21.682   26.100   43.842
| 57> H  -21.638   23.844   42.292
| 58> H  -21.682   23.667   44.053
| 59> H  -23.730   22.506   43.687
| 60> H  -23.973   23.251   42.089
| 61> H  -23.657   25.719   41.522
| 62> *
| 63>
| 64>                          ****END OF INPUT****
 Total Charge           Charge          ....    0
 Multiplicity           Mult            ....    1
 Number of Electrons    NEL             ....  102
FINAL SINGLE POINT ENERGY      -652.833830961322
FINAL SINGLE POINT ENERGY      -652.856958275580
FINAL SINGLE POINT ENERGY      -652.861433235365
FINAL SINGLE POINT ENERGY      -652.862175215733
FINAL SINGLE POINT ENERGY      -652.862279888295
FINAL SINGLE POINT ENERGY      -652.862289957182
                    ***********************HURRAY********************

CARTESIAN COORDINATES (ANGSTROEM)
---------------------------------
  C    -21.017191   26.170406   46.245828
  C    -20.374833   27.527263   45.956757
  C    -20.426717   28.206742   47.345935
  C    -20.199408   27.026841   48.317131
  O    -20.487194   25.797408   47.536337
  H    -20.755214   25.358824   45.561891
  H    -19.337296   27.377718   45.635160
  H    -20.909811   28.084487   45.185111
  H    -19.673111   28.991800   47.459025
  H    -21.415609   28.648161   47.500437
  H    -20.861494   27.053562   49.186184
  H    -19.161616   26.947521   48.654658
  C    -23.311665   25.324971   45.742677
  H    -22.862510   24.331413   45.883096
  H    -24.240679   25.354228   46.315149
  O    -22.451620   26.352004   46.310184
  C    -23.644540   25.557454   44.260570
  C    -22.476132   25.542797   43.262049
  C    -22.234255   24.019905   43.080553
  C    -23.663674   23.427292   43.170926
  O    -24.510124   24.459387   43.814692
  H    -24.216169   26.484390   44.156862
  O    -22.869116   26.175559   42.012229
  H    -21.596822   26.091768   43.591109
  H    -21.748367   23.816013   42.123264
  H    -21.592411   23.634148   43.880935
  H    -23.706809   22.509934   43.765532
  H    -24.095321   23.224433   42.186023
  H    -23.775289   25.884572   41.776697

 Multiplicity           Mult            ....    1
 Number of Electrons    NEL             ....  102
 Basis Dimension        Dim             ....  149

ORBITAL ENERGIES
----------------

  NO   OCC          E(Eh)            E(eV)
   0   2.0000     -19.149660      -521.0887
   1   2.0000     -19.144796      -520.9564
   2   2.0000     -19.141761      -520.8738
   3   2.0000     -19.138304      -520.7797
   4   2.0000     -10.282161      -279.7918
   5   2.0000     -10.245385      -278.7911
   6   2.0000     -10.236416      -278.5470
   7   2.0000     -10.236310      -278.5442
   8   2.0000     -10.232583      -278.4427
   9   2.0000     -10.223815      -278.2042
  10   2.0000     -10.194451      -277.4051
  11   2.0000     -10.186002      -277.1752
  12   2.0000     -10.184767      -277.1416
  13   2.0000      -1.053645       -28.6711
  14   2.0000      -1.041618       -28.3439
  15   2.0000      -1.010271       -27.4909
  16   2.0000      -0.995555       -27.0904
  17   2.0000      -0.788377       -21.4528
  18   2.0000      -0.783221       -21.3125
  19   2.0000      -0.769072       -20.9275
  20   2.0000      -0.734630       -19.9903
  21   2.0000      -0.677468       -18.4349
  22   2.0000      -0.608858       -16.5679
  23   2.0000      -0.598889       -16.2966
  24   2.0000      -0.597532       -16.2597
  25   2.0000      -0.586619       -15.9627
  26   2.0000      -0.526160       -14.3176
  27   2.0000      -0.520700       -14.1690
  28   2.0000      -0.501734       -13.6529
  29   2.0000      -0.487276       -13.2594
  30   2.0000      -0.474301       -12.9064
  31   2.0000      -0.460255       -12.5242
  32   2.0000      -0.446377       -12.1465
  33   2.0000      -0.439425       -11.9574
  34   2.0000      -0.428148       -11.6505
  35   2.0000      -0.422104       -11.4860
  36   2.0000      -0.401898       -10.9362
  37   2.0000      -0.397939       -10.8285
  38   2.0000      -0.378145       -10.2899
  39   2.0000      -0.373868       -10.1735
  40   2.0000      -0.356899        -9.7117
  41   2.0000      -0.355980        -9.6867
  42   2.0000      -0.351076        -9.5533
  43   2.0000      -0.336719        -9.1626
  44   2.0000      -0.320290        -8.7155
  45   2.0000      -0.311948        -8.4885
  46   2.0000      -0.304921        -8.2973
  47   2.0000      -0.278031        -7.5656
  48   2.0000      -0.272562        -7.4168
  49   2.0000      -0.256263        -6.9733
  50   2.0000      -0.241033        -6.5588
  51   0.0000       0.062167         1.6917
  52   0.0000       0.065059         1.7703
  53   0.0000       0.090841         2.4719
  54   0.0000       0.094908         2.5826
  55   0.0000       0.100253         2.7280

MULLIKEN ATOMIC CHARGES
-----------------------
   0 C :    0.282214
   1 C :   -0.257707
   2 C :   -0.301004
   3 C :   -0.001262
   4 O :   -0.509543
   5 H :    0.138861
   6 H :    0.143615
   7 H :    0.156833
   8 H :    0.141825
   9 H :    0.165993
  10 H :    0.151337
  11 H :    0.140444
  12 C :   -0.017344
  13 H :    0.133798
  14 H :    0.170711
  15 O :   -0.518201
  16 C :    0.056632
  17 C :    0.082337
  18 C :   -0.301672
  19 C :   -0.031474
  20 O :   -0.523950
  21 H :    0.164729
  22 O :   -0.605145
  23 H :    0.158769
  24 H :    0.164748
  25 H :    0.147813
  26 H :    0.150962
  27 H :    0.149476
  28 H :    0.366203
Sum of atomic charges:   -0.0000000

LOEWDIN ATOMIC CHARGES
----------------------
   0 C :    0.169453
   1 C :   -0.220066
   2 C :   -0.215545
   3 C :   -0.026198
   4 O :   -0.321778
   5 H :    0.094582
   6 H :    0.113235
   7 H :    0.121864
   8 H :    0.114045
   9 H :    0.120950
  10 H :    0.107686
  11 H :    0.101737
  12 C :   -0.037328
  13 H :    0.098231
  14 H :    0.123957
  15 O :   -0.329720
  16 C :    0.006588
  17 C :    0.033228
  18 C :   -0.242106
  19 C :   -0.038059
  20 O :   -0.329028
  21 H :    0.117300
  22 O :   -0.414455
  23 H :    0.117353
  24 H :    0.127928
  25 H :    0.112237
  26 H :    0.106226
  27 H :    0.103987
  28 H :    0.283697

  Mayer bond orders larger than 0.100000
B(  0-C ,  1-C ) :   0.9417 B(  0-C ,  4-O ) :   0.9201 B(  0-C ,  5-H ) :   0.9144
B(  0-C , 15-O ) :   0.8426 B(  1-C ,  2-C ) :   0.9558 B(  1-C ,  6-H ) :   0.9381
B(  1-C ,  7-H ) :   0.9346 B(  2-C ,  3-C ) :   0.9543 B(  2-C ,  8-H ) :   0.9451
B(  2-C ,  9-H ) :   0.9433 B(  3-C ,  4-O ) :   0.8373 B(  3-C , 10-H ) :   0.9350
B(  3-C , 11-H ) :   0.9401 B( 12-C , 13-H ) :   0.9251 B( 12-C , 14-H ) :   0.9332
B( 12-C , 15-O ) :   0.8462 B( 12-C , 16-C ) :   0.8809 B( 16-C , 17-C ) :   0.9128
B( 16-C , 20-O ) :   0.8348 B( 16-C , 21-H ) :   0.9252 B( 17-C , 18-C ) :   0.9104
B( 17-C , 22-O ) :   0.8886 B( 17-C , 23-H ) :   0.9231 B( 18-C , 19-C ) :   0.9402
B( 18-C , 24-H ) :   0.9377 B( 18-C , 25-H ) :   0.9307 B( 19-C , 20-O ) :   0.8411
B( 19-C , 26-H ) :   0.9345 B( 19-C , 27-H ) :   0.9376 B( 22-O , 28-H ) :   0.7933

FINAL SINGLE POINT ENERGY      -652.862291797237

DIPOLE MOMENT
-------------
                                X             Y             Z
Electronic contribution:     -3.59353      -0.93859      -0.73182
Nuclear contribution   :      4.06751       0.79719       0.57574
                        -----------------------------------------
Total Dipole Moment    :      0.47398      -0.14139      -0.15608
                        -----------------------------------------
Magnitude (a.u.)       :      0.51866
Magnitude (Debye)      :      1.31833

Rotational constants in cm-1:     0.057271     0.013268     0.012443
Rotational constants in MHz :  1716.936649   397.773350   373.026364

                             ****ORCA TERMINATED NORMALLY****
TOTAL RUN TIME: 0 days 0 hours 52 minutes 58 seconds 374 msec
