                         Program Version 4.2.0 -  RELEASE  -
|  1> # Test redundant internal optimization
|  2> #
|  3> ! RKS B3LYP  Opt TightSCF SmallPrint
|  4>
|  5> %basis
|  6>         Basis "6-31G"
|  7> end
|  8>
|  9> %geom
| 10> Constraints
| 11> { D 4  0  15  12  330.0   C } # D for Dihedral angle
| 12> { D 0  15  12  16  330.0   C } # D for Dihedral angle
| 13> { D 0  4  3  2   C } # D for Dihedral angle
| 14> { D 4  3  2  1   C } # D for Dihedral angle
| 15> { D 3  2  1  0   C } # D for Dihedral angle
| 16> { D 2  1  0  4   C } # D for Dihedral angle
| 17> { D 1  0  4  3   C } # D for Dihedral angle
| 18> { D 16  20  19  18   C } # D for Dihedral angle
| 19> { D 20  19  18  17   C } # D for Dihedral angle
| 20> { D 19  18  17  16   C } # D for Dihedral angle
| 21> { D 18  17  16  20   C } # D for Dihedral angle
| 22> { D 17  16  20  19   C } # D for Dihedral angle
| 23> { D 15  12  16  20   C } # D for Dihedral angle
| 24> end
| 25> end
| 26>
| 27>
| 28> #%pal
| 29> #nprocs 8
| 30> #end
| 31>
| 32> * xyz 0 1
| 33> C  -21.048   26.222   46.251
| 34> C  -20.361   27.558   45.944
| 35> C  -20.329   28.222   47.341
| 36> C  -20.110   27.022   48.296
| 37> O  -20.473   25.807   47.535
| 38> H  -20.833   25.428   45.533
| 39> H  -19.344   27.382   45.576
| 40> H  -20.898   28.157   45.201
| 41> H  -19.543   28.978   47.434
| 42> H  -21.289   28.710   47.548
| 43> H  -20.733   27.082   49.195
| 44> H  -19.064   26.913   48.597
| 45> C  -23.271   25.476   47.424
| 46> H  -23.299   25.990   48.392
| 47> H  -24.303   25.253   47.124
| 48> O  -22.586   26.394   46.375
| 49> C  -22.531   24.122   47.611
| 50> C  -23.296   23.197   48.564
| 51> C  -24.403   22.640   47.639
| 52> C  -23.691   22.524   46.268
| 53> O  -22.489   23.382   46.346
| 54> H  -21.497   24.317   47.903
| 55> O  -22.367   22.054   49.058
| 56> H  -23.697   23.719   49.440
| 57> H  -24.802   21.680   47.984
| 58> H  -25.238   23.348   47.582
| 59> H  -24.321   22.865   45.438
| 60> H  -23.349   21.507   46.060
| 61> H  -21.954   21.518   48.197
| 62> *
| 63>
| 64>                          ****END OF INPUT****
 Total Charge           Charge          ....    0
 Multiplicity           Mult            ....    1
 Number of Electrons    NEL             ....  102
FINAL SINGLE POINT ENERGY      -652.828656514685
FINAL SINGLE POINT ENERGY      -652.851826909241
FINAL SINGLE POINT ENERGY      -652.857242359931
FINAL SINGLE POINT ENERGY      -652.859700164745
FINAL SINGLE POINT ENERGY      -652.860022370265
FINAL SINGLE POINT ENERGY      -652.860080042252
FINAL SINGLE POINT ENERGY      -652.860085802481
                    ***********************HURRAY********************

CARTESIAN COORDINATES (ANGSTROEM)
---------------------------------
  C    -20.989899   26.233931   46.255786
  C    -20.491386   27.652184   45.973110
  C    -20.380920   28.236249   47.399631
  C    -19.931095   27.024576   48.246766
  O    -20.247457   25.818729   47.430397
  H    -20.766435   25.484607   45.492960
  H    -19.510705   27.598794   45.486675
  H    -21.180340   28.205944   45.332331
  H    -19.673241   29.068664   47.461399
  H    -21.362024   28.593827   47.726089
  H    -20.453401   26.949743   49.204747
  H    -18.851897   27.005033   48.424359
  C    -23.135872   25.429753   47.370340
  H    -23.215361   25.947626   48.338431
  H    -24.140045   25.348840   46.943739
  O    -22.426438   26.296771   46.438097
  C    -22.535125   24.042274   47.627361
  C    -23.402811   23.180869   48.559604
  C    -24.481182   22.641873   47.580229
  C    -23.687844   22.451296   46.261883
  O    -22.452116   23.257321   46.389375
  H    -21.516865   24.142630   47.999289
  O    -22.621617   22.102910   49.142866
  H    -23.822631   23.725806   49.406599
  H    -24.911936   21.710849   47.956305
  H    -25.288990   23.372192   47.460723
  H    -24.244748   22.786951   45.381448
  H    -23.381985   21.412251   46.104455
  H    -22.014638   21.744506   48.461004

 Multiplicity           Mult            ....    1
 Number of Electrons    NEL             ....  102
 Basis Dimension        Dim             ....  149

ORBITAL ENERGIES
----------------

  NO   OCC          E(Eh)            E(eV)
   0   2.0000     -19.145900      -520.9864
   1   2.0000     -19.137590      -520.7603
   2   2.0000     -19.134847      -520.6856
   3   2.0000     -19.134680      -520.6811
   4   2.0000     -10.274307      -279.5781
   5   2.0000     -10.239401      -278.6283
   6   2.0000     -10.229839      -278.3681
   7   2.0000     -10.228824      -278.3404
   8   2.0000     -10.227313      -278.2993
   9   2.0000     -10.223715      -278.2014
  10   2.0000     -10.186714      -277.1946
  11   2.0000     -10.186625      -277.1922
  12   2.0000     -10.182986      -277.0931
  13   2.0000      -1.050356       -28.5816
  14   2.0000      -1.031737       -28.0750
  15   2.0000      -1.002328       -27.2747
  16   2.0000      -0.988001       -26.8849
  17   2.0000      -0.790212       -21.5028
  18   2.0000      -0.779014       -21.1980
  19   2.0000      -0.761651       -20.7256
  20   2.0000      -0.732784       -19.9401
  21   2.0000      -0.671075       -18.2609
  22   2.0000      -0.601327       -16.3629
  23   2.0000      -0.600690       -16.3456
  24   2.0000      -0.598576       -16.2881
  25   2.0000      -0.566946       -15.4274
  26   2.0000      -0.519553       -14.1378
  27   2.0000      -0.510531       -13.8923
  28   2.0000      -0.495217       -13.4755
  29   2.0000      -0.483561       -13.1584
  30   2.0000      -0.471418       -12.8279
  31   2.0000      -0.459500       -12.5036
  32   2.0000      -0.445665       -12.1272
  33   2.0000      -0.440077       -11.9751
  34   2.0000      -0.414296       -11.2736
  35   2.0000      -0.406437       -11.0597
  36   2.0000      -0.399697       -10.8763
  37   2.0000      -0.389891       -10.6095
  38   2.0000      -0.374919       -10.2021
  39   2.0000      -0.367159        -9.9909
  40   2.0000      -0.360983        -9.8229
  41   2.0000      -0.357765        -9.7353
  42   2.0000      -0.348831        -9.4922
  43   2.0000      -0.334812        -9.1107
  44   2.0000      -0.321131        -8.7384
  45   2.0000      -0.308675        -8.3995
  46   2.0000      -0.295281        -8.0350
  47   2.0000      -0.269264        -7.3270
  48   2.0000      -0.261238        -7.1087
  49   2.0000      -0.249810        -6.7977
  50   2.0000      -0.235615        -6.4114
  51   0.0000       0.067303         1.8314
  52   0.0000       0.082233         2.2377
  53   0.0000       0.089607         2.4383
  54   0.0000       0.100206         2.7268
  55   0.0000       0.108338         2.9480

MULLIKEN ATOMIC CHARGES
-----------------------
   0 C :    0.306516
   1 C :   -0.261018
   2 C :   -0.301731
   3 C :   -0.013540
   4 O :   -0.519259
   5 H :    0.169316
   6 H :    0.145102
   7 H :    0.162075
   8 H :    0.143659
   9 H :    0.157256
  10 H :    0.142884
  11 H :    0.149852
  12 C :    0.024047
  13 H :    0.123084
  14 H :    0.145478
  15 O :   -0.545691
  16 C :    0.020529
  17 C :    0.082019
  18 C :   -0.295324
  19 C :   -0.025417
  20 O :   -0.524552
  21 H :    0.210479
  22 O :   -0.605083
  23 H :    0.147871
  24 H :    0.160017
  25 H :    0.143496
  26 H :    0.145944
  27 H :    0.145252
  28 H :    0.366740
Sum of atomic charges:   -0.0000000

LOEWDIN ATOMIC CHARGES
----------------------
   0 C :    0.182181
   1 C :   -0.214492
   2 C :   -0.217141
   3 C :   -0.032172
   4 O :   -0.324701
   5 H :    0.109099
   6 H :    0.113913
   7 H :    0.127022
   8 H :    0.115132
   9 H :    0.116602
  10 H :    0.102143
  11 H :    0.106069
  12 C :   -0.033263
  13 H :    0.093529
  14 H :    0.109516
  15 O :   -0.335398
  16 C :   -0.007727
  17 C :    0.037383
  18 C :   -0.241509
  19 C :   -0.037670
  20 O :   -0.331278
  21 H :    0.136553
  22 O :   -0.415224
  23 H :    0.113407
  24 H :    0.125574
  25 H :    0.111856
  26 H :    0.104083
  27 H :    0.102119
  28 H :    0.284396

  Mayer bond orders larger than 0.100000
B(  0-C ,  1-C ) :   0.9405 B(  0-C ,  4-O ) :   0.8808 B(  0-C ,  5-H ) :   0.9199
B(  0-C , 15-O ) :   0.8463 B(  1-C ,  2-C ) :   0.9534 B(  1-C ,  6-H ) :   0.9381
B(  1-C ,  7-H ) :   0.9359 B(  2-C ,  3-C ) :   0.9557 B(  2-C ,  8-H ) :   0.9448
B(  2-C ,  9-H ) :   0.9453 B(  3-C ,  4-O ) :   0.8308 B(  3-C , 10-H ) :   0.9353
B(  3-C , 11-H ) :   0.9401 B( 12-C , 13-H ) :   0.9145 B( 12-C , 14-H ) :   0.9352
B( 12-C , 15-O ) :   0.8417 B( 12-C , 16-C ) :   0.8968 B( 16-C , 17-C ) :   0.8950
B( 16-C , 20-O ) :   0.8367 B( 16-C , 21-H ) :   0.8904 B( 17-C , 18-C ) :   0.9094
B( 17-C , 22-O ) :   0.8910 B( 17-C , 23-H ) :   0.9339 B( 18-C , 19-C ) :   0.9403
B( 18-C , 24-H ) :   0.9382 B( 18-C , 25-H ) :   0.9340 B( 19-C , 20-O ) :   0.8492
B( 19-C , 26-H ) :   0.9350 B( 19-C , 27-H ) :   0.9384 B( 22-O , 28-H ) :   0.7931

FINAL SINGLE POINT ENERGY      -652.860086729200

DIPOLE MOMENT
-------------
                                X             Y             Z
Electronic contribution:      1.04893      -3.36880      -0.52053
Nuclear contribution   :     -1.32554       4.03239       0.48113
                        -----------------------------------------
Total Dipole Moment    :     -0.27661       0.66359      -0.03940
                        -----------------------------------------
Magnitude (a.u.)       :      0.72001
Magnitude (Debye)      :      1.83011

Rotational constants in cm-1:     0.058764     0.014214     0.013087
Rotational constants in MHz :  1761.703786   426.110483   392.351879

                             ****ORCA TERMINATED NORMALLY****
TOTAL RUN TIME: 0 days 1 hours 25 minutes 23 seconds 747 msec
