                         Program Version 4.2.0 -  RELEASE  -
|  1> # Test redundant internal optimization
|  2> #
|  3> ! RKS B3LYP  Opt TightSCF SmallPrint
|  4>
|  5> %basis
|  6>         Basis "6-31G"
|  7> end
|  8>
|  9> %geom
| 10> Constraints
| 11> { D 4  0  15  12  240.0   C } # D for Dihedral angle
| 12> { D 0  15  12  16  135.0   C } # D for Dihedral angle
| 13> { D 0  4  3  2   C } # D for Dihedral angle
| 14> { D 4  3  2  1   C } # D for Dihedral angle
| 15> { D 3  2  1  0   C } # D for Dihedral angle
| 16> { D 2  1  0  4   C } # D for Dihedral angle
| 17> { D 1  0  4  3   C } # D for Dihedral angle
| 18> { D 16  20  19  18   C } # D for Dihedral angle
| 19> { D 20  19  18  17   C } # D for Dihedral angle
| 20> { D 19  18  17  16   C } # D for Dihedral angle
| 21> { D 18  17  16  20   C } # D for Dihedral angle
| 22> { D 17  16  20  19   C } # D for Dihedral angle
| 23> { D 15  12  16  20   C } # D for Dihedral angle
| 24> end
| 25> end
| 26>
| 27>
| 28> #%pal
| 29> #nprocs 8
| 30> #end
| 31>
| 32> * xyz 0 1
| 33> C  -21.048   26.222   46.251
| 34> C  -20.361   27.558   45.944
| 35> C  -20.329   28.222   47.341
| 36> C  -20.110   27.022   48.296
| 37> O  -20.473   25.807   47.535
| 38> H  -20.833   25.428   45.533
| 39> H  -19.344   27.382   45.576
| 40> H  -20.898   28.157   45.201
| 41> H  -19.543   28.978   47.434
| 42> H  -21.289   28.710   47.548
| 43> H  -20.733   27.082   49.195
| 44> H  -19.064   26.913   48.597
| 45> C  -23.430   25.483   45.442
| 46> H  -23.822   26.081   44.610
| 47> H  -22.808   24.680   45.024
| 48> O  -22.586   26.394   46.375
| 49> C  -24.629   24.819   46.175
| 50> C  -25.642   25.868   46.647
| 51> C  -26.411   26.172   45.338
| 52> C  -26.443   24.798   44.622
| 53> O  -25.389   23.972   45.250
| 54> H  -24.249   24.169   46.965
| 55> O  -26.591   25.250   47.710
| 56> H  -25.172   26.757   47.080
| 57> H  -27.413   26.572   45.519
| 58> H  -25.859   26.907   44.741
| 59> H  -26.243   24.880   43.549
| 60> H  -27.392   24.274   44.766
| 61> H  -27.075   24.357   47.298
| 62> *
| 63>
| 64>                          ****END OF INPUT****
 Total Charge           Charge          ....    0
 Multiplicity           Mult            ....    1
 Number of Electrons    NEL             ....  102
FINAL SINGLE POINT ENERGY      -652.837361782436
FINAL SINGLE POINT ENERGY      -652.859891656293
FINAL SINGLE POINT ENERGY      -652.863438959944
FINAL SINGLE POINT ENERGY      -652.864036244658
FINAL SINGLE POINT ENERGY      -652.864115623881
FINAL SINGLE POINT ENERGY      -652.864128910011
FINAL SINGLE POINT ENERGY      -652.864130953971
                    ***********************HURRAY********************

CARTESIAN COORDINATES (ANGSTROEM)
---------------------------------
  C    -21.091625   26.140317   46.189320
  C    -20.454356   27.507401   45.943536
  C    -20.564156   28.167047   47.339233
  C    -20.359482   26.975639   48.300742
  O    -20.606147   25.755932   47.489449
  H    -20.802722   25.349138   45.490862
  H    -19.404399   27.374007   45.656946
  H    -20.966762   28.068606   45.158807
  H    -19.824773   28.958795   47.491457
  H    -21.563023   28.595662   47.464637
  H    -21.053075   26.979720   49.145192
  H    -19.333647   26.901267   48.673854
  C    -23.327774   25.440363   45.325306
  H    -23.675047   26.034336   44.469969
  H    -22.733279   24.601536   44.940883
  O    -22.535199   26.280194   46.209282
  C    -24.506736   24.883309   46.123026
  C    -25.485754   25.940456   46.652328
  C    -26.338534   26.235705   45.391457
  C    -26.421487   24.857463   44.688903
  O    -25.326515   24.029333   45.255608
  H    -24.128350   24.257990   46.936051
  O    -26.295305   25.402485   47.734478
  H    -24.984618   26.815934   47.061449
  H    -27.318095   26.629923   45.671627
  H    -25.838359   26.977344   44.758590
  H    -26.292025   24.922635   43.603753
  H    -27.360433   24.334734   44.897117
  H    -26.587323   24.496729   47.498141

 Multiplicity           Mult            ....    1
 Number of Electrons    NEL             ....  102
 Basis Dimension        Dim             ....  149

ORBITAL ENERGIES
----------------

  NO   OCC          E(Eh)            E(eV)
   0   2.0000     -19.145184      -520.9670
   1   2.0000     -19.144108      -520.9377
   2   2.0000     -19.138676      -520.7898
   3   2.0000     -19.133416      -520.6467
   4   2.0000     -10.281921      -279.7853
   5   2.0000     -10.234002      -278.4814
   6   2.0000     -10.233969      -278.4805
   7   2.0000     -10.231486      -278.4129
   8   2.0000     -10.230540      -278.3871
   9   2.0000     -10.223900      -278.2065
  10   2.0000     -10.186659      -277.1931
  11   2.0000     -10.186027      -277.1759
  12   2.0000     -10.185562      -277.1632
  13   2.0000      -1.053507       -28.6674
  14   2.0000      -1.034455       -28.1490
  15   2.0000      -1.002740       -27.2859
  16   2.0000      -0.996316       -27.1111
  17   2.0000      -0.788878       -21.4665
  18   2.0000      -0.777674       -21.1616
  19   2.0000      -0.766774       -20.8650
  20   2.0000      -0.729662       -19.8551
  21   2.0000      -0.674763       -18.3612
  22   2.0000      -0.603084       -16.4108
  23   2.0000      -0.598980       -16.2991
  24   2.0000      -0.592208       -16.1148
  25   2.0000      -0.582507       -15.8508
  26   2.0000      -0.521014       -14.1775
  27   2.0000      -0.519813       -14.1448
  28   2.0000      -0.496746       -13.5172
  29   2.0000      -0.487195       -13.2572
  30   2.0000      -0.468493       -12.7484
  31   2.0000      -0.456308       -12.4168
  32   2.0000      -0.449616       -12.2347
  33   2.0000      -0.442556       -12.0426
  34   2.0000      -0.425785       -11.5862
  35   2.0000      -0.413392       -11.2490
  36   2.0000      -0.399510       -10.8712
  37   2.0000      -0.391304       -10.6479
  38   2.0000      -0.373349       -10.1594
  39   2.0000      -0.365440        -9.9441
  40   2.0000      -0.358629        -9.7588
  41   2.0000      -0.354341        -9.6421
  42   2.0000      -0.351311        -9.5597
  43   2.0000      -0.329932        -8.9779
  44   2.0000      -0.318225        -8.6593
  45   2.0000      -0.311110        -8.4657
  46   2.0000      -0.301614        -8.2073
  47   2.0000      -0.277051        -7.5389
  48   2.0000      -0.263206        -7.1622
  49   2.0000      -0.251272        -6.8375
  50   2.0000      -0.242255        -6.5921
  51   0.0000       0.064568         1.7570
  52   0.0000       0.075755         2.0614
  53   0.0000       0.097353         2.6491
  54   0.0000       0.099410         2.7051
  55   0.0000       0.105539         2.8719

MULLIKEN ATOMIC CHARGES
-----------------------
   0 C :    0.287622
   1 C :   -0.253135
   2 C :   -0.300755
   3 C :   -0.002771
   4 O :   -0.501381
   5 H :    0.141764
   6 H :    0.143883
   7 H :    0.144776
   8 H :    0.141710
   9 H :    0.162156
  10 H :    0.154833
  11 H :    0.141429
  12 C :   -0.007402
  13 H :    0.131109
  14 H :    0.146295
  15 O :   -0.526313
  16 C :    0.059452
  17 C :    0.095951
  18 C :   -0.301714
  19 C :   -0.034101
  20 O :   -0.527368
  21 H :    0.171299
  22 O :   -0.604716
  23 H :    0.172984
  24 H :    0.161707
  25 H :    0.145639
  26 H :    0.147591
  27 H :    0.146334
  28 H :    0.363123
Sum of atomic charges:   -0.0000000

LOEWDIN ATOMIC CHARGES
----------------------
   0 C :    0.177554
   1 C :   -0.221271
   2 C :   -0.216539
   3 C :   -0.026762
   4 O :   -0.315729
   5 H :    0.099054
   6 H :    0.113090
   7 H :    0.117558
   8 H :    0.114075
   9 H :    0.118949
  10 H :    0.109336
  11 H :    0.102255
  12 C :   -0.035558
  13 H :    0.093994
  14 H :    0.106354
  15 O :   -0.336768
  16 C :    0.013869
  17 C :    0.039390
  18 C :   -0.242080
  19 C :   -0.039531
  20 O :   -0.332309
  21 H :    0.121621
  22 O :   -0.415244
  23 H :    0.126715
  24 H :    0.126563
  25 H :    0.113355
  26 H :    0.103719
  27 H :    0.102562
  28 H :    0.281777

  Mayer bond orders larger than 0.100000
B(  0-C ,  1-C ) :   0.9425 B(  0-C ,  4-O ) :   0.9340 B(  0-C ,  5-H ) :   0.9185
B(  0-C , 15-O ) :   0.8373 B(  1-C ,  2-C ) :   0.9574 B(  1-C ,  6-H ) :   0.9365
B(  1-C ,  7-H ) :   0.9390 B(  2-C ,  3-C ) :   0.9540 B(  2-C ,  8-H ) :   0.9452
B(  2-C ,  9-H ) :   0.9438 B(  3-C ,  4-O ) :   0.8366 B(  3-C , 10-H ) :   0.9343
B(  3-C , 11-H ) :   0.9398 B( 12-C , 13-H ) :   0.9267 B( 12-C , 14-H ) :   0.9167
B( 12-C , 15-O ) :   0.8310 B( 12-C , 16-C ) :   0.8975 B( 16-C , 17-C ) :   0.9159
B( 16-C , 20-O ) :   0.8402 B( 16-C , 21-H ) :   0.9244 B( 17-C , 18-C ) :   0.9107
B( 17-C , 22-O ) :   0.8905 B( 17-C , 23-H ) :   0.9250 B( 18-C , 19-C ) :   0.9414
B( 18-C , 24-H ) :   0.9380 B( 18-C , 25-H ) :   0.9349 B( 19-C , 20-O ) :   0.8442
B( 19-C , 26-H ) :   0.9352 B( 19-C , 27-H ) :   0.9381 B( 22-O , 28-H ) :   0.7959

FINAL SINGLE POINT ENERGY      -652.864131000610

DIPOLE MOMENT
-------------
                                X             Y             Z
Electronic contribution:     -1.40045      -4.81821       1.77471
Nuclear contribution   :      1.67417       5.68384      -2.78016
                        -----------------------------------------
Total Dipole Moment    :      0.27372       0.86563      -1.00545
                        -----------------------------------------
Magnitude (a.u.)       :      1.35469
Magnitude (Debye)      :      3.44334

Rotational constants in cm-1:     0.057041     0.012056     0.011518
Rotational constants in MHz :  1710.055397   361.435679   345.301741

                             ****ORCA TERMINATED NORMALLY****
TOTAL RUN TIME: 0 days 0 hours 14 minutes 12 seconds 526 msec
