                         Program Version 4.2.0 -  RELEASE  -
|  1> # Test redundant internal optimization
|  2> #
|  3> ! RKS B3LYP  Opt TightSCF SmallPrint
|  4>
|  5> %basis
|  6>         Basis "6-31G"
|  7> end
|  8>
|  9> %geom
| 10> Constraints
| 11> { D 4  0  15  12  285.0   C } # D for Dihedral angle
| 12> { D 0  15  12  16  135.0   C } # D for Dihedral angle
| 13> { D 0  4  3  2   C } # D for Dihedral angle
| 14> { D 4  3  2  1   C } # D for Dihedral angle
| 15> { D 3  2  1  0   C } # D for Dihedral angle
| 16> { D 2  1  0  4   C } # D for Dihedral angle
| 17> { D 1  0  4  3   C } # D for Dihedral angle
| 18> { D 16  20  19  18   C } # D for Dihedral angle
| 19> { D 20  19  18  17   C } # D for Dihedral angle
| 20> { D 19  18  17  16   C } # D for Dihedral angle
| 21> { D 18  17  16  20   C } # D for Dihedral angle
| 22> { D 17  16  20  19   C } # D for Dihedral angle
| 23> { D 15  12  16  20   C } # D for Dihedral angle
| 24> end
| 25> end
| 26>
| 27>
| 28> #%pal
| 29> #nprocs 8
| 30> #end
| 31>
| 32> * xyz 0 1
| 33> C  -21.048   26.222   46.251
| 34> C  -20.361   27.558   45.944
| 35> C  -20.329   28.222   47.341
| 36> C  -20.110   27.022   48.296
| 37> O  -20.473   25.807   47.535
| 38> H  -20.833   25.428   45.533
| 39> H  -19.344   27.382   45.576
| 40> H  -20.898   28.157   45.201
| 41> H  -19.543   28.978   47.434
| 42> H  -21.289   28.710   47.548
| 43> H  -20.733   27.082   49.195
| 44> H  -19.064   26.913   48.597
| 45> C  -23.396   25.070   46.435
| 46> H  -23.885   24.901   45.468
| 47> H  -22.730   24.221   46.636
| 48> O  -22.586   26.394   46.375
| 49> C  -24.489   25.084   47.540
| 50> C  -25.564   26.137   47.245
| 51> C  -26.427   25.414   46.184
| 52> C  -26.377   23.934   46.638
| 53> O  -25.221   23.813   47.552
| 54> H  -24.010   25.187   48.515
| 55> H  -26.150   26.338   48.149
| 56> O  -24.978   27.481   46.733
| 57> H  -27.450   25.801   46.134
| 58> H  -25.977   25.530   45.191
| 59> H  -26.244   23.242   45.799
| 60> H  -27.266   23.640   47.201
| 61> H  -24.387   27.303   45.828
| 62> *
| 63>
| 64>                          ****END OF INPUT****
 Total Charge           Charge          ....    0
 Multiplicity           Mult            ....    1
 Number of Electrons    NEL             ....  102
FINAL SINGLE POINT ENERGY      -652.835732395585
FINAL SINGLE POINT ENERGY      -652.860580884312
FINAL SINGLE POINT ENERGY      -652.866818188939
FINAL SINGLE POINT ENERGY      -652.869053539544
FINAL SINGLE POINT ENERGY      -652.870284280547
FINAL SINGLE POINT ENERGY      -652.870902954560
FINAL SINGLE POINT ENERGY      -652.871125309382
FINAL SINGLE POINT ENERGY      -652.871173607876
FINAL SINGLE POINT ENERGY      -652.871176789646
                    ***********************HURRAY********************

CARTESIAN COORDINATES (ANGSTROEM)
---------------------------------
  C    -21.073937   26.119083   46.224070
  C    -20.524635   27.516546   45.940855
  C    -20.597613   28.174874   47.337740
  C    -20.280401   27.005113   48.293941
  O    -20.502463   25.764948   47.499941
  H    -20.791233   25.330993   45.521599
  H    -19.487045   27.429745   45.599728
  H    -21.103650   28.045530   45.181034
  H    -19.892322   29.003920   47.447161
  H    -21.607259   28.557081   47.515965
  H    -20.927681   26.979048   49.173607
  H    -19.234596   26.984002   48.612687
  C    -23.280019   24.971095   46.363308
  H    -23.720525   24.777136   45.378435
  H    -22.620633   24.141444   46.634463
  O    -22.516841   26.225722   46.294642
  C    -24.352039   25.129939   47.446149
  C    -25.400535   26.220888   47.167226
  C    -26.351879   25.495728   46.172037
  C    -26.339141   24.037209   46.673421
  O    -25.130325   23.897418   47.540415
  H    -23.855388   25.268561   48.410458
  H    -25.940576   26.432318   48.097171
  O    -24.892516   27.477376   46.675755
  H    -27.351985   25.936685   46.171574
  H    -25.944066   25.588590   45.159554
  H    -26.278648   23.300306   45.866346
  H    -27.201448   23.800420   47.303147
  H    -23.962599   27.359281   46.371569

 Multiplicity           Mult            ....    1
 Number of Electrons    NEL             ....  102
 Basis Dimension        Dim             ....  149

ORBITAL ENERGIES
----------------

  NO   OCC          E(Eh)            E(eV)
   0   2.0000     -19.164343      -521.4883
   1   2.0000     -19.149459      -521.0833
   2   2.0000     -19.138620      -520.7883
   3   2.0000     -19.113785      -520.1125
   4   2.0000     -10.291962      -280.0585
   5   2.0000     -10.236122      -278.5390
   6   2.0000     -10.232035      -278.4278
   7   2.0000     -10.231548      -278.4146
   8   2.0000     -10.229383      -278.3557
   9   2.0000     -10.225400      -278.2473
  10   2.0000     -10.194366      -277.4028
  11   2.0000     -10.191964      -277.3374
  12   2.0000     -10.178246      -276.9642
  13   2.0000      -1.066732       -29.0273
  14   2.0000      -1.023959       -27.8633
  15   2.0000      -1.006503       -27.3883
  16   2.0000      -0.992126       -26.9971
  17   2.0000      -0.797185       -21.6925
  18   2.0000      -0.771933       -21.0054
  19   2.0000      -0.766806       -20.8659
  20   2.0000      -0.734893       -19.9975
  21   2.0000      -0.677958       -18.4482
  22   2.0000      -0.606472       -16.5030
  23   2.0000      -0.600162       -16.3312
  24   2.0000      -0.593401       -16.1473
  25   2.0000      -0.581887       -15.8339
  26   2.0000      -0.528686       -14.3863
  27   2.0000      -0.520957       -14.1759
  28   2.0000      -0.499724       -13.5982
  29   2.0000      -0.485403       -13.2085
  30   2.0000      -0.473448       -12.8832
  31   2.0000      -0.460647       -12.5348
  32   2.0000      -0.440652       -11.9907
  33   2.0000      -0.433561       -11.7978
  34   2.0000      -0.424587       -11.5536
  35   2.0000      -0.419250       -11.4084
  36   2.0000      -0.407597       -11.0913
  37   2.0000      -0.387681       -10.5493
  38   2.0000      -0.381596       -10.3838
  39   2.0000      -0.366963        -9.9856
  40   2.0000      -0.364091        -9.9074
  41   2.0000      -0.355944        -9.6857
  42   2.0000      -0.348788        -9.4910
  43   2.0000      -0.345689        -9.4067
  44   2.0000      -0.327019        -8.8986
  45   2.0000      -0.313098        -8.5198
  46   2.0000      -0.289469        -7.8768
  47   2.0000      -0.283429        -7.7125
  48   2.0000      -0.262262        -7.1365
  49   2.0000      -0.249025        -6.7763
  50   2.0000      -0.240719        -6.5503
  51   0.0000       0.057576         1.5667
  52   0.0000       0.083623         2.2755
  53   0.0000       0.093340         2.5399
  54   0.0000       0.097775         2.6606
  55   0.0000       0.106337         2.8936

MULLIKEN ATOMIC CHARGES
-----------------------
   0 C :    0.293939
   1 C :   -0.265524
   2 C :   -0.303509
   3 C :   -0.006895
   4 O :   -0.507364
   5 H :    0.152668
   6 H :    0.151781
   7 H :    0.157721
   8 H :    0.146729
   9 H :    0.167839
  10 H :    0.154057
  11 H :    0.147850
  12 C :   -0.021770
  13 H :    0.144097
  14 H :    0.173758
  15 O :   -0.564363
  16 C :    0.061966
  17 C :    0.118680
  18 C :   -0.303571
  19 C :   -0.020451
  20 O :   -0.522163
  21 H :    0.159329
  22 H :    0.145870
  23 O :   -0.644835
  24 H :    0.151534
  25 H :    0.144213
  26 H :    0.142689
  27 H :    0.148370
  28 H :    0.397356
Sum of atomic charges:   -0.0000000

LOEWDIN ATOMIC CHARGES
----------------------
   0 C :    0.176651
   1 C :   -0.215574
   2 C :   -0.216406
   3 C :   -0.027289
   4 O :   -0.324811
   5 H :    0.103072
   6 H :    0.117758
   7 H :    0.123928
   8 H :    0.116788
   9 H :    0.120822
  10 H :    0.108850
  11 H :    0.105790
  12 C :   -0.044443
  13 H :    0.101856
  14 H :    0.122080
  15 O :   -0.342497
  16 C :    0.017133
  17 C :    0.041575
  18 C :   -0.237244
  19 C :   -0.032629
  20 O :   -0.324606
  21 H :    0.116087
  22 H :    0.104896
  23 O :   -0.436806
  24 H :    0.121177
  25 H :    0.110504
  26 H :    0.101860
  27 H :    0.105720
  28 H :    0.285758

  Mayer bond orders larger than 0.100000
B(  0-C ,  1-C ) :   0.9512 B(  0-C ,  4-O ) :   0.9236 B(  0-C ,  5-H ) :   0.9219
B(  0-C , 15-O ) :   0.8224 B(  1-C ,  2-C ) :   0.9545 B(  1-C ,  6-H ) :   0.9391
B(  1-C ,  7-H ) :   0.9359 B(  2-C ,  3-C ) :   0.9537 B(  2-C ,  8-H ) :   0.9446
B(  2-C ,  9-H ) :   0.9422 B(  3-C ,  4-O ) :   0.8293 B(  3-C , 10-H ) :   0.9350
B(  3-C , 11-H ) :   0.9401 B( 12-C , 13-H ) :   0.9288 B( 12-C , 14-H ) :   0.9222
B( 12-C , 15-O ) :   0.7771 B( 12-C , 16-C ) :   0.9031 B( 16-C , 17-C ) :   0.9131
B( 16-C , 20-O ) :   0.8528 B( 16-C , 21-H ) :   0.9292 B( 17-C , 18-C ) :   0.9017
B( 17-C , 22-H ) :   0.9314 B( 17-C , 23-O ) :   0.9327 B( 18-C , 19-C ) :   0.9389
B( 18-C , 24-H ) :   0.9447 B( 18-C , 25-H ) :   0.9436 B( 19-C , 20-O ) :   0.8340
B( 19-C , 26-H ) :   0.9340 B( 19-C , 27-H ) :   0.9387 B( 23-O , 28-H ) :   0.7220

FINAL SINGLE POINT ENERGY      -652.871177775324

DIPOLE MOMENT
-------------
                                X             Y             Z
Electronic contribution:     -0.16768      -2.44545       1.14367
Nuclear contribution   :      0.82765       2.67539      -1.73406
                        -----------------------------------------
Total Dipole Moment    :      0.65997       0.22994      -0.59039
                        -----------------------------------------
Magnitude (a.u.)       :      0.91488
Magnitude (Debye)      :      2.32543

Rotational constants in cm-1:     0.057444     0.013948     0.012857
Rotational constants in MHz :  1722.116049   418.142807   385.440287

                             ****ORCA TERMINATED NORMALLY****
TOTAL RUN TIME: 0 days 0 hours 30 minutes 39 seconds 980 msec
