                         Program Version 4.2.0 -  RELEASE  -
|  1> # Test redundant internal optimization
|  2> #
|  3> ! RKS B3LYP  Opt TightSCF SmallPrint
|  4>
|  5> %basis
|  6>         Basis "6-31G"
|  7> end
|  8>
|  9> %geom
| 10> Constraints
| 11> { D 4  0  15  12  255.0   C } # D for Dihedral angle
| 12> { D 0  15  12  16  75.0   C } # D for Dihedral angle
| 13> { D 0  4  3  2   C } # D for Dihedral angle
| 14> { D 4  3  2  1   C } # D for Dihedral angle
| 15> { D 3  2  1  0   C } # D for Dihedral angle
| 16> { D 2  1  0  4   C } # D for Dihedral angle
| 17> { D 1  0  4  3   C } # D for Dihedral angle
| 18> { D 16  20  19  18   C } # D for Dihedral angle
| 19> { D 20  19  18  17   C } # D for Dihedral angle
| 20> { D 19  18  17  16   C } # D for Dihedral angle
| 21> { D 18  17  16  20   C } # D for Dihedral angle
| 22> { D 17  16  20  19   C } # D for Dihedral angle
| 23> { D 15  12  16  20   C } # D for Dihedral angle
| 24> end
| 25> end
| 26>
| 27>
| 28> #%pal
| 29> #nprocs 8
| 30> #end
| 31>
| 32> * xyz 0 1
| 33> C  -21.048   26.222   46.251
| 34> C  -20.361   27.558   45.944
| 35> C  -20.329   28.222   47.341
| 36> C  -20.110   27.022   48.296
| 37> O  -20.473   25.807   47.535
| 38> H  -20.833   25.428   45.533
| 39> H  -19.344   27.382   45.576
| 40> H  -20.898   28.157   45.201
| 41> H  -19.543   28.978   47.434
| 42> H  -21.289   28.710   47.548
| 43> H  -20.733   27.082   49.195
| 44> H  -19.064   26.913   48.597
| 45> C  -23.431   25.260   45.734
| 46> H  -24.469   25.598   45.626
| 47> H  -23.047   25.011   44.736
| 48> O  -22.586   26.394   46.375
| 49> C  -23.428   23.956   46.580
| 50> C  -24.107   24.172   47.936
| 51> C  -25.604   24.101   47.552
| 52> C  -25.628   23.041   46.422
| 53> O  -24.239   22.921   45.930
| 54> H  -22.408   23.572   46.640
| 55> H  -23.845   23.357   48.622
| 56> O  -23.719   25.518   48.606
| 57> H  -26.246   23.827   48.395
| 58> H  -25.942   25.075   47.177
| 59> H  -26.280   23.329   45.591
| 60> H  -25.929   22.054   46.782
| 61> H  -23.973   26.348   47.938
| 62> *
| 63>
| 64>                          ****END OF INPUT****
 Total Charge           Charge          ....    0
 Multiplicity           Mult            ....    1
 Number of Electrons    NEL             ....  102
FINAL SINGLE POINT ENERGY      -652.832468299383
FINAL SINGLE POINT ENERGY      -652.857674081750
FINAL SINGLE POINT ENERGY      -652.863808183911
FINAL SINGLE POINT ENERGY      -652.866116279497
FINAL SINGLE POINT ENERGY      -652.867410327540
FINAL SINGLE POINT ENERGY      -652.868167293937
FINAL SINGLE POINT ENERGY      -652.868426621882
FINAL SINGLE POINT ENERGY      -652.868481433961
FINAL SINGLE POINT ENERGY      -652.868486574635
                    ***********************HURRAY********************

CARTESIAN COORDINATES (ANGSTROEM)
---------------------------------
  C    -21.077948   26.148038   46.223300
  C    -20.435735   27.506734   45.946290
  C    -20.499539   28.179984   47.338220
  C    -20.278217   26.996905   48.306826
  O    -20.560289   25.770423   47.510802
  H    -20.833437   25.349542   45.518854
  H    -19.396596   27.356321   45.631255
  H    -20.965221   28.064482   45.171274
  H    -19.745305   28.962842   47.460806
  H    -21.486681   28.627735   47.488258
  H    -20.950039   27.004498   49.168237
  H    -19.243605   26.912741   48.650160
  C    -23.348191   25.270483   45.679066
  H    -24.338277   25.715104   45.556739
  H    -22.959372   25.004715   44.688680
  O    -22.526596   26.334420   46.278013
  C    -23.393603   24.023993   46.574607
  C    -24.060709   24.249111   47.942755
  C    -25.573307   24.193213   47.570480
  C    -25.616970   23.137132   46.446846
  O    -24.219477   23.000430   45.936246
  H    -22.390342   23.601088   46.676547
  H    -23.812061   23.408892   48.600140
  O    -23.699066   25.460457   48.637995
  H    -26.192603   23.925467   48.430428
  H    -25.889050   25.182832   47.223772
  H    -26.268865   23.415335   45.612557
  H    -25.912014   22.148014   46.808898
  H    -23.232884   26.064072   48.014949

 Multiplicity           Mult            ....    1
 Number of Electrons    NEL             ....  102
 Basis Dimension        Dim             ....  149

ORBITAL ENERGIES
----------------

  NO   OCC          E(Eh)            E(eV)
   0   2.0000     -19.164482      -521.4921
   1   2.0000     -19.149202      -521.0763
   2   2.0000     -19.138681      -520.7900
   3   2.0000     -19.112057      -520.0655
   4   2.0000     -10.291016      -280.0328
   5   2.0000     -10.238936      -278.6156
   6   2.0000     -10.230897      -278.3969
   7   2.0000     -10.230226      -278.3786
   8   2.0000     -10.228146      -278.3220
   9   2.0000     -10.225181      -278.2413
  10   2.0000     -10.192744      -277.3587
  11   2.0000     -10.191658      -277.3291
  12   2.0000     -10.177385      -276.9407
  13   2.0000      -1.065619       -28.9970
  14   2.0000      -1.023249       -27.8440
  15   2.0000      -1.006483       -27.3878
  16   2.0000      -0.990762       -26.9600
  17   2.0000      -0.794636       -21.6231
  18   2.0000      -0.769808       -20.9475
  19   2.0000      -0.764694       -20.8084
  20   2.0000      -0.736919       -20.0526
  21   2.0000      -0.678102       -18.4521
  22   2.0000      -0.606469       -16.5029
  23   2.0000      -0.602528       -16.3956
  24   2.0000      -0.593611       -16.1530
  25   2.0000      -0.578708       -15.7474
  26   2.0000      -0.526404       -14.3242
  27   2.0000      -0.522254       -14.2112
  28   2.0000      -0.494947       -13.4682
  29   2.0000      -0.486804       -13.2466
  30   2.0000      -0.468584       -12.7508
  31   2.0000      -0.454717       -12.3735
  32   2.0000      -0.449970       -12.2443
  33   2.0000      -0.435281       -11.8446
  34   2.0000      -0.424008       -11.5379
  35   2.0000      -0.409864       -11.1530
  36   2.0000      -0.407837       -11.0978
  37   2.0000      -0.385821       -10.4987
  38   2.0000      -0.381515       -10.3816
  39   2.0000      -0.365413        -9.9434
  40   2.0000      -0.363174        -9.8825
  41   2.0000      -0.358451        -9.7539
  42   2.0000      -0.348254        -9.4765
  43   2.0000      -0.338867        -9.2210
  44   2.0000      -0.332072        -9.0361
  45   2.0000      -0.319023        -8.6811
  46   2.0000      -0.293116        -7.9761
  47   2.0000      -0.276794        -7.5320
  48   2.0000      -0.265128        -7.2145
  49   2.0000      -0.243419        -6.6238
  50   2.0000      -0.238181        -6.4812
  51   0.0000       0.057987         1.5779
  52   0.0000       0.082499         2.2449
  53   0.0000       0.093943         2.5563
  54   0.0000       0.097570         2.6550
  55   0.0000       0.104125         2.8334

MULLIKEN ATOMIC CHARGES
-----------------------
   0 C :    0.277709
   1 C :   -0.251462
   2 C :   -0.304634
   3 C :   -0.015531
   4 O :   -0.504732
   5 H :    0.154483
   6 H :    0.149038
   7 H :    0.154340
   8 H :    0.146849
   9 H :    0.163822
  10 H :    0.167853
  11 H :    0.147752
  12 C :   -0.050165
  13 H :    0.161734
  14 H :    0.154439
  15 O :   -0.536198
  16 C :    0.054131
  17 C :    0.118585
  18 C :   -0.299595
  19 C :   -0.023753
  20 O :   -0.523078
  21 H :    0.170064
  22 H :    0.149206
  23 O :   -0.641060
  24 H :    0.152869
  25 H :    0.143669
  26 H :    0.142267
  27 H :    0.148714
  28 H :    0.392684
Sum of atomic charges:   -0.0000000

LOEWDIN ATOMIC CHARGES
----------------------
   0 C :    0.170243
   1 C :   -0.216049
   2 C :   -0.216914
   3 C :   -0.029346
   4 O :   -0.318107
   5 H :    0.105512
   6 H :    0.115874
   7 H :    0.122650
   8 H :    0.116831
   9 H :    0.119431
  10 H :    0.114902
  11 H :    0.106223
  12 C :   -0.047975
  13 H :    0.116002
  14 H :    0.108286
  15 O :   -0.334668
  16 C :    0.005414
  17 C :    0.043585
  18 C :   -0.236823
  19 C :   -0.033442
  20 O :   -0.325670
  21 H :    0.118352
  22 H :    0.106916
  23 O :   -0.433743
  24 H :    0.121838
  25 H :    0.110352
  26 H :    0.101495
  27 H :    0.105872
  28 H :    0.282957

  Mayer bond orders larger than 0.100000
B(  0-C ,  1-C ) :   0.9482 B(  0-C ,  4-O ) :   0.9310 B(  0-C ,  5-H ) :   0.9178
B(  0-C , 15-O ) :   0.8033 B(  1-C ,  2-C ) :   0.9539 B(  1-C ,  6-H ) :   0.9374
B(  1-C ,  7-H ) :   0.9370 B(  2-C ,  3-C ) :   0.9525 B(  2-C ,  8-H ) :   0.9448
B(  2-C ,  9-H ) :   0.9439 B(  3-C ,  4-O ) :   0.8248 B(  3-C , 10-H ) :   0.9303
B(  3-C , 11-H ) :   0.9401 B( 12-C , 13-H ) :   0.9384 B( 12-C , 14-H ) :   0.9268
B( 12-C , 15-O ) :   0.8104 B( 12-C , 16-C ) :   0.8824 B( 16-C , 17-C ) :   0.9137
B( 16-C , 20-O ) :   0.8460 B( 16-C , 21-H ) :   0.9248 B( 17-C , 18-C ) :   0.9025
B( 17-C , 22-H ) :   0.9307 B( 17-C , 23-O ) :   0.9332 B( 18-C , 19-C ) :   0.9389
B( 18-C , 24-H ) :   0.9442 B( 18-C , 25-H ) :   0.9431 B( 19-C , 20-O ) :   0.8317
B( 19-C , 26-H ) :   0.9342 B( 19-C , 27-H ) :   0.9389 B( 23-O , 28-H ) :   0.7203

FINAL SINGLE POINT ENERGY      -652.868488268862

DIPOLE MOMENT
-------------
                                X             Y             Z
Electronic contribution:      0.38754      -3.14942      -0.07826
Nuclear contribution   :     -0.11208       3.97094      -0.63872
                        -----------------------------------------
Total Dipole Moment    :      0.27546       0.82151      -0.71698
                        -----------------------------------------
Magnitude (a.u.)       :      1.12464
Magnitude (Debye)      :      2.85861

Rotational constants in cm-1:     0.061229     0.014697     0.013458
Rotational constants in MHz :  1835.584868   440.608435   403.455664

                             ****ORCA TERMINATED NORMALLY****
TOTAL RUN TIME: 0 days 0 hours 29 minutes 45 seconds 450 msec
