                         Program Version 4.2.0 -  RELEASE  -
|  1> # Test redundant internal optimization
|  2> #
|  3> ! RKS B3LYP  Opt TightSCF SmallPrint
|  4>
|  5> %basis
|  6>         Basis "6-31G"
|  7> end
|  8>
|  9> %geom
| 10> Constraints
| 11> { D 4  0  15  12  150.0   C } # D for Dihedral angle
| 12> { D 0  15  12  16  90.0   C } # D for Dihedral angle
| 13> { D 0  4  3  2   C } # D for Dihedral angle
| 14> { D 4  3  2  1   C } # D for Dihedral angle
| 15> { D 3  2  1  0   C } # D for Dihedral angle
| 16> { D 2  1  0  4   C } # D for Dihedral angle
| 17> { D 1  0  4  3   C } # D for Dihedral angle
| 18> { D 16  20  19  18   C } # D for Dihedral angle
| 19> { D 20  19  18  17   C } # D for Dihedral angle
| 20> { D 19  18  17  16   C } # D for Dihedral angle
| 21> { D 18  17  16  20   C } # D for Dihedral angle
| 22> { D 17  16  20  19   C } # D for Dihedral angle
| 23> { D 15  12  16  20   C } # D for Dihedral angle
| 24> end
| 25> end
| 26>
| 27>
| 28> #%pal
| 29> #nprocs 8
| 30> #end
| 31>
| 32> * xyz 0 1
| 33> C  -21.048   26.222   46.251
| 34> C  -20.361   27.558   45.944
| 35> C  -20.329   28.222   47.341
| 36> C  -20.110   27.022   48.296
| 37> O  -20.473   25.807   47.535
| 38> H  -20.833   25.428   45.533
| 39> H  -19.344   27.382   45.576
| 40> H  -20.898   28.157   45.201
| 41> H  -19.543   28.978   47.434
| 42> H  -21.289   28.710   47.548
| 43> H  -20.733   27.082   49.195
| 44> H  -19.064   26.913   48.597
| 45> C  -23.210   27.459   45.431
| 46> H  -24.093   27.897   45.914
| 47> H  -22.491   28.265   45.234
| 48> O  -22.586   26.394   46.375
| 49> C  -23.644   26.867   44.062
| 50> C  -24.147   27.963   43.116
| 51> C  -22.818   28.571   42.606
| 52> C  -21.877   27.343   42.528
| 53> O  -22.490   26.289   43.364
| 54> H  -24.355   26.055   44.232
| 55> O  -24.946   27.331   41.944
| 56> H  -24.787   28.700   43.613
| 57> H  -22.925   29.077   41.641
| 58> H  -22.438   29.303   43.328
| 59> H  -20.872   27.560   42.905
| 60> H  -21.797   26.943   41.513
| 61> H  -24.323   26.590   41.431
| 62> *
| 63>
| 64>                          ****END OF INPUT****
 Total Charge           Charge          ....    0
 Multiplicity           Mult            ....    1
 Number of Electrons    NEL             ....  102
FINAL SINGLE POINT ENERGY      -652.824163221148
FINAL SINGLE POINT ENERGY      -652.848158541766
FINAL SINGLE POINT ENERGY      -652.853488349382
FINAL SINGLE POINT ENERGY      -652.855899088223
FINAL SINGLE POINT ENERGY      -652.856185605873
FINAL SINGLE POINT ENERGY      -652.856230734963
FINAL SINGLE POINT ENERGY      -652.856238192046
                    ***********************HURRAY********************

CARTESIAN COORDINATES (ANGSTROEM)
---------------------------------
  C    -21.036804   26.277366   46.207774
  C    -20.178851   27.527532   46.009861
  C    -20.243954   28.191647   47.410917
  C    -20.275233   26.971609   48.357285
  O    -20.675802   25.818253   47.518898
  H    -20.838258   25.465540   45.508436
  H    -19.156418   27.200520   45.788479
  H    -20.494976   28.184268   45.196859
  H    -19.389289   28.847456   47.602763
  H    -21.158957   28.785584   47.510177
  H    -20.993476   27.080248   49.174191
  H    -19.290643   26.733663   48.770995
  C    -23.118971   27.515820   45.414257
  H    -24.014962   27.821095   45.966556
  H    -22.486102   28.402113   45.280744
  O    -22.483810   26.510929   46.237949
  C    -23.532195   26.922133   44.066969
  C    -24.187985   27.905232   43.085668
  C    -22.948358   28.596459   42.459530
  C    -21.900626   27.456078   42.399777
  O    -22.366062   26.403890   43.336725
  H    -24.176671   26.058811   44.256253
  O    -24.974092   27.201614   42.086448
  H    -24.878752   28.605565   43.557877
  H    -23.190872   29.004133   41.475512
  H    -22.607397   29.419617   43.098031
  H    -20.900039   27.784062   42.697888
  H    -21.835165   26.999161   41.407830
  H    -24.489279   26.397602   41.803350

 Multiplicity           Mult            ....    1
 Number of Electrons    NEL             ....  102
 Basis Dimension        Dim             ....  149

ORBITAL ENERGIES
----------------

  NO   OCC          E(Eh)            E(eV)
   0   2.0000     -19.150410      -521.1092
   1   2.0000     -19.143097      -520.9101
   2   2.0000     -19.134736      -520.6826
   3   2.0000     -19.134405      -520.6736
   4   2.0000     -10.273347      -279.5520
   5   2.0000     -10.248120      -278.8655
   6   2.0000     -10.238005      -278.5903
   7   2.0000     -10.235596      -278.5247
   8   2.0000     -10.235045      -278.5097
   9   2.0000     -10.223431      -278.1937
  10   2.0000     -10.196160      -277.4516
  11   2.0000     -10.190377      -277.2943
  12   2.0000     -10.190252      -277.2908
  13   2.0000      -1.049354       -28.5544
  14   2.0000      -1.040153       -28.3040
  15   2.0000      -1.011685       -27.5293
  16   2.0000      -0.987639       -26.8750
  17   2.0000      -0.789617       -21.4866
  18   2.0000      -0.786927       -21.4134
  19   2.0000      -0.771578       -20.9957
  20   2.0000      -0.732602       -19.9351
  21   2.0000      -0.681266       -18.5382
  22   2.0000      -0.609885       -16.5958
  23   2.0000      -0.604733       -16.4556
  24   2.0000      -0.597832       -16.2678
  25   2.0000      -0.573183       -15.5971
  26   2.0000      -0.531502       -14.4629
  27   2.0000      -0.510287       -13.8856
  28   2.0000      -0.503165       -13.6918
  29   2.0000      -0.490573       -13.3492
  30   2.0000      -0.479371       -13.0443
  31   2.0000      -0.460835       -12.5400
  32   2.0000      -0.454302       -12.3622
  33   2.0000      -0.442902       -12.0520
  34   2.0000      -0.430141       -11.7047
  35   2.0000      -0.407336       -11.0842
  36   2.0000      -0.403655       -10.9840
  37   2.0000      -0.400139       -10.8883
  38   2.0000      -0.379697       -10.3321
  39   2.0000      -0.377241       -10.2652
  40   2.0000      -0.366305        -9.9677
  41   2.0000      -0.356532        -9.7017
  42   2.0000      -0.354672        -9.6511
  43   2.0000      -0.337225        -9.1764
  44   2.0000      -0.314453        -8.5567
  45   2.0000      -0.309812        -8.4304
  46   2.0000      -0.291013        -7.9189
  47   2.0000      -0.277484        -7.5507
  48   2.0000      -0.270145        -7.3510
  49   2.0000      -0.253808        -6.9065
  50   2.0000      -0.237711        -6.4684
  51   0.0000       0.050577         1.3763
  52   0.0000       0.074772         2.0346
  53   0.0000       0.086181         2.3451
  54   0.0000       0.096002         2.6123
  55   0.0000       0.101973         2.7748

MULLIKEN ATOMIC CHARGES
-----------------------
   0 C :    0.322352
   1 C :   -0.300374
   2 C :   -0.302894
   3 C :    0.002070
   4 O :   -0.496921
   5 H :    0.168927
   6 H :    0.154251
   7 H :    0.138050
   8 H :    0.142724
   9 H :    0.150669
  10 H :    0.151486
  11 H :    0.141650
  12 C :   -0.019227
  13 H :    0.152260
  14 H :    0.117091
  15 O :   -0.513638
  16 C :    0.065476
  17 C :    0.079034
  18 C :   -0.294496
  19 C :   -0.030461
  20 O :   -0.520964
  21 H :    0.174425
  22 O :   -0.601148
  23 H :    0.153403
  24 H :    0.165314
  25 H :    0.140538
  26 H :    0.142947
  27 H :    0.150091
  28 H :    0.367367
Sum of atomic charges:   -0.0000000

LOEWDIN ATOMIC CHARGES
----------------------
   0 C :    0.187177
   1 C :   -0.232900
   2 C :   -0.219422
   3 C :   -0.026530
   4 O :   -0.304780
   5 H :    0.111553
   6 H :    0.121079
   7 H :    0.109257
   8 H :    0.114329
   9 H :    0.111067
  10 H :    0.107722
  11 H :    0.102370
  12 C :   -0.043296
  13 H :    0.114239
  14 H :    0.088696
  15 O :   -0.326981
  16 C :    0.005738
  17 C :    0.035356
  18 C :   -0.240789
  19 C :   -0.039038
  20 O :   -0.329632
  21 H :    0.122680
  22 O :   -0.413432
  23 H :    0.116327
  24 H :    0.128355
  25 H :    0.110690
  26 H :    0.100793
  27 H :    0.104539
  28 H :    0.284834

  Mayer bond orders larger than 0.100000
B(  0-C ,  1-C ) :   0.9324 B(  0-C ,  4-O ) :   0.9221 B(  0-C ,  5-H ) :   0.9206
B(  0-C , 15-O ) :   0.8309 B(  1-C ,  2-C ) :   0.9477 B(  1-C ,  6-H ) :   0.9345
B(  1-C ,  7-H ) :   0.9253 B(  2-C ,  3-C ) :   0.9536 B(  2-C ,  8-H ) :   0.9454
B(  2-C ,  9-H ) :   0.9455 B(  3-C ,  4-O ) :   0.8421 B(  3-C , 10-H ) :   0.9344
B(  3-C , 11-H ) :   0.9398 B( 12-C , 13-H ) :   0.9269 B( 12-C , 14-H ) :   0.9106
B( 12-C , 15-O ) :   0.8779 B( 12-C , 16-C ) :   0.8830 B( 16-C , 17-C ) :   0.8941
B( 16-C , 20-O ) :   0.8526 B( 16-C , 21-H ) :   0.9234 B( 17-C , 18-C ) :   0.9087
B( 17-C , 22-O ) :   0.8944 B( 17-C , 23-H ) :   0.9338 B( 18-C , 19-C ) :   0.9401
B( 18-C , 24-H ) :   0.9372 B( 18-C , 25-H ) :   0.9342 B( 19-C , 20-O ) :   0.8484
B( 19-C , 26-H ) :   0.9310 B( 19-C , 27-H ) :   0.9375 B( 22-O , 28-H ) :   0.7928

FINAL SINGLE POINT ENERGY      -652.856239904145

DIPOLE MOMENT
-------------
                                X             Y             Z
Electronic contribution:     -3.58732      -6.07265      -0.28976
Nuclear contribution   :      4.40983       7.67011      -0.13322
                        -----------------------------------------
Total Dipole Moment    :      0.82251       1.59747      -0.42297
                        -----------------------------------------
Magnitude (a.u.)       :      1.84590
Magnitude (Debye)      :      4.69190

Rotational constants in cm-1:     0.065307     0.013134     0.012616
Rotational constants in MHz :  1957.845672   393.744769   378.231709

                             ****ORCA TERMINATED NORMALLY****
TOTAL RUN TIME: 0 days 0 hours 21 minutes 10 seconds 470 msec
