                         Program Version 4.2.0 -  RELEASE  -
|  1> # Test redundant internal optimization
|  2> #
|  3> ! RKS B3LYP  Opt TightSCF SmallPrint
|  4>
|  5> %basis
|  6>         Basis "6-31G"
|  7> end
|  8>
|  9> %geom
| 10> Constraints
| 11> { D 4  0  15  12  180.0   C } # D for Dihedral angle
| 12> { D 0  15  12  16  135.0   C } # D for Dihedral angle
| 13> { D 0  4  3  2   C } # D for Dihedral angle
| 14> { D 4  3  2  1   C } # D for Dihedral angle
| 15> { D 3  2  1  0   C } # D for Dihedral angle
| 16> { D 2  1  0  4   C } # D for Dihedral angle
| 17> { D 1  0  4  3   C } # D for Dihedral angle
| 18> { D 16  20  19  18   C } # D for Dihedral angle
| 19> { D 20  19  18  17   C } # D for Dihedral angle
| 20> { D 19  18  17  16   C } # D for Dihedral angle
| 21> { D 18  17  16  20   C } # D for Dihedral angle
| 22> { D 17  16  20  19   C } # D for Dihedral angle
| 23> { D 15  12  16  20   C } # D for Dihedral angle
| 24> end
| 25> end
| 26>
| 27>
| 28> #%pal
| 29> #nprocs 8
| 30> #end
| 31>
| 32> * xyz 0 1
| 33> C  -21.048   26.222   46.251
| 34> C  -20.361   27.558   45.944
| 35> C  -20.329   28.222   47.341
| 36> C  -20.110   27.022   48.296
| 37> O  -20.473   25.807   47.535
| 38> H  -20.833   25.428   45.533
| 39> H  -19.344   27.382   45.576
| 40> H  -20.898   28.157   45.201
| 41> H  -19.543   28.978   47.434
| 42> H  -21.289   28.710   47.548
| 43> H  -20.733   27.082   49.195
| 44> H  -19.064   26.913   48.597
| 45> C  -23.309   26.834   45.072
| 46> H  -23.576   27.895   45.147
| 47> H  -22.648   26.707   44.205
| 48> O  -22.586   26.394   46.375
| 49> C  -24.605   26.021   44.801
| 50> C  -25.658   26.275   45.885
| 51> C  -26.238   27.641   45.446
| 52> C  -26.192   27.560   43.899
| 53> O  -25.245   26.476   43.562
| 54> H  -24.345   24.970   44.659
| 55> O  -26.751   25.173   45.834
| 56> H  -25.238   26.297   46.897
| 57> H  -27.250   27.814   45.825
| 58> H  -25.600   28.455   45.810
| 59> H  -25.847   28.493   43.441
| 60> H  -27.159   27.290   43.467
| 61> H  -27.187   25.132   44.829
| 62> *
| 63>
| 64>                          ****END OF INPUT****
 Total Charge           Charge          ....    0
 Multiplicity           Mult            ....    1
 Number of Electrons    NEL             ....  102
FINAL SINGLE POINT ENERGY      -652.834470263361
FINAL SINGLE POINT ENERGY      -652.857235625065
FINAL SINGLE POINT ENERGY      -652.860596025869
FINAL SINGLE POINT ENERGY      -652.861182616816
FINAL SINGLE POINT ENERGY      -652.861270154639
FINAL SINGLE POINT ENERGY      -652.861280721650
FINAL SINGLE POINT ENERGY      -652.861283085408
                    ***********************HURRAY********************

CARTESIAN COORDINATES (ANGSTROEM)
---------------------------------
  C    -21.143774   26.230422   46.161556
  C    -20.359971   27.516969   45.912007
  C    -20.405581   28.197464   47.302768
  C    -20.338666   26.998859   48.270849
  O    -20.713628   25.809438   47.459822
  H    -20.943595   25.414054   45.460209
  H    -19.330438   27.259831   45.636575
  H    -20.779205   28.139668   45.116730
  H    -19.581658   28.901733   47.451220
  H    -21.349192   28.738390   47.421960
  H    -21.034071   27.079556   49.109577
  H    -19.329989   26.811094   48.649681
  C    -23.228792   26.908376   45.004639
  H    -23.431984   27.985800   45.058560
  H    -22.591467   26.727853   44.128814
  O    -22.583884   26.467224   46.234881
  C    -24.516531   26.103855   44.833460
  C    -25.563860   26.311406   45.935853
  C    -26.218156   27.646431   45.498813
  C    -26.195627   27.562578   43.952349
  O    -25.197438   26.519670   43.601129
  H    -24.269451   25.044131   44.727259
  O    -26.527752   25.221368   45.943259
  H    -25.130549   26.333996   46.934126
  H    -27.228612   27.730646   45.905517
  H    -25.631093   28.496990   45.862320
  H    -25.905596   28.504833   43.477237
  H    -27.155114   27.242669   43.534494
  H    -26.773327   25.002700   45.019336

 Multiplicity           Mult            ....    1
 Number of Electrons    NEL             ....  102
 Basis Dimension        Dim             ....  149

ORBITAL ENERGIES
----------------

  NO   OCC          E(Eh)            E(eV)
   0   2.0000     -19.145299      -520.9701
   1   2.0000     -19.144297      -520.9428
   2   2.0000     -19.143538      -520.9222
   3   2.0000     -19.133108      -520.6383
   4   2.0000     -10.283196      -279.8200
   5   2.0000     -10.234290      -278.4892
   6   2.0000     -10.233806      -278.4760
   7   2.0000     -10.232159      -278.4312
   8   2.0000     -10.231830      -278.4222
   9   2.0000     -10.227801      -278.3126
  10   2.0000     -10.191193      -277.3165
  11   2.0000     -10.190674      -277.3023
  12   2.0000     -10.186861      -277.1986
  13   2.0000      -1.056525       -28.7495
  14   2.0000      -1.035332       -28.1728
  15   2.0000      -1.002879       -27.2897
  16   2.0000      -0.997217       -27.1357
  17   2.0000      -0.790550       -21.5120
  18   2.0000      -0.779377       -21.2079
  19   2.0000      -0.768252       -20.9052
  20   2.0000      -0.732884       -19.9428
  21   2.0000      -0.677426       -18.4337
  22   2.0000      -0.604977       -16.4623
  23   2.0000      -0.603110       -16.4115
  24   2.0000      -0.595243       -16.1974
  25   2.0000      -0.578091       -15.7307
  26   2.0000      -0.521767       -14.1980
  27   2.0000      -0.518483       -14.1086
  28   2.0000      -0.499654       -13.5963
  29   2.0000      -0.492369       -13.3980
  30   2.0000      -0.472114       -12.8469
  31   2.0000      -0.456910       -12.4332
  32   2.0000      -0.455129       -12.3847
  33   2.0000      -0.442647       -12.0450
  34   2.0000      -0.425736       -11.5849
  35   2.0000      -0.413254       -11.2452
  36   2.0000      -0.403637       -10.9835
  37   2.0000      -0.391210       -10.6454
  38   2.0000      -0.379303       -10.3214
  39   2.0000      -0.367501       -10.0002
  40   2.0000      -0.361338        -9.8325
  41   2.0000      -0.359537        -9.7835
  42   2.0000      -0.356017        -9.6877
  43   2.0000      -0.332472        -9.0470
  44   2.0000      -0.316965        -8.6251
  45   2.0000      -0.309864        -8.4318
  46   2.0000      -0.300659        -8.1814
  47   2.0000      -0.273755        -7.4492
  48   2.0000      -0.261189        -7.1073
  49   2.0000      -0.259102        -7.0505
  50   2.0000      -0.243313        -6.6209
  51   0.0000       0.065591         1.7848
  52   0.0000       0.070809         1.9268
  53   0.0000       0.095454         2.5974
  54   0.0000       0.098136         2.6704
  55   0.0000       0.103414         2.8140

MULLIKEN ATOMIC CHARGES
-----------------------
   0 C :    0.303285
   1 C :   -0.279437
   2 C :   -0.297849
   3 C :   -0.001521
   4 O :   -0.500843
   5 H :    0.145952
   6 H :    0.148903
   7 H :    0.145590
   8 H :    0.144018
   9 H :    0.156563
  10 H :    0.156016
  11 H :    0.143925
  12 C :   -0.023468
  13 H :    0.134845
  14 H :    0.142865
  15 O :   -0.515089
  16 C :    0.061430
  17 C :    0.092910
  18 C :   -0.298268
  19 C :   -0.028483
  20 O :   -0.529448
  21 H :    0.163852
  22 O :   -0.603005
  23 H :    0.181166
  24 H :    0.161333
  25 H :    0.142936
  26 H :    0.143868
  27 H :    0.146148
  28 H :    0.361806
Sum of atomic charges:   -0.0000000

LOEWDIN ATOMIC CHARGES
----------------------
   0 C :    0.181948
   1 C :   -0.232888
   2 C :   -0.216560
   3 C :   -0.024439
   4 O :   -0.300515
   5 H :    0.099268
   6 H :    0.116557
   7 H :    0.114814
   8 H :    0.115319
   9 H :    0.115991
  10 H :    0.110430
  11 H :    0.103751
  12 C :   -0.045384
  13 H :    0.095931
  14 H :    0.104171
  15 O :   -0.340341
  16 C :    0.015255
  17 C :    0.039798
  18 C :   -0.241280
  19 C :   -0.037749
  20 O :   -0.333835
  21 H :    0.118356
  22 O :   -0.414401
  23 H :    0.130368
  24 H :    0.126754
  25 H :    0.112609
  26 H :    0.102646
  27 H :    0.102539
  28 H :    0.280889

  Mayer bond orders larger than 0.100000
B(  0-C ,  1-C ) :   0.9275 B(  0-C ,  4-O ) :   0.9441 B(  0-C ,  5-H ) :   0.9201
B(  0-C , 15-O ) :   0.8261 B(  1-C ,  2-C ) :   0.9510 B(  1-C ,  6-H ) :   0.9338
B(  1-C ,  7-H ) :   0.9325 B(  2-C ,  3-C ) :   0.9559 B(  2-C ,  8-H ) :   0.9450
B(  2-C ,  9-H ) :   0.9455 B(  3-C ,  4-O ) :   0.8334 B(  3-C , 10-H ) :   0.9344
B(  3-C , 11-H ) :   0.9397 B( 12-C , 13-H ) :   0.9245 B( 12-C , 14-H ) :   0.9171
B( 12-C , 15-O ) :   0.8317 B( 12-C , 16-C ) :   0.8927 B( 16-C , 17-C ) :   0.9155
B( 16-C , 20-O ) :   0.8417 B( 16-C , 21-H ) :   0.9259 B( 17-C , 18-C ) :   0.9116
B( 17-C , 22-O ) :   0.8912 B( 17-C , 23-H ) :   0.9232 B( 18-C , 19-C ) :   0.9390
B( 18-C , 24-H ) :   0.9385 B( 18-C , 25-H ) :   0.9356 B( 19-C , 20-O ) :   0.8430
B( 19-C , 26-H ) :   0.9362 B( 19-C , 27-H ) :   0.9384 B( 22-O , 28-H ) :   0.7959

FINAL SINGLE POINT ENERGY      -652.861283447628

DIPOLE MOMENT
-------------
                                X             Y             Z
Electronic contribution:     -2.09136      -5.95718      -0.39113
Nuclear contribution   :      2.64700       7.51151      -0.10126
                        -----------------------------------------
Total Dipole Moment    :      0.55564       1.55433      -0.49239
                        -----------------------------------------
Magnitude (a.u.)       :      1.72253
Magnitude (Debye)      :      4.37833

Rotational constants in cm-1:     0.057965     0.012002     0.011409
Rotational constants in MHz :  1737.745986   359.796933   342.025858

                             ****ORCA TERMINATED NORMALLY****
TOTAL RUN TIME: 0 days 0 hours 18 minutes 18 seconds 471 msec
