                         Program Version 4.2.0 -  RELEASE  -
|  1> # Test redundant internal optimization
|  2> #
|  3> ! RKS B3LYP  Opt TightSCF SmallPrint
|  4>
|  5> %basis
|  6>         Basis "6-31G"
|  7> end
|  8>
|  9> %geom
| 10> Constraints
| 11> { D 4  0  15  12  345.0   C } # D for Dihedral angle
| 12> { D 0  15  12  16  225.0   C } # D for Dihedral angle
| 13> { D 0  4  3  2   C } # D for Dihedral angle
| 14> { D 4  3  2  1   C } # D for Dihedral angle
| 15> { D 3  2  1  0   C } # D for Dihedral angle
| 16> { D 2  1  0  4   C } # D for Dihedral angle
| 17> { D 1  0  4  3   C } # D for Dihedral angle
| 18> { D 16  20  19  18   C } # D for Dihedral angle
| 19> { D 20  19  18  17   C } # D for Dihedral angle
| 20> { D 19  18  17  16   C } # D for Dihedral angle
| 21> { D 18  17  16  20   C } # D for Dihedral angle
| 22> { D 17  16  20  19   C } # D for Dihedral angle
| 23> { D 15  12  16  20   C } # D for Dihedral angle
| 24> end
| 25> end
| 26>
| 27>
| 28> #%pal
| 29> #nprocs 8
| 30> #end
| 31>
| 32> * xyz 0 1
| 33> C  -21.048   26.222   46.251
| 34> C  -20.361   27.558   45.944
| 35> C  -20.329   28.222   47.341
| 36> C  -20.110   27.022   48.296
| 37> O  -20.473   25.807   47.535
| 38> H  -20.833   25.428   45.533
| 39> H  -19.344   27.382   45.576
| 40> H  -20.898   28.157   45.201
| 41> H  -19.543   28.978   47.434
| 42> H  -21.289   28.710   47.548
| 43> H  -20.733   27.082   49.195
| 44> H  -19.064   26.913   48.597
| 45> C  -23.221   25.764   47.645
| 46> H  -22.499   25.081   48.110
| 47> H  -23.474   26.544   48.375
| 48> O  -22.586   26.394   46.375
| 49> C  -24.518   24.967   47.336
| 50> C  -25.545   25.838   46.601
| 51> C  -24.999   25.810   45.153
| 52> C  -24.417   24.381   45.024
| 53> O  -24.238   23.873   46.401
| 54> H  -24.888   24.514   48.258
| 55> H  -26.535   25.373   46.650
| 56> O  -25.650   27.276   47.178
| 57> H  -25.771   26.016   44.405
| 58> H  -24.209   26.561   45.034
| 59> H  -23.452   24.365   44.506
| 60> H  -25.102   23.696   44.515
| 61> H  -24.668   27.761   47.139
| 62> *
| 63>
| 64>                          ****END OF INPUT****
 Total Charge           Charge          ....    0
 Multiplicity           Mult            ....    1
 Number of Electrons    NEL             ....  102
FINAL SINGLE POINT ENERGY      -652.834662207706
FINAL SINGLE POINT ENERGY      -652.857250089006
FINAL SINGLE POINT ENERGY      -652.861624604239
FINAL SINGLE POINT ENERGY      -652.863000267182
FINAL SINGLE POINT ENERGY      -652.863129205542
FINAL SINGLE POINT ENERGY      -652.863153353190
                    ***********************HURRAY********************

CARTESIAN COORDINATES (ANGSTROEM)
---------------------------------
  C    -21.046647   26.194567   46.344383
  C    -20.439744   27.555247   46.005984
  C    -20.334825   28.210474   47.401699
  C    -20.001294   27.020864   48.327033
  O    -20.378980   25.798409   47.558579
  H    -20.861112   25.397713   45.620754
  H    -19.448278   27.407650   45.562456
  H    -21.060405   28.121872   45.308425
  H    -19.571764   28.993631   47.442645
  H    -21.296123   28.657406   47.674772
  H    -20.559926   27.029811   49.266269
  H    -18.933171   26.930691   48.541913
  C    -23.155019   25.783522   47.663741
  H    -22.470072   25.098520   48.169447
  H    -23.412403   26.596833   48.355284
  O    -22.496075   26.345043   46.484368
  C    -24.428807   25.034929   47.282788
  C    -25.506495   25.877985   46.577295
  C    -25.047649   25.805193   45.088564
  C    -24.469415   24.377935   44.983154
  O    -24.205102   23.921975   46.371475
  H    -24.822399   24.598586   48.209427
  H    -26.488935   25.420685   46.713466
  O    -25.644283   27.225084   47.092483
  H    -25.876150   25.977930   44.395036
  H    -24.270351   26.554128   44.919909
  H    -23.534207   24.342328   44.416959
  H    -25.179838   23.668220   44.547148
  H    -24.857532   27.747770   46.830544

 Multiplicity           Mult            ....    1
 Number of Electrons    NEL             ....  102
 Basis Dimension        Dim             ....  149

ORBITAL ENERGIES
----------------

  NO   OCC          E(Eh)            E(eV)
   0   2.0000     -19.155550      -521.2490
   1   2.0000     -19.144848      -520.9578
   2   2.0000     -19.136355      -520.7267
   3   2.0000     -19.129412      -520.5378
   4   2.0000     -10.284910      -279.8666
   5   2.0000     -10.236423      -278.5472
   6   2.0000     -10.232303      -278.4351
   7   2.0000     -10.224699      -278.2282
   8   2.0000     -10.223523      -278.1962
   9   2.0000     -10.219044      -278.0743
  10   2.0000     -10.195662      -277.4381
  11   2.0000     -10.191990      -277.3381
  12   2.0000     -10.176045      -276.9043
  13   2.0000      -1.059955       -28.8428
  14   2.0000      -1.023881       -27.8612
  15   2.0000      -1.006081       -27.3768
  16   2.0000      -0.993447       -27.0331
  17   2.0000      -0.796769       -21.6812
  18   2.0000      -0.770139       -20.9566
  19   2.0000      -0.763054       -20.7638
  20   2.0000      -0.735149       -20.0044
  21   2.0000      -0.674052       -18.3419
  22   2.0000      -0.608957       -16.5706
  23   2.0000      -0.598527       -16.2868
  24   2.0000      -0.597385       -16.2557
  25   2.0000      -0.560983       -15.2651
  26   2.0000      -0.527439       -14.3524
  27   2.0000      -0.511548       -13.9199
  28   2.0000      -0.496933       -13.5222
  29   2.0000      -0.490147       -13.3376
  30   2.0000      -0.467989       -12.7346
  31   2.0000      -0.460247       -12.5240
  32   2.0000      -0.442409       -12.0386
  33   2.0000      -0.427636       -11.6366
  34   2.0000      -0.422193       -11.4885
  35   2.0000      -0.415402       -11.3037
  36   2.0000      -0.398795       -10.8518
  37   2.0000      -0.393170       -10.6987
  38   2.0000      -0.379037       -10.3141
  39   2.0000      -0.371091       -10.0979
  40   2.0000      -0.365117        -9.9353
  41   2.0000      -0.356375        -9.6975
  42   2.0000      -0.349458        -9.5092
  43   2.0000      -0.334919        -9.1136
  44   2.0000      -0.321358        -8.7446
  45   2.0000      -0.306748        -8.3471
  46   2.0000      -0.300617        -8.1802
  47   2.0000      -0.271246        -7.3810
  48   2.0000      -0.263988        -7.1835
  49   2.0000      -0.255040        -6.9400
  50   2.0000      -0.232861        -6.3365
  51   0.0000       0.062252         1.6940
  52   0.0000       0.083709         2.2778
  53   0.0000       0.092412         2.5147
  54   0.0000       0.100106         2.7240
  55   0.0000       0.105065         2.8590

MULLIKEN ATOMIC CHARGES
-----------------------
   0 C :    0.307147
   1 C :   -0.258838
   2 C :   -0.305461
   3 C :   -0.014886
   4 O :   -0.508383
   5 H :    0.160840
   6 H :    0.147324
   7 H :    0.155594
   8 H :    0.149452
   9 H :    0.153519
  10 H :    0.149412
  11 H :    0.153204
  12 C :   -0.038255
  13 H :    0.183300
  14 H :    0.130963
  15 O :   -0.557980
  16 C :    0.102412
  17 C :    0.086813
  18 C :   -0.313072
  19 C :   -0.004020
  20 O :   -0.522826
  21 H :    0.144524
  22 H :    0.158812
  23 O :   -0.608893
  24 H :    0.142179
  25 H :    0.163393
  26 H :    0.139651
  27 H :    0.141388
  28 H :    0.362686
Sum of atomic charges:    0.0000000

LOEWDIN ATOMIC CHARGES
----------------------
   0 C :    0.184548
   1 C :   -0.218739
   2 C :   -0.218000
   3 C :   -0.030766
   4 O :   -0.314083
   5 H :    0.106197
   6 H :    0.115218
   7 H :    0.123110
   8 H :    0.118236
   9 H :    0.114288
  10 H :    0.105848
  11 H :    0.108686
  12 C :   -0.054261
  13 H :    0.125139
  14 H :    0.096928
  15 O :   -0.355772
  16 C :    0.017597
  17 C :    0.036803
  18 C :   -0.243955
  19 C :   -0.025619
  20 O :   -0.323436
  21 H :    0.112524
  22 H :    0.114632
  23 O :   -0.412821
  24 H :    0.114039
  25 H :    0.120825
  26 H :    0.101282
  27 H :    0.100389
  28 H :    0.281164

  Mayer bond orders larger than 0.100000
B(  0-C ,  1-C ) :   0.9384 B(  0-C ,  4-O ) :   0.9151 B(  0-C ,  5-H ) :   0.9260
B(  0-C , 15-O ) :   0.8253 B(  1-C ,  2-C ) :   0.9520 B(  1-C ,  6-H ) :   0.9355
B(  1-C ,  7-H ) :   0.9366 B(  2-C ,  3-C ) :   0.9548 B(  2-C ,  8-H ) :   0.9444
B(  2-C ,  9-H ) :   0.9460 B(  3-C ,  4-O ) :   0.8266 B(  3-C , 10-H ) :   0.9342
B(  3-C , 11-H ) :   0.9401 B( 12-C , 13-H ) :   0.9091 B( 12-C , 14-H ) :   0.9119
B( 12-C , 15-O ) :   0.8265 B( 12-C , 16-C ) :   0.9058 B( 16-C , 17-C ) :   0.8869
B( 16-C , 20-O ) :   0.8760 B( 16-C , 21-H ) :   0.9270 B( 17-C , 18-C ) :   0.9332
B( 17-C , 22-H ) :   0.9373 B( 17-C , 23-O ) :   0.8983 B( 18-C , 19-C ) :   0.9472
B( 18-C , 24-H ) :   0.9412 B( 18-C , 25-H ) :   0.9276 B( 19-C , 20-O ) :   0.8401
B( 19-C , 26-H ) :   0.9330 B( 19-C , 27-H ) :   0.9374 B( 23-O , 28-H ) :   0.7933

FINAL SINGLE POINT ENERGY      -652.863154151795

DIPOLE MOMENT
-------------
                                X             Y             Z
Electronic contribution:     -2.15670      -3.70612       1.04218
Nuclear contribution   :      3.03947       4.72006      -1.34455
                        -----------------------------------------
Total Dipole Moment    :      0.88276       1.01394      -0.30237
                        -----------------------------------------
Magnitude (a.u.)       :      1.37796
Magnitude (Debye)      :      3.50249

Rotational constants in cm-1:     0.049301     0.015400     0.014547
Rotational constants in MHz :  1478.001837   461.668266   436.108037

                             ****ORCA TERMINATED NORMALLY****
TOTAL RUN TIME: 0 days 0 hours 22 minutes 22 seconds 348 msec
