                         Program Version 4.2.0 -  RELEASE  -
|  1> # Test redundant internal optimization
|  2> #
|  3> ! RKS B3LYP  Opt TightSCF SmallPrint
|  4>
|  5> %basis
|  6>         Basis "6-31G"
|  7> end
|  8>
|  9> %geom
| 10> Constraints
| 11> { D 4  0  15  12  195.0   C } # D for Dihedral angle
| 12> { D 0  15  12  16  240.0   C } # D for Dihedral angle
| 13> { D 0  4  3  2   C } # D for Dihedral angle
| 14> { D 4  3  2  1   C } # D for Dihedral angle
| 15> { D 3  2  1  0   C } # D for Dihedral angle
| 16> { D 2  1  0  4   C } # D for Dihedral angle
| 17> { D 1  0  4  3   C } # D for Dihedral angle
| 18> { D 16  20  19  18   C } # D for Dihedral angle
| 19> { D 20  19  18  17   C } # D for Dihedral angle
| 20> { D 19  18  17  16   C } # D for Dihedral angle
| 21> { D 18  17  16  20   C } # D for Dihedral angle
| 22> { D 17  16  20  19   C } # D for Dihedral angle
| 23> { D 15  12  16  20   C } # D for Dihedral angle
| 24> end
| 25> end
| 26>
| 27>
| 28> #%pal
| 29> #nprocs 8
| 30> #end
| 31>
| 32> * xyz 0 1
| 33> C  -21.048   26.222   46.251
| 34> C  -20.361   27.558   45.944
| 35> C  -20.329   28.222   47.341
| 36> C  -20.110   27.022   48.296
| 37> O  -20.473   25.807   47.535
| 38> H  -20.833   25.428   45.533
| 39> H  -19.344   27.382   45.576
| 40> H  -20.898   28.157   45.201
| 41> H  -19.543   28.978   47.434
| 42> H  -21.289   28.710   47.548
| 43> H  -20.733   27.082   49.195
| 44> H  -19.064   26.913   48.597
| 45> C  -23.353   26.472   45.026
| 46> H  -22.639   26.379   44.198
| 47> H  -24.077   25.651   44.948
| 48> O  -22.586   26.394   46.375
| 49> C  -24.130   27.807   44.854
| 50> C  -24.965   27.802   43.569
| 51> C  -26.193   26.963   43.996
| 52> C  -26.390   27.360   45.481
| 53> O  -25.118   27.967   45.926
| 54> H  -23.430   28.641   44.935
| 55> O  -25.391   29.250   43.204
| 56> H  -24.435   27.372   42.712
| 57> H  -27.080   27.169   43.388
| 58> H  -25.968   25.894   43.909
| 59> H  -26.619   26.498   46.118
| 60> H  -27.171   28.115   45.611
| 61> H  -25.925   29.701   44.048
| 62> *
| 63>
| 64>                          ****END OF INPUT****
 Total Charge           Charge          ....    0
 Multiplicity           Mult            ....    1
 Number of Electrons    NEL             ....  102
FINAL SINGLE POINT ENERGY      -652.829361153841
FINAL SINGLE POINT ENERGY      -652.852049062928
FINAL SINGLE POINT ENERGY      -652.855557997091
FINAL SINGLE POINT ENERGY      -652.856190478688
FINAL SINGLE POINT ENERGY      -652.856276677233
FINAL SINGLE POINT ENERGY      -652.856284739422
                    ***********************HURRAY********************

CARTESIAN COORDINATES (ANGSTROEM)
---------------------------------
  C    -21.083123   26.235758   46.163009
  C    -20.421279   27.583131   45.883771
  C    -20.477652   28.263518   47.273431
  C    -20.275553   27.080548   48.242213
  O    -20.574617   25.858570   47.447462
  H    -20.835419   25.434695   45.458331
  H    -19.382794   27.417423   45.571898
  H    -20.924113   28.160348   45.102914
  H    -19.714570   29.038423   47.392124
  H    -21.462175   28.716078   47.422224
  H    -20.948408   27.107069   49.102196
  H    -19.242406   26.981634   48.587896
  C    -23.276796   26.403241   45.032897
  H    -22.602295   26.308358   44.167749
  H    -23.958213   25.543350   45.029617
  O    -22.532735   26.360142   46.281110
  C    -24.062274   27.710113   44.912040
  C    -24.915226   27.802854   43.638690
  C    -26.183909   27.008239   44.049220
  C    -26.338812   27.352302   45.552092
  O    -25.025942   27.874650   46.001841
  H    -23.370727   28.555530   44.983829
  O    -25.223376   29.188274   43.322745
  H    -24.428550   27.407177   42.745886
  H    -27.042483   27.316189   43.447239
  H    -26.024687   25.934271   43.899596
  H    -26.602341   26.482857   46.161406
  H    -27.078002   28.140052   45.729013
  H    -25.486525   29.651205   44.146561

 Multiplicity           Mult            ....    1
 Number of Electrons    NEL             ....  102
 Basis Dimension        Dim             ....  149

ORBITAL ENERGIES
----------------

  NO   OCC          E(Eh)            E(eV)
   0   2.0000     -19.142623      -520.8973
   1   2.0000     -19.142364      -520.8902
   2   2.0000     -19.138544      -520.7863
   3   2.0000     -19.137215      -520.7501
   4   2.0000     -10.278828      -279.7011
   5   2.0000     -10.246576      -278.8235
   6   2.0000     -10.237123      -278.5663
   7   2.0000     -10.235912      -278.5333
   8   2.0000     -10.232019      -278.4274
   9   2.0000     -10.222131      -278.1583
  10   2.0000     -10.192961      -277.3646
  11   2.0000     -10.186336      -277.1843
  12   2.0000     -10.183736      -277.1135
  13   2.0000      -1.051918       -28.6242
  14   2.0000      -1.038818       -28.2677
  15   2.0000      -1.009179       -27.4611
  16   2.0000      -0.991713       -26.9859
  17   2.0000      -0.788210       -21.4483
  18   2.0000      -0.783749       -21.3269
  19   2.0000      -0.769290       -20.9334
  20   2.0000      -0.731754       -19.9120
  21   2.0000      -0.676799       -18.4166
  22   2.0000      -0.607743       -16.5375
  23   2.0000      -0.598909       -16.2971
  24   2.0000      -0.595208       -16.1964
  25   2.0000      -0.583405       -15.8753
  26   2.0000      -0.523941       -14.2572
  27   2.0000      -0.513782       -13.9807
  28   2.0000      -0.499288       -13.5863
  29   2.0000      -0.491303       -13.3690
  30   2.0000      -0.473732       -12.8909
  31   2.0000      -0.458139       -12.4666
  32   2.0000      -0.454684       -12.3726
  33   2.0000      -0.442336       -12.0366
  34   2.0000      -0.429643       -11.6912
  35   2.0000      -0.409522       -11.1437
  36   2.0000      -0.401154       -10.9159
  37   2.0000      -0.396427       -10.7873
  38   2.0000      -0.375958       -10.2304
  39   2.0000      -0.374179       -10.1819
  40   2.0000      -0.361698        -9.8423
  41   2.0000      -0.356443        -9.6993
  42   2.0000      -0.352387        -9.5889
  43   2.0000      -0.333867        -9.0850
  44   2.0000      -0.313663        -8.5352
  45   2.0000      -0.308834        -8.4038
  46   2.0000      -0.301630        -8.2078
  47   2.0000      -0.274647        -7.4735
  48   2.0000      -0.261541        -7.1169
  49   2.0000      -0.256944        -6.9918
  50   2.0000      -0.237149        -6.4531
  51   0.0000       0.063945         1.7400
  52   0.0000       0.080079         2.1791
  53   0.0000       0.084289         2.2936
  54   0.0000       0.087839         2.3902
  55   0.0000       0.098669         2.6849

MULLIKEN ATOMIC CHARGES
-----------------------
   0 C :    0.290617
   1 C :   -0.271996
   2 C :   -0.301688
   3 C :   -0.000558
   4 O :   -0.501706
   5 H :    0.138310
   6 H :    0.144320
   7 H :    0.140394
   8 H :    0.141169
   9 H :    0.169946
  10 H :    0.158247
  11 H :    0.140450
  12 C :   -0.014768
  13 H :    0.121301
  14 H :    0.146124
  15 O :   -0.491135
  16 C :    0.069763
  17 C :    0.077263
  18 C :   -0.300025
  19 C :   -0.032820
  20 O :   -0.507839
  21 H :    0.159710
  22 O :   -0.601325
  23 H :    0.148460
  24 H :    0.164349
  25 H :    0.146032
  26 H :    0.155205
  27 H :    0.146699
  28 H :    0.365501
Sum of atomic charges:   -0.0000000

LOEWDIN ATOMIC CHARGES
----------------------
   0 C :    0.179264
   1 C :   -0.231610
   2 C :   -0.217610
   3 C :   -0.023833
   4 O :   -0.302477
   5 H :    0.095139
   6 H :    0.113517
   7 H :    0.111441
   8 H :    0.114125
   9 H :    0.122269
  10 H :    0.111709
  11 H :    0.101722
  12 C :   -0.043681
  13 H :    0.095073
  14 H :    0.106378
  15 O :   -0.324316
  16 C :    0.010993
  17 C :    0.034212
  18 C :   -0.241942
  19 C :   -0.039001
  20 O :   -0.320190
  21 H :    0.113440
  22 O :   -0.414135
  23 H :    0.113646
  24 H :    0.127369
  25 H :    0.113542
  26 H :    0.108576
  27 H :    0.102640
  28 H :    0.283739

  Mayer bond orders larger than 0.100000
B(  0-C ,  1-C ) :   0.9271 B(  0-C ,  4-O ) :   0.9429 B(  0-C ,  5-H ) :   0.9196
B(  0-C , 15-O ) :   0.8378 B(  1-C ,  2-C ) :   0.9531 B(  1-C ,  6-H ) :   0.9332
B(  1-C ,  7-H ) :   0.9343 B(  2-C ,  3-C ) :   0.9558 B(  2-C ,  8-H ) :   0.9448
B(  2-C ,  9-H ) :   0.9410 B(  3-C ,  4-O ) :   0.8330 B(  3-C , 10-H ) :   0.9341
B(  3-C , 11-H ) :   0.9399 B( 12-C , 13-H ) :   0.9120 B( 12-C , 14-H ) :   0.9285
B( 12-C , 15-O ) :   0.8544 B( 12-C , 16-C ) :   0.8866 B( 16-C , 17-C ) :   0.8940
B( 16-C , 20-O ) :   0.8683 B( 16-C , 21-H ) :   0.9241 B( 17-C , 18-C ) :   0.9122
B( 17-C , 22-O ) :   0.8927 B( 17-C , 23-H ) :   0.9340 B( 18-C , 19-C ) :   0.9395
B( 18-C , 24-H ) :   0.9368 B( 18-C , 25-H ) :   0.9337 B( 19-C , 20-O ) :   0.8496
B( 19-C , 26-H ) :   0.9328 B( 19-C , 27-H ) :   0.9374 B( 22-O , 28-H ) :   0.7936

FINAL SINGLE POINT ENERGY      -652.856285874281

DIPOLE MOMENT
-------------
                                X             Y             Z
Electronic contribution:     -0.81704      -1.14616       1.06964
Nuclear contribution   :      0.80467       1.34283      -1.71971
                        -----------------------------------------
Total Dipole Moment    :     -0.01237       0.19667      -0.65007
                        -----------------------------------------
Magnitude (a.u.)       :      0.67928
Magnitude (Debye)      :      1.72659

Rotational constants in cm-1:     0.059531     0.012275     0.011829
Rotational constants in MHz :  1784.697049   367.994410   354.624486

                             ****ORCA TERMINATED NORMALLY****
TOTAL RUN TIME: 0 days 0 hours 19 minutes 18 seconds 590 msec
