                         Program Version 4.2.0 -  RELEASE  -
|  1> # Test redundant internal optimization
|  2> #
|  3> ! RKS B3LYP  Opt TightSCF SmallPrint
|  4>
|  5> %basis
|  6>         Basis "6-31G"
|  7> end
|  8>
|  9> %geom
| 10> Constraints
| 11> { D 4  0  15  12  105.0   C } # D for Dihedral angle
| 12> { D 0  15  12  16  240.0   C } # D for Dihedral angle
| 13> { D 0  4  3  2   C } # D for Dihedral angle
| 14> { D 4  3  2  1   C } # D for Dihedral angle
| 15> { D 3  2  1  0   C } # D for Dihedral angle
| 16> { D 2  1  0  4   C } # D for Dihedral angle
| 17> { D 1  0  4  3   C } # D for Dihedral angle
| 18> { D 16  20  19  18   C } # D for Dihedral angle
| 19> { D 20  19  18  17   C } # D for Dihedral angle
| 20> { D 19  18  17  16   C } # D for Dihedral angle
| 21> { D 18  17  16  20   C } # D for Dihedral angle
| 22> { D 17  16  20  19   C } # D for Dihedral angle
| 23> { D 15  12  16  20   C } # D for Dihedral angle
| 24> end
| 25> end
| 26>
| 27>
| 28> #%pal
| 29> #nprocs 8
| 30> #end
| 31>
| 32> * xyz 0 1
| 33> C  -21.048   26.222   46.251
| 34> C  -20.361   27.558   45.944
| 35> C  -20.329   28.222   47.341
| 36> C  -20.110   27.022   48.296
| 37> O  -20.473   25.807   47.535
| 38> H  -20.833   25.428   45.533
| 39> H  -19.344   27.382   45.576
| 40> H  -20.898   28.157   45.201
| 41> H  -19.543   28.978   47.434
| 42> H  -21.289   28.710   47.548
| 43> H  -20.733   27.082   49.195
| 44> H  -19.064   26.913   48.597
| 45> C  -23.085   27.864   46.420
| 46> H  -22.224   28.541   46.345
| 47> H  -23.756   28.068   45.576
| 48> O  -22.586   26.394   46.375
| 49> C  -23.854   28.198   47.728
| 50> C  -24.430   29.617   47.689
| 51> C  -25.691   29.420   46.814
| 52> C  -26.178   28.005   47.214
| 53> O  -25.032   27.334   47.864
| 54> H  -23.208   27.995   48.585
| 55> H  -24.707   29.940   48.699
| 56> O  -23.443   30.660   47.095
| 57> H  -26.452   30.188   46.988
| 58> H  -25.421   29.450   45.752
| 59> H  -26.498   27.412   46.350
| 60> H  -26.992   28.034   47.945
| 61> H  -23.152   30.359   46.083
| 62> *
| 63>
| 64>                          ****END OF INPUT****
 Total Charge           Charge          ....    0
 Multiplicity           Mult            ....    1
 Number of Electrons    NEL             ....  102
FINAL SINGLE POINT ENERGY      -652.802880725679
FINAL SINGLE POINT ENERGY      -652.829550443365
FINAL SINGLE POINT ENERGY      -652.842429477913
FINAL SINGLE POINT ENERGY      -652.845017919103
FINAL SINGLE POINT ENERGY      -652.845617966735
FINAL SINGLE POINT ENERGY      -652.845753721680
FINAL SINGLE POINT ENERGY      -652.845770947160
FINAL SINGLE POINT ENERGY      -652.845777938979
FINAL SINGLE POINT ENERGY      -652.845780637736
                    ***********************HURRAY********************

CARTESIAN COORDINATES (ANGSTROEM)
---------------------------------
  C    -21.142416   26.317487   46.358188
  C    -20.166604   27.429039   45.946252
  C    -19.927989   28.172637   47.295499
  C    -19.972284   27.011939   48.322226
  O    -20.641066   25.882105   47.641059
  H    -21.093123   25.432021   45.722742
  H    -19.239333   26.959737   45.603180
  H    -20.538863   28.074406   45.145692
  H    -18.966060   28.694531   47.311338
  H    -20.707015   28.913391   47.496732
  H    -20.529750   27.264942   49.229123
  H    -18.973086   26.667403   48.604150
  C    -23.093834   27.971321   46.372854
  H    -22.315412   28.735785   46.304726
  H    -23.723699   28.045945   45.476160
  O    -22.556844   26.623153   46.382533
  C    -23.931161   28.218570   47.629175
  C    -24.576539   29.612282   47.676555
  C    -25.858099   29.401578   46.815892
  C    -26.260704   27.949620   47.157375
  O    -25.061255   27.303212   47.746523
  H    -23.303576   28.025128   48.504587
  H    -24.844822   29.853624   48.707438
  O    -23.716196   30.701675   47.251777
  H    -26.640434   30.128466   47.050704
  H    -25.605959   29.506208   45.751313
  H    -26.580357   27.378629   46.280285
  H    -27.051149   27.906720   47.913113
  H    -23.716370   30.778446   46.275812

 Multiplicity           Mult            ....    1
 Number of Electrons    NEL             ....  102
 Basis Dimension        Dim             ....  149

ORBITAL ENERGIES
----------------

  NO   OCC          E(Eh)            E(eV)
   0   2.0000     -19.154488      -521.2201
   1   2.0000     -19.135919      -520.7148
   2   2.0000     -19.135108      -520.6927
   3   2.0000     -19.133799      -520.6571
   4   2.0000     -10.275705      -279.6161
   5   2.0000     -10.247319      -278.8437
   6   2.0000     -10.231179      -278.4045
   7   2.0000     -10.230244      -278.3791
   8   2.0000     -10.229492      -278.3586
   9   2.0000     -10.224245      -278.2158
  10   2.0000     -10.199160      -277.5333
  11   2.0000     -10.193169      -277.3702
  12   2.0000     -10.191775      -277.3323
  13   2.0000      -1.045848       -28.4590
  14   2.0000      -1.035535       -28.1783
  15   2.0000      -1.015780       -27.6408
  16   2.0000      -0.990221       -26.9453
  17   2.0000      -0.787065       -21.4171
  18   2.0000      -0.785069       -21.3628
  19   2.0000      -0.770718       -20.9723
  20   2.0000      -0.731520       -19.9057
  21   2.0000      -0.684994       -18.6396
  22   2.0000      -0.613951       -16.7065
  23   2.0000      -0.604657       -16.4535
  24   2.0000      -0.595713       -16.2102
  25   2.0000      -0.567847       -15.4519
  26   2.0000      -0.523777       -14.2527
  27   2.0000      -0.517102       -14.0711
  28   2.0000      -0.503154       -13.6915
  29   2.0000      -0.496896       -13.5212
  30   2.0000      -0.465023       -12.6539
  31   2.0000      -0.454739       -12.3741
  32   2.0000      -0.443043       -12.0558
  33   2.0000      -0.433133       -11.7862
  34   2.0000      -0.431107       -11.7310
  35   2.0000      -0.423171       -11.5151
  36   2.0000      -0.413624       -11.2553
  37   2.0000      -0.398290       -10.8380
  38   2.0000      -0.380377       -10.3506
  39   2.0000      -0.378267       -10.2932
  40   2.0000      -0.361909        -9.8481
  41   2.0000      -0.357431        -9.7262
  42   2.0000      -0.347691        -9.4611
  43   2.0000      -0.330284        -8.9875
  44   2.0000      -0.319508        -8.6942
  45   2.0000      -0.309477        -8.4213
  46   2.0000      -0.287122        -7.8130
  47   2.0000      -0.274149        -7.4600
  48   2.0000      -0.267623        -7.2824
  49   2.0000      -0.248945        -6.7741
  50   2.0000      -0.234398        -6.3783
  51   0.0000       0.044922         1.2224
  52   0.0000       0.074527         2.0280
  53   0.0000       0.081585         2.2200
  54   0.0000       0.087809         2.3894
  55   0.0000       0.101553         2.7634

MULLIKEN ATOMIC CHARGES
-----------------------
   0 C :    0.312242
   1 C :   -0.303004
   2 C :   -0.320358
   3 C :   -0.006523
   4 O :   -0.494495
   5 H :    0.162282
   6 H :    0.158615
   7 H :    0.143972
   8 H :    0.145593
   9 H :    0.164916
  10 H :    0.147140
  11 H :    0.144942
  12 C :   -0.020243
  13 H :    0.129976
  14 H :    0.130238
  15 O :   -0.511350
  16 C :    0.104422
  17 C :    0.080041
  18 C :   -0.330196
  19 C :   -0.014790
  20 O :   -0.497843
  21 H :    0.159230
  22 H :    0.167968
  23 O :   -0.602459
  24 H :    0.159893
  25 H :    0.132511
  26 H :    0.149954
  27 H :    0.152027
  28 H :    0.355299
Sum of atomic charges:    0.0000000

LOEWDIN ATOMIC CHARGES
----------------------
   0 C :    0.178680
   1 C :   -0.233667
   2 C :   -0.225988
   3 C :   -0.032104
   4 O :   -0.315873
   5 H :    0.109752
   6 H :    0.124379
   7 H :    0.113627
   8 H :    0.116063
   9 H :    0.113659
  10 H :    0.103592
  11 H :    0.103642
  12 C :   -0.050575
  13 H :    0.100096
  14 H :    0.096500
  15 O :   -0.311354
  16 C :    0.018146
  17 C :    0.032219
  18 C :   -0.242456
  19 C :   -0.030919
  20 O :   -0.308371
  21 H :    0.116423
  22 H :    0.119520
  23 O :   -0.411151
  24 H :    0.122957
  25 H :    0.103026
  26 H :    0.105661
  27 H :    0.106970
  28 H :    0.277544

  Mayer bond orders larger than 0.100000
B(  0-C ,  1-C ) :   0.9269 B(  0-C ,  4-O ) :   0.9063 B(  0-C ,  5-H ) :   0.9344
B(  0-C , 15-O ) :   0.8950 B(  1-C ,  2-C ) :   0.9510 B(  1-C ,  6-H ) :   0.9342
B(  1-C ,  7-H ) :   0.9319 B(  2-C ,  3-C ) :   0.9452 B(  2-C ,  8-H ) :   0.9460
B(  2-C ,  9-H ) :   0.9347 B(  3-C ,  4-O ) :   0.8506 B(  3-C , 10-H ) :   0.9326
B(  3-C , 11-H ) :   0.9393 B( 12-C , 13-H ) :   0.8918 B( 12-C , 14-H ) :   0.9325
B( 12-C , 15-O ) :   0.8560 B( 12-C , 16-C ) :   0.8937 B( 16-C , 17-C ) :   0.8670
B( 16-C , 20-O ) :   0.8736 B( 16-C , 21-H ) :   0.9308 B( 17-C , 18-C ) :   0.9289
B( 17-C , 22-H ) :   0.9322 B( 17-C , 23-O ) :   0.8891 B( 18-C , 19-C ) :   0.9389
B( 18-C , 24-H ) :   0.9409 B( 18-C , 25-H ) :   0.9393 B( 19-C , 20-O ) :   0.8544
B( 19-C , 26-H ) :   0.9300 B( 19-C , 27-H ) :   0.9368 B( 23-O , 28-H ) :   0.7995

FINAL SINGLE POINT ENERGY      -652.845781782544

DIPOLE MOMENT
-------------
                                X             Y             Z
Electronic contribution:     -1.47153      -4.02979       1.39154
Nuclear contribution   :      1.55433       5.54836      -2.38001
                        -----------------------------------------
Total Dipole Moment    :      0.08279       1.51856      -0.98847
                        -----------------------------------------
Magnitude (a.u.)       :      1.81382
Magnitude (Debye)      :      4.61037

Rotational constants in cm-1:     0.049341     0.014822     0.013214
Rotational constants in MHz :  1479.203131   444.360184   396.150163

                             ****ORCA TERMINATED NORMALLY****
TOTAL RUN TIME: 0 days 2 hours 43 minutes 26 seconds 42 msec
