                         Program Version 4.2.0 -  RELEASE  -
|  1> # Test redundant internal optimization
|  2> #
|  3> ! RKS B3LYP  Opt TightSCF SmallPrint
|  4>
|  5> %basis
|  6>         Basis "6-31G"
|  7> end
|  8>
|  9> %geom
| 10> Constraints
| 11> { D 4  0  15  12  165.0   C } # D for Dihedral angle
| 12> { D 0  15  12  16  75.0   C } # D for Dihedral angle
| 13> { D 0  4  3  2   C } # D for Dihedral angle
| 14> { D 4  3  2  1   C } # D for Dihedral angle
| 15> { D 3  2  1  0   C } # D for Dihedral angle
| 16> { D 2  1  0  4   C } # D for Dihedral angle
| 17> { D 1  0  4  3   C } # D for Dihedral angle
| 18> { D 16  20  19  18   C } # D for Dihedral angle
| 19> { D 20  19  18  17   C } # D for Dihedral angle
| 20> { D 19  18  17  16   C } # D for Dihedral angle
| 21> { D 18  17  16  20   C } # D for Dihedral angle
| 22> { D 17  16  20  19   C } # D for Dihedral angle
| 23> { D 15  12  16  20   C } # D for Dihedral angle
| 24> end
| 25> end
| 26>
| 27>
| 28> #%pal
| 29> #nprocs 8
| 30> #end
| 31>
| 32> * xyz 0 1
| 33> C  -21.048   26.222   46.251
| 34> C  -20.361   27.558   45.944
| 35> C  -20.329   28.222   47.341
| 36> C  -20.110   27.022   48.296
| 37> O  -20.473   25.807   47.535
| 38> H  -20.833   25.428   45.533
| 39> H  -19.344   27.382   45.576
| 40> H  -20.898   28.157   45.201
| 41> H  -19.543   28.978   47.434
| 42> H  -21.289   28.710   47.548
| 43> H  -20.733   27.082   49.195
| 44> H  -19.064   26.913   48.597
| 45> C  -23.260   27.170   45.210
| 46> H  -24.268   27.477   45.515
| 47> H  -22.685   28.074   44.968
| 48> O  -22.586   26.394   46.375
| 49> C  -23.378   26.323   43.913
| 50> C  -22.012   25.782   43.475
| 51> C  -21.831   24.577   44.429
| 52> C  -23.274   24.035   44.588
| 53> O  -24.181   25.121   44.157
| 54> H  -23.898   26.906   43.151
| 55> O  -22.076   25.306   41.998
| 56> H  -21.207   26.519   43.566
| 57> H  -21.143   23.823   44.035
| 58> H  -21.439   24.917   45.395
| 59> H  -23.508   23.759   45.622
| 60> H  -23.471   23.175   43.940
| 61> H  -22.876   24.566   41.884
| 62> *
| 63>
| 64>                          ****END OF INPUT****
 Total Charge           Charge          ....    0
 Multiplicity           Mult            ....    1
 Number of Electrons    NEL             ....  102
FINAL SINGLE POINT ENERGY      -652.707162185960
FINAL SINGLE POINT ENERGY      -652.759073431207
FINAL SINGLE POINT ENERGY      -652.792085718693
FINAL SINGLE POINT ENERGY      -652.812008957193
FINAL SINGLE POINT ENERGY      -652.823693750836
FINAL SINGLE POINT ENERGY      -652.830317259630
FINAL SINGLE POINT ENERGY      -652.833915455915
FINAL SINGLE POINT ENERGY      -652.835684703547
FINAL SINGLE POINT ENERGY      -652.836751114886
FINAL SINGLE POINT ENERGY      -652.837866731146
FINAL SINGLE POINT ENERGY      -652.844892409723
FINAL SINGLE POINT ENERGY      -652.845675665048
FINAL SINGLE POINT ENERGY      -652.846390379246
FINAL SINGLE POINT ENERGY      -652.846760932323
FINAL SINGLE POINT ENERGY      -652.846988877502
FINAL SINGLE POINT ENERGY      -652.847091441022
FINAL SINGLE POINT ENERGY      -652.847138765202
FINAL SINGLE POINT ENERGY      -652.847158448331
FINAL SINGLE POINT ENERGY      -652.847167222843
                    ***********************HURRAY********************

CARTESIAN COORDINATES (ANGSTROEM)
---------------------------------
  C    -20.944291   26.291603   46.582590
  C    -20.108475   27.496232   46.150017
  C    -20.248937   28.441833   47.370022
  C    -20.292035   27.458541   48.558217
  O    -20.630379   26.134963   47.973924
  H    -20.681763   25.349479   46.105980
  H    -19.067684   27.174677   46.027614
  H    -20.427616   27.956591   45.211640
  H    -19.419134   29.151229   47.444156
  H    -21.182056   29.008890   47.300749
  H    -21.049696   27.714627   49.302704
  H    -19.321620   27.343134   49.050411
  C    -23.045792   27.048340   45.329066
  H    -24.032817   27.315803   45.714918
  H    -22.559626   27.976815   44.990284
  O    -22.383441   26.529869   46.515946
  C    -23.304427   26.189057   44.077426
  C    -22.164011   25.635966   43.207397
  C    -21.876404   24.265951   43.887356
  C    -23.287841   23.813009   44.347315
  O    -24.139980   25.021055   44.344383
  H    -23.911118   26.852826   43.443867
  O    -22.611062   25.474432   41.833927
  H    -21.289120   26.285131   43.148327
  H    -21.420641   23.574578   43.173236
  H    -21.201245   24.381145   44.732916
  H    -23.283656   23.386642   45.354576
  H    -23.742762   23.092617   43.659929
  H    -23.490371   25.039965   41.833109

 Multiplicity           Mult            ....    1
 Number of Electrons    NEL             ....  102
 Basis Dimension        Dim             ....  149

ORBITAL ENERGIES
----------------

  NO   OCC          E(Eh)            E(eV)
   0   2.0000     -19.143800      -520.9293
   1   2.0000     -19.143724      -520.9272
   2   2.0000     -19.143477      -520.9205
   3   2.0000     -19.142066      -520.8821
   4   2.0000     -10.283080      -279.8168
   5   2.0000     -10.247928      -278.8603
   6   2.0000     -10.239493      -278.6308
   7   2.0000     -10.236558      -278.5509
   8   2.0000     -10.230464      -278.3851
   9   2.0000     -10.227484      -278.3040
  10   2.0000     -10.194281      -277.4005
  11   2.0000     -10.192033      -277.3393
  12   2.0000     -10.190765      -277.3048
  13   2.0000      -1.054741       -28.7010
  14   2.0000      -1.040722       -28.3195
  15   2.0000      -1.010278       -27.4911
  16   2.0000      -0.993097       -27.0235
  17   2.0000      -0.791326       -21.5331
  18   2.0000      -0.781592       -21.2682
  19   2.0000      -0.774462       -21.0742
  20   2.0000      -0.738914       -20.1069
  21   2.0000      -0.683269       -18.5927
  22   2.0000      -0.612528       -16.6677
  23   2.0000      -0.607183       -16.5223
  24   2.0000      -0.602325       -16.3901
  25   2.0000      -0.572517       -15.5790
  26   2.0000      -0.525207       -14.2916
  27   2.0000      -0.515433       -14.0256
  28   2.0000      -0.506958       -13.7950
  29   2.0000      -0.491132       -13.3644
  30   2.0000      -0.473149       -12.8750
  31   2.0000      -0.461768       -12.5653
  32   2.0000      -0.455205       -12.3868
  33   2.0000      -0.449039       -12.2190
  34   2.0000      -0.423047       -11.5117
  35   2.0000      -0.421646       -11.4736
  36   2.0000      -0.403751       -10.9866
  37   2.0000      -0.395617       -10.7653
  38   2.0000      -0.383184       -10.4270
  39   2.0000      -0.369396       -10.0518
  40   2.0000      -0.367004        -9.9867
  41   2.0000      -0.362451        -9.8628
  42   2.0000      -0.354650        -9.6505
  43   2.0000      -0.335437        -9.1277
  44   2.0000      -0.316125        -8.6022
  45   2.0000      -0.309793        -8.4299
  46   2.0000      -0.299491        -8.1496
  47   2.0000      -0.274387        -7.4665
  48   2.0000      -0.271249        -7.3811
  49   2.0000      -0.259156        -7.0520
  50   2.0000      -0.239347        -6.5130
  51   0.0000       0.057614         1.5678
  52   0.0000       0.071038         1.9331
  53   0.0000       0.087201         2.3729
  54   0.0000       0.097811         2.6616
  55   0.0000       0.099160         2.6983

MULLIKEN ATOMIC CHARGES
-----------------------
   0 C :    0.304319
   1 C :   -0.292265
   2 C :   -0.295984
   3 C :   -0.003294
   4 O :   -0.501603
   5 H :    0.150095
   6 H :    0.151213
   7 H :    0.141514
   8 H :    0.144345
   9 H :    0.158135
  10 H :    0.156524
  11 H :    0.144234
  12 C :   -0.014150
  13 H :    0.173568
  14 H :    0.113218
  15 O :   -0.508352
  16 C :    0.070375
  17 C :    0.066282
  18 C :   -0.301512
  19 C :   -0.024945
  20 O :   -0.520705
  21 H :    0.155182
  22 O :   -0.598151
  23 H :    0.146783
  24 H :    0.161531
  25 H :    0.151526
  26 H :    0.160902
  27 H :    0.143821
  28 H :    0.367395
Sum of atomic charges:   -0.0000000

LOEWDIN ATOMIC CHARGES
----------------------
   0 C :    0.178707
   1 C :   -0.233822
   2 C :   -0.215763
   3 C :   -0.025949
   4 O :   -0.302900
   5 H :    0.094453
   6 H :    0.118410
   7 H :    0.111194
   8 H :    0.115567
   9 H :    0.115879
  10 H :    0.110575
  11 H :    0.103451
  12 C :   -0.042639
  13 H :    0.128374
  14 H :    0.088769
  15 O :   -0.328648
  16 C :   -0.000005
  17 C :    0.033810
  18 C :   -0.242731
  19 C :   -0.034161
  20 O :   -0.327162
  21 H :    0.116875
  22 O :   -0.412438
  23 H :    0.112868
  24 H :    0.125446
  25 H :    0.115034
  26 H :    0.112164
  27 H :    0.100077
  28 H :    0.284566

  Mayer bond orders larger than 0.100000
B(  0-C ,  1-C ) :   0.9290 B(  0-C ,  4-O ) :   0.9276 B(  0-C ,  5-H ) :   0.8951
B(  0-C , 15-O ) :   0.8435 B(  1-C ,  2-C ) :   0.9503 B(  1-C ,  6-H ) :   0.9341
B(  1-C ,  7-H ) :   0.9291 B(  2-C ,  3-C ) :   0.9538 B(  2-C ,  8-H ) :   0.9452
B(  2-C ,  9-H ) :   0.9453 B(  3-C ,  4-O ) :   0.8349 B(  3-C , 10-H ) :   0.9342
B(  3-C , 11-H ) :   0.9393 B( 12-C , 13-H ) :   0.9299 B( 12-C , 14-H ) :   0.9018
B( 12-C , 15-O ) :   0.8902 B( 12-C , 16-C ) :   0.8823 B( 16-C , 17-C ) :   0.9052
B( 16-C , 20-O ) :   0.8632 B( 16-C , 21-H ) :   0.9106 B( 17-C , 18-C ) :   0.9196
B( 17-C , 22-O ) :   0.8948 B( 17-C , 23-H ) :   0.9340 B( 18-C , 19-C ) :   0.9417
B( 18-C , 24-H ) :   0.9368 B( 18-C , 25-H ) :   0.9108 B( 19-C , 20-O ) :   0.8431
B( 19-C , 26-H ) :   0.9321 B( 19-C , 27-H ) :   0.9367 B( 22-O , 28-H ) :   0.7923

FINAL SINGLE POINT ENERGY      -652.847175011611

DIPOLE MOMENT
-------------
                                X             Y             Z
Electronic contribution:     -3.92666      -2.70481      -0.61632
Nuclear contribution   :      4.68685       3.32929       0.38626
                        -----------------------------------------
Total Dipole Moment    :      0.76020       0.62448      -0.23005
                        -----------------------------------------
Magnitude (a.u.)       :      1.01035
Magnitude (Debye)      :      2.56810

Rotational constants in cm-1:     0.055809     0.013964     0.013489
Rotational constants in MHz :  1673.101282   418.643308   404.387100

                             ****ORCA TERMINATED NORMALLY****
TOTAL RUN TIME: 0 days 2 hours 43 minutes 54 seconds 10 msec
