                         Program Version 4.2.0 -  RELEASE  -
|  1> # Test redundant internal optimization
|  2> #
|  3> ! RKS B3LYP  Opt TightSCF SmallPrint
|  4>
|  5> %basis
|  6>         Basis "6-31G"
|  7> end
|  8>
|  9> %geom
| 10> Constraints
| 11> { D 4  0  15  12  345.0   C } # D for Dihedral angle
| 12> { D 0  15  12  16  105.0   C } # D for Dihedral angle
| 13> { D 0  4  3  2   C } # D for Dihedral angle
| 14> { D 4  3  2  1   C } # D for Dihedral angle
| 15> { D 3  2  1  0   C } # D for Dihedral angle
| 16> { D 2  1  0  4   C } # D for Dihedral angle
| 17> { D 1  0  4  3   C } # D for Dihedral angle
| 18> { D 16  20  19  18   C } # D for Dihedral angle
| 19> { D 20  19  18  17   C } # D for Dihedral angle
| 20> { D 19  18  17  16   C } # D for Dihedral angle
| 21> { D 18  17  16  20   C } # D for Dihedral angle
| 22> { D 17  16  20  19   C } # D for Dihedral angle
| 23> { D 15  12  16  20   C } # D for Dihedral angle
| 24> end
| 25> end
| 26>
| 27>
| 28> #%pal
| 29> #nprocs 8
| 30> #end
| 31>
| 32> * xyz 0 1
| 33> C  -21.048   26.222   46.251
| 34> C  -20.361   27.558   45.944
| 35> C  -20.329   28.222   47.341
| 36> C  -20.110   27.022   48.296
| 37> O  -20.473   25.807   47.535
| 38> H  -20.833   25.428   45.533
| 39> H  -19.344   27.382   45.576
| 40> H  -20.898   28.157   45.201
| 41> H  -19.543   28.978   47.434
| 42> H  -21.289   28.710   47.548
| 43> H  -20.733   27.082   49.195
| 44> H  -19.064   26.913   48.597
| 45> C  -23.221   25.764   47.645
| 46> H  -24.124   25.210   47.362
| 47> H  -22.521   25.062   48.116
| 48> O  -22.586   26.394   46.375
| 49> C  -23.613   26.826   48.710
| 50> C  -24.127   26.164   49.993
| 51> C  -22.807   25.739   50.678
| 52> C  -21.831   26.881   50.299
| 53> O  -22.431   27.579   49.142
| 54> H  -24.304   27.543   48.263
| 55> H  -24.663   26.896   50.607
| 56> O  -25.077   24.965   49.722
| 57> H  -22.909   25.621   51.762
| 58> H  -22.460   24.783   50.268
| 59> H  -20.839   26.509   50.019
| 60> H  -21.720   27.619   51.099
| 61> H  -24.562   24.217   49.110
| 62> *
| 63>
| 64>                          ****END OF INPUT****
 Total Charge           Charge          ....    0
 Multiplicity           Mult            ....    1
 Number of Electrons    NEL             ....  102
FINAL SINGLE POINT ENERGY      -652.745187362263
FINAL SINGLE POINT ENERGY      -652.821920470483
FINAL SINGLE POINT ENERGY      -652.846601834756
FINAL SINGLE POINT ENERGY      -652.853834604586
FINAL SINGLE POINT ENERGY      -652.854765726541
FINAL SINGLE POINT ENERGY      -652.854958035745
FINAL SINGLE POINT ENERGY      -652.854985833076
FINAL SINGLE POINT ENERGY      -652.854989742316
                    ***********************HURRAY********************

CARTESIAN COORDINATES (ANGSTROEM)
---------------------------------
  C    -21.034414   26.281781   46.258560
  C    -20.482383   27.642051   45.832799
  C    -20.130864   28.279757   47.196459
  C    -19.653809   27.081184   48.038370
  O    -20.170990   25.865220   47.334526
  H    -20.907172   25.508427   45.492226
  H    -19.586352   27.480277   45.222562
  H    -21.209445   28.220852   45.258901
  H    -19.364775   29.057310   47.110456
  H    -21.026479   28.711687   47.649111
  H    -20.037776   27.101588   49.053427
  H    -18.564255   26.973239   48.053372
  C    -23.115308   25.734045   47.653364
  H    -24.024732   25.265415   47.263088
  H    -22.462276   24.951706   48.068283
  O    -22.462971   26.344951   46.514283
  C    -23.542202   26.721521   48.742704
  C    -24.270262   26.079728   49.936924
  C    -23.080154   25.697236   50.864976
  C    -22.077051   26.842070   50.634465
  O    -22.472554   27.506556   49.356175
  H    -24.178534   27.469014   48.255256
  H    -24.904886   26.827125   50.417557
  O    -25.169871   24.992773   49.615713
  H    -23.384882   25.599832   51.910126
  H    -22.662865   24.735032   50.540801
  H    -21.047062   26.485574   50.557065
  H    -22.129483   27.608981   51.413274
  H    -24.666193   24.188070   49.376180

 Multiplicity           Mult            ....    1
 Number of Electrons    NEL             ....  102
 Basis Dimension        Dim             ....  149

ORBITAL ENERGIES
----------------

  NO   OCC          E(Eh)            E(eV)
   0   2.0000     -19.152509      -521.1663
   1   2.0000     -19.148299      -521.0517
   2   2.0000     -19.142632      -520.8975
   3   2.0000     -19.132460      -520.6207
   4   2.0000     -10.272127      -279.5188
   5   2.0000     -10.248172      -278.8670
   6   2.0000     -10.236125      -278.5391
   7   2.0000     -10.230829      -278.3950
   8   2.0000     -10.229358      -278.3550
   9   2.0000     -10.217784      -278.0400
  10   2.0000     -10.197942      -277.5001
  11   2.0000     -10.175996      -276.9029
  12   2.0000     -10.172571      -276.8097
  13   2.0000      -1.045067       -28.4377
  14   2.0000      -1.036088       -28.1934
  15   2.0000      -1.019783       -27.7497
  16   2.0000      -0.988204       -26.8904
  17   2.0000      -0.787777       -21.4365
  18   2.0000      -0.780432       -21.2366
  19   2.0000      -0.766322       -20.8527
  20   2.0000      -0.730809       -19.8863
  21   2.0000      -0.678747       -18.4697
  22   2.0000      -0.615951       -16.7609
  23   2.0000      -0.597219       -16.2512
  24   2.0000      -0.587303       -15.9813
  25   2.0000      -0.567922       -15.4539
  26   2.0000      -0.527155       -14.3446
  27   2.0000      -0.514439       -13.9986
  28   2.0000      -0.491963       -13.3870
  29   2.0000      -0.483885       -13.1672
  30   2.0000      -0.471258       -12.8236
  31   2.0000      -0.462602       -12.5881
  32   2.0000      -0.443435       -12.0665
  33   2.0000      -0.433359       -11.7923
  34   2.0000      -0.424307       -11.5460
  35   2.0000      -0.417576       -11.3628
  36   2.0000      -0.403485       -10.9794
  37   2.0000      -0.393115       -10.6972
  38   2.0000      -0.382340       -10.4040
  39   2.0000      -0.365704        -9.9513
  40   2.0000      -0.354412        -9.6440
  41   2.0000      -0.346993        -9.4421
  42   2.0000      -0.343860        -9.3569
  43   2.0000      -0.331798        -9.0287
  44   2.0000      -0.323309        -8.7977
  45   2.0000      -0.316637        -8.6161
  46   2.0000      -0.294076        -8.0022
  47   2.0000      -0.274106        -7.4588
  48   2.0000      -0.265291        -7.2189
  49   2.0000      -0.256381        -6.9765
  50   2.0000      -0.233619        -6.3571
  51   0.0000       0.049420         1.3448
  52   0.0000       0.070207         1.9104
  53   0.0000       0.089117         2.4250
  54   0.0000       0.099349         2.7034
  55   0.0000       0.101197         2.7537

MULLIKEN ATOMIC CHARGES
-----------------------
   0 C :    0.322434
   1 C :   -0.265892
   2 C :   -0.311511
   3 C :   -0.017268
   4 O :   -0.522869
   5 H :    0.145567
   6 H :    0.141505
   7 H :    0.156519
   8 H :    0.134832
   9 H :    0.186176
  10 H :    0.151114
  11 H :    0.139920
  12 C :   -0.017026
  13 H :    0.151444
  14 H :    0.135048
  15 O :   -0.544244
  16 C :    0.098308
  17 C :    0.079912
  18 C :   -0.315039
  19 C :   -0.019125
  20 O :   -0.518952
  21 H :    0.162066
  22 H :    0.169783
  23 O :   -0.598438
  24 H :    0.158175
  25 H :    0.138264
  26 H :    0.146931
  27 H :    0.154227
  28 H :    0.358138
Sum of atomic charges:   -0.0000000

LOEWDIN ATOMIC CHARGES
----------------------
   0 C :    0.186529
   1 C :   -0.217727
   2 C :   -0.221720
   3 C :   -0.031436
   4 O :   -0.325966
   5 H :    0.094443
   6 H :    0.111970
   7 H :    0.124407
   8 H :    0.111140
   9 H :    0.129714
  10 H :    0.107036
  11 H :    0.099669
  12 C :   -0.045626
  13 H :    0.113838
  14 H :    0.097894
  15 O :   -0.338975
  16 C :    0.009321
  17 C :    0.035794
  18 C :   -0.237907
  19 C :   -0.033099
  20 O :   -0.320429
  21 H :    0.116568
  22 H :    0.120019
  23 O :   -0.405131
  24 H :    0.123485
  25 H :    0.107173
  26 H :    0.101969
  27 H :    0.107655
  28 H :    0.279390

  Mayer bond orders larger than 0.100000
B(  0-C ,  1-C ) :   0.9351 B(  0-C ,  4-O ) :   0.9146 B(  0-C ,  5-H ) :   0.9314
B(  0-C , 15-O ) :   0.8399 B(  1-C ,  2-C ) :   0.9594 B(  1-C ,  6-H ) :   0.9374
B(  1-C ,  7-H ) :   0.9368 B(  2-C ,  3-C ) :   0.9623 B(  2-C ,  8-H ) :   0.9443
B(  2-C ,  9-H ) :   0.9276 B(  3-C ,  4-O ) :   0.8288 B(  3-C , 10-H ) :   0.9139
B(  3-C , 11-H ) :   0.9402 B( 12-C , 13-H ) :   0.9164 B( 12-C , 14-H ) :   0.9199
B( 12-C , 15-O ) :   0.8544 B( 12-C , 16-C ) :   0.8949 B( 16-C , 17-C ) :   0.8669
B( 16-C , 20-O ) :   0.8516 B( 16-C , 21-H ) :   0.9307 B( 17-C , 18-C ) :   0.9227
B( 17-C , 22-H ) :   0.9333 B( 17-C , 23-O ) :   0.9008 B( 18-C , 19-C ) :   0.9400
B( 18-C , 24-H ) :   0.9410 B( 18-C , 25-H ) :   0.9412 B( 19-C , 20-O ) :   0.8430
B( 19-C , 26-H ) :   0.9158 B( 19-C , 27-H ) :   0.9381 B( 23-O , 28-H ) :   0.7969

FINAL SINGLE POINT ENERGY      -652.854988885670

DIPOLE MOMENT
-------------
                                X             Y             Z
Electronic contribution:     -3.30841      -1.83055      -1.74002
Nuclear contribution   :      3.87242       1.71874       2.47589
                        -----------------------------------------
Total Dipole Moment    :      0.56401      -0.11181       0.73587
                        -----------------------------------------
Magnitude (a.u.)       :      0.93387
Magnitude (Debye)      :      2.37371

Rotational constants in cm-1:     0.048997     0.017454     0.015026
Rotational constants in MHz :  1468.888275   523.255926   450.482633

                             ****ORCA TERMINATED NORMALLY****
TOTAL RUN TIME: 0 days 2 hours 47 minutes 44 seconds 444 msec
