                         Program Version 4.2.0 -  RELEASE  -
|  1> # Test redundant internal optimization
|  2> #
|  3> ! RKS B3LYP  Opt TightSCF SmallPrint
|  4>
|  5> %basis
|  6>         Basis "6-31G"
|  7> end
|  8>
|  9> %geom
| 10> Constraints
| 11> { D 4  0  15  12  75.0   C } # D for Dihedral angle
| 12> { D 0  15  12  16  135.0   C } # D for Dihedral angle
| 13> { D 0  4  3  2   C } # D for Dihedral angle
| 14> { D 4  3  2  1   C } # D for Dihedral angle
| 15> { D 3  2  1  0   C } # D for Dihedral angle
| 16> { D 2  1  0  4   C } # D for Dihedral angle
| 17> { D 1  0  4  3   C } # D for Dihedral angle
| 18> { D 16  20  19  18   C } # D for Dihedral angle
| 19> { D 20  19  18  17   C } # D for Dihedral angle
| 20> { D 19  18  17  16   C } # D for Dihedral angle
| 21> { D 18  17  16  20   C } # D for Dihedral angle
| 22> { D 17  16  20  19   C } # D for Dihedral angle
| 23> { D 15  12  16  20   C } # D for Dihedral angle
| 24> end
| 25> end
| 26>
| 27>
| 28> #%pal
| 29> #nprocs 8
| 30> #end
| 31>
| 32> * xyz 0 1
| 33> C  -21.048   26.222   46.251
| 34> C  -20.361   27.558   45.944
| 35> C  -20.329   28.222   47.341
| 36> C  -20.110   27.022   48.296
| 37> O  -20.473   25.807   47.535
| 38> H  -20.833   25.428   45.533
| 39> H  -19.344   27.382   45.576
| 40> H  -20.898   28.157   45.201
| 41> H  -19.543   28.978   47.434
| 42> H  -21.289   28.710   47.548
| 43> H  -20.733   27.082   49.195
| 44> H  -19.064   26.913   48.597
| 45> C  -23.049   27.675   47.122
| 46> H  -23.391   27.403   48.129
| 47> H  -22.217   28.383   47.222
| 48> O  -22.586   26.394   46.375
| 49> C  -24.210   28.408   46.394
| 50> C  -24.562   29.725   47.094
| 51> C  -23.443   30.662   46.582
| 52> C  -23.210   30.172   45.132
| 53> O  -23.793   28.816   45.048
| 54> H  -25.049   27.720   46.275
| 55> H  -25.545   30.078   46.761
| 56> O  -24.585   29.605   48.643
| 57> H  -23.722   31.720   46.625
| 58> H  -22.536   30.530   47.185
| 59> H  -22.146   30.121   44.872
| 60> H  -23.726   30.792   44.393
| 61> H  -23.611   29.254   49.001
| 62> *
| 63>
| 64>                          ****END OF INPUT****
 Total Charge           Charge          ....    0
 Multiplicity           Mult            ....    1
 Number of Electrons    NEL             ....  102
FINAL SINGLE POINT ENERGY      -652.775316361756
FINAL SINGLE POINT ENERGY      -652.821031513513
FINAL SINGLE POINT ENERGY      -652.842713510685
FINAL SINGLE POINT ENERGY      -652.847599031806
FINAL SINGLE POINT ENERGY      -652.848271871462
FINAL SINGLE POINT ENERGY      -652.848473762302
FINAL SINGLE POINT ENERGY      -652.848516687380
FINAL SINGLE POINT ENERGY      -652.848525899635
FINAL SINGLE POINT ENERGY      -652.848525232698
                    ***********************HURRAY********************

CARTESIAN COORDINATES (ANGSTROEM)
---------------------------------
  C    -21.173411   26.328665   46.392527
  C    -20.197633   27.430827   45.948845
  C    -19.761506   28.049736   47.311529
  C    -19.740400   26.810722   48.246140
  O    -20.542451   25.766531   47.570359
  H    -21.222850   25.505599   45.677881
  H    -19.343985   26.962505   45.449355
  H    -20.666589   28.143195   45.265293
  H    -18.775562   28.522869   47.253158
  H    -20.464089   28.811619   47.657429
  H    -20.166996   27.009308   49.234681
  H    -18.731210   26.407318   48.371035
  C    -23.089599   27.791615   47.254644
  H    -23.531841   27.441001   48.195441
  H    -22.311674   28.525473   47.483986
  O    -22.564473   26.649427   46.529652
  C    -24.169407   28.428810   46.379405
  C    -24.822128   29.689972   46.971744
  C    -23.797026   30.794697   46.578621
  C    -23.291087   30.318713   45.199916
  O    -23.637707   28.876468   45.092650
  H    -24.905628   27.656913   46.139944
  H    -25.780055   29.867440   46.478906
  O    -25.145899   29.625788   48.381159
  H    -24.252575   31.787760   46.546553
  H    -22.985239   30.822416   47.318597
  H    -22.209600   30.437599   45.077578
  H    -23.795512   30.829730   44.375048
  H    -24.329869   29.646283   48.921924

 Multiplicity           Mult            ....    1
 Number of Electrons    NEL             ....  102
 Basis Dimension        Dim             ....  149

ORBITAL ENERGIES
----------------

  NO   OCC          E(Eh)            E(eV)
   0   2.0000     -19.152804      -521.1743
   1   2.0000     -19.141788      -520.8745
   2   2.0000     -19.139777      -520.8198
   3   2.0000     -19.138384      -520.7819
   4   2.0000     -10.275742      -279.6172
   5   2.0000     -10.248391      -278.8729
   6   2.0000     -10.235251      -278.5153
   7   2.0000     -10.233604      -278.4705
   8   2.0000     -10.231734      -278.4196
   9   2.0000     -10.229540      -278.3599
  10   2.0000     -10.199942      -277.5545
  11   2.0000     -10.195944      -277.4457
  12   2.0000     -10.189140      -277.2606
  13   2.0000      -1.049233       -28.5511
  14   2.0000      -1.036273       -28.1984
  15   2.0000      -1.018864       -27.7247
  16   2.0000      -0.994043       -27.0493
  17   2.0000      -0.788258       -21.4496
  18   2.0000      -0.786845       -21.4111
  19   2.0000      -0.775047       -21.0901
  20   2.0000      -0.733179       -19.9508
  21   2.0000      -0.687097       -18.6969
  22   2.0000      -0.615169       -16.7396
  23   2.0000      -0.605085       -16.4652
  24   2.0000      -0.599681       -16.3182
  25   2.0000      -0.573975       -15.6186
  26   2.0000      -0.529662       -14.4128
  27   2.0000      -0.510388       -13.8884
  28   2.0000      -0.506636       -13.7863
  29   2.0000      -0.493305       -13.4235
  30   2.0000      -0.469973       -12.7886
  31   2.0000      -0.462718       -12.5912
  32   2.0000      -0.450608       -12.2617
  33   2.0000      -0.436389       -11.8747
  34   2.0000      -0.429064       -11.6754
  35   2.0000      -0.419816       -11.4238
  36   2.0000      -0.413526       -11.2526
  37   2.0000      -0.404342       -11.0027
  38   2.0000      -0.383560       -10.4372
  39   2.0000      -0.380234       -10.3467
  40   2.0000      -0.361868        -9.8469
  41   2.0000      -0.359087        -9.7712
  42   2.0000      -0.346786        -9.4365
  43   2.0000      -0.335967        -9.1421
  44   2.0000      -0.317870        -8.6497
  45   2.0000      -0.313481        -8.5303
  46   2.0000      -0.298284        -8.1167
  47   2.0000      -0.273914        -7.4536
  48   2.0000      -0.263492        -7.1700
  49   2.0000      -0.255924        -6.9640
  50   2.0000      -0.241036        -6.5589
  51   0.0000       0.041262         1.1228
  52   0.0000       0.056450         1.5361
  53   0.0000       0.082747         2.2517
  54   0.0000       0.088945         2.4203
  55   0.0000       0.101493         2.7618

MULLIKEN ATOMIC CHARGES
-----------------------
   0 C :    0.306707
   1 C :   -0.288569
   2 C :   -0.317258
   3 C :   -0.008079
   4 O :   -0.503776
   5 H :    0.170024
   6 H :    0.156506
   7 H :    0.166295
   8 H :    0.144109
   9 H :    0.139836
  10 H :    0.140446
  11 H :    0.148441
  12 C :   -0.013684
  13 H :    0.147601
  14 H :    0.109903
  15 O :   -0.513128
  16 C :    0.093627
  17 C :    0.082264
  18 C :   -0.324124
  19 C :   -0.012747
  20 O :   -0.506375
  21 H :    0.171860
  22 H :    0.171409
  23 O :   -0.595951
  24 H :    0.158947
  25 H :    0.131031
  26 H :    0.138302
  27 H :    0.152484
  28 H :    0.353900
Sum of atomic charges:    0.0000000

LOEWDIN ATOMIC CHARGES
----------------------
   0 C :    0.177978
   1 C :   -0.230756
   2 C :   -0.224902
   3 C :   -0.034239
   4 O :   -0.323097
   5 H :    0.115434
   6 H :    0.123096
   7 H :    0.125520
   8 H :    0.114601
   9 H :    0.101337
  10 H :    0.100445
  11 H :    0.104970
  12 C :   -0.050052
  13 H :    0.108018
  14 H :    0.087404
  15 O :   -0.306548
  16 C :    0.018211
  17 C :    0.034744
  18 C :   -0.242653
  19 C :   -0.032129
  20 O :   -0.315998
  21 H :    0.123212
  22 H :    0.121480
  23 O :   -0.404614
  24 H :    0.123585
  25 H :    0.102207
  26 H :    0.098682
  27 H :    0.107543
  28 H :    0.276521

  Mayer bond orders larger than 0.100000
B(  0-C ,  1-C ) :   0.9173 B(  0-C ,  4-O ) :   0.8942 B(  0-C ,  5-H ) :   0.9357
B(  0-C , 15-O ) :   0.9089 B(  1-C ,  2-C ) :   0.9555 B(  1-C ,  6-H ) :   0.9353
B(  1-C ,  7-H ) :   0.9288 B(  2-C ,  3-C ) :   0.9460 B(  2-C ,  8-H ) :   0.9447
B(  2-C ,  9-H ) :   0.9370 B(  3-C ,  4-O ) :   0.8536 B(  3-C , 10-H ) :   0.9343
B(  3-C , 11-H ) :   0.9385 B( 12-C , 13-H ) :   0.9138 B( 12-C , 14-H ) :   0.9038
B( 12-C , 15-O ) :   0.8436 B( 12-C , 16-C ) :   0.9043 B( 16-C , 17-C ) :   0.8729
B( 16-C , 20-O ) :   0.8654 B( 16-C , 21-H ) :   0.9270 B( 17-C , 18-C ) :   0.9198
B( 17-C , 22-H ) :   0.9321 B( 17-C , 23-O ) :   0.8990 B( 18-C , 19-C ) :   0.9406
B( 18-C , 24-H ) :   0.9421 B( 18-C , 25-H ) :   0.9411 B( 19-C , 20-O ) :   0.8529
B( 19-C , 26-H ) :   0.9298 B( 19-C , 27-H ) :   0.9375 B( 23-O , 28-H ) :   0.7989

FINAL SINGLE POINT ENERGY      -652.848522818870

DIPOLE MOMENT
-------------
                                X             Y             Z
Electronic contribution:     -4.55074      -5.09120      -0.70001
Nuclear contribution   :      5.62664       6.76368       0.96278
                        -----------------------------------------
Total Dipole Moment    :      1.07591       1.67248       0.26277
                        -----------------------------------------
Magnitude (a.u.)       :      2.00594
Magnitude (Debye)      :      5.09870

Rotational constants in cm-1:     0.046434     0.014984     0.014253
Rotational constants in MHz :  1392.067119   449.205506   427.301062

                             ****ORCA TERMINATED NORMALLY****
TOTAL RUN TIME: 0 days 0 hours 33 minutes 8 seconds 114 msec
