                         Program Version 4.2.0 -  RELEASE  -
|  1> # Test redundant internal optimization
|  2> #
|  3> ! RKS B3LYP  Opt TightSCF SmallPrint
|  4>
|  5> %basis
|  6>         Basis "6-31G"
|  7> end
|  8>
|  9> %geom
| 10> Constraints
| 11> { D 4  0  15  12  30.0   C } # D for Dihedral angle
| 12> { D 0  15  12  16  150.0   C } # D for Dihedral angle
| 13> { D 0  4  3  2   C } # D for Dihedral angle
| 14> { D 4  3  2  1   C } # D for Dihedral angle
| 15> { D 3  2  1  0   C } # D for Dihedral angle
| 16> { D 2  1  0  4   C } # D for Dihedral angle
| 17> { D 1  0  4  3   C } # D for Dihedral angle
| 18> { D 16  20  19  18   C } # D for Dihedral angle
| 19> { D 20  19  18  17   C } # D for Dihedral angle
| 20> { D 19  18  17  16   C } # D for Dihedral angle
| 21> { D 18  17  16  20   C } # D for Dihedral angle
| 22> { D 17  16  20  19   C } # D for Dihedral angle
| 23> { D 15  12  16  20   C } # D for Dihedral angle
| 24> end
| 25> end
| 26>
| 27>
| 28> #%pal
| 29> #nprocs 8
| 30> #end
| 31>
| 32> * xyz 0 1
| 33> C  -21.048   26.222   46.251
| 34> C  -20.361   27.558   45.944
| 35> C  -20.329   28.222   47.341
| 36> C  -20.110   27.022   48.296
| 37> O  -20.473   25.807   47.535
| 38> H  -20.833   25.428   45.533
| 39> H  -19.344   27.382   45.576
| 40> H  -20.898   28.157   45.201
| 41> H  -19.543   28.978   47.434
| 42> H  -21.289   28.710   47.548
| 43> H  -20.733   27.082   49.195
| 44> H  -19.064   26.913   48.597
| 45> C  -23.091   26.824   47.779
| 46> H  -23.290   25.929   48.382
| 47> H  -22.329   27.423   48.295
| 48> O  -22.586   26.394   46.375
| 49> C  -24.394   27.669   47.716
| 50> C  -24.218   28.896   46.813
| 51> C  -24.372   28.272   45.405
| 52> C  -25.429   27.162   45.625
| 53> O  -25.471   26.904   47.081
| 54> H  -24.720   27.900   48.732
| 55> O  -25.351   29.923   47.084
| 56> H  -23.255   29.399   46.952
| 57> H  -24.683   29.001   44.649
| 58> H  -23.419   27.839   45.079
| 59> H  -25.177   26.233   45.103
| 60> H  -26.433   27.476   45.325
| 61> H  -26.326   29.441   46.950
| 62> *
| 63>
| 64>                          ****END OF INPUT****
 Total Charge           Charge          ....    0
 Multiplicity           Mult            ....    1
 Number of Electrons    NEL             ....  102
FINAL SINGLE POINT ENERGY      -652.822589734732
FINAL SINGLE POINT ENERGY      -652.847023754635
FINAL SINGLE POINT ENERGY      -652.854546562078
FINAL SINGLE POINT ENERGY      -652.856866035442
FINAL SINGLE POINT ENERGY      -652.857169102081
FINAL SINGLE POINT ENERGY      -652.857211563915
                    ***********************HURRAY********************

CARTESIAN COORDINATES (ANGSTROEM)
---------------------------------
  C    -21.138137   26.246645   46.439493
  C    -20.384032   27.498715   45.975685
  C    -20.118691   28.232852   47.319525
  C    -19.885114   27.062474   48.305485
  O    -20.451823   25.855780   47.647981
  H    -21.044301   25.408834   45.746021
  H    -19.441273   27.188532   45.511792
  H    -20.952427   28.093638   45.257547
  H    -19.253673   28.901088   47.267522
  H    -20.984896   28.837518   47.607080
  H    -20.373850   27.201286   49.274440
  H    -18.822823   26.860459   48.469561
  C    -23.170978   26.816877   47.840726
  H    -23.405560   25.918493   48.422264
  H    -22.492041   27.438227   48.434179
  O    -22.575802   26.403207   46.575082
  C    -24.462381   27.600093   47.609625
  C    -24.361992   28.902715   46.801031
  C    -24.446875   28.377809   45.342059
  C    -25.424672   27.181802   45.461584
  O    -25.467871   26.815349   46.895186
  H    -24.882037   27.812917   48.601326
  O    -25.461526   29.796956   47.132371
  H    -23.457838   29.480060   47.001957
  H    -24.808880   29.160427   44.668976
  H    -23.464878   28.035597   45.015494
  H    -25.088147   26.313482   44.889375
  H    -26.446959   27.436039   45.162350
  H    -26.299523   29.288129   47.120281

 Multiplicity           Mult            ....    1
 Number of Electrons    NEL             ....  102
 Basis Dimension        Dim             ....  149

ORBITAL ENERGIES
----------------

  NO   OCC          E(Eh)            E(eV)
   0   2.0000     -19.153166      -521.1841
   1   2.0000     -19.144971      -520.9611
   2   2.0000     -19.136604      -520.7335
   3   2.0000     -19.135987      -520.7167
   4   2.0000     -10.284899      -279.8663
   5   2.0000     -10.238928      -278.6154
   6   2.0000     -10.238018      -278.5906
   7   2.0000     -10.233754      -278.4746
   8   2.0000     -10.232792      -278.4484
   9   2.0000     -10.221389      -278.1381
  10   2.0000     -10.200008      -277.5563
  11   2.0000     -10.194294      -277.4009
  12   2.0000     -10.177783      -276.9516
  13   2.0000      -1.058932       -28.8150
  14   2.0000      -1.033023       -28.1100
  15   2.0000      -1.004852       -27.3434
  16   2.0000      -0.995535       -27.0899
  17   2.0000      -0.795937       -21.6586
  18   2.0000      -0.780740       -21.2450
  19   2.0000      -0.766270       -20.8513
  20   2.0000      -0.738009       -20.0822
  21   2.0000      -0.676413       -18.4061
  22   2.0000      -0.611507       -16.6400
  23   2.0000      -0.604743       -16.4559
  24   2.0000      -0.597664       -16.2633
  25   2.0000      -0.570763       -15.5312
  26   2.0000      -0.524129       -14.2623
  27   2.0000      -0.516995       -14.0682
  28   2.0000      -0.502049       -13.6614
  29   2.0000      -0.493558       -13.4304
  30   2.0000      -0.472255       -12.8507
  31   2.0000      -0.456981       -12.4351
  32   2.0000      -0.449486       -12.2311
  33   2.0000      -0.436001       -11.8642
  34   2.0000      -0.425793       -11.5864
  35   2.0000      -0.419192       -11.4068
  36   2.0000      -0.407529       -11.0894
  37   2.0000      -0.387364       -10.5407
  38   2.0000      -0.381604       -10.3840
  39   2.0000      -0.370521       -10.0824
  40   2.0000      -0.368649       -10.0314
  41   2.0000      -0.361615        -9.8400
  42   2.0000      -0.349551        -9.5118
  43   2.0000      -0.336145        -9.1470
  44   2.0000      -0.323506        -8.8030
  45   2.0000      -0.314623        -8.5613
  46   2.0000      -0.302326        -8.2267
  47   2.0000      -0.269897        -7.3443
  48   2.0000      -0.265590        -7.2271
  49   2.0000      -0.255704        -6.9581
  50   2.0000      -0.238495        -6.4898
  51   0.0000       0.053971         1.4686
  52   0.0000       0.074071         2.0156
  53   0.0000       0.085956         2.3390
  54   0.0000       0.094955         2.5838
  55   0.0000       0.103871         2.8265

MULLIKEN ATOMIC CHARGES
-----------------------
   0 C :    0.302164
   1 C :   -0.265811
   2 C :   -0.320213
   3 C :   -0.019346
   4 O :   -0.506387
   5 H :    0.165583
   6 H :    0.151798
   7 H :    0.154437
   8 H :    0.151737
   9 H :    0.153873
  10 H :    0.148331
  11 H :    0.153672
  12 C :    0.010360
  13 H :    0.163425
  14 H :    0.123286
  15 O :   -0.537911
  16 C :    0.067053
  17 C :    0.073588
  18 C :   -0.289670
  19 C :   -0.016783
  20 O :   -0.524005
  21 H :    0.153316
  22 O :   -0.604408
  23 H :    0.141634
  24 H :    0.148806
  25 H :    0.165837
  26 H :    0.156442
  27 H :    0.134769
  28 H :    0.364421
Sum of atomic charges:   -0.0000000

LOEWDIN ATOMIC CHARGES
----------------------
   0 C :    0.181248
   1 C :   -0.226247
   2 C :   -0.223819
   3 C :   -0.035576
   4 O :   -0.316607
   5 H :    0.111605
   6 H :    0.118699
   7 H :    0.119857
   8 H :    0.119378
   9 H :    0.108970
  10 H :    0.102611
  11 H :    0.108382
  12 C :   -0.032778
  13 H :    0.114601
  14 H :    0.096550
  15 O :   -0.333506
  16 C :    0.012855
  17 C :    0.037929
  18 C :   -0.241767
  19 C :   -0.032192
  20 O :   -0.327879
  21 H :    0.114594
  22 O :   -0.417443
  23 H :    0.109146
  24 H :    0.118176
  25 H :    0.123542
  26 H :    0.110663
  27 H :    0.095920
  28 H :    0.283090

  Mayer bond orders larger than 0.100000
B(  0-C ,  1-C ) :   0.9166 B(  0-C ,  4-O ) :   0.9100 B(  0-C ,  5-H ) :   0.9345
B(  0-C , 15-O ) :   0.8638 B(  1-C ,  2-C ) :   0.9533 B(  1-C ,  6-H ) :   0.9337
B(  1-C ,  7-H ) :   0.9341 B(  2-C ,  3-C ) :   0.9481 B(  2-C ,  8-H ) :   0.9442
B(  2-C ,  9-H ) :   0.9385 B(  3-C ,  4-O ) :   0.8364 B(  3-C , 10-H ) :   0.9300
B(  3-C , 11-H ) :   0.9383 B( 12-C , 13-H ) :   0.9221 B( 12-C , 14-H ) :   0.9019
B( 12-C , 15-O ) :   0.8296 B( 12-C , 16-C ) :   0.9055 B( 16-C , 17-C ) :   0.9064
B( 16-C , 20-O ) :   0.8727 B( 16-C , 21-H ) :   0.9213 B( 17-C , 18-C ) :   0.9246
B( 17-C , 22-O ) :   0.8911 B( 17-C , 23-H ) :   0.9337 B( 18-C , 19-C ) :   0.9455
B( 18-C , 24-H ) :   0.9368 B( 18-C , 25-H ) :   0.9175 B( 19-C , 20-O ) :   0.8388
B( 19-C , 26-H ) :   0.9332 B( 19-C , 27-H ) :   0.9372 B( 22-O , 28-H ) :   0.7949

FINAL SINGLE POINT ENERGY      -652.857213077464

DIPOLE MOMENT
-------------
                                X             Y             Z
Electronic contribution:     -3.85214      -3.32115       1.27309
Nuclear contribution   :      4.82352       3.91898      -1.52946
                        -----------------------------------------
Total Dipole Moment    :      0.97137       0.59784      -0.25637
                        -----------------------------------------
Magnitude (a.u.)       :      1.16906
Magnitude (Debye)      :      2.97152

Rotational constants in cm-1:     0.050825     0.015422     0.014694
Rotational constants in MHz :  1523.683179   462.345814   440.511930

                             ****ORCA TERMINATED NORMALLY****
TOTAL RUN TIME: 0 days 0 hours 19 minutes 4 seconds 229 msec
