                         Program Version 4.2.1 -  RELEASE  -
|  1> # Test redundant internal optimization
|  2> #
|  3> ! RKS B3LYP  Opt TightSCF SmallPrint
|  4>
|  5> %basis
|  6>         Basis "6-31G"
|  7> end
|  8>
|  9> %geom
| 10> Constraints
| 11> { D 4  0  19  14  0.0   C } # D for Dihedral angle
| 12> { D 0  19  14  12  90.0   C } # D for Dihedral angle
| 13> { D 0  4  3  2   C } # D for Dihedral angle
| 14> { D 4  3  2  1   C } # D for Dihedral angle
| 15> { D 3  2  1  0   C } # D for Dihedral angle
| 16> { D 2  1  0  4   C } # D for Dihedral angle
| 17> { D 1  0  4  3   C } # D for Dihedral angle
| 18> { D 14  15  16  17   C } # D for Dihedral angle
| 19> { D 15  16  17  12   C } # D for Dihedral angle
| 20> { D 16  17  12  14   C } # D for Dihedral angle
| 21> { D 17  12  14  15   C } # D for Dihedral angle
| 22> { D 12  14  15  16   C } # D for Dihedral angle
| 23> end
| 24> end
| 25>
| 26>
| 27> #%pal
| 28> #nprocs 8
| 29> #end
| 30>
| 31> * xyz 0 1
| 32> C  -21.048   26.222   46.251
| 33> C  -20.361   27.558   45.944
| 34> C  -20.329   28.222   47.341
| 35> C  -20.110   27.022   48.296
| 36> O  -20.473   25.807   47.535
| 37> H  -20.833   25.428   45.533
| 38> H  -19.344   27.382   45.576
| 39> H  -20.898   28.157   45.201
| 40> H  -19.543   28.978   47.434
| 41> H  -21.289   28.710   47.548
| 42> H  -20.733   27.082   49.195
| 43> H  -19.064   26.913   48.597
| 44> C  -23.003   27.386   48.519
| 45> H  -23.117   27.159   49.590
| 46> C  -22.995   26.105   47.675
| 47> C  -24.502   25.768   47.602
| 48> C  -25.173   27.164   47.546
| 49> O  -24.165   28.134   48.027
| 50> H  -22.129   28.025   48.379
| 51> O  -22.472   26.381   46.366
| 52> H  -22.401   25.300   48.122
| 53> H  -24.758   25.148   46.737
| 54> H  -24.813   25.227   48.505
| 55> H  -26.064   27.228   48.180
| 56> H  -25.442   27.458   46.527
| 57> *
| 58>
| 59>                          ****END OF INPUT****
 Total Charge           Charge          ....    0
 Multiplicity           Mult            ....    1
 Number of Electrons    NEL             ....   86
FINAL SINGLE POINT ENERGY      -538.404356783987
FINAL SINGLE POINT ENERGY      -538.426440426453
FINAL SINGLE POINT ENERGY      -538.428667934812
FINAL SINGLE POINT ENERGY      -538.428963120119
FINAL SINGLE POINT ENERGY      -538.429013854473
FINAL SINGLE POINT ENERGY      -538.429031022698
                    ***********************HURRAY********************

CARTESIAN COORDINATES (ANGSTROEM)
---------------------------------
  C    -21.038163   26.245737   46.366292
  C    -20.392743   27.556511   45.910898
  C    -20.136040   28.269549   47.261128
  C    -19.785879   27.103249   48.213406
  O    -20.287932   25.869713   47.542624
  H    -20.892786   25.426743   45.655561
  H    -19.451602   27.325602   45.399557
  H    -21.040113   28.124344   45.239411
  H    -19.324943   29.002102   47.199973
  H    -21.039019   28.797736   47.579577
  H    -20.251450   27.184847   49.199860
  H    -18.707684   26.969757   48.339325
  C    -23.247790   27.312375   48.735291
  H    -23.528813   26.996289   49.752253
  C    -23.112051   26.082607   47.836983
  C    -24.583807   25.770214   47.516942
  C    -25.240623   27.167740   47.433234
  O    -24.315518   28.101225   48.116808
  H    -22.366755   27.947026   48.791492
  O    -22.478916   26.346901   46.545707
  H    -22.592621   25.259892   48.338993
  H    -24.664624   25.201965   46.588400
  H    -25.019273   25.178455   48.331028
  H    -26.216762   27.206125   47.928577
  H    -25.343091   27.517298   46.402681

 Multiplicity           Mult            ....    1
 Number of Electrons    NEL             ....   86
 Basis Dimension        Dim             ....  127

ORBITAL ENERGIES
----------------

  NO   OCC          E(Eh)            E(eV)
   0   2.0000     -19.151098      -521.1279
   1   2.0000     -19.135080      -520.6920
   2   2.0000     -19.125931      -520.4431
   3   2.0000     -10.278117      -279.6818
   4   2.0000     -10.236201      -278.5412
   5   2.0000     -10.233564      -278.4694
   6   2.0000     -10.219855      -278.0964
   7   2.0000     -10.216462      -278.0041
   8   2.0000     -10.190262      -277.2911
   9   2.0000     -10.185398      -277.1588
  10   2.0000     -10.180852      -277.0351
  11   2.0000      -1.052959       -28.6525
  12   2.0000      -1.012003       -27.5380
  13   2.0000      -0.986915       -26.8553
  14   2.0000      -0.792475       -21.5643
  15   2.0000      -0.779234       -21.2040
  16   2.0000      -0.739138       -20.1130
  17   2.0000      -0.721785       -19.6408
  18   2.0000      -0.617421       -16.8009
  19   2.0000      -0.603281       -16.4161
  20   2.0000      -0.593404       -16.1474
  21   2.0000      -0.563330       -15.3290
  22   2.0000      -0.513592       -13.9756
  23   2.0000      -0.504283       -13.7222
  24   2.0000      -0.492465       -13.4006
  25   2.0000      -0.483158       -13.1474
  26   2.0000      -0.451278       -12.2799
  27   2.0000      -0.439237       -11.9522
  28   2.0000      -0.428826       -11.6689
  29   2.0000      -0.414779       -11.2867
  30   2.0000      -0.411460       -11.1964
  31   2.0000      -0.378487       -10.2991
  32   2.0000      -0.370547       -10.0831
  33   2.0000      -0.361817        -9.8455
  34   2.0000      -0.358558        -9.7569
  35   2.0000      -0.356993        -9.7143
  36   2.0000      -0.344845        -9.3837
  37   2.0000      -0.330297        -8.9878
  38   2.0000      -0.304430        -8.2840
  39   2.0000      -0.301556        -8.2057
  40   2.0000      -0.265083        -7.2133
  41   2.0000      -0.248785        -6.7698
  42   2.0000      -0.230305        -6.2669
  43   0.0000       0.077548         2.1102
  44   0.0000       0.093584         2.5466
  45   0.0000       0.096937         2.6378
  46   0.0000       0.105684         2.8758
  47   0.0000       0.110725         3.0130

MULLIKEN ATOMIC CHARGES
-----------------------
   0 C :    0.310041
   1 C :   -0.260181
   2 C :   -0.321756
   3 C :   -0.021455
   4 O :   -0.515313
   5 H :    0.154151
   6 H :    0.145924
   7 H :    0.164158
   8 H :    0.147765
   9 H :    0.174881
  10 H :    0.144610
  11 H :    0.152532
  12 C :   -0.004670
  13 H :    0.122852
  14 C :    0.077993
  15 C :   -0.292149
  16 C :    0.005612
  17 O :   -0.525963
  18 H :    0.143667
  19 O :   -0.541949
  20 H :    0.150999
  21 H :    0.163812
  22 H :    0.139192
  23 H :    0.132716
  24 H :    0.152531
Sum of atomic charges:   -0.0000000

LOEWDIN ATOMIC CHARGES
----------------------
   0 C :    0.183249
   1 C :   -0.219534
   2 C :   -0.222851
   3 C :   -0.034807
   4 O :   -0.321366
   5 H :    0.101996
   6 H :    0.115159
   7 H :    0.128015
   8 H :    0.117725
   9 H :    0.119636
  10 H :    0.101007
  11 H :    0.107945
  12 C :   -0.048985
  13 H :    0.091629
  14 C :    0.042361
  15 C :   -0.223637
  16 C :   -0.026719
  17 O :   -0.334132
  18 H :    0.109040
  19 O :   -0.338671
  20 H :    0.108751
  21 H :    0.128835
  22 H :    0.110662
  23 H :    0.096796
  24 H :    0.107895

  Mayer bond orders larger than 0.100000
B(  0-C ,  1-C ) :   0.9282 B(  0-C ,  4-O ) :   0.9049 B(  0-C ,  5-H ) :   0.9317
B(  0-C , 19-O ) :   0.8542 B(  1-C ,  2-C ) :   0.9532 B(  1-C ,  6-H ) :   0.9355
B(  1-C ,  7-H ) :   0.9350 B(  2-C ,  3-C ) :   0.9532 B(  2-C ,  8-H ) :   0.9436
B(  2-C ,  9-H ) :   0.9298 B(  3-C ,  4-O ) :   0.8316 B(  3-C , 10-H ) :   0.9291
B(  3-C , 11-H ) :   0.9384 B( 12-C , 13-H ) :   0.9098 B( 12-C , 14-C ) :   0.9128
B( 12-C , 17-O ) :   0.8740 B( 12-C , 18-H ) :   0.9212 B( 14-C , 15-C ) :   0.9564
B( 14-C , 19-O ) :   0.8223 B( 14-C , 20-H ) :   0.9170 B( 15-C , 16-C ) :   0.9469
B( 15-C , 21-H ) :   0.9365 B( 15-C , 22-H ) :   0.9432 B( 16-C , 17-O ) :   0.8516
B( 16-C , 23-H ) :   0.9339 B( 16-C , 24-H ) :   0.9370

FINAL SINGLE POINT ENERGY      -538.429032381862

DIPOLE MOMENT
-------------
                                X             Y             Z
Electronic contribution:     -0.43036      -1.63912      -0.76300
Nuclear contribution   :      0.88074       1.50946       0.89851
                        -----------------------------------------
Total Dipole Moment    :      0.45038      -0.12967       0.13552
                        -----------------------------------------
Magnitude (a.u.)       :      0.48787
Magnitude (Debye)      :      1.24007

Rotational constants in cm-1:     0.072244     0.024147     0.022839
Rotational constants in MHz :  2165.814793   723.912525   684.697042

                             ****ORCA TERMINATED NORMALLY****
TOTAL RUN TIME: 0 days 0 hours 9 minutes 11 seconds 54 msec
