                         Program Version 4.2.1 -  RELEASE  -
|  1> # Test redundant internal optimization
|  2> #
|  3> ! RKS B3LYP  Opt TightSCF SmallPrint
|  4>
|  5> %basis
|  6>         Basis "6-31G"
|  7> end
|  8>
|  9> %geom
| 10> Constraints
| 11> { D 4  0  19  14  270.0   C } # D for Dihedral angle
| 12> { D 0  19  14  12  45.0   C } # D for Dihedral angle
| 13> { D 0  4  3  2   C } # D for Dihedral angle
| 14> { D 4  3  2  1   C } # D for Dihedral angle
| 15> { D 3  2  1  0   C } # D for Dihedral angle
| 16> { D 2  1  0  4   C } # D for Dihedral angle
| 17> { D 1  0  4  3   C } # D for Dihedral angle
| 18> { D 14  15  16  17   C } # D for Dihedral angle
| 19> { D 15  16  17  12   C } # D for Dihedral angle
| 20> { D 16  17  12  14   C } # D for Dihedral angle
| 21> { D 17  12  14  15   C } # D for Dihedral angle
| 22> { D 12  14  15  16   C } # D for Dihedral angle
| 23> end
| 24> end
| 25>
| 26>
| 27> #%pal
| 28> #nprocs 8
| 29> #end
| 30>
| 31> * xyz 0 1
| 32> C  -21.048   26.222   46.251
| 33> C  -20.361   27.558   45.944
| 34> C  -20.329   28.222   47.341
| 35> C  -20.110   27.022   48.296
| 36> O  -20.473   25.807   47.535
| 37> H  -20.833   25.428   45.533
| 38> H  -19.344   27.382   45.576
| 39> H  -20.898   28.157   45.201
| 40> H  -19.543   28.978   47.434
| 41> H  -21.289   28.710   47.548
| 42> H  -20.733   27.082   49.195
| 43> H  -19.064   26.913   48.597
| 44> C  -22.586   23.985   46.780
| 45> H  -22.954   23.037   46.359
| 46> C  -23.226   25.191   46.082
| 47> C  -24.613   25.248   46.762
| 48> C  -24.312   24.802   48.215
| 49> O  -23.001   24.117   48.181
| 50> H  -21.495   23.982   46.769
| 51> O  -22.472   26.381   46.366
| 52> H  -23.290   25.074   44.995
| 53> H  -25.068   26.243   46.717
| 54> H  -25.301   24.544   46.277
| 55> H  -25.067   24.112   48.608
| 56> H  -24.216   25.649   48.901
| 57> *
| 58>
| 59>                          ****END OF INPUT****
 Total Charge           Charge          ....    0
 Multiplicity           Mult            ....    1
 Number of Electrons    NEL             ....   86
FINAL SINGLE POINT ENERGY      -538.427073188565
FINAL SINGLE POINT ENERGY      -538.432946966890
FINAL SINGLE POINT ENERGY      -538.433561197422
FINAL SINGLE POINT ENERGY      -538.433685617464
FINAL SINGLE POINT ENERGY      -538.433695954678
FINAL SINGLE POINT ENERGY      -538.433699391874
                    ***********************HURRAY********************

CARTESIAN COORDINATES (ANGSTROEM)
---------------------------------
  C    -20.930001   26.193959   46.247554
  C    -20.393669   27.595870   45.955848
  C    -20.428634   28.249838   47.358523
  C    -20.078993   27.071578   48.296296
  O    -20.318477   25.839312   47.506446
  H    -20.643638   25.421976   45.527523
  H    -19.364370   27.520539   45.586135
  H    -21.000972   28.122673   45.217249
  H    -19.724399   29.081824   47.453630
  H    -21.436669   28.620954   47.564523
  H    -20.700317   27.037401   49.194190
  H    -19.023772   27.057694   48.585522
  C    -22.688527   23.836118   46.767438
  H    -23.185919   22.968256   46.308653
  C    -23.178514   25.117195   46.092970
  C    -24.540075   25.328106   46.777919
  C    -24.296031   24.827538   48.222700
  O    -23.078596   23.991555   48.171007
  H    -21.608556   23.687415   46.758321
  O    -22.366690   26.307695   46.341324
  H    -23.275143   24.988794   45.005314
  H    -24.839420   26.378027   46.732187
  H    -25.300599   24.724324   46.270299
  H    -25.130787   24.229146   48.605264
  H    -24.093231   25.648214   48.916165

 Multiplicity           Mult            ....    1
 Number of Electrons    NEL             ....   86
 Basis Dimension        Dim             ....  127

ORBITAL ENERGIES
----------------

  NO   OCC          E(Eh)            E(eV)
   0   2.0000     -19.140518      -520.8400
   1   2.0000     -19.133288      -520.6432
   2   2.0000     -19.123256      -520.3703
   3   2.0000     -10.276095      -279.6268
   4   2.0000     -10.238679      -278.6086
   5   2.0000     -10.219420      -278.0846
   6   2.0000     -10.218493      -278.0593
   7   2.0000     -10.216726      -278.0113
   8   2.0000     -10.183655      -277.1113
   9   2.0000     -10.181767      -277.0600
  10   2.0000     -10.181195      -277.0444
  11   2.0000      -1.050039       -28.5730
  12   2.0000      -1.008781       -27.4503
  13   2.0000      -0.987146       -26.8616
  14   2.0000      -0.789713       -21.4892
  15   2.0000      -0.773325       -21.0432
  16   2.0000      -0.733329       -19.9549
  17   2.0000      -0.720975       -19.6187
  18   2.0000      -0.611993       -16.6532
  19   2.0000      -0.595177       -16.1956
  20   2.0000      -0.590774       -16.0758
  21   2.0000      -0.568285       -15.4638
  22   2.0000      -0.521215       -14.1830
  23   2.0000      -0.497849       -13.5472
  24   2.0000      -0.483357       -13.1528
  25   2.0000      -0.473249       -12.8778
  26   2.0000      -0.447192       -12.1687
  27   2.0000      -0.437415       -11.9027
  28   2.0000      -0.433628       -11.7996
  29   2.0000      -0.408524       -11.1165
  30   2.0000      -0.401309       -10.9202
  31   2.0000      -0.379162       -10.3175
  32   2.0000      -0.366901        -9.9839
  33   2.0000      -0.362522        -9.8647
  34   2.0000      -0.355343        -9.6694
  35   2.0000      -0.351849        -9.5743
  36   2.0000      -0.340773        -9.2729
  37   2.0000      -0.322508        -8.7759
  38   2.0000      -0.299765        -8.1570
  39   2.0000      -0.294523        -8.0144
  40   2.0000      -0.263136        -7.1603
  41   2.0000      -0.245980        -6.6934
  42   2.0000      -0.229445        -6.2435
  43   0.0000       0.082623         2.2483
  44   0.0000       0.098176         2.6715
  45   0.0000       0.101911         2.7731
  46   0.0000       0.119550         3.2531
  47   0.0000       0.124228         3.3804

MULLIKEN ATOMIC CHARGES
-----------------------
   0 C :    0.283296
   1 C :   -0.256775
   2 C :   -0.298768
   3 C :    0.001268
   4 O :   -0.503811
   5 H :    0.138095
   6 H :    0.142428
   7 H :    0.151160
   8 H :    0.138623
   9 H :    0.160584
  10 H :    0.153134
  11 H :    0.140006
  12 C :   -0.010483
  13 H :    0.120244
  14 C :    0.076746
  15 C :   -0.294917
  16 C :    0.002271
  17 O :   -0.513486
  18 H :    0.178154
  19 O :   -0.521478
  20 H :    0.128401
  21 H :    0.161666
  22 H :    0.139864
  23 H :    0.132392
  24 H :    0.151384
Sum of atomic charges:   -0.0000000

LOEWDIN ATOMIC CHARGES
----------------------
   0 C :    0.170620
   1 C :   -0.214937
   2 C :   -0.216030
   3 C :   -0.025554
   4 O :   -0.321237
   5 H :    0.094923
   6 H :    0.112196
   7 H :    0.120962
   8 H :    0.112293
   9 H :    0.118282
  10 H :    0.108707
  11 H :    0.101510
  12 C :   -0.049841
  13 H :    0.091418
  14 C :    0.038647
  15 C :   -0.224405
  16 C :   -0.028596
  17 O :   -0.325024
  18 H :    0.125654
  19 O :   -0.326798
  20 H :    0.094730
  21 H :    0.127421
  22 H :    0.111829
  23 H :    0.096602
  24 H :    0.106631

  Mayer bond orders larger than 0.100000
B(  0-C ,  1-C ) :   0.9494 B(  0-C ,  4-O ) :   0.9088 B(  0-C ,  5-H ) :   0.9196
B(  0-C , 19-O ) :   0.8532 B(  1-C ,  2-C ) :   0.9583 B(  1-C ,  6-H ) :   0.9403
B(  1-C ,  7-H ) :   0.9377 B(  2-C ,  3-C ) :   0.9538 B(  2-C ,  8-H ) :   0.9454
B(  2-C ,  9-H ) :   0.9445 B(  3-C ,  4-O ) :   0.8372 B(  3-C , 10-H ) :   0.9344
B(  3-C , 11-H ) :   0.9403 B( 12-C , 13-H ) :   0.9077 B( 12-C , 14-C ) :   0.9171
B( 12-C , 17-O ) :   0.8712 B( 12-C , 18-H ) :   0.9198 B( 14-C , 15-C ) :   0.9571
B( 14-C , 19-O ) :   0.8406 B( 14-C , 20-H ) :   0.9221 B( 15-C , 16-C ) :   0.9468
B( 15-C , 21-H ) :   0.9367 B( 15-C , 22-H ) :   0.9410 B( 16-C , 17-O ) :   0.8620
B( 16-C , 23-H ) :   0.9329 B( 16-C , 24-H ) :   0.9360

FINAL SINGLE POINT ENERGY      -538.433699572882

DIPOLE MOMENT
-------------
                                X             Y             Z
Electronic contribution:      0.67153      -2.84403       0.45213
Nuclear contribution   :     -0.91081       3.50351      -1.29679
                        -----------------------------------------
Total Dipole Moment    :     -0.23928       0.65948      -0.84466
                        -----------------------------------------
Magnitude (a.u.)       :      1.09800
Magnitude (Debye)      :      2.79090

Rotational constants in cm-1:     0.071808     0.023981     0.022585
Rotational constants in MHz :  2152.741041   718.933306   677.069612

                             ****ORCA TERMINATED NORMALLY****
TOTAL RUN TIME: 0 days 0 hours 7 minutes 1 seconds 824 msec
