                         Program Version 4.2.0 -  RELEASE  -
|  1> # Test redundant internal optimization
|  2> #
|  3> ! RKS B3LYP  Opt TightSCF SmallPrint
|  4>
|  5> %basis
|  6>         Basis "6-31G"
|  7> end
|  8>
|  9> %geom
| 10> Constraints
| 11> { D 4  0  15  12  165.0   C } # D for Dihedral angle
| 12> { D 0  15  12  16  255.0   C } # D for Dihedral angle
| 13> { D 0  4  3  2   C } # D for Dihedral angle
| 14> { D 4  3  2  1   C } # D for Dihedral angle
| 15> { D 3  2  1  0   C } # D for Dihedral angle
| 16> { D 2  1  0  4   C } # D for Dihedral angle
| 17> { D 1  0  4  3   C } # D for Dihedral angle
| 18> { D 16  20  19  18   C } # D for Dihedral angle
| 19> { D 20  19  18  17   C } # D for Dihedral angle
| 20> { D 19  18  17  16   C } # D for Dihedral angle
| 21> { D 18  17  16  20   C } # D for Dihedral angle
| 22> { D 17  16  20  19   C } # D for Dihedral angle
| 23> { D 15  12  16  20   C } # D for Dihedral angle
| 24> end
| 25> end
| 26>
| 27>
| 28> #%pal
| 29> #nprocs 8
| 30> #end
| 31>
| 32> * xyz 0 1
| 33> C  -21.048   26.222   46.251
| 34> C  -20.361   27.558   45.944
| 35> C  -20.329   28.222   47.341
| 36> C  -20.110   27.022   48.296
| 37> O  -20.473   25.807   47.535
| 38> H  -20.833   25.428   45.533
| 39> H  -19.344   27.382   45.576
| 40> H  -20.898   28.157   45.201
| 41> H  -19.543   28.978   47.434
| 42> H  -21.289   28.710   47.548
| 43> H  -20.733   27.082   49.195
| 44> H  -19.064   26.913   48.597
| 45> C  -23.260   27.170   45.210
| 46> H  -22.565   27.225   44.363
| 47> H  -24.167   26.650   44.877
| 48> O  -22.586   26.394   46.375
| 49> C  -23.663   28.618   45.607
| 50> C  -22.430   29.470   45.926
| 51> C  -21.925   29.834   44.510
| 52> C  -23.235   29.986   43.697
| 53> O  -24.292   29.303   44.473
| 54> H  -24.404   28.576   46.407
| 55> O  -22.853   30.747   46.703
| 56> H  -21.680   28.938   46.521
| 57> H  -21.318   30.745   44.496
| 58> H  -21.313   29.018   44.108
| 59> H  -23.168   29.530   42.704
| 60> H  -23.540   31.030   43.587
| 61> H  -23.604   31.299   46.125
| 62> *
| 63>
| 64>                          ****END OF INPUT****
 Total Charge           Charge          ....    0
 Multiplicity           Mult            ....    1
 Number of Electrons    NEL             ....  102
FINAL SINGLE POINT ENERGY      -652.761796808706
FINAL SINGLE POINT ENERGY      -652.817447956043
FINAL SINGLE POINT ENERGY      -652.837125576981
FINAL SINGLE POINT ENERGY      -652.841573836105
FINAL SINGLE POINT ENERGY      -652.842410964779
FINAL SINGLE POINT ENERGY      -652.842577370101
FINAL SINGLE POINT ENERGY      -652.842591503557
FINAL SINGLE POINT ENERGY      -652.842596641252
                    ***********************HURRAY********************

CARTESIAN COORDINATES (ANGSTROEM)
---------------------------------
  C    -21.040275   26.182271   46.279462
  C    -20.059929   27.330932   46.026014
  C    -19.980903   28.016204   47.423826
  C    -20.100314   26.806264   48.378923
  O    -20.664545   25.705039   47.572559
  H    -20.900349   25.342809   45.589403
  H    -19.089436   26.897971   45.761284
  H    -20.358473   28.007601   45.223026
  H    -19.046808   28.568732   47.562241
  H    -20.809360   28.702109   47.591560
  H    -20.761915   26.995837   49.228134
  H    -19.130586   26.459400   48.747334
  C    -23.185904   27.273862   45.304611
  H    -22.618503   27.283755   44.360015
  H    -24.104049   26.712481   45.111974
  O    -22.467243   26.485708   46.300467
  C    -23.640311   28.725906   45.594577
  C    -22.618656   29.843201   45.864659
  C    -22.098993   30.157908   44.430478
  C    -23.366646   29.952225   43.561562
  O    -24.311912   29.154773   44.364447
  H    -24.391941   28.719955   46.390062
  O    -23.281483   30.995899   46.454476
  H    -21.834450   29.580627   46.559730
  H    -21.706209   31.176093   44.377956
  H    -21.304353   29.463514   44.142643
  H    -23.159191   29.423938   42.625660
  H    -23.863358   30.897469   43.321273
  H    -24.131905   31.151514   45.991642

 Multiplicity           Mult            ....    1
 Number of Electrons    NEL             ....  102
 Basis Dimension        Dim             ....  149

ORBITAL ENERGIES
----------------

  NO   OCC          E(Eh)            E(eV)
   0   2.0000     -19.152581      -521.1682
   1   2.0000     -19.143755      -520.9281
   2   2.0000     -19.143215      -520.9134
   3   2.0000     -19.137674      -520.7626
   4   2.0000     -10.284092      -279.8444
   5   2.0000     -10.245846      -278.8036
   6   2.0000     -10.240071      -278.6465
   7   2.0000     -10.238775      -278.6112
   8   2.0000     -10.236131      -278.5393
   9   2.0000     -10.228290      -278.3259
  10   2.0000     -10.196949      -277.4731
  11   2.0000     -10.196708      -277.4665
  12   2.0000     -10.194418      -277.4042
  13   2.0000      -1.053338       -28.6628
  14   2.0000      -1.046411       -28.4743
  15   2.0000      -1.013358       -27.5749
  16   2.0000      -0.992329       -27.0027
  17   2.0000      -0.792925       -21.5766
  18   2.0000      -0.784117       -21.3369
  19   2.0000      -0.773721       -21.0540
  20   2.0000      -0.739311       -20.1177
  21   2.0000      -0.683138       -18.5891
  22   2.0000      -0.613110       -16.6836
  23   2.0000      -0.608833       -16.5672
  24   2.0000      -0.602694       -16.4001
  25   2.0000      -0.578768       -15.7491
  26   2.0000      -0.527289       -14.3483
  27   2.0000      -0.522685       -14.2230
  28   2.0000      -0.505541       -13.7565
  29   2.0000      -0.489594       -13.3225
  30   2.0000      -0.483552       -13.1581
  31   2.0000      -0.460685       -12.5359
  32   2.0000      -0.456681       -12.4269
  33   2.0000      -0.434272       -11.8171
  34   2.0000      -0.429951       -11.6996
  35   2.0000      -0.424069       -11.5395
  36   2.0000      -0.416043       -11.3211
  37   2.0000      -0.400526       -10.8989
  38   2.0000      -0.382432       -10.4065
  39   2.0000      -0.379956       -10.3391
  40   2.0000      -0.365028        -9.9329
  41   2.0000      -0.360991        -9.8231
  42   2.0000      -0.357252        -9.7213
  43   2.0000      -0.337147        -9.1742
  44   2.0000      -0.314998        -8.5715
  45   2.0000      -0.312114        -8.4931
  46   2.0000      -0.290877        -7.9152
  47   2.0000      -0.279383        -7.6024
  48   2.0000      -0.270614        -7.3638
  49   2.0000      -0.260050        -7.0763
  50   2.0000      -0.241321        -6.5667
  51   0.0000       0.057817         1.5733
  52   0.0000       0.065289         1.7766
  53   0.0000       0.086039         2.3412
  54   0.0000       0.092191         2.5086
  55   0.0000       0.096005         2.6124

MULLIKEN ATOMIC CHARGES
-----------------------
   0 C :    0.327836
   1 C :   -0.301718
   2 C :   -0.318483
   3 C :   -0.002580
   4 O :   -0.495862
   5 H :    0.145853
   6 H :    0.154822
   7 H :    0.141346
   8 H :    0.147438
   9 H :    0.175641
  10 H :    0.157007
  11 H :    0.144883
  12 C :   -0.003936
  13 H :    0.116694
  14 H :    0.175057
  15 O :   -0.530825
  16 C :    0.044700
  17 C :    0.072166
  18 C :   -0.301103
  19 C :   -0.032092
  20 O :   -0.521821
  21 H :    0.169112
  22 O :   -0.600574
  23 H :    0.158131
  24 H :    0.164044
  25 H :    0.146734
  26 H :    0.149637
  27 H :    0.151224
  28 H :    0.366670
Sum of atomic charges:    0.0000000

LOEWDIN ATOMIC CHARGES
----------------------
   0 C :    0.190010
   1 C :   -0.235968
   2 C :   -0.222108
   3 C :   -0.025767
   4 O :   -0.298176
   5 H :    0.096656
   6 H :    0.122275
   7 H :    0.109729
   8 H :    0.117464
   9 H :    0.115742
  10 H :    0.109705
  11 H :    0.103498
  12 C :   -0.039352
  13 H :    0.089811
  14 H :    0.124743
  15 O :   -0.347041
  16 C :    0.008713
  17 C :    0.032639
  18 C :   -0.241560
  19 C :   -0.039511
  20 O :   -0.324802
  21 H :    0.118088
  22 O :   -0.413096
  23 H :    0.118333
  24 H :    0.127697
  25 H :    0.109268
  26 H :    0.104946
  27 H :    0.104372
  28 H :    0.283693

  Mayer bond orders larger than 0.100000
B(  0-C ,  1-C ) :   0.9215 B(  0-C ,  4-O ) :   0.9380 B(  0-C ,  5-H ) :   0.9255
B(  0-C , 15-O ) :   0.8447 B(  1-C ,  2-C ) :   0.9532 B(  1-C ,  6-H ) :   0.9313
B(  1-C ,  7-H ) :   0.9190 B(  2-C ,  3-C ) :   0.9455 B(  2-C ,  8-H ) :   0.9452
B(  2-C ,  9-H ) :   0.9134 B(  3-C ,  4-O ) :   0.8359 B(  3-C , 10-H ) :   0.9339
B(  3-C , 11-H ) :   0.9392 B( 12-C , 13-H ) :   0.9268 B( 12-C , 14-H ) :   0.9266
B( 12-C , 15-O ) :   0.8486 B( 12-C , 16-C ) :   0.8747 B( 16-C , 17-C ) :   0.9129
B( 16-C , 20-O ) :   0.8228 B( 16-C , 21-H ) :   0.9247 B( 17-C , 18-C ) :   0.9110
B( 17-C , 22-O ) :   0.8944 B( 17-C , 23-H ) :   0.9014 B( 18-C , 19-C ) :   0.9376
B( 18-C , 24-H ) :   0.9374 B( 18-C , 25-H ) :   0.9221 B( 19-C , 20-O ) :   0.8390
B( 19-C , 26-H ) :   0.9348 B( 19-C , 27-H ) :   0.9374 B( 22-O , 28-H ) :   0.7918

FINAL SINGLE POINT ENERGY      -652.842609226087

DIPOLE MOMENT
-------------
                                X             Y             Z
Electronic contribution:     -4.74424      -2.86826       1.75494
Nuclear contribution   :      5.72215       3.69810      -2.71296
                        -----------------------------------------
Total Dipole Moment    :      0.97791       0.82984      -0.95803
                        -----------------------------------------
Magnitude (a.u.)       :      1.60086
Magnitude (Debye)      :      4.06907

Rotational constants in cm-1:     0.048093     0.015685     0.014162
Rotational constants in MHz :  1441.788384   470.223810   424.577629

                             ****ORCA TERMINATED NORMALLY****
TOTAL RUN TIME: 0 days 0 hours 45 minutes 8 seconds 643 msec
