                         Program Version 4.2.1 -  RELEASE  -
|  1> # Test redundant internal optimization
|  2> #
|  3> ! RKS B3LYP  Opt TightSCF SmallPrint
|  4>
|  5> %basis
|  6>         Basis "6-31G"
|  7> end
|  8>
|  9> %geom
| 10> Constraints
| 11> { D 4  0  19  14  60.0   C } # D for Dihedral angle
| 12> { D 0  19  14  12  150.0   C } # D for Dihedral angle
| 13> { D 0  4  3  2   C } # D for Dihedral angle
| 14> { D 4  3  2  1   C } # D for Dihedral angle
| 15> { D 3  2  1  0   C } # D for Dihedral angle
| 16> { D 2  1  0  4   C } # D for Dihedral angle
| 17> { D 1  0  4  3   C } # D for Dihedral angle
| 18> { D 14  15  16  17   C } # D for Dihedral angle
| 19> { D 15  16  17  12   C } # D for Dihedral angle
| 20> { D 16  17  12  14   C } # D for Dihedral angle
| 21> { D 17  12  14  15   C } # D for Dihedral angle
| 22> { D 12  14  15  16   C } # D for Dihedral angle
| 23> end
| 24> end
| 25>
| 26>
| 27> #%pal
| 28> #nprocs 8
| 29> #end
| 30>
| 31> * xyz 0 1
| 32> C  -21.048   26.222   46.251
| 33> C  -20.361   27.558   45.944
| 34> C  -20.329   28.222   47.341
| 35> C  -20.110   27.022   48.296
| 36> O  -20.473   25.807   47.535
| 37> H  -20.833   25.428   45.533
| 38> H  -19.344   27.382   45.576
| 39> H  -20.898   28.157   45.201
| 40> H  -19.543   28.978   47.434
| 41> H  -21.289   28.710   47.548
| 42> H  -20.733   27.082   49.195
| 43> H  -19.064   26.913   48.597
| 44> C  -24.212   27.996   46.904
| 45> H  -24.403   28.933   47.450
| 46> C  -22.882   27.363   47.331
| 47> C  -23.270   26.688   48.667
| 48> C  -24.725   26.218   48.415
| 49> O  -25.219   26.987   47.251
| 50> H  -24.302   28.181   45.833
| 51> O  -22.472   26.381   46.366
| 52> H  -22.075   28.095   47.444
| 53> H  -22.605   25.860   48.934
| 54> H  -23.237   27.420   49.484
| 55> H  -25.381   26.403   49.272
| 56> H  -24.782   25.158   48.148
| 57> *
| 58>
| 59>                          ****END OF INPUT****
 Total Charge           Charge          ....    0
 Multiplicity           Mult            ....    1
 Number of Electrons    NEL             ....   86
FINAL SINGLE POINT ENERGY      -538.367615717397
FINAL SINGLE POINT ENERGY      -538.421267993325
FINAL SINGLE POINT ENERGY      -538.425246443577
FINAL SINGLE POINT ENERGY      -538.425987222075
FINAL SINGLE POINT ENERGY      -538.426130670480
FINAL SINGLE POINT ENERGY      -538.426209387547
FINAL SINGLE POINT ENERGY      -538.426220538310
FINAL SINGLE POINT ENERGY      -538.426221633134
                    ***********************HURRAY********************

CARTESIAN COORDINATES (ANGSTROEM)
---------------------------------
  C    -21.090177   26.361407   46.401089
  C    -20.245331   27.551412   45.915488
  C    -19.882253   28.261931   47.255101
  C    -19.720612   27.068117   48.232023
  O    -20.399877   25.914214   47.595683
  H    -21.050344   25.519487   45.707426
  H    -19.345096   27.162649   45.429105
  H    -20.782825   28.190345   45.210358
  H    -18.956893   28.842035   47.176482
  H    -20.669868   28.950655   47.569686
  H    -20.169179   27.250163   49.213674
  H    -18.672934   26.784476   48.367587
  C    -24.441404   27.938923   46.911833
  H    -24.799765   28.831665   47.446639
  C    -23.111989   27.461828   47.499406
  C    -23.579968   26.701325   48.757258
  C    -24.916471   26.064784   48.308402
  O    -25.345831   26.807557   47.103440
  H    -24.385743   28.141147   45.841549
  O    -22.510570   26.533951   46.546223
  H    -22.445489   28.294451   47.732121
  H    -22.835089   25.962873   49.062513
  H    -23.736992   27.409031   49.580264
  H    -25.697071   26.140178   49.074265
  H    -24.798225   25.019395   48.012386

 Multiplicity           Mult            ....    1
 Number of Electrons    NEL             ....   86
 Basis Dimension        Dim             ....  127

ORBITAL ENERGIES
----------------

  NO   OCC          E(Eh)            E(eV)
   0   2.0000     -19.145452      -520.9742
   1   2.0000     -19.141963      -520.8793
   2   2.0000     -19.123619      -520.3801
   3   2.0000     -10.280284      -279.7407
   4   2.0000     -10.240577      -278.6603
   5   2.0000     -10.233688      -278.4728
   6   2.0000     -10.220021      -278.1009
   7   2.0000     -10.215507      -277.9781
   8   2.0000     -10.197878      -277.4984
   9   2.0000     -10.193543      -277.3804
  10   2.0000     -10.180415      -277.0232
  11   2.0000      -1.053701       -28.6727
  12   2.0000      -1.012965       -27.5642
  13   2.0000      -0.991144       -26.9704
  14   2.0000      -0.792461       -21.5640
  15   2.0000      -0.783971       -21.3329
  16   2.0000      -0.740221       -20.1424
  17   2.0000      -0.722867       -19.6702
  18   2.0000      -0.621018       -16.8988
  19   2.0000      -0.608359       -16.5543
  20   2.0000      -0.594737       -16.1836
  21   2.0000      -0.564986       -15.3741
  22   2.0000      -0.525821       -14.3083
  23   2.0000      -0.505147       -13.7458
  24   2.0000      -0.483363       -13.1530
  25   2.0000      -0.480348       -13.0709
  26   2.0000      -0.452109       -12.3025
  27   2.0000      -0.449596       -12.2341
  28   2.0000      -0.425029       -11.5656
  29   2.0000      -0.416998       -11.3471
  30   2.0000      -0.411456       -11.1963
  31   2.0000      -0.387932       -10.5562
  32   2.0000      -0.375553       -10.2193
  33   2.0000      -0.368471       -10.0266
  34   2.0000      -0.363786        -9.8991
  35   2.0000      -0.362268        -9.8578
  36   2.0000      -0.343355        -9.3432
  37   2.0000      -0.319077        -8.6825
  38   2.0000      -0.307443        -8.3660
  39   2.0000      -0.292834        -7.9684
  40   2.0000      -0.267325        -7.2743
  41   2.0000      -0.254239        -6.9182
  42   2.0000      -0.228988        -6.2311
  43   0.0000       0.065069         1.7706
  44   0.0000       0.089022         2.4224
  45   0.0000       0.097103         2.6423
  46   0.0000       0.111748         3.0408
  47   0.0000       0.119689         3.2569

MULLIKEN ATOMIC CHARGES
-----------------------
   0 C :    0.299081
   1 C :   -0.271522
   2 C :   -0.320393
   3 C :   -0.011765
   4 O :   -0.507516
   5 H :    0.168257
   6 H :    0.156436
   7 H :    0.151367
   8 H :    0.146757
   9 H :    0.151616
  10 H :    0.142558
  11 H :    0.150668
  12 C :    0.015319
  13 H :    0.118706
  14 C :    0.050921
  15 C :   -0.289060
  16 C :   -0.001682
  17 O :   -0.518829
  18 H :    0.160129
  19 O :   -0.514020
  20 H :    0.123290
  21 H :    0.175345
  22 H :    0.131521
  23 H :    0.134092
  24 H :    0.158724
Sum of atomic charges:   -0.0000000

LOEWDIN ATOMIC CHARGES
----------------------
   0 C :    0.175228
   1 C :   -0.227849
   2 C :   -0.224878
   3 C :   -0.034917
   4 O :   -0.324611
   5 H :    0.114226
   6 H :    0.122361
   7 H :    0.120192
   8 H :    0.116170
   9 H :    0.107194
  10 H :    0.101321
  11 H :    0.106355
  12 C :   -0.034675
  13 H :    0.088632
  14 C :    0.033687
  15 C :   -0.234445
  16 C :   -0.028247
  17 O :   -0.328493
  18 H :    0.119271
  19 O :   -0.311095
  20 H :    0.096087
  21 H :    0.132436
  22 H :    0.107717
  23 H :    0.097465
  24 H :    0.110868

  Mayer bond orders larger than 0.100000
B(  0-C ,  1-C ) :   0.9151 B(  0-C ,  4-O ) :   0.8894 B(  0-C ,  5-H ) :   0.9362
B(  0-C , 19-O ) :   0.9117 B(  1-C ,  2-C ) :   0.9551 B(  1-C ,  6-H ) :   0.9348
B(  1-C ,  7-H ) :   0.9373 B(  2-C ,  3-C ) :   0.9468 B(  2-C ,  8-H ) :   0.9438
B(  2-C ,  9-H ) :   0.9353 B(  3-C ,  4-O ) :   0.8470 B(  3-C , 10-H ) :   0.9331
B(  3-C , 11-H ) :   0.9387 B( 12-C , 13-H ) :   0.9142 B( 12-C , 14-C ) :   0.9383
B( 12-C , 17-O ) :   0.8773 B( 12-C , 18-H ) :   0.9318 B( 14-C , 15-C ) :   0.9383
B( 14-C , 19-O ) :   0.8227 B( 14-C , 20-H ) :   0.9054 B( 15-C , 16-C ) :   0.9492
B( 15-C , 21-H ) :   0.9315 B( 15-C , 22-H ) :   0.9384 B( 16-C , 17-O ) :   0.8527
B( 16-C , 23-H ) :   0.9335 B( 16-C , 24-H ) :   0.9349

FINAL SINGLE POINT ENERGY      -538.426220381047

DIPOLE MOMENT
-------------
                                X             Y             Z
Electronic contribution:     -2.50609      -3.52290      -2.22086
Nuclear contribution   :      3.66750       4.73112       2.73573
                        -----------------------------------------
Total Dipole Moment    :      1.16141       1.20822       0.51487
                        -----------------------------------------
Magnitude (a.u.)       :      1.75322
Magnitude (Debye)      :      4.45633

Rotational constants in cm-1:     0.078773     0.022267     0.020931
Rotational constants in MHz :  2361.543887   667.541967   627.504864

                             ****ORCA TERMINATED NORMALLY****
TOTAL RUN TIME: 0 days 0 hours 9 minutes 23 seconds 153 msec
