                         Program Version 4.2.1 -  RELEASE  -
|  1> # Test redundant internal optimization
|  2> #
|  3> ! RKS B3LYP  Opt TightSCF SmallPrint
|  4>
|  5> %basis
|  6>         Basis "6-31G"
|  7> end
|  8>
|  9> %geom
| 10> Constraints
| 11> { D 4  0  19  14  180.0   C } # D for Dihedral angle
| 12> { D 0  19  14  12  60.0   C } # D for Dihedral angle
| 13> { D 0  4  3  2   C } # D for Dihedral angle
| 14> { D 4  3  2  1   C } # D for Dihedral angle
| 15> { D 3  2  1  0   C } # D for Dihedral angle
| 16> { D 2  1  0  4   C } # D for Dihedral angle
| 17> { D 1  0  4  3   C } # D for Dihedral angle
| 18> { D 14  15  16  17   C } # D for Dihedral angle
| 19> { D 15  16  17  12   C } # D for Dihedral angle
| 20> { D 16  17  12  14   C } # D for Dihedral angle
| 21> { D 17  12  14  15   C } # D for Dihedral angle
| 22> { D 12  14  15  16   C } # D for Dihedral angle
| 23> end
| 24> end
| 25>
| 26>
| 27> #%pal
| 28> #nprocs 8
| 29> #end
| 30>
| 31> * xyz 0 1
| 32> C  -21.048   26.222   46.251
| 33> C  -20.361   27.558   45.944
| 34> C  -20.329   28.222   47.341
| 35> C  -20.110   27.022   48.296
| 36> O  -20.473   25.807   47.535
| 37> H  -20.833   25.428   45.533
| 38> H  -19.344   27.382   45.576
| 39> H  -20.898   28.157   45.201
| 40> H  -19.543   28.978   47.434
| 41> H  -21.289   28.710   47.548
| 42> H  -20.733   27.082   49.195
| 43> H  -19.064   26.913   48.597
| 44> C  -22.884   25.745   44.053
| 45> H  -23.112   26.154   43.056
| 46> C  -23.122   26.788   45.152
| 47> C  -24.660   26.732   45.310
| 48> C  -24.984   25.236   45.071
| 49> O  -23.810   24.655   44.383
| 50> H  -21.880   25.319   44.044
| 51> O  -22.472   26.381   46.366
| 52> H  -22.759   27.786   44.883
| 53> H  -24.999   27.081   46.290
| 54> H  -25.141   27.357   44.547
| 55> H  -25.872   25.092   44.446
| 56> H  -25.115   24.682   46.006
| 57> *
| 58>
| 59>                          ****END OF INPUT****
 Total Charge           Charge          ....    0
 Multiplicity           Mult            ....    1
 Number of Electrons    NEL             ....   86
FINAL SINGLE POINT ENERGY      -538.422065067352
FINAL SINGLE POINT ENERGY      -538.428564945630
FINAL SINGLE POINT ENERGY      -538.429090274486
FINAL SINGLE POINT ENERGY      -538.429220499778
FINAL SINGLE POINT ENERGY      -538.429241449664
FINAL SINGLE POINT ENERGY      -538.429245739558
                    ***********************HURRAY********************

CARTESIAN COORDINATES (ANGSTROEM)
---------------------------------
  C    -20.983645   26.214362   46.234294
  C    -20.223418   27.512105   45.964864
  C    -20.322164   28.233258   47.332649
  C    -20.252842   27.065770   48.338841
  O    -20.577127   25.842973   47.559304
  H    -20.736561   25.377294   45.577081
  H    -19.181095   27.270741   45.725656
  H    -20.631191   28.103160   45.140010
  H    -19.519104   28.961504   47.480781
  H    -21.280992   28.754279   47.410506
  H    -20.970897   27.158141   49.157504
  H    -19.249880   26.916998   48.749688
  C    -22.985361   25.799875   43.911667
  H    -23.342073   26.256115   42.975476
  C    -23.122994   26.803060   45.056505
  C    -24.623402   26.693637   45.386737
  C    -24.935749   25.198458   45.145492
  O    -23.830733   24.675117   44.309196
  H    -21.979357   25.409545   43.749947
  O    -22.427916   26.413943   46.278673
  H    -22.829469   27.817825   44.756188
  H    -24.811438   27.008609   46.415302
  H    -25.198840   27.336129   44.710685
  H    -25.884168   25.045799   44.618978
  H    -24.934583   24.620304   46.071977

 Multiplicity           Mult            ....    1
 Number of Electrons    NEL             ....   86
 Basis Dimension        Dim             ....  127

ORBITAL ENERGIES
----------------

  NO   OCC          E(Eh)            E(eV)
   0   2.0000     -19.139273      -520.8061
   1   2.0000     -19.138928      -520.7967
   2   2.0000     -19.129033      -520.5275
   3   2.0000     -10.278172      -279.6833
   4   2.0000     -10.242122      -278.7023
   5   2.0000     -10.226064      -278.2654
   6   2.0000     -10.224553      -278.2242
   7   2.0000     -10.218384      -278.0564
   8   2.0000     -10.189446      -277.2689
   9   2.0000     -10.188282      -277.2372
  10   2.0000     -10.184971      -277.1472
  11   2.0000      -1.052879       -28.6503
  12   2.0000      -1.015248       -27.6263
  13   2.0000      -0.988183       -26.8898
  14   2.0000      -0.789430       -21.4815
  15   2.0000      -0.781206       -21.2577
  16   2.0000      -0.737515       -20.0688
  17   2.0000      -0.727012       -19.7830
  18   2.0000      -0.619390       -16.8545
  19   2.0000      -0.602573       -16.3968
  20   2.0000      -0.592291       -16.1171
  21   2.0000      -0.565122       -15.3778
  22   2.0000      -0.527463       -14.3530
  23   2.0000      -0.496335       -13.5060
  24   2.0000      -0.494837       -13.4652
  25   2.0000      -0.480999       -13.0886
  26   2.0000      -0.452328       -12.3085
  27   2.0000      -0.450032       -12.2460
  28   2.0000      -0.428311       -11.6549
  29   2.0000      -0.420168       -11.4333
  30   2.0000      -0.401452       -10.9241
  31   2.0000      -0.380034       -10.3412
  32   2.0000      -0.373290       -10.1577
  33   2.0000      -0.366494        -9.9728
  34   2.0000      -0.364562        -9.9202
  35   2.0000      -0.356091        -9.6897
  36   2.0000      -0.351390        -9.5618
  37   2.0000      -0.312886        -8.5141
  38   2.0000      -0.309290        -8.4162
  39   2.0000      -0.296819        -8.0768
  40   2.0000      -0.256249        -6.9729
  41   2.0000      -0.253805        -6.9064
  42   2.0000      -0.236043        -6.4231
  43   0.0000       0.071922         1.9571
  44   0.0000       0.094860         2.5813
  45   0.0000       0.102452         2.7879
  46   0.0000       0.108308         2.9472
  47   0.0000       0.112825         3.0701

MULLIKEN ATOMIC CHARGES
-----------------------
   0 C :    0.303477
   1 C :   -0.283828
   2 C :   -0.295772
   3 C :   -0.000749
   4 O :   -0.501644
   5 H :    0.152469
   6 H :    0.149134
   7 H :    0.139542
   8 H :    0.142337
   9 H :    0.156344
  10 H :    0.153505
  11 H :    0.142183
  12 C :   -0.002823
  13 H :    0.122871
  14 C :    0.066796
  15 C :   -0.287179
  16 C :    0.003802
  17 O :   -0.519730
  18 H :    0.150368
  19 O :   -0.509686
  20 H :    0.120225
  21 H :    0.164881
  22 H :    0.139128
  23 H :    0.131943
  24 H :    0.162408
Sum of atomic charges:    0.0000000

LOEWDIN ATOMIC CHARGES
----------------------
   0 C :    0.180150
   1 C :   -0.233437
   2 C :   -0.216284
   3 C :   -0.025270
   4 O :   -0.301558
   5 H :    0.101137
   6 H :    0.116508
   7 H :    0.111236
   8 H :    0.114331
   9 H :    0.115720
  10 H :    0.109001
  11 H :    0.102652
  12 C :   -0.047476
  13 H :    0.092243
  14 C :    0.034639
  15 C :   -0.220799
  16 C :   -0.026174
  17 O :   -0.329825
  18 H :    0.110513
  19 O :   -0.327671
  20 H :    0.090066
  21 H :    0.129814
  22 H :    0.110452
  23 H :    0.097050
  24 H :    0.112981

  Mayer bond orders larger than 0.100000
B(  0-C ,  1-C ) :   0.9263 B(  0-C ,  4-O ) :   0.9331 B(  0-C ,  5-H ) :   0.9170
B(  0-C , 19-O ) :   0.8318 B(  1-C ,  2-C ) :   0.9509 B(  1-C ,  6-H ) :   0.9344
B(  1-C ,  7-H ) :   0.9325 B(  2-C ,  3-C ) :   0.9555 B(  2-C ,  8-H ) :   0.9451
B(  2-C ,  9-H ) :   0.9456 B(  3-C ,  4-O ) :   0.8374 B(  3-C , 10-H ) :   0.9345
B(  3-C , 11-H ) :   0.9397 B( 12-C , 13-H ) :   0.9104 B( 12-C , 14-C ) :   0.9056
B( 12-C , 17-O ) :   0.8785 B( 12-C , 18-H ) :   0.9300 B( 14-C , 15-C ) :   0.9563
B( 14-C , 19-O ) :   0.8450 B( 14-C , 20-H ) :   0.9141 B( 15-C , 16-C ) :   0.9465
B( 15-C , 21-H ) :   0.9360 B( 15-C , 22-H ) :   0.9419 B( 16-C , 17-O ) :   0.8509
B( 16-C , 23-H ) :   0.9338 B( 16-C , 24-H ) :   0.9351

FINAL SINGLE POINT ENERGY      -538.429246062572

DIPOLE MOMENT
-------------
                                X             Y             Z
Electronic contribution:     -0.17206      -4.53363       0.44503
Nuclear contribution   :      0.37410       6.16538      -0.81198
                        -----------------------------------------
Total Dipole Moment    :      0.20204       1.63175      -0.36695
                        -----------------------------------------
Magnitude (a.u.)       :      1.68465
Magnitude (Debye)      :      4.28205

Rotational constants in cm-1:     0.085213     0.019989     0.019869
Rotational constants in MHz :  2554.614684   599.268069   595.658290

                             ****ORCA TERMINATED NORMALLY****
TOTAL RUN TIME: 0 days 0 hours 6 minutes 56 seconds 859 msec
