                         Program Version 4.2.0 -  RELEASE  -
|  1> # Test redundant internal optimization
|  2> #
|  3> ! RKS B3LYP  Opt TightSCF SmallPrint
|  4>
|  5> %basis
|  6>         Basis "6-31G"
|  7> end
|  8>
|  9> %geom
| 10> Constraints
| 11> { D 4  0  15  12  165.0   C } # D for Dihedral angle
| 12> { D 0  15  12  16  225.0   C } # D for Dihedral angle
| 13> { D 0  4  3  2   C } # D for Dihedral angle
| 14> { D 4  3  2  1   C } # D for Dihedral angle
| 15> { D 3  2  1  0   C } # D for Dihedral angle
| 16> { D 2  1  0  4   C } # D for Dihedral angle
| 17> { D 1  0  4  3   C } # D for Dihedral angle
| 18> { D 16  20  19  18   C } # D for Dihedral angle
| 19> { D 20  19  18  17   C } # D for Dihedral angle
| 20> { D 19  18  17  16   C } # D for Dihedral angle
| 21> { D 18  17  16  20   C } # D for Dihedral angle
| 22> { D 17  16  20  19   C } # D for Dihedral angle
| 23> { D 15  12  16  20   C } # D for Dihedral angle
| 24> end
| 25> end
| 26>
| 27>
| 28> #%pal
| 29> #nprocs 8
| 30> #end
| 31>
| 32> * xyz 0 1
| 33> C  -21.048   26.222   46.251
| 34> C  -20.361   27.558   45.944
| 35> C  -20.329   28.222   47.341
| 36> C  -20.110   27.022   48.296
| 37> O  -20.473   25.807   47.535
| 38> H  -20.833   25.428   45.533
| 39> H  -19.344   27.382   45.576
| 40> H  -20.898   28.157   45.201
| 41> H  -19.543   28.978   47.434
| 42> H  -21.289   28.710   47.548
| 43> H  -20.733   27.082   49.195
| 44> H  -19.064   26.913   48.597
| 45> C  -23.260   27.170   45.210
| 46> H  -22.488   27.686   44.625
| 47> H  -23.790   26.478   44.544
| 48> O  -22.586   26.394   46.375
| 49> C  -24.285   28.227   45.707
| 50> C  -25.348   27.590   46.610
| 51> C  -24.588   27.471   47.953
| 52> C  -23.693   28.736   47.963
| 53> O  -23.627   29.216   46.566
| 54> H  -24.687   28.766   44.847
| 55> H  -26.207   28.262   46.710
| 56> O  -25.856   26.220   46.083
| 57> H  -25.258   27.427   48.817
| 58> H  -23.973   26.563   47.958
| 59> H  -22.679   28.530   48.321
| 60> H  -24.122   29.546   48.561
| 61> H  -25.011   25.531   45.975
| 62> *
| 63>
| 64>                          ****END OF INPUT****
 Total Charge           Charge          ....    0
 Multiplicity           Mult            ....    1
 Number of Electrons    NEL             ....  102
FINAL SINGLE POINT ENERGY      -652.824160038510
FINAL SINGLE POINT ENERGY      -652.847983563493
FINAL SINGLE POINT ENERGY      -652.855233938672
FINAL SINGLE POINT ENERGY      -652.858335736040
FINAL SINGLE POINT ENERGY      -652.858774151358
FINAL SINGLE POINT ENERGY      -652.858834345158
FINAL SINGLE POINT ENERGY      -652.858839610436
                    ***********************HURRAY********************

CARTESIAN COORDINATES (ANGSTROEM)
---------------------------------
  C    -21.032976   26.281631   46.148220
  C    -20.221761   27.549192   45.884127
  C    -20.227165   28.230994   47.275767
  C    -20.173156   27.031781   48.243460
  O    -20.590630   25.849831   47.441269
  H    -20.823137   25.462542   45.452748
  H    -19.209254   27.245504   45.595361
  H    -20.616281   28.196681   45.098229
  H    -19.377661   28.907806   47.409187
  H    -21.147339   28.807880   47.386588
  H    -20.849029   27.129238   49.097580
  H    -19.162936   26.820659   48.604886
  C    -23.192743   27.186302   45.193364
  H    -22.491324   27.747780   44.567493
  H    -23.731211   26.478631   44.548453
  O    -22.486570   26.449536   46.233001
  C    -24.206632   28.164973   45.779226
  C    -25.332981   27.522124   46.609483
  C    -24.688541   27.462237   48.028369
  C    -23.836874   28.745708   48.072659
  O    -23.658247   29.190053   46.659408
  H    -24.628768   28.706919   44.922895
  H    -26.216860   28.163249   46.599157
  O    -25.788027   26.243567   46.108721
  H    -25.439890   27.424797   48.822356
  H    -24.051036   26.575332   48.087218
  H    -22.855898   28.587874   48.524428
  H    -24.340764   29.567600   48.591220
  H    -25.105311   25.563579   46.291126

 Multiplicity           Mult            ....    1
 Number of Electrons    NEL             ....  102
 Basis Dimension        Dim             ....  149

ORBITAL ENERGIES
----------------

  NO   OCC          E(Eh)            E(eV)
   0   2.0000     -19.146398      -521.0000
   1   2.0000     -19.144803      -520.9566
   2   2.0000     -19.141770      -520.8740
   3   2.0000     -19.138493      -520.7849
   4   2.0000     -10.284873      -279.8656
   5   2.0000     -10.236800      -278.5575
   6   2.0000     -10.233218      -278.4600
   7   2.0000     -10.231920      -278.4247
   8   2.0000     -10.228874      -278.3418
   9   2.0000     -10.226081      -278.2658
  10   2.0000     -10.191791      -277.3327
  11   2.0000     -10.186732      -277.1951
  12   2.0000     -10.180033      -277.0128
  13   2.0000      -1.056040       -28.7363
  14   2.0000      -1.028655       -27.9911
  15   2.0000      -1.010613       -27.5002
  16   2.0000      -0.995499       -27.0889
  17   2.0000      -0.789616       -21.4865
  18   2.0000      -0.774768       -21.0825
  19   2.0000      -0.767854       -20.8944
  20   2.0000      -0.736143       -20.0315
  21   2.0000      -0.681578       -18.5467
  22   2.0000      -0.606373       -16.5002
  23   2.0000      -0.602540       -16.3960
  24   2.0000      -0.596859       -16.2414
  25   2.0000      -0.566769       -15.4226
  26   2.0000      -0.530115       -14.4252
  27   2.0000      -0.507995       -13.8232
  28   2.0000      -0.497447       -13.5362
  29   2.0000      -0.494698       -13.4614
  30   2.0000      -0.471594       -12.8327
  31   2.0000      -0.460850       -12.5404
  32   2.0000      -0.446698       -12.1553
  33   2.0000      -0.436193       -11.8694
  34   2.0000      -0.425151       -11.5689
  35   2.0000      -0.411589       -11.1999
  36   2.0000      -0.406264       -11.0550
  37   2.0000      -0.400359       -10.8943
  38   2.0000      -0.380058       -10.3419
  39   2.0000      -0.371631       -10.1126
  40   2.0000      -0.357678        -9.7329
  41   2.0000      -0.355116        -9.6632
  42   2.0000      -0.350277        -9.5315
  43   2.0000      -0.327780        -8.9193
  44   2.0000      -0.317978        -8.6526
  45   2.0000      -0.310834        -8.4582
  46   2.0000      -0.301211        -8.1964
  47   2.0000      -0.270243        -7.3537
  48   2.0000      -0.262321        -7.1381
  49   2.0000      -0.259963        -7.0740
  50   2.0000      -0.241745        -6.5782
  51   0.0000       0.067562         1.8385
  52   0.0000       0.077478         2.1083
  53   0.0000       0.092740         2.5236
  54   0.0000       0.097441         2.6515
  55   0.0000       0.100713         2.7405

MULLIKEN ATOMIC CHARGES
-----------------------
   0 C :    0.318480
   1 C :   -0.291529
   2 C :   -0.317375
   3 C :   -0.006833
   4 O :   -0.502161
   5 H :    0.146182
   6 H :    0.151808
   7 H :    0.154517
   8 H :    0.142982
   9 H :    0.187245
  10 H :    0.148015
  11 H :    0.144719
  12 C :   -0.035358
  13 H :    0.137376
  14 H :    0.147587
  15 O :   -0.538300
  16 C :    0.103399
  17 C :    0.086922
  18 C :   -0.313735
  19 C :   -0.017126
  20 O :   -0.524584
  21 H :    0.146427
  22 H :    0.161503
  23 O :   -0.606796
  24 H :    0.146475
  25 H :    0.176639
  26 H :    0.139317
  27 H :    0.145194
  28 H :    0.369008
Sum of atomic charges:    0.0000000

LOEWDIN ATOMIC CHARGES
----------------------
   0 C :    0.185775
   1 C :   -0.230469
   2 C :   -0.222279
   3 C :   -0.027440
   4 O :   -0.305012
   5 H :    0.097464
   6 H :    0.119000
   7 H :    0.118598
   8 H :    0.115462
   9 H :    0.127265
  10 H :    0.103738
  11 H :    0.104451
  12 C :   -0.051295
  13 H :    0.102245
  14 H :    0.106066
  15 O :   -0.348557
  16 C :    0.015696
  17 C :    0.037355
  18 C :   -0.242519
  19 C :   -0.028283
  20 O :   -0.327067
  21 H :    0.112779
  22 H :    0.115617
  23 O :   -0.410175
  24 H :    0.116801
  25 H :    0.127597
  26 H :    0.099405
  27 H :    0.102039
  28 H :    0.285745

  Mayer bond orders larger than 0.100000
B(  0-C ,  1-C ) :   0.9315 B(  0-C ,  4-O ) :   0.9386 B(  0-C ,  5-H ) :   0.9250
B(  0-C , 15-O ) :   0.8240 B(  1-C ,  2-C ) :   0.9494 B(  1-C ,  6-H ) :   0.9327
B(  1-C ,  7-H ) :   0.9248 B(  2-C ,  3-C ) :   0.9556 B(  2-C ,  8-H ) :   0.9447
B(  2-C ,  9-H ) :   0.9199 B(  3-C ,  4-O ) :   0.8336 B(  3-C , 10-H ) :   0.9312
B(  3-C , 11-H ) :   0.9386 B( 12-C , 13-H ) :   0.9165 B( 12-C , 14-H ) :   0.9077
B( 12-C , 15-O ) :   0.8416 B( 12-C , 16-C ) :   0.9023 B( 16-C , 17-C ) :   0.8882
B( 16-C , 20-O ) :   0.8762 B( 16-C , 21-H ) :   0.9259 B( 17-C , 18-C ) :   0.9340
B( 17-C , 22-H ) :   0.9362 B( 17-C , 23-O ) :   0.9034 B( 18-C , 19-C ) :   0.9475
B( 18-C , 24-H ) :   0.9404 B( 18-C , 25-H ) :   0.9245 B( 19-C , 20-O ) :   0.8332
B( 19-C , 26-H ) :   0.9205 B( 19-C , 27-H ) :   0.9389 B( 23-O , 28-H ) :   0.7898

FINAL SINGLE POINT ENERGY      -652.858838064213

DIPOLE MOMENT
-------------
                                X             Y             Z
Electronic contribution:     -2.76071      -2.88230      -1.62836
Nuclear contribution   :      3.55208       3.40986       1.61096
                        -----------------------------------------
Total Dipole Moment    :      0.79138       0.52756      -0.01741
                        -----------------------------------------
Magnitude (a.u.)       :      0.95126
Magnitude (Debye)      :      2.41791

Rotational constants in cm-1:     0.045056     0.018280     0.016949
Rotational constants in MHz :  1350.734486   548.012473   508.130456

                             ****ORCA TERMINATED NORMALLY****
TOTAL RUN TIME: 0 days 0 hours 53 minutes 35 seconds 39 msec
