                         Program Version 4.2.0 -  RELEASE  -
|  1> # Test redundant internal optimization
|  2> #
|  3> ! RKS B3LYP  Opt TightSCF SmallPrint
|  4>
|  5> %basis
|  6>         Basis "6-31G"
|  7> end
|  8>
|  9> %geom
| 10> Constraints
| 11> { D 4  0  15  12  255.0   C } # D for Dihedral angle
| 12> { D 0  15  12  16  285.0   C } # D for Dihedral angle
| 13> { D 0  4  3  2   C } # D for Dihedral angle
| 14> { D 4  3  2  1   C } # D for Dihedral angle
| 15> { D 3  2  1  0   C } # D for Dihedral angle
| 16> { D 2  1  0  4   C } # D for Dihedral angle
| 17> { D 1  0  4  3   C } # D for Dihedral angle
| 18> { D 16  20  19  18   C } # D for Dihedral angle
| 19> { D 20  19  18  17   C } # D for Dihedral angle
| 20> { D 19  18  17  16   C } # D for Dihedral angle
| 21> { D 18  17  16  20   C } # D for Dihedral angle
| 22> { D 17  16  20  19   C } # D for Dihedral angle
| 23> { D 15  12  16  20   C } # D for Dihedral angle
| 24> end
| 25> end
| 26>
| 27>
| 28> #%pal
| 29> #nprocs 8
| 30> #end
| 31>
| 32> * xyz 0 1
| 33> C  -21.048   26.222   46.251
| 34> C  -20.361   27.558   45.944
| 35> C  -20.329   28.222   47.341
| 36> C  -20.110   27.022   48.296
| 37> O  -20.473   25.807   47.535
| 38> H  -20.833   25.428   45.533
| 39> H  -19.344   27.382   45.576
| 40> H  -20.898   28.157   45.201
| 41> H  -19.543   28.978   47.434
| 42> H  -21.289   28.710   47.548
| 43> H  -20.733   27.082   49.195
| 44> H  -19.064   26.913   48.597
| 45> C  -23.431   25.260   45.734
| 46> H  -23.009   24.288   46.019
| 47> H  -24.467   25.302   46.093
| 48> O  -22.586   26.394   46.375
| 49> C  -23.466   25.340   44.182
| 50> C  -22.073   25.119   43.582
| 51> C  -21.943   23.578   43.653
| 52> C  -23.389   23.091   43.386
| 53> O  -24.275   24.249   43.630
| 54> H  -23.944   26.275   43.883
| 55> O  -22.046   25.604   42.107
| 56> H  -21.280   25.638   44.130
| 57> H  -21.228   23.179   42.927
| 58> H  -21.611   23.275   44.653
| 59> H  -23.683   22.268   44.046
| 60> H  -23.541   22.782   42.348
| 61> H  -22.833   25.096   41.537
| 62> *
| 63>
| 64>                          ****END OF INPUT****
 Total Charge           Charge          ....    0
 Multiplicity           Mult            ....    1
 Number of Electrons    NEL             ....  102
FINAL SINGLE POINT ENERGY      -652.823817575282
FINAL SINGLE POINT ENERGY      -652.849013459154
FINAL SINGLE POINT ENERGY      -652.857151229289
FINAL SINGLE POINT ENERGY      -652.859157360347
FINAL SINGLE POINT ENERGY      -652.859554536915
FINAL SINGLE POINT ENERGY      -652.859602287596
                    ***********************HURRAY********************

CARTESIAN COORDINATES (ANGSTROEM)
---------------------------------
  C    -20.959145   26.209644   46.274264
  C    -20.326807   27.579470   46.027182
  C    -20.430204   28.233752   47.424766
  C    -20.216529   27.041139   48.383874
  O    -20.463277   25.820572   47.575641
  H    -20.659176   25.410329   45.595507
  H    -19.278307   27.449702   45.733858
  H    -20.847366   28.140447   45.248486
  H    -19.691603   29.026933   47.573984
  H    -21.429422   28.659030   47.556325
  H    -20.904727   27.045767   49.233016
  H    -19.188363   26.970529   48.751825
  C    -23.254587   25.365210   45.702255
  H    -22.972449   24.367476   46.069861
  H    -24.255565   25.585625   46.076548
  O    -22.395288   26.373639   46.301390
  C    -23.322157   25.344508   44.161486
  C    -22.051038   25.042474   43.351463
  C    -21.952504   23.496633   43.483539
  C    -23.437980   23.054050   43.483910
  O    -24.240297   24.255640   43.807556
  H    -23.772158   26.276013   43.804434
  O    -22.236575   25.449665   41.966303
  H    -21.159473   25.571537   43.676413
  H    -21.380784   23.071162   42.655464
  H    -21.456350   23.223175   44.421847
  H    -23.648290   22.275827   44.223596
  H    -23.768980   22.699963   42.502525
  H    -23.130600   25.179087   41.668685

 Multiplicity           Mult            ....    1
 Number of Electrons    NEL             ....  102
 Basis Dimension        Dim             ....  149

ORBITAL ENERGIES
----------------

  NO   OCC          E(Eh)            E(eV)
   0   2.0000     -19.150858      -521.1213
   1   2.0000     -19.143833      -520.9302
   2   2.0000     -19.142609      -520.8969
   3   2.0000     -19.137311      -520.7527
   4   2.0000     -10.280980      -279.7597
   5   2.0000     -10.247043      -278.8362
   6   2.0000     -10.238223      -278.5962
   7   2.0000     -10.236744      -278.5560
   8   2.0000     -10.232705      -278.4461
   9   2.0000     -10.223124      -278.1854
  10   2.0000     -10.194596      -277.4091
  11   2.0000     -10.185348      -277.1574
  12   2.0000     -10.184204      -277.1263
  13   2.0000      -1.052563       -28.6417
  14   2.0000      -1.043023       -28.3821
  15   2.0000      -1.011337       -27.5199
  16   2.0000      -0.994173       -27.0528
  17   2.0000      -0.787682       -21.4339
  18   2.0000      -0.783299       -21.3146
  19   2.0000      -0.768899       -20.9228
  20   2.0000      -0.735496       -20.0139
  21   2.0000      -0.677765       -18.4429
  22   2.0000      -0.609567       -16.5872
  23   2.0000      -0.600940       -16.3524
  24   2.0000      -0.597083       -16.2475
  25   2.0000      -0.585179       -15.9235
  26   2.0000      -0.526830       -14.3358
  27   2.0000      -0.520738       -14.1700
  28   2.0000      -0.501906       -13.6576
  29   2.0000      -0.485111       -13.2005
  30   2.0000      -0.474923       -12.9233
  31   2.0000      -0.460507       -12.5310
  32   2.0000      -0.446226       -12.1424
  33   2.0000      -0.436839       -11.8870
  34   2.0000      -0.427507       -11.6331
  35   2.0000      -0.424428       -11.5493
  36   2.0000      -0.400570       -10.9001
  37   2.0000      -0.398594       -10.8463
  38   2.0000      -0.378256       -10.2929
  39   2.0000      -0.374210       -10.1828
  40   2.0000      -0.357428        -9.7261
  41   2.0000      -0.355829        -9.6826
  42   2.0000      -0.350400        -9.5349
  43   2.0000      -0.337002        -9.1703
  44   2.0000      -0.318701        -8.6723
  45   2.0000      -0.313782        -8.5384
  46   2.0000      -0.304421        -8.2837
  47   2.0000      -0.277469        -7.5503
  48   2.0000      -0.272915        -7.4264
  49   2.0000      -0.254608        -6.9282
  50   2.0000      -0.241685        -6.5766
  51   0.0000       0.061744         1.6801
  52   0.0000       0.067841         1.8460
  53   0.0000       0.090183         2.4540
  54   0.0000       0.096571         2.6278
  55   0.0000       0.100643         2.7386

MULLIKEN ATOMIC CHARGES
-----------------------
   0 C :    0.280508
   1 C :   -0.253632
   2 C :   -0.299700
   3 C :   -0.001872
   4 O :   -0.510851
   5 H :    0.139026
   6 H :    0.143333
   7 H :    0.153748
   8 H :    0.141232
   9 H :    0.165724
  10 H :    0.151015
  11 H :    0.139898
  12 C :   -0.008697
  13 H :    0.134559
  14 H :    0.170592
  15 O :   -0.520243
  16 C :    0.050355
  17 C :    0.080613
  18 C :   -0.299329
  19 C :   -0.030325
  20 O :   -0.523985
  21 H :    0.163102
  22 O :   -0.606654
  23 H :    0.158467
  24 H :    0.166149
  25 H :    0.151460
  26 H :    0.152687
  27 H :    0.146775
  28 H :    0.366046
Sum of atomic charges:   -0.0000000

LOEWDIN ATOMIC CHARGES
----------------------
   0 C :    0.169491
   1 C :   -0.218462
   2 C :   -0.215443
   3 C :   -0.026730
   4 O :   -0.323210
   5 H :    0.095196
   6 H :    0.113093
   7 H :    0.121628
   8 H :    0.113750
   9 H :    0.120802
  10 H :    0.107377
  11 H :    0.101398
  12 C :   -0.037463
  13 H :    0.097260
  14 H :    0.126025
  15 O :   -0.329568
  16 C :    0.005110
  17 C :    0.031522
  18 C :   -0.241237
  19 C :   -0.038087
  20 O :   -0.327609
  21 H :    0.115860
  22 O :   -0.414693
  23 H :    0.117277
  24 H :    0.128311
  25 H :    0.114922
  26 H :    0.106801
  27 H :    0.103020
  28 H :    0.283655

  Mayer bond orders larger than 0.100000
B(  0-C ,  1-C ) :   0.9435 B(  0-C ,  4-O ) :   0.9145 B(  0-C ,  5-H ) :   0.9093
B(  0-C , 15-O ) :   0.8467 B(  1-C ,  2-C ) :   0.9568 B(  1-C ,  6-H ) :   0.9381
B(  1-C ,  7-H ) :   0.9364 B(  2-C ,  3-C ) :   0.9542 B(  2-C ,  8-H ) :   0.9451
B(  2-C ,  9-H ) :   0.9432 B(  3-C ,  4-O ) :   0.8385 B(  3-C , 10-H ) :   0.9350
B(  3-C , 11-H ) :   0.9401 B( 12-C , 13-H ) :   0.9245 B( 12-C , 14-H ) :   0.9347
B( 12-C , 15-O ) :   0.8482 B( 12-C , 16-C ) :   0.8772 B( 16-C , 17-C ) :   0.9106
B( 16-C , 20-O ) :   0.8308 B( 16-C , 21-H ) :   0.9249 B( 17-C , 18-C ) :   0.9122
B( 17-C , 22-O ) :   0.8812 B( 17-C , 23-H ) :   0.9209 B( 18-C , 19-C ) :   0.9392
B( 18-C , 24-H ) :   0.9373 B( 18-C , 25-H ) :   0.9304 B( 19-C , 20-O ) :   0.8401
B( 19-C , 26-H ) :   0.9344 B( 19-C , 27-H ) :   0.9380 B( 22-O , 28-H ) :   0.7932

FINAL SINGLE POINT ENERGY      -652.859605780768

DIPOLE MOMENT
-------------
                                X             Y             Z
Electronic contribution:     -3.16964      -0.97846      -1.42264
Nuclear contribution   :      3.54163       0.86371       1.38488
                        -----------------------------------------
Total Dipole Moment    :      0.37199      -0.11476      -0.03776
                        -----------------------------------------
Magnitude (a.u.)       :      0.39111
Magnitude (Debye)      :      0.99413

Rotational constants in cm-1:     0.056960     0.013176     0.012498
Rotational constants in MHz :  1707.619797   395.000545   374.672462

                             ****ORCA TERMINATED NORMALLY****
TOTAL RUN TIME: 0 days 0 hours 47 minutes 2 seconds 177 msec
