                         Program Version 4.2.0 -  RELEASE  -
|  1> # Test redundant internal optimization
|  2> #
|  3> ! RKS B3LYP  Opt TightSCF SmallPrint
|  4>
|  5> %basis
|  6>         Basis "6-31G"
|  7> end
|  8>
|  9> %geom
| 10> Constraints
| 11> { D 4  0  15  12  300.0   C } # D for Dihedral angle
| 12> { D 0  15  12  16  225.0   C } # D for Dihedral angle
| 13> { D 0  4  3  2   C } # D for Dihedral angle
| 14> { D 4  3  2  1   C } # D for Dihedral angle
| 15> { D 3  2  1  0   C } # D for Dihedral angle
| 16> { D 2  1  0  4   C } # D for Dihedral angle
| 17> { D 1  0  4  3   C } # D for Dihedral angle
| 18> { D 16  20  19  18   C } # D for Dihedral angle
| 19> { D 20  19  18  17   C } # D for Dihedral angle
| 20> { D 19  18  17  16   C } # D for Dihedral angle
| 21> { D 18  17  16  20   C } # D for Dihedral angle
| 22> { D 17  16  20  19   C } # D for Dihedral angle
| 23> { D 15  12  16  20   C } # D for Dihedral angle
| 24> end
| 25> end
| 26>
| 27>
| 28> #%pal
| 29> #nprocs 8
| 30> #end
| 31>
| 32> * xyz 0 1
| 33> C  -21.048   26.222   46.251
| 34> C  -20.361   27.558   45.944
| 35> C  -20.329   28.222   47.341
| 36> C  -20.110   27.022   48.296
| 37> O  -20.473   25.807   47.535
| 38> H  -20.833   25.428   45.533
| 39> H  -19.344   27.382   45.576
| 40> H  -20.898   28.157   45.201
| 41> H  -19.543   28.978   47.434
| 42> H  -21.289   28.710   47.548
| 43> H  -20.733   27.082   49.195
| 44> H  -19.064   26.913   48.597
| 45> C  -23.362   25.116   46.798
| 46> H  -22.707   24.242   46.687
| 47> H  -23.668   25.183   47.850
| 48> O  -22.586   26.394   46.375
| 49> C  -24.640   24.881   45.947
| 50> C  -25.565   26.103   45.981
| 51> C  -24.876   27.046   44.965
| 52> C  -24.319   26.069   43.900
| 53> O  -24.293   24.730   44.530
| 54> H  -25.112   23.948   46.261
| 55> O  -26.985   25.710   45.489
| 56> H  -25.656   26.547   46.979
| 57> H  -25.563   27.783   44.537
| 58> H  -24.060   27.592   45.453
| 59> H  -23.307   26.333   43.576
| 60> H  -24.966   25.997   43.020
| 61> H  -26.918   25.264   44.491
| 62> *
| 63>
| 64>                          ****END OF INPUT****
 Total Charge           Charge          ....    0
 Multiplicity           Mult            ....    1
 Number of Electrons    NEL             ....  102
FINAL SINGLE POINT ENERGY      -652.840694018305
FINAL SINGLE POINT ENERGY      -652.864161285481
FINAL SINGLE POINT ENERGY      -652.868324401508
FINAL SINGLE POINT ENERGY      -652.869488218175
FINAL SINGLE POINT ENERGY      -652.869603152667
FINAL SINGLE POINT ENERGY      -652.869616426523
                    ***********************HURRAY********************

CARTESIAN COORDINATES (ANGSTROEM)
---------------------------------
  C    -21.076145   26.149120   46.274083
  C    -20.430803   27.499370   45.963639
  C    -20.397751   28.161603   47.359208
  C    -20.135478   26.970950   48.308256
  O    -20.482901   25.750717   47.532297
  H    -20.870092   25.336405   45.571185
  H    -19.418040   27.331917   45.580533
  H    -20.998492   28.071703   45.226869
  H    -19.626674   28.933976   47.440719
  H    -21.368743   28.618381   47.572007
  H    -20.746481   26.999999   49.214036
  H    -19.082309   26.872924   48.587073
  C    -23.270321   25.187970   46.802448
  H    -22.650219   24.289171   46.708376
  H    -23.545694   25.301348   47.858475
  O    -22.501629   26.356597   46.379155
  C    -24.520159   25.007596   45.946164
  C    -25.539205   26.156090   45.941408
  C    -24.939452   27.106170   44.871545
  C    -24.322304   26.127903   43.842338
  O    -24.182706   24.822431   44.532616
  H    -25.009065   24.082503   46.276580
  O    -26.860326   25.669027   45.571297
  H    -25.671154   26.629880   46.914475
  H    -25.716083   27.744835   44.441417
  H    -24.163703   27.722388   45.328530
  H    -23.336572   26.451871   43.498948
  H    -24.965909   25.963274   42.971593
  H    -26.779590   25.102880   44.774731

 Multiplicity           Mult            ....    1
 Number of Electrons    NEL             ....  102
 Basis Dimension        Dim             ....  149

ORBITAL ENERGIES
----------------

  NO   OCC          E(Eh)            E(eV)
   0   2.0000     -19.149035      -521.0717
   1   2.0000     -19.143860      -520.9309
   2   2.0000     -19.137915      -520.7691
   3   2.0000     -19.133240      -520.6419
   4   2.0000     -10.281273      -279.7677
   5   2.0000     -10.234981      -278.5080
   6   2.0000     -10.231692      -278.4185
   7   2.0000     -10.229630      -278.3624
   8   2.0000     -10.228583      -278.3339
   9   2.0000     -10.223255      -278.1889
  10   2.0000     -10.189317      -277.2654
  11   2.0000     -10.188836      -277.2523
  12   2.0000     -10.175722      -276.8955
  13   2.0000      -1.058440       -28.8016
  14   2.0000      -1.031182       -28.0599
  15   2.0000      -1.002629       -27.2829
  16   2.0000      -0.993874       -27.0447
  17   2.0000      -0.793007       -21.5788
  18   2.0000      -0.774845       -21.0846
  19   2.0000      -0.763499       -20.7759
  20   2.0000      -0.732309       -19.9271
  21   2.0000      -0.672598       -18.3023
  22   2.0000      -0.603178       -16.4133
  23   2.0000      -0.597057       -16.2467
  24   2.0000      -0.596005       -16.2181
  25   2.0000      -0.575061       -15.6482
  26   2.0000      -0.525688       -14.3047
  27   2.0000      -0.507337       -13.8053
  28   2.0000      -0.494918       -13.4674
  29   2.0000      -0.489710       -13.3257
  30   2.0000      -0.467699       -12.7267
  31   2.0000      -0.462971       -12.5981
  32   2.0000      -0.447355       -12.1731
  33   2.0000      -0.435965       -11.8632
  34   2.0000      -0.421662       -11.4740
  35   2.0000      -0.409819       -11.1517
  36   2.0000      -0.400743       -10.9048
  37   2.0000      -0.387184       -10.5358
  38   2.0000      -0.378303       -10.2942
  39   2.0000      -0.362867        -9.8741
  40   2.0000      -0.361537        -9.8379
  41   2.0000      -0.357103        -9.7173
  42   2.0000      -0.347884        -9.4664
  43   2.0000      -0.337567        -9.1857
  44   2.0000      -0.321983        -8.7616
  45   2.0000      -0.305006        -8.2996
  46   2.0000      -0.297883        -8.1058
  47   2.0000      -0.276079        -7.5125
  48   2.0000      -0.263765        -7.1774
  49   2.0000      -0.257655        -7.0111
  50   2.0000      -0.240742        -6.5509
  51   0.0000       0.066689         1.8147
  52   0.0000       0.084652         2.3035
  53   0.0000       0.095522         2.5993
  54   0.0000       0.106314         2.8930
  55   0.0000       0.107890         2.9358

MULLIKEN ATOMIC CHARGES
-----------------------
   0 C :    0.285518
   1 C :   -0.264968
   2 C :   -0.299501
   3 C :   -0.005098
   4 O :   -0.512662
   5 H :    0.158354
   6 H :    0.148513
   7 H :    0.154355
   8 H :    0.143237
   9 H :    0.159784
  10 H :    0.146746
  11 H :    0.145201
  12 C :    0.004445
  13 H :    0.157229
  14 H :    0.139537
  15 O :   -0.532498
  16 C :    0.067652
  17 C :    0.078216
  18 C :   -0.283134
  19 C :   -0.022199
  20 O :   -0.529874
  21 H :    0.154033
  22 O :   -0.603774
  23 H :    0.150429
  24 H :    0.146591
  25 H :    0.172198
  26 H :    0.142270
  27 H :    0.137597
  28 H :    0.361803
Sum of atomic charges:   -0.0000000

LOEWDIN ATOMIC CHARGES
----------------------
   0 C :    0.172665
   1 C :   -0.214612
   2 C :   -0.216373
   3 C :   -0.028198
   4 O :   -0.329522
   5 H :    0.102837
   6 H :    0.116118
   7 H :    0.122019
   8 H :    0.114407
   9 H :    0.117707
  10 H :    0.105177
  11 H :    0.104115
  12 C :   -0.034953
  13 H :    0.114425
  14 H :    0.104496
  15 O :   -0.332624
  16 C :    0.011255
  17 C :    0.039210
  18 C :   -0.240909
  19 C :   -0.034114
  20 O :   -0.333496
  21 H :    0.115211
  22 O :   -0.417674
  23 H :    0.115586
  24 H :    0.117768
  25 H :    0.128440
  26 H :    0.103162
  27 H :    0.096541
  28 H :    0.281334

  Mayer bond orders larger than 0.100000
B(  0-C ,  1-C ) :   0.9512 B(  0-C ,  4-O ) :   0.8995 B(  0-C ,  5-H ) :   0.9171
B(  0-C , 15-O ) :   0.8520 B(  1-C ,  2-C ) :   0.9546 B(  1-C ,  6-H ) :   0.9394
B(  1-C ,  7-H ) :   0.9366 B(  2-C ,  3-C ) :   0.9558 B(  2-C ,  8-H ) :   0.9450
B(  2-C ,  9-H ) :   0.9448 B(  3-C ,  4-O ) :   0.8363 B(  3-C , 10-H ) :   0.9357
B(  3-C , 11-H ) :   0.9404 B( 12-C , 13-H ) :   0.9176 B( 12-C , 14-H ) :   0.9203
B( 12-C , 15-O ) :   0.8320 B( 12-C , 16-C ) :   0.9000 B( 16-C , 17-C ) :   0.9105
B( 16-C , 20-O ) :   0.8642 B( 16-C , 21-H ) :   0.9210 B( 17-C , 18-C ) :   0.9229
B( 17-C , 22-O ) :   0.8901 B( 17-C , 23-H ) :   0.9360 B( 18-C , 19-C ) :   0.9445
B( 18-C , 24-H ) :   0.9379 B( 18-C , 25-H ) :   0.9200 B( 19-C , 20-O ) :   0.8417
B( 19-C , 26-H ) :   0.9355 B( 19-C , 27-H ) :   0.9368 B( 22-O , 28-H ) :   0.7964

FINAL SINGLE POINT ENERGY      -652.869616527009

DIPOLE MOMENT
-------------
                                X             Y             Z
Electronic contribution:     -2.97062      -4.84439      -0.43347
Nuclear contribution   :      3.76343       5.68092       0.40705
                        -----------------------------------------
Total Dipole Moment    :      0.79281       0.83654      -0.02641
                        -----------------------------------------
Magnitude (a.u.)       :      1.15284
Magnitude (Debye)      :      2.93028

Rotational constants in cm-1:     0.059481     0.013463     0.013057
Rotational constants in MHz :  1783.204052   403.610431   391.449284

                             ****ORCA TERMINATED NORMALLY****
TOTAL RUN TIME: 0 days 0 hours 17 minutes 38 seconds 425 msec
