                         Program Version 4.2.0 -  RELEASE  -
|  1> # Test redundant internal optimization
|  2> #
|  3> ! RKS B3LYP  Opt TightSCF SmallPrint
|  4>
|  5> %basis
|  6>         Basis "6-31G"
|  7> end
|  8>
|  9> %geom
| 10> Constraints
| 11> { D 4  0  15  12  270.0   C } # D for Dihedral angle
| 12> { D 0  15  12  16  135.0   C } # D for Dihedral angle
| 13> { D 0  4  3  2   C } # D for Dihedral angle
| 14> { D 4  3  2  1   C } # D for Dihedral angle
| 15> { D 3  2  1  0   C } # D for Dihedral angle
| 16> { D 2  1  0  4   C } # D for Dihedral angle
| 17> { D 1  0  4  3   C } # D for Dihedral angle
| 18> { D 16  20  19  18   C } # D for Dihedral angle
| 19> { D 20  19  18  17   C } # D for Dihedral angle
| 20> { D 19  18  17  16   C } # D for Dihedral angle
| 21> { D 18  17  16  20   C } # D for Dihedral angle
| 22> { D 17  16  20  19   C } # D for Dihedral angle
| 23> { D 15  12  16  20   C } # D for Dihedral angle
| 24> end
| 25> end
| 26>
| 27>
| 28> #%pal
| 29> #nprocs 8
| 30> #end
| 31>
| 32> * xyz 0 1
| 33> C  -21.048   26.222   46.251
| 34> C  -20.361   27.558   45.944
| 35> C  -20.329   28.222   47.341
| 36> C  -20.110   27.022   48.296
| 37> O  -20.473   25.807   47.535
| 38> H  -20.833   25.428   45.533
| 39> H  -19.344   27.382   45.576
| 40> H  -20.898   28.157   45.201
| 41> H  -19.543   28.978   47.434
| 42> H  -21.289   28.710   47.548
| 43> H  -20.733   27.082   49.195
| 44> H  -19.064   26.913   48.597
| 45> C  -23.420   25.119   46.072
| 46> H  -23.881   25.215   45.082
| 47> H  -22.774   24.231   46.066
| 48> O  -22.586   26.394   46.375
| 49> C  -24.546   24.876   47.115
| 50> C  -25.594   25.995   47.072
| 51> C  -26.435   25.590   45.839
| 52> C  -26.424   24.042   45.899
| 53> O  -25.300   23.663   46.781
| 54> H  -24.097   24.714   48.096
| 55> H  -26.205   25.972   47.982
| 56> O  -24.969   27.411   46.937
| 57> H  -27.449   26.001   45.863
| 58> H  -25.952   25.945   44.921
| 59> H  -26.277   23.585   44.915
| 60> H  -27.336   23.635   46.345
| 61> H  -24.353   27.456   46.033
| 62> *
| 63>
| 64>                          ****END OF INPUT****
 Total Charge           Charge          ....    0
 Multiplicity           Mult            ....    1
 Number of Electrons    NEL             ....  102
FINAL SINGLE POINT ENERGY      -652.834438041537
FINAL SINGLE POINT ENERGY      -652.858875328150
FINAL SINGLE POINT ENERGY      -652.865170756333
FINAL SINGLE POINT ENERGY      -652.867368376423
FINAL SINGLE POINT ENERGY      -652.868593244229
FINAL SINGLE POINT ENERGY      -652.869273765454
FINAL SINGLE POINT ENERGY      -652.869527351132
FINAL SINGLE POINT ENERGY      -652.869579609427
FINAL SINGLE POINT ENERGY      -652.869583897809
                    ***********************HURRAY********************

CARTESIAN COORDINATES (ANGSTROEM)
---------------------------------
  C    -21.067778   26.125208   46.212094
  C    -20.503349   27.517408   45.931465
  C    -20.591209   28.183664   47.325017
  C    -20.296784   27.013707   48.288910
  O    -20.517489   25.774042   47.496380
  H    -20.779382   25.335527   45.514027
  H    -19.460650   27.422476   45.608097
  H    -21.066677   28.046985   45.160482
  H    -19.880492   29.007131   47.441006
  H    -21.599295   28.576624   47.489282
  H    -20.957248   26.995300   49.159001
  H    -19.255769   26.986582   48.622872
  C    -23.307565   25.028471   45.984322
  H    -23.718171   25.107632   44.970988
  H    -22.679220   24.134069   46.046671
  O    -22.513138   26.232620   46.260311
  C    -24.415143   24.938051   47.039236
  C    -25.427399   26.097107   47.013615
  C    -26.355053   25.679848   45.836455
  C    -26.395324   24.142314   45.949803
  O    -25.225239   23.747862   46.791196
  H    -23.953275   24.812762   48.022127
  H    -25.997986   26.082288   47.949024
  O    -24.873089   27.420252   46.871263
  H    -27.344006   26.138154   45.916197
  H    -25.905341   26.013682   44.895206
  H    -26.320334   23.632439   44.984381
  H    -27.287067   23.780579   46.469927
  H    -23.929526   27.352214   46.594647

 Multiplicity           Mult            ....    1
 Number of Electrons    NEL             ....  102
 Basis Dimension        Dim             ....  149

ORBITAL ENERGIES
----------------

  NO   OCC          E(Eh)            E(eV)
   0   2.0000     -19.164133      -521.4826
   1   2.0000     -19.147938      -521.0419
   2   2.0000     -19.139124      -520.8021
   3   2.0000     -19.113181      -520.0961
   4   2.0000     -10.292373      -280.0697
   5   2.0000     -10.238500      -278.6037
   6   2.0000     -10.231816      -278.4219
   7   2.0000     -10.231213      -278.4055
   8   2.0000     -10.229271      -278.3526
   9   2.0000     -10.225433      -278.2482
  10   2.0000     -10.194051      -277.3942
  11   2.0000     -10.192112      -277.3415
  12   2.0000     -10.178015      -276.9579
  13   2.0000      -1.065554       -28.9952
  14   2.0000      -1.024199       -27.8699
  15   2.0000      -1.006867       -27.3982
  16   2.0000      -0.991881       -26.9905
  17   2.0000      -0.796395       -21.6710
  18   2.0000      -0.772310       -21.0156
  19   2.0000      -0.766976       -20.8705
  20   2.0000      -0.734956       -19.9992
  21   2.0000      -0.678624       -18.4663
  22   2.0000      -0.606065       -16.4919
  23   2.0000      -0.601076       -16.3561
  24   2.0000      -0.593567       -16.1518
  25   2.0000      -0.582413       -15.8483
  26   2.0000      -0.528144       -14.3715
  27   2.0000      -0.522380       -14.2147
  28   2.0000      -0.498889       -13.5755
  29   2.0000      -0.486142       -13.2286
  30   2.0000      -0.472850       -12.8669
  31   2.0000      -0.459438       -12.5019
  32   2.0000      -0.439887       -11.9699
  33   2.0000      -0.438288       -11.9264
  34   2.0000      -0.425083       -11.5671
  35   2.0000      -0.418586       -11.3903
  36   2.0000      -0.406929       -11.0731
  37   2.0000      -0.387622       -10.5477
  38   2.0000      -0.381560       -10.3828
  39   2.0000      -0.366950        -9.9852
  40   2.0000      -0.363443        -9.8898
  41   2.0000      -0.356447        -9.6994
  42   2.0000      -0.346244        -9.4218
  43   2.0000      -0.346177        -9.4200
  44   2.0000      -0.327182        -8.9031
  45   2.0000      -0.314950        -8.5702
  46   2.0000      -0.288725        -7.8566
  47   2.0000      -0.283083        -7.7031
  48   2.0000      -0.260540        -7.0897
  49   2.0000      -0.248713        -6.7678
  50   2.0000      -0.240782        -6.5520
  51   0.0000       0.055431         1.5084
  52   0.0000       0.083867         2.2821
  53   0.0000       0.093527         2.5450
  54   0.0000       0.097968         2.6659
  55   0.0000       0.102977         2.8021

MULLIKEN ATOMIC CHARGES
-----------------------
   0 C :    0.294981
   1 C :   -0.262220
   2 C :   -0.305091
   3 C :   -0.005825
   4 O :   -0.504410
   5 H :    0.150340
   6 H :    0.151155
   7 H :    0.155394
   8 H :    0.147029
   9 H :    0.166913
  10 H :    0.155592
  11 H :    0.146871
  12 C :   -0.018976
  13 H :    0.145199
  14 H :    0.166784
  15 O :   -0.564100
  16 C :    0.057738
  17 C :    0.119966
  18 C :   -0.297773
  19 C :   -0.019381
  20 O :   -0.522063
  21 H :    0.163328
  22 H :    0.145750
  23 O :   -0.646492
  24 H :    0.150683
  25 H :    0.142401
  26 H :    0.141091
  27 H :    0.147560
  28 H :    0.397558
Sum of atomic charges:   -0.0000000

LOEWDIN ATOMIC CHARGES
----------------------
   0 C :    0.177671
   1 C :   -0.216816
   2 C :   -0.216489
   3 C :   -0.027128
   4 O :   -0.321883
   5 H :    0.103558
   6 H :    0.117302
   7 H :    0.122836
   8 H :    0.116919
   9 H :    0.120007
  10 H :    0.109768
  11 H :    0.105284
  12 C :   -0.042070
  13 H :    0.102002
  14 H :    0.117919
  15 O :   -0.342662
  16 C :    0.016296
  17 C :    0.041840
  18 C :   -0.235719
  19 C :   -0.032183
  20 O :   -0.324806
  21 H :    0.118108
  22 H :    0.104774
  23 O :   -0.437442
  24 H :    0.121068
  25 H :    0.109918
  26 H :    0.101357
  27 H :    0.105435
  28 H :    0.285136

  Mayer bond orders larger than 0.100000
B(  0-C ,  1-C ) :   0.9497 B(  0-C ,  4-O ) :   0.9325 B(  0-C ,  5-H ) :   0.9217
B(  0-C , 15-O ) :   0.8177 B(  1-C ,  2-C ) :   0.9555 B(  1-C ,  6-H ) :   0.9383
B(  1-C ,  7-H ) :   0.9364 B(  2-C ,  3-C ) :   0.9529 B(  2-C ,  8-H ) :   0.9447
B(  2-C ,  9-H ) :   0.9424 B(  3-C ,  4-O ) :   0.8309 B(  3-C , 10-H ) :   0.9347
B(  3-C , 11-H ) :   0.9399 B( 12-C , 13-H ) :   0.9286 B( 12-C , 14-H ) :   0.9244
B( 12-C , 15-O ) :   0.7805 B( 12-C , 16-C ) :   0.9011 B( 16-C , 17-C ) :   0.9138
B( 16-C , 20-O ) :   0.8525 B( 16-C , 21-H ) :   0.9285 B( 17-C , 18-C ) :   0.9014
B( 17-C , 22-H ) :   0.9317 B( 17-C , 23-O ) :   0.9324 B( 18-C , 19-C ) :   0.9378
B( 18-C , 24-H ) :   0.9447 B( 18-C , 25-H ) :   0.9445 B( 19-C , 20-O ) :   0.8338
B( 19-C , 26-H ) :   0.9345 B( 19-C , 27-H ) :   0.9391 B( 23-O , 28-H ) :   0.7200

FINAL SINGLE POINT ENERGY      -652.869585053078

DIPOLE MOMENT
-------------
                                X             Y             Z
Electronic contribution:     -0.23359      -2.93336       1.40333
Nuclear contribution   :      0.90669       3.28328      -2.11269
                        -----------------------------------------
Total Dipole Moment    :      0.67310       0.34992      -0.70936
                        -----------------------------------------
Magnitude (a.u.)       :      1.03860
Magnitude (Debye)      :      2.63992

Rotational constants in cm-1:     0.058787     0.013576     0.012595
Rotational constants in MHz :  1762.383233   406.985462   377.585644

                             ****ORCA TERMINATED NORMALLY****
TOTAL RUN TIME: 0 days 0 hours 29 minutes 8 seconds 59 msec
