                         Program Version 4.2.0 -  RELEASE  -
|  1> # Test redundant internal optimization
|  2> #
|  3> ! RKS B3LYP  Opt TightSCF SmallPrint
|  4>
|  5> %basis
|  6>         Basis "6-31G"
|  7> end
|  8>
|  9> %geom
| 10> Constraints
| 11> { D 4  0  15  12  210.0   C } # D for Dihedral angle
| 12> { D 0  15  12  16  270.0   C } # D for Dihedral angle
| 13> { D 0  4  3  2   C } # D for Dihedral angle
| 14> { D 4  3  2  1   C } # D for Dihedral angle
| 15> { D 3  2  1  0   C } # D for Dihedral angle
| 16> { D 2  1  0  4   C } # D for Dihedral angle
| 17> { D 1  0  4  3   C } # D for Dihedral angle
| 18> { D 16  20  19  18   C } # D for Dihedral angle
| 19> { D 20  19  18  17   C } # D for Dihedral angle
| 20> { D 19  18  17  16   C } # D for Dihedral angle
| 21> { D 18  17  16  20   C } # D for Dihedral angle
| 22> { D 17  16  20  19   C } # D for Dihedral angle
| 23> { D 15  12  16  20   C } # D for Dihedral angle
| 24> end
| 25> end
| 26>
| 27>
| 28> #%pal
| 29> #nprocs 8
| 30> #end
| 31>
| 32> * xyz 0 1
| 33> C  -21.048   26.222   46.251
| 34> C  -20.361   27.558   45.944
| 35> C  -20.329   28.222   47.341
| 36> C  -20.110   27.022   48.296
| 37> O  -20.473   25.807   47.535
| 38> H  -20.833   25.428   45.533
| 39> H  -19.344   27.382   45.576
| 40> H  -20.898   28.157   45.201
| 41> H  -19.543   28.978   47.434
| 42> H  -21.289   28.710   47.548
| 43> H  -20.733   27.082   49.195
| 44> H  -19.064   26.913   48.597
| 45> C  -23.389   26.110   45.076
| 46> H  -22.862   25.353   44.482
| 47> H  -24.387   25.722   45.318
| 48> O  -22.586   26.394   46.375
| 49> C  -23.576   27.378   44.197
| 50> C  -22.232   27.892   43.669
| 51> C  -21.966   26.925   42.491
| 52> C  -23.385   26.661   41.927
| 53> O  -24.339   27.054   42.986
| 54> H  -24.157   28.116   44.752
| 55> O  -22.384   29.351   43.159
| 56> H  -21.437   27.873   44.423
| 57> H  -21.291   27.347   41.740
| 58> H  -21.518   25.996   42.861
| 59> H  -23.545   25.608   41.673
| 60> H  -23.607   27.274   41.050
| 61> H  -23.175   29.396   42.401
| 62> *
| 63>
| 64>                          ****END OF INPUT****
 Total Charge           Charge          ....    0
 Multiplicity           Mult            ....    1
 Number of Electrons    NEL             ....  102
FINAL SINGLE POINT ENERGY      -652.784806238225
FINAL SINGLE POINT ENERGY      -652.825658945516
FINAL SINGLE POINT ENERGY      -652.845796033051
FINAL SINGLE POINT ENERGY      -652.849869756504
FINAL SINGLE POINT ENERGY      -652.850640419426
FINAL SINGLE POINT ENERGY      -652.850866136047
FINAL SINGLE POINT ENERGY      -652.850900339370
FINAL SINGLE POINT ENERGY      -652.850924310025
FINAL SINGLE POINT ENERGY      -652.850930427550
                    ***********************HURRAY********************

CARTESIAN COORDINATES (ANGSTROEM)
---------------------------------
  C    -20.938029   26.212525   46.284767
  C    -20.119731   27.494759   46.123187
  C    -20.257076   28.150921   47.525750
  C    -20.276164   26.922440   48.460592
  O    -20.604849   25.763262   47.603648
  H    -20.695603   25.409262   45.578726
  H    -19.075356   27.222182   45.926126
  H    -20.457469   28.153293   45.328126
  H    -19.437066   28.838875   47.749580
  H    -21.202393   28.697981   47.584062
  H    -21.028210   26.994887   49.250477
  H    -19.299131   26.716211   48.908626
  C    -23.203412   26.289242   45.103968
  H    -22.819509   25.440699   44.512829
  H    -24.181278   25.992905   45.489990
  O    -22.375849   26.445030   46.289530
  C    -23.465437   27.464144   44.129905
  C    -22.303786   28.086488   43.337662
  C    -22.058310   27.016382   42.235148
  C    -23.488976   26.495054   41.944349
  O    -24.329904   26.886422   43.094311
  H    -24.037516   28.248636   44.633694
  O    -22.717070   29.359012   42.763941
  H    -21.420699   28.316395   43.919227
  H    -21.581943   27.465219   41.360516
  H    -21.408880   26.218734   42.613367
  H    -23.529517   25.407477   41.828318
  H    -23.925879   26.955486   41.053053
  H    -23.621958   29.267080   42.397527

 Multiplicity           Mult            ....    1
 Number of Electrons    NEL             ....  102
 Basis Dimension        Dim             ....  149

ORBITAL ENERGIES
----------------

  NO   OCC          E(Eh)            E(eV)
   0   2.0000     -19.152426      -521.1640
   1   2.0000     -19.143308      -520.9159
   2   2.0000     -19.140787      -520.8473
   3   2.0000     -19.140444      -520.8380
   4   2.0000     -10.284620      -279.8587
   5   2.0000     -10.246888      -278.8320
   6   2.0000     -10.240037      -278.6456
   7   2.0000     -10.238341      -278.5994
   8   2.0000     -10.234308      -278.4897
   9   2.0000     -10.224847      -278.2322
  10   2.0000     -10.196395      -277.4580
  11   2.0000     -10.189273      -277.2642
  12   2.0000     -10.187256      -277.2093
  13   2.0000      -1.054478       -28.6938
  14   2.0000      -1.045467       -28.4486
  15   2.0000      -1.012760       -27.5586
  16   2.0000      -0.992986       -27.0205
  17   2.0000      -0.787545       -21.4302
  18   2.0000      -0.784675       -21.3521
  19   2.0000      -0.771484       -20.9932
  20   2.0000      -0.737672       -20.0731
  21   2.0000      -0.678761       -18.4700
  22   2.0000      -0.613554       -16.6957
  23   2.0000      -0.605027       -16.4636
  24   2.0000      -0.598641       -16.2899
  25   2.0000      -0.581953       -15.8358
  26   2.0000      -0.527497       -14.3539
  27   2.0000      -0.521623       -14.1941
  28   2.0000      -0.502911       -13.6849
  29   2.0000      -0.488092       -13.2817
  30   2.0000      -0.478483       -13.0202
  31   2.0000      -0.460247       -12.5240
  32   2.0000      -0.456064       -12.4101
  33   2.0000      -0.438357       -11.9283
  34   2.0000      -0.424727       -11.5574
  35   2.0000      -0.422249       -11.4900
  36   2.0000      -0.409411       -11.1406
  37   2.0000      -0.397515       -10.8169
  38   2.0000      -0.381612       -10.3842
  39   2.0000      -0.375148       -10.2083
  40   2.0000      -0.365813        -9.9543
  41   2.0000      -0.355459        -9.6725
  42   2.0000      -0.352863        -9.6019
  43   2.0000      -0.337392        -9.1809
  44   2.0000      -0.314832        -8.5670
  45   2.0000      -0.312537        -8.5046
  46   2.0000      -0.299117        -8.1394
  47   2.0000      -0.277918        -7.5625
  48   2.0000      -0.270928        -7.3723
  49   2.0000      -0.259784        -7.0691
  50   2.0000      -0.240790        -6.5522
  51   0.0000       0.061806         1.6818
  52   0.0000       0.064904         1.7661
  53   0.0000       0.085625         2.3300
  54   0.0000       0.093194         2.5359
  55   0.0000       0.098763         2.6875

MULLIKEN ATOMIC CHARGES
-----------------------
   0 C :    0.302723
   1 C :   -0.283107
   2 C :   -0.299612
   3 C :    0.001479
   4 O :   -0.497693
   5 H :    0.132845
   6 H :    0.146409
   7 H :    0.153918
   8 H :    0.143351
   9 H :    0.163512
  10 H :    0.155626
  11 H :    0.141116
  12 C :    0.000642
  13 H :    0.118870
  14 H :    0.173886
  15 O :   -0.519121
  16 C :    0.042022
  17 C :    0.072772
  18 C :   -0.300502
  19 C :   -0.028323
  20 O :   -0.521622
  21 H :    0.165667
  22 O :   -0.601705
  23 H :    0.159758
  24 H :    0.166394
  25 H :    0.144542
  26 H :    0.151034
  27 H :    0.148516
  28 H :    0.366599
Sum of atomic charges:   -0.0000000

LOEWDIN ATOMIC CHARGES
----------------------
   0 C :    0.183540
   1 C :   -0.232250
   2 C :   -0.215946
   3 C :   -0.025350
   4 O :   -0.302475
   5 H :    0.093574
   6 H :    0.115080
   7 H :    0.113746
   8 H :    0.115206
   9 H :    0.119542
  10 H :    0.109850
  11 H :    0.101711
  12 C :   -0.040075
  13 H :    0.090397
  14 H :    0.126204
  15 O :   -0.337021
  16 C :    0.005444
  17 C :    0.032816
  18 C :   -0.241785
  19 C :   -0.039172
  20 O :   -0.325522
  21 H :    0.116893
  22 O :   -0.414595
  23 H :    0.115553
  24 H :    0.128416
  25 H :    0.112657
  26 H :    0.106015
  27 H :    0.103988
  28 H :    0.283560

  Mayer bond orders larger than 0.100000
B(  0-C ,  1-C ) :   0.9312 B(  0-C ,  4-O ) :   0.9386 B(  0-C ,  5-H ) :   0.9179
B(  0-C , 15-O ) :   0.8348 B(  1-C ,  2-C ) :   0.9518 B(  1-C ,  6-H ) :   0.9333
B(  1-C ,  7-H ) :   0.9087 B(  2-C ,  3-C ) :   0.9544 B(  2-C ,  8-H ) :   0.9443
B(  2-C ,  9-H ) :   0.9433 B(  3-C ,  4-O ) :   0.8327 B(  3-C , 10-H ) :   0.9346
B(  3-C , 11-H ) :   0.9395 B( 12-C , 13-H ) :   0.9231 B( 12-C , 14-H ) :   0.9302
B( 12-C , 15-O ) :   0.8567 B( 12-C , 16-C ) :   0.8715 B( 16-C , 17-C ) :   0.9113
B( 16-C , 20-O ) :   0.8234 B( 16-C , 21-H ) :   0.9254 B( 17-C , 18-C ) :   0.9139
B( 17-C , 22-O ) :   0.8922 B( 17-C , 23-H ) :   0.9042 B( 18-C , 19-C ) :   0.9405
B( 18-C , 24-H ) :   0.9371 B( 18-C , 25-H ) :   0.9334 B( 19-C , 20-O ) :   0.8388
B( 19-C , 26-H ) :   0.9345 B( 19-C , 27-H ) :   0.9381 B( 22-O , 28-H ) :   0.7921

FINAL SINGLE POINT ENERGY      -652.850953081664

DIPOLE MOMENT
-------------
                                X             Y             Z
Electronic contribution:     -3.77462      -1.06046       0.71825
Nuclear contribution   :      4.41863       1.20548      -1.42486
                        -----------------------------------------
Total Dipole Moment    :      0.64402       0.14502      -0.70660
                        -----------------------------------------
Magnitude (a.u.)       :      0.96699
Magnitude (Debye)      :      2.45790

Rotational constants in cm-1:     0.054686     0.013659     0.012487
Rotational constants in MHz :  1639.450742   409.472416   374.344890

                             ****ORCA TERMINATED NORMALLY****
TOTAL RUN TIME: 0 days 0 hours 29 minutes 28 seconds 313 msec
