                         Program Version 4.2.0 -  RELEASE  -
|  1> # Test redundant internal optimization
|  2> #
|  3> ! RKS B3LYP  Opt TightSCF SmallPrint
|  4>
|  5> %basis
|  6>         Basis "6-31G"
|  7> end
|  8>
|  9> %geom
| 10> Constraints
| 11> { D 4  0  15  12  240.0   C } # D for Dihedral angle
| 12> { D 0  15  12  16  195.0   C } # D for Dihedral angle
| 13> { D 0  4  3  2   C } # D for Dihedral angle
| 14> { D 4  3  2  1   C } # D for Dihedral angle
| 15> { D 3  2  1  0   C } # D for Dihedral angle
| 16> { D 2  1  0  4   C } # D for Dihedral angle
| 17> { D 1  0  4  3   C } # D for Dihedral angle
| 18> { D 16  20  19  18   C } # D for Dihedral angle
| 19> { D 20  19  18  17   C } # D for Dihedral angle
| 20> { D 19  18  17  16   C } # D for Dihedral angle
| 21> { D 18  17  16  20   C } # D for Dihedral angle
| 22> { D 17  16  20  19   C } # D for Dihedral angle
| 23> { D 15  12  16  20   C } # D for Dihedral angle
| 24> end
| 25> end
| 26>
| 27>
| 28> #%pal
| 29> #nprocs 8
| 30> #end
| 31>
| 32> * xyz 0 1
| 33> C  -21.048   26.222   46.251
| 34> C  -20.361   27.558   45.944
| 35> C  -20.329   28.222   47.341
| 36> C  -20.110   27.022   48.296
| 37> O  -20.473   25.807   47.535
| 38> H  -20.833   25.428   45.533
| 39> H  -19.344   27.382   45.576
| 40> H  -20.898   28.157   45.201
| 41> H  -19.543   28.978   47.434
| 42> H  -21.289   28.710   47.548
| 43> H  -20.733   27.082   49.195
| 44> H  -19.064   26.913   48.597
| 45> C  -23.430   25.483   45.442
| 46> H  -22.991   25.488   44.437
| 47> H  -23.428   24.449   45.811
| 48> O  -22.586   26.394   46.375
| 49> C  -24.910   25.943   45.331
| 50> C  -25.016   27.318   44.663
| 51> C  -24.856   26.954   43.168
| 52> C  -25.563   25.579   43.064
| 53> O  -25.659   25.050   44.441
| 54> H  -25.378   25.880   46.315
| 55> O  -26.417   27.933   44.931
| 56> H  -24.257   28.027   45.012
| 57> H  -25.296   27.701   42.500
| 58> H  -23.793   26.863   42.915
| 59> H  -25.008   24.868   42.443
| 60> H  -26.583   25.663   42.679
| 61> H  -27.195   27.241   44.589
| 62> *
| 63>
| 64>                          ****END OF INPUT****
 Total Charge           Charge          ....    0
 Multiplicity           Mult            ....    1
 Number of Electrons    NEL             ....  102
FINAL SINGLE POINT ENERGY      -652.836439313433
FINAL SINGLE POINT ENERGY      -652.859459975932
FINAL SINGLE POINT ENERGY      -652.862956421059
FINAL SINGLE POINT ENERGY      -652.863574758819
FINAL SINGLE POINT ENERGY      -652.863667056940
FINAL SINGLE POINT ENERGY      -652.863678603934
FINAL SINGLE POINT ENERGY      -652.863681520541
                    ***********************HURRAY********************

CARTESIAN COORDINATES (ANGSTROEM)
---------------------------------
  C    -21.094871   26.149459   46.199533
  C    -20.473972   27.510662   45.887472
  C    -20.548948   28.218929   47.261621
  C    -20.309292   27.063767   48.258152
  O    -20.570200   25.814397   47.498567
  H    -20.819628   25.336463   45.521939
  H    -19.431384   27.372849   45.576709
  H    -21.009951   28.041963   45.097546
  H    -19.810880   29.019947   47.363984
  H    -21.546628   28.645943   47.400495
  H    -20.979294   27.094596   49.120800
  H    -19.273079   27.008280   48.604882
  C    -23.320082   25.397634   45.409287
  H    -22.880780   25.338359   44.402903
  H    -23.350303   24.385777   45.831101
  O    -22.539830   26.289786   46.254341
  C    -24.738282   25.960663   45.338515
  C    -24.857163   27.346020   44.687725
  C    -24.805583   26.990221   43.179649
  C    -25.549285   25.632174   43.112027
  O    -25.565426   25.091389   44.494614
  H    -25.181249   25.961783   46.337945
  O    -26.115954   27.980677   45.046604
  H    -24.076957   28.033903   45.007541
  H    -25.286776   27.769093   42.582771
  H    -23.767027   26.894259   42.844319
  H    -25.058920   24.908696   42.453044
  H    -26.591877   25.739221   42.797278
  H    -26.837378   27.318091   44.995634

 Multiplicity           Mult            ....    1
 Number of Electrons    NEL             ....  102
 Basis Dimension        Dim             ....  149

ORBITAL ENERGIES
----------------

  NO   OCC          E(Eh)            E(eV)
   0   2.0000     -19.146380      -520.9995
   1   2.0000     -19.145060      -520.9636
   2   2.0000     -19.139373      -520.8088
   3   2.0000     -19.136799      -520.7388
   4   2.0000     -10.281956      -279.7862
   5   2.0000     -10.237446      -278.5751
   6   2.0000     -10.234233      -278.4876
   7   2.0000     -10.233884      -278.4781
   8   2.0000     -10.233831      -278.4767
   9   2.0000     -10.224422      -278.2207
  10   2.0000     -10.190184      -277.2890
  11   2.0000     -10.187444      -277.2145
  12   2.0000     -10.185920      -277.1730
  13   2.0000      -1.053820       -28.6759
  14   2.0000      -1.037387       -28.2287
  15   2.0000      -1.005705       -27.3666
  16   2.0000      -0.996879       -27.1265
  17   2.0000      -0.789575       -21.4854
  18   2.0000      -0.780271       -21.2323
  19   2.0000      -0.769085       -20.9279
  20   2.0000      -0.730572       -19.8799
  21   2.0000      -0.675735       -18.3877
  22   2.0000      -0.605840       -16.4857
  23   2.0000      -0.599243       -16.3062
  24   2.0000      -0.589996       -16.0546
  25   2.0000      -0.587604       -15.9895
  26   2.0000      -0.523362       -14.2414
  27   2.0000      -0.521012       -14.1774
  28   2.0000      -0.496699       -13.5159
  29   2.0000      -0.490234       -13.3399
  30   2.0000      -0.471125       -12.8200
  31   2.0000      -0.457297       -12.4437
  32   2.0000      -0.452565       -12.3149
  33   2.0000      -0.440181       -11.9779
  34   2.0000      -0.426207       -11.5977
  35   2.0000      -0.414471       -11.2783
  36   2.0000      -0.403048       -10.9675
  37   2.0000      -0.393793       -10.7157
  38   2.0000      -0.375728       -10.2241
  39   2.0000      -0.369100       -10.0437
  40   2.0000      -0.361592        -9.8394
  41   2.0000      -0.356945        -9.7130
  42   2.0000      -0.351912        -9.5760
  43   2.0000      -0.331971        -9.0334
  44   2.0000      -0.318511        -8.6671
  45   2.0000      -0.311342        -8.4721
  46   2.0000      -0.306019        -8.3272
  47   2.0000      -0.272352        -7.4111
  48   2.0000      -0.265815        -7.2332
  49   2.0000      -0.254250        -6.9185
  50   2.0000      -0.244079        -6.6417
  51   0.0000       0.062210         1.6928
  52   0.0000       0.069935         1.9030
  53   0.0000       0.089430         2.4335
  54   0.0000       0.093931         2.5560
  55   0.0000       0.104166         2.8345

MULLIKEN ATOMIC CHARGES
-----------------------
   0 C :    0.286177
   1 C :   -0.253826
   2 C :   -0.301185
   3 C :   -0.001121
   4 O :   -0.501124
   5 H :    0.141799
   6 H :    0.143886
   7 H :    0.142540
   8 H :    0.142233
   9 H :    0.165265
  10 H :    0.153705
  11 H :    0.141306
  12 C :   -0.002484
  13 H :    0.124090
  14 H :    0.158239
  15 O :   -0.524489
  16 C :    0.051051
  17 C :    0.089621
  18 C :   -0.299382
  19 C :   -0.035454
  20 O :   -0.525471
  21 H :    0.173022
  22 O :   -0.602300
  23 H :    0.169406
  24 H :    0.163691
  25 H :    0.141085
  26 H :    0.147162
  27 H :    0.149318
  28 H :    0.363241
Sum of atomic charges:   -0.0000000

LOEWDIN ATOMIC CHARGES
----------------------
   0 C :    0.176683
   1 C :   -0.221248
   2 C :   -0.216526
   3 C :   -0.026090
   4 O :   -0.315118
   5 H :    0.099965
   6 H :    0.112920
   7 H :    0.115638
   8 H :    0.114460
   9 H :    0.120420
  10 H :    0.108993
  11 H :    0.102177
  12 C :   -0.036888
  13 H :    0.089201
  14 H :    0.109953
  15 O :   -0.337799
  16 C :    0.017336
  17 C :    0.037980
  18 C :   -0.242204
  19 C :   -0.039905
  20 O :   -0.329360
  21 H :    0.121634
  22 O :   -0.414295
  23 H :    0.123508
  24 H :    0.127213
  25 H :    0.111340
  26 H :    0.103946
  27 H :    0.103984
  28 H :    0.282081

  Mayer bond orders larger than 0.100000
B(  0-C ,  1-C ) :   0.9414 B(  0-C ,  4-O ) :   0.9349 B(  0-C ,  5-H ) :   0.9208
B(  0-C , 15-O ) :   0.8347 B(  1-C ,  2-C ) :   0.9570 B(  1-C ,  6-H ) :   0.9365
B(  1-C ,  7-H ) :   0.9384 B(  2-C ,  3-C ) :   0.9540 B(  2-C ,  8-H ) :   0.9450
B(  2-C ,  9-H ) :   0.9430 B(  3-C ,  4-O ) :   0.8365 B(  3-C , 10-H ) :   0.9345
B(  3-C , 11-H ) :   0.9398 B( 12-C , 13-H ) :   0.9180 B( 12-C , 14-H ) :   0.9154
B( 12-C , 15-O ) :   0.8283 B( 12-C , 16-C ) :   0.9100 B( 16-C , 17-C ) :   0.9101
B( 16-C , 20-O ) :   0.8425 B( 16-C , 21-H ) :   0.9237 B( 17-C , 18-C ) :   0.9107
B( 17-C , 22-O ) :   0.8929 B( 17-C , 23-H ) :   0.9243 B( 18-C , 19-C ) :   0.9437
B( 18-C , 24-H ) :   0.9372 B( 18-C , 25-H ) :   0.9352 B( 19-C , 20-O ) :   0.8439
B( 19-C , 26-H ) :   0.9349 B( 19-C , 27-H ) :   0.9375 B( 22-O , 28-H ) :   0.7954

FINAL SINGLE POINT ENERGY      -652.863682007208

DIPOLE MOMENT
-------------
                                X             Y             Z
Electronic contribution:     -3.41373      -3.16375       2.26706
Nuclear contribution   :      4.08068       3.51655      -3.24626
                        -----------------------------------------
Total Dipole Moment    :      0.66695       0.35279      -0.97920
                        -----------------------------------------
Magnitude (a.u.)       :      1.23617
Magnitude (Debye)      :      3.14210

Rotational constants in cm-1:     0.057131     0.012317     0.011632
Rotational constants in MHz :  1712.753007   369.261137   348.705443

                             ****ORCA TERMINATED NORMALLY****
TOTAL RUN TIME: 0 days 0 hours 42 minutes 44 seconds 482 msec
