                         Program Version 4.2.0 -  RELEASE  -
|  1> # Test redundant internal optimization
|  2> #
|  3> ! RKS B3LYP  Opt TightSCF SmallPrint
|  4>
|  5> %basis
|  6>         Basis "6-31G"
|  7> end
|  8>
|  9> %geom
| 10> Constraints
| 11> { D 4  0  15  12  255.0   C } # D for Dihedral angle
| 12> { D 0  15  12  16  30.0   C } # D for Dihedral angle
| 13> { D 0  4  3  2   C } # D for Dihedral angle
| 14> { D 4  3  2  1   C } # D for Dihedral angle
| 15> { D 3  2  1  0   C } # D for Dihedral angle
| 16> { D 2  1  0  4   C } # D for Dihedral angle
| 17> { D 1  0  4  3   C } # D for Dihedral angle
| 18> { D 16  20  19  18   C } # D for Dihedral angle
| 19> { D 20  19  18  17   C } # D for Dihedral angle
| 20> { D 19  18  17  16   C } # D for Dihedral angle
| 21> { D 18  17  16  20   C } # D for Dihedral angle
| 22> { D 17  16  20  19   C } # D for Dihedral angle
| 23> { D 15  12  16  20   C } # D for Dihedral angle
| 24> end
| 25> end
| 26>
| 27>
| 28> #%pal
| 29> #nprocs 8
| 30> #end
| 31>
| 32> * xyz 0 1
| 33> C  -21.048   26.222   46.251
| 34> C  -20.361   27.558   45.944
| 35> C  -20.329   28.222   47.341
| 36> C  -20.110   27.022   48.296
| 37> O  -20.473   25.807   47.535
| 38> H  -20.833   25.428   45.533
| 39> H  -19.344   27.382   45.576
| 40> H  -20.898   28.157   45.201
| 41> H  -19.543   28.978   47.434
| 42> H  -21.289   28.710   47.548
| 43> H  -20.733   27.082   49.195
| 44> H  -19.064   26.913   48.597
| 45> C  -23.431   25.260   45.734
| 46> H  -24.377   25.160   46.280
| 47> H  -23.663   25.498   44.687
| 48> O  -22.586   26.394   46.375
| 49> C  -22.707   23.885   45.756
| 50> C  -22.494   23.391   47.191
| 51> C  -23.894   22.833   47.542
| 52> C  -24.384   22.243   46.195
| 53> O  -23.548   22.853   45.140
| 54> H  -21.795   23.952   45.160
| 55> H  -21.744   22.592   47.206
| 56> O  -22.033   24.514   48.161
| 57> H  -23.865   22.084   48.339
| 58> H  -24.552   23.647   47.870
| 59> H  -25.436   22.472   45.996
| 60> H  -24.241   21.161   46.136
| 61> H  -22.769   25.325   48.161
| 62> *
| 63>
| 64>                          ****END OF INPUT****
 Total Charge           Charge          ....    0
 Multiplicity           Mult            ....    1
 Number of Electrons    NEL             ....  102
FINAL SINGLE POINT ENERGY      -652.790663814434
FINAL SINGLE POINT ENERGY      -652.829716671704
FINAL SINGLE POINT ENERGY      -652.847399512556
FINAL SINGLE POINT ENERGY      -652.852744321949
FINAL SINGLE POINT ENERGY      -652.855762495069
FINAL SINGLE POINT ENERGY      -652.858297121371
FINAL SINGLE POINT ENERGY      -652.859451835017
FINAL SINGLE POINT ENERGY      -652.859962898904
FINAL SINGLE POINT ENERGY      -652.860479549440
FINAL SINGLE POINT ENERGY      -652.860766891635
FINAL SINGLE POINT ENERGY      -652.861193154739
FINAL SINGLE POINT ENERGY      -652.861693759205
FINAL SINGLE POINT ENERGY      -652.861963321555
FINAL SINGLE POINT ENERGY      -652.862108996316
FINAL SINGLE POINT ENERGY      -652.862146305525
FINAL SINGLE POINT ENERGY      -652.862152238556
FINAL SINGLE POINT ENERGY      -652.862158213636
                    ***********************HURRAY********************

CARTESIAN COORDINATES (ANGSTROEM)
---------------------------------
  C    -20.936345   26.227510   46.268140
  C    -20.387936   27.620043   45.941579
  C    -20.537463   28.350296   47.301673
  C    -20.253345   27.227173   48.329414
  O    -20.422124   25.948326   47.589938
  H    -20.575071   25.428625   45.617217
  H    -19.332884   27.544651   45.653828
  H    -20.948553   28.091521   45.133211
  H    -19.846064   29.190658   47.408929
  H    -21.560788   28.718836   47.410515
  H    -20.946513   27.228016   49.173402
  H    -19.224397   27.234218   48.698409
  C    -23.201559   25.236745   45.710196
  H    -24.139360   25.319176   46.262992
  H    -23.405124   25.459005   44.655765
  O    -22.372687   26.324285   46.258844
  C    -22.695815   23.781322   45.780389
  C    -22.527734   23.165915   47.186329
  C    -24.011633   22.848273   47.580572
  C    -24.633360   22.444463   46.226927
  O    -23.732961   22.956360   45.161045
  H    -21.802829   23.644562   45.162444
  H    -21.967707   22.225278   47.064056
  O    -21.995765   23.936239   48.267904
  H    -24.065602   22.058501   48.333664
  H    -24.446610   23.759611   47.997829
  H    -25.633309   22.860481   46.066094
  H    -24.682201   21.358849   46.095309
  H    -21.258261   24.556061   48.043389

 Multiplicity           Mult            ....    1
 Number of Electrons    NEL             ....  102
 Basis Dimension        Dim             ....  149

ORBITAL ENERGIES
----------------

  NO   OCC          E(Eh)            E(eV)
   0   2.0000     -19.165674      -521.5245
   1   2.0000     -19.147796      -521.0380
   2   2.0000     -19.138345      -520.7808
   3   2.0000     -19.099153      -519.7144
   4   2.0000     -10.292887      -280.0837
   5   2.0000     -10.238944      -278.6158
   6   2.0000     -10.233107      -278.4570
   7   2.0000     -10.228525      -278.3323
   8   2.0000     -10.226960      -278.2897
   9   2.0000     -10.221248      -278.1343
  10   2.0000     -10.194048      -277.3942
  11   2.0000     -10.193337      -277.3748
  12   2.0000     -10.172378      -276.8045
  13   2.0000      -1.067860       -29.0580
  14   2.0000      -1.022569       -27.8255
  15   2.0000      -1.003737       -27.3131
  16   2.0000      -0.982201       -26.7270
  17   2.0000      -0.796420       -21.6717
  18   2.0000      -0.766693       -20.8628
  19   2.0000      -0.760348       -20.6901
  20   2.0000      -0.739397       -20.1200
  21   2.0000      -0.675116       -18.3708
  22   2.0000      -0.611242       -16.6327
  23   2.0000      -0.606374       -16.5003
  24   2.0000      -0.588135       -16.0040
  25   2.0000      -0.571207       -15.5433
  26   2.0000      -0.532505       -14.4902
  27   2.0000      -0.510658       -13.8957
  28   2.0000      -0.497501       -13.5377
  29   2.0000      -0.492149       -13.3921
  30   2.0000      -0.467010       -12.7080
  31   2.0000      -0.457409       -12.4467
  32   2.0000      -0.445438       -12.1210
  33   2.0000      -0.432031       -11.7562
  34   2.0000      -0.425003       -11.5649
  35   2.0000      -0.417884       -11.3712
  36   2.0000      -0.402020       -10.9395
  37   2.0000      -0.379912       -10.3379
  38   2.0000      -0.376079       -10.2336
  39   2.0000      -0.366913        -9.9842
  40   2.0000      -0.359344        -9.7782
  41   2.0000      -0.358329        -9.7506
  42   2.0000      -0.346759        -9.4358
  43   2.0000      -0.341184        -9.2841
  44   2.0000      -0.325434        -8.8555
  45   2.0000      -0.313124        -8.5205
  46   2.0000      -0.291138        -7.9223
  47   2.0000      -0.264771        -7.2048
  48   2.0000      -0.262791        -7.1509
  49   2.0000      -0.244418        -6.6510
  50   2.0000      -0.232721        -6.3327
  51   0.0000       0.060412         1.6439
  52   0.0000       0.084838         2.3086
  53   0.0000       0.093719         2.5502
  54   0.0000       0.098523         2.6810
  55   0.0000       0.103725         2.8225

MULLIKEN ATOMIC CHARGES
-----------------------
   0 C :    0.274080
   1 C :   -0.246426
   2 C :   -0.299924
   3 C :    0.003924
   4 O :   -0.548183
   5 H :    0.152842
   6 H :    0.144856
   7 H :    0.159611
   8 H :    0.146039
   9 H :    0.171843
  10 H :    0.167590
  11 H :    0.151642
  12 C :    0.008761
  13 H :    0.156040
  14 H :    0.149742
  15 O :   -0.525055
  16 C :    0.026642
  17 C :    0.126235
  18 C :   -0.292694
  19 C :   -0.024554
  20 O :   -0.523947
  21 H :    0.143653
  22 H :    0.126941
  23 O :   -0.657930
  24 H :    0.152182
  25 H :    0.159827
  26 H :    0.140623
  27 H :    0.147254
  28 H :    0.408387
Sum of atomic charges:   -0.0000000

LOEWDIN ATOMIC CHARGES
----------------------
   0 C :    0.169660
   1 C :   -0.211948
   2 C :   -0.212812
   3 C :   -0.020536
   4 O :   -0.320570
   5 H :    0.101260
   6 H :    0.113117
   7 H :    0.125537
   8 H :    0.116596
   9 H :    0.124302
  10 H :    0.116484
  11 H :    0.107766
  12 C :   -0.040689
  13 H :    0.116111
  14 H :    0.105313
  15 O :   -0.327579
  16 C :    0.000698
  17 C :    0.041819
  18 C :   -0.224516
  19 C :   -0.035476
  20 O :   -0.320639
  21 H :    0.102744
  22 H :    0.090414
  23 O :   -0.450442
  24 H :    0.121853
  25 H :    0.118507
  26 H :    0.100682
  27 H :    0.104436
  28 H :    0.287911

  Mayer bond orders larger than 0.100000
B(  0-C ,  1-C ) :   0.9486 B(  0-C ,  4-O ) :   0.8462 B(  0-C ,  5-H ) :   0.9140
B(  0-C , 15-O ) :   0.8869 B(  1-C ,  2-C ) :   0.9568 B(  1-C ,  6-H ) :   0.9382
B(  1-C ,  7-H ) :   0.9392 B(  2-C ,  3-C ) :   0.9571 B(  2-C ,  8-H ) :   0.9448
B(  2-C ,  9-H ) :   0.9415 B(  3-C ,  4-O ) :   0.7920 B(  3-C , 10-H ) :   0.9343
B(  3-C , 11-H ) :   0.9409 B(  4-O , 28-H ) :   0.1175 B( 12-C , 13-H ) :   0.9366
B( 12-C , 14-H ) :   0.9249 B( 12-C , 15-O ) :   0.8157 B( 12-C , 16-C ) :   0.8900
B( 16-C , 17-C ) :   0.8856 B( 16-C , 20-O ) :   0.8374 B( 16-C , 21-H ) :   0.9276
B( 17-C , 18-C ) :   0.9223 B( 17-C , 22-H ) :   0.9169 B( 17-C , 23-O ) :   0.9546
B( 18-C , 19-C ) :   0.9414 B( 18-C , 24-H ) :   0.9443 B( 18-C , 25-H ) :   0.9388
B( 19-C , 20-O ) :   0.8254 B( 19-C , 26-H ) :   0.9352 B( 19-C , 27-H ) :   0.9390
B( 23-O , 28-H ) :   0.6834

FINAL SINGLE POINT ENERGY      -652.862158756097

DIPOLE MOMENT
-------------
                                X             Y             Z
Electronic contribution:      0.32955      -2.34702      -0.96078
Nuclear contribution   :      0.22893       3.23945       0.72314
                        -----------------------------------------
Total Dipole Moment    :      0.55848       0.89244      -0.23764
                        -----------------------------------------
Magnitude (a.u.)       :      1.07927
Magnitude (Debye)      :      2.74328

Rotational constants in cm-1:     0.061211     0.015092     0.013303
Rotational constants in MHz :  1835.073309   452.435122   398.827263

                             ****ORCA TERMINATED NORMALLY****
TOTAL RUN TIME: 0 days 3 hours 57 minutes 26 seconds 10 msec
