                         Program Version 4.2.0 -  RELEASE  -
|  1> # Test redundant internal optimization
|  2> #
|  3> ! RKS B3LYP  Opt TightSCF SmallPrint
|  4>
|  5> %basis
|  6>         Basis "6-31G"
|  7> end
|  8>
|  9> %geom
| 10> Constraints
| 11> { D 4  0  15  12  270.0   C } # D for Dihedral angle
| 12> { D 0  15  12  16  270.0   C } # D for Dihedral angle
| 13> { D 0  4  3  2   C } # D for Dihedral angle
| 14> { D 4  3  2  1   C } # D for Dihedral angle
| 15> { D 3  2  1  0   C } # D for Dihedral angle
| 16> { D 2  1  0  4   C } # D for Dihedral angle
| 17> { D 1  0  4  3   C } # D for Dihedral angle
| 18> { D 16  20  19  18   C } # D for Dihedral angle
| 19> { D 20  19  18  17   C } # D for Dihedral angle
| 20> { D 19  18  17  16   C } # D for Dihedral angle
| 21> { D 18  17  16  20   C } # D for Dihedral angle
| 22> { D 17  16  20  19   C } # D for Dihedral angle
| 23> { D 15  12  16  20   C } # D for Dihedral angle
| 24> end
| 25> end
| 26>
| 27>
| 28> #%pal
| 29> #nprocs 8
| 30> #end
| 31>
| 32> * xyz 0 1
| 33> C  -21.048   26.222   46.251
| 34> C  -20.361   27.558   45.944
| 35> C  -20.329   28.222   47.341
| 36> C  -20.110   27.022   48.296
| 37> O  -20.473   25.807   47.535
| 38> H  -20.833   25.428   45.533
| 39> H  -19.344   27.382   45.576
| 40> H  -20.898   28.157   45.201
| 41> H  -19.543   28.978   47.434
| 42> H  -21.289   28.710   47.548
| 43> H  -20.733   27.082   49.195
| 44> H  -19.064   26.913   48.597
| 45> C  -23.420   25.119   46.072
| 46> H  -22.837   24.231   46.348
| 47> H  -24.346   25.117   46.661
| 48> O  -22.586   26.394   46.375
| 49> C  -23.812   24.999   44.573
| 50> C  -24.555   26.251   44.091
| 51> C  -23.387   27.241   43.865
| 52> C  -22.244   26.327   43.356
| 53> O  -22.612   24.945   43.733
| 54> H  -24.353   24.065   44.419
| 55> H  -25.071   26.040   43.148
| 56> O  -25.599   26.774   45.115
| 57> H  -23.635   28.035   43.154
| 58> H  -23.108   27.716   44.813
| 59> H  -21.276   26.577   43.804
| 60> H  -22.146   26.349   42.267
| 61> H  -25.103   26.991   46.067
| 62> *
| 63>
| 64>                          ****END OF INPUT****
 Total Charge           Charge          ....    0
 Multiplicity           Mult            ....    1
 Number of Electrons    NEL             ....  102
FINAL SINGLE POINT ENERGY      -652.832004472909
FINAL SINGLE POINT ENERGY      -652.856857966828
FINAL SINGLE POINT ENERGY      -652.862734702145
FINAL SINGLE POINT ENERGY      -652.865950373861
FINAL SINGLE POINT ENERGY      -652.866301505386
FINAL SINGLE POINT ENERGY      -652.866353540078
FINAL SINGLE POINT ENERGY      -652.866356961942
                    ***********************HURRAY********************

CARTESIAN COORDINATES (ANGSTROEM)
---------------------------------
  C    -21.004175   26.192495   46.297437
  C    -20.369371   27.563220   46.060590
  C    -20.363399   28.164000   47.487601
  C    -20.101241   26.929177   48.378721
  O    -20.423990   25.748133   47.541714
  H    -20.799086   25.421674   45.553189
  H    -19.346109   27.425967   45.691854
  H    -20.925842   28.167657   45.341797
  H    -19.602062   28.939367   47.615381
  H    -21.342953   28.598514   47.708258
  H    -20.725850   26.907788   49.275207
  H    -19.050755   26.830141   48.668134
  C    -23.262284   25.216312   46.137301
  H    -22.725855   24.310131   46.443825
  H    -24.157090   25.305847   46.761468
  O    -22.440814   26.388386   46.432541
  C    -23.697072   25.084180   44.679669
  C    -24.568715   26.229168   44.130102
  C    -23.491016   27.247288   43.646915
  C    -22.360522   26.330824   43.132544
  O    -22.598449   24.985293   43.722512
  H    -24.236013   24.130377   44.611566
  H    -25.173218   25.868834   43.295323
  O    -25.520789   26.767626   45.076071
  H    -23.872722   27.920468   42.873850
  H    -23.160387   27.838093   44.505792
  H    -21.363871   26.675660   43.421198
  H    -22.387537   26.203958   42.045630
  H    -25.043811   27.261424   45.775809

 Multiplicity           Mult            ....    1
 Number of Electrons    NEL             ....  102
 Basis Dimension        Dim             ....  149

ORBITAL ENERGIES
----------------

  NO   OCC          E(Eh)            E(eV)
   0   2.0000     -19.148509      -521.0574
   1   2.0000     -19.144108      -520.9377
   2   2.0000     -19.143424      -520.9190
   3   2.0000     -19.139295      -520.8067
   4   2.0000     -10.278018      -279.6791
   5   2.0000     -10.240925      -278.6697
   6   2.0000     -10.232454      -278.4392
   7   2.0000     -10.231369      -278.4097
   8   2.0000     -10.229729      -278.3651
   9   2.0000     -10.225469      -278.2492
  10   2.0000     -10.188983      -277.2563
  11   2.0000     -10.187754      -277.2229
  12   2.0000     -10.187210      -277.2081
  13   2.0000      -1.054695       -28.6997
  14   2.0000      -1.031760       -28.0756
  15   2.0000      -1.014978       -27.6190
  16   2.0000      -0.994445       -27.0602
  17   2.0000      -0.790472       -21.5098
  18   2.0000      -0.776958       -21.1421
  19   2.0000      -0.768695       -20.9173
  20   2.0000      -0.732189       -19.9239
  21   2.0000      -0.680554       -18.5188
  22   2.0000      -0.608219       -16.5505
  23   2.0000      -0.601609       -16.3706
  24   2.0000      -0.597603       -16.2616
  25   2.0000      -0.572035       -15.5659
  26   2.0000      -0.527980       -14.3671
  27   2.0000      -0.509549       -13.8655
  28   2.0000      -0.503648       -13.7050
  29   2.0000      -0.488351       -13.2887
  30   2.0000      -0.464864       -12.6496
  31   2.0000      -0.458736       -12.4829
  32   2.0000      -0.447956       -12.1895
  33   2.0000      -0.437298       -11.8995
  34   2.0000      -0.425735       -11.5848
  35   2.0000      -0.411513       -11.1978
  36   2.0000      -0.409835       -11.1522
  37   2.0000      -0.397514       -10.8169
  38   2.0000      -0.385397       -10.4872
  39   2.0000      -0.364288        -9.9128
  40   2.0000      -0.361814        -9.8455
  41   2.0000      -0.356400        -9.6981
  42   2.0000      -0.347614        -9.4591
  43   2.0000      -0.332424        -9.0457
  44   2.0000      -0.325752        -8.8642
  45   2.0000      -0.312584        -8.5058
  46   2.0000      -0.306658        -8.3446
  47   2.0000      -0.278195        -7.5701
  48   2.0000      -0.265753        -7.2315
  49   2.0000      -0.254467        -6.9244
  50   2.0000      -0.240698        -6.5497
  51   0.0000       0.066257         1.8030
  52   0.0000       0.073250         1.9932
  53   0.0000       0.085108         2.3159
  54   0.0000       0.096987         2.6391
  55   0.0000       0.102478         2.7886

MULLIKEN ATOMIC CHARGES
-----------------------
   0 C :    0.276680
   1 C :   -0.267841
   2 C :   -0.301217
   3 C :   -0.000121
   4 O :   -0.509226
   5 H :    0.175068
   6 H :    0.148522
   7 H :    0.148312
   8 H :    0.142183
   9 H :    0.158576
  10 H :    0.148824
  11 H :    0.142528
  12 C :   -0.050950
  13 H :    0.162064
  14 H :    0.154965
  15 O :   -0.532499
  16 C :    0.098908
  17 C :    0.091061
  18 C :   -0.320198
  19 C :   -0.017474
  20 O :   -0.524848
  21 H :    0.149883
  22 H :    0.164179
  23 O :   -0.605777
  24 H :    0.148778
  25 H :    0.162487
  26 H :    0.138519
  27 H :    0.151081
  28 H :    0.367533
Sum of atomic charges:   -0.0000000

LOEWDIN ATOMIC CHARGES
----------------------
   0 C :    0.168541
   1 C :   -0.219057
   2 C :   -0.216232
   3 C :   -0.026528
   4 O :   -0.322199
   5 H :    0.113791
   6 H :    0.115678
   7 H :    0.116138
   8 H :    0.113849
   9 H :    0.117170
  10 H :    0.106436
  11 H :    0.102755
  12 C :   -0.051469
  13 H :    0.114532
  14 H :    0.116536
  15 O :   -0.342720
  16 C :    0.008610
  17 C :    0.038117
  18 C :   -0.243521
  19 C :   -0.030326
  20 O :   -0.326763
  21 H :    0.115029
  22 H :    0.117239
  23 O :   -0.408997
  24 H :    0.117751
  25 H :    0.117101
  26 H :    0.098405
  27 H :    0.105581
  28 H :    0.284555

  Mayer bond orders larger than 0.100000
B(  0-C ,  1-C ) :   0.9446 B(  0-C ,  4-O ) :   0.9098 B(  0-C ,  5-H ) :   0.9068
B(  0-C , 15-O ) :   0.8321 B(  1-C ,  2-C ) :   0.9532 B(  1-C ,  6-H ) :   0.9395
B(  1-C ,  7-H ) :   0.9334 B(  2-C ,  3-C ) :   0.9549 B(  2-C ,  8-H ) :   0.9452
B(  2-C ,  9-H ) :   0.9449 B(  3-C ,  4-O ) :   0.8384 B(  3-C , 10-H ) :   0.9354
B(  3-C , 11-H ) :   0.9401 B( 12-C , 13-H ) :   0.9233 B( 12-C , 14-H ) :   0.9213
B( 12-C , 15-O ) :   0.8561 B( 12-C , 16-C ) :   0.8945 B( 16-C , 17-C ) :   0.8851
B( 16-C , 20-O ) :   0.8640 B( 16-C , 21-H ) :   0.9233 B( 17-C , 18-C ) :   0.9262
B( 17-C , 22-H ) :   0.9360 B( 17-C , 23-O ) :   0.9058 B( 18-C , 19-C ) :   0.9454
B( 18-C , 24-H ) :   0.9407 B( 18-C , 25-H ) :   0.9257 B( 19-C , 20-O ) :   0.8365
B( 19-C , 26-H ) :   0.9259 B( 19-C , 27-H ) :   0.9378 B( 23-O , 28-H ) :   0.7908

FINAL SINGLE POINT ENERGY      -652.866355817886

DIPOLE MOMENT
-------------
                                X             Y             Z
Electronic contribution:     -2.77689      -4.50367      -0.03878
Nuclear contribution   :      3.30890       5.49661      -0.05022
                        -----------------------------------------
Total Dipole Moment    :      0.53201       0.99294      -0.08900
                        -----------------------------------------
Magnitude (a.u.)       :      1.12999
Magnitude (Debye)      :      2.87222

Rotational constants in cm-1:     0.048583     0.015959     0.015471
Rotational constants in MHz :  1456.490556   478.427411   463.810938

                             ****ORCA TERMINATED NORMALLY****
TOTAL RUN TIME: 0 days 0 hours 16 minutes 44 seconds 113 msec
