                         Program Version 4.2.0 -  RELEASE  -
|  1> # Test redundant internal optimization
|  2> #
|  3> ! RKS B3LYP  Opt TightSCF SmallPrint
|  4>
|  5> %basis
|  6>         Basis "6-31G"
|  7> end
|  8>
|  9> %geom
| 10> Constraints
| 11> { D 4  0  15  12  210.0   C } # D for Dihedral angle
| 12> { D 0  15  12  16  120.0   C } # D for Dihedral angle
| 13> { D 0  4  3  2   C } # D for Dihedral angle
| 14> { D 4  3  2  1   C } # D for Dihedral angle
| 15> { D 3  2  1  0   C } # D for Dihedral angle
| 16> { D 2  1  0  4   C } # D for Dihedral angle
| 17> { D 1  0  4  3   C } # D for Dihedral angle
| 18> { D 16  20  19  18   C } # D for Dihedral angle
| 19> { D 20  19  18  17   C } # D for Dihedral angle
| 20> { D 19  18  17  16   C } # D for Dihedral angle
| 21> { D 18  17  16  20   C } # D for Dihedral angle
| 22> { D 17  16  20  19   C } # D for Dihedral angle
| 23> { D 15  12  16  20   C } # D for Dihedral angle
| 24> end
| 25> end
| 26>
| 27>
| 28> #%pal
| 29> #nprocs 8
| 30> #end
| 31>
| 32> * xyz 0 1
| 33> C  -21.048   26.222   46.251
| 34> C  -20.361   27.558   45.944
| 35> C  -20.329   28.222   47.341
| 36> C  -20.110   27.022   48.296
| 37> O  -20.473   25.807   47.535
| 38> H  -20.833   25.428   45.533
| 39> H  -19.344   27.382   45.576
| 40> H  -20.898   28.157   45.201
| 41> H  -19.543   28.978   47.434
| 42> H  -21.289   28.710   47.548
| 43> H  -20.733   27.082   49.195
| 44> H  -19.064   26.913   48.597
| 45> C  -23.389   26.110   45.076
| 46> H  -23.933   27.017   44.782
| 47> H  -22.711   25.836   44.258
| 48> O  -22.586   26.394   46.375
| 49> C  -24.417   24.957   45.245
| 50> C  -23.739   23.676   45.745
| 51> C  -23.589   23.970   47.257
| 52> C  -24.864   24.787   47.585
| 53> O  -25.388   25.285   46.294
| 54> H  -24.978   24.839   44.316
| 55> H  -24.397   22.815   45.582
| 56> O  -22.380   23.393   45.049
| 57> H  -23.509   23.061   47.861
| 58> H  -22.689   24.571   47.436
| 59> H  -24.659   25.638   48.243
| 60> H  -25.649   24.172   48.035
| 61> H  -21.705   24.243   45.199
| 62> *
| 63>
| 64>                          ****END OF INPUT****
 Total Charge           Charge          ....    0
 Multiplicity           Mult            ....    1
 Number of Electrons    NEL             ....  102
FINAL SINGLE POINT ENERGY      -652.824019516315
FINAL SINGLE POINT ENERGY      -652.849426715932
FINAL SINGLE POINT ENERGY      -652.856235433059
FINAL SINGLE POINT ENERGY      -652.859242828284
FINAL SINGLE POINT ENERGY      -652.860120673952
FINAL SINGLE POINT ENERGY      -652.860618102603
FINAL SINGLE POINT ENERGY      -652.860969058999
FINAL SINGLE POINT ENERGY      -652.861201717171
FINAL SINGLE POINT ENERGY      -652.861374423887
FINAL SINGLE POINT ENERGY      -652.861589102213
FINAL SINGLE POINT ENERGY      -652.861766560042
FINAL SINGLE POINT ENERGY      -652.861966000277
FINAL SINGLE POINT ENERGY      -652.862241038757
FINAL SINGLE POINT ENERGY      -652.862304107588
FINAL SINGLE POINT ENERGY      -652.862323086016
FINAL SINGLE POINT ENERGY      -652.862326828285
                    ***********************HURRAY********************

CARTESIAN COORDINATES (ANGSTROEM)
---------------------------------
  C    -21.055011   26.294100   46.179688
  C    -20.360946   27.628286   45.908507
  C    -20.384165   28.290495   47.307044
  C    -20.201762   27.090222   48.261206
  O    -20.539847   25.884066   47.459906
  H    -20.849208   25.491111   45.467788
  H    -19.331319   27.444691   45.578014
  H    -20.872455   28.219737   45.144527
  H    -19.600638   29.044015   47.430630
  H    -21.355408   28.766342   47.470791
  H    -20.861911   27.127231   49.131072
  H    -19.167293   26.964063   48.594286
  C    -23.285253   26.219565   45.112971
  H    -23.826245   27.142407   44.875895
  H    -22.639643   25.956558   44.266681
  O    -22.493106   26.473868   46.312983
  C    -24.305383   25.102132   45.319407
  C    -23.723549   23.733634   45.707676
  C    -23.577335   23.871723   47.252952
  C    -24.800432   24.739516   47.629276
  O    -25.260916   25.388283   46.379648
  H    -24.892186   25.034516   44.394383
  H    -24.445813   22.947317   45.454190
  O    -22.477795   23.487429   44.994406
  H    -23.596364   22.897950   47.755201
  H    -22.645680   24.387963   47.490948
  H    -24.545890   25.516329   48.354728
  H    -25.639425   24.146814   48.008407
  H    -21.872019   22.954640   45.545787

 Multiplicity           Mult            ....    1
 Number of Electrons    NEL             ....  102
 Basis Dimension        Dim             ....  149

ORBITAL ENERGIES
----------------

  NO   OCC          E(Eh)            E(eV)
   0   2.0000     -19.143276      -520.9150
   1   2.0000     -19.142321      -520.8890
   2   2.0000     -19.135503      -520.7035
   3   2.0000     -19.127472      -520.4850
   4   2.0000     -10.274997      -279.5969
   5   2.0000     -10.235763      -278.5293
   6   2.0000     -10.225455      -278.2488
   7   2.0000     -10.225221      -278.2424
   8   2.0000     -10.221265      -278.1348
   9   2.0000     -10.216051      -277.9929
  10   2.0000     -10.184654      -277.1385
  11   2.0000     -10.183904      -277.1181
  12   2.0000     -10.173757      -276.8420
  13   2.0000      -1.050834       -28.5947
  14   2.0000      -1.024643       -27.8819
  15   2.0000      -1.007524       -27.4161
  16   2.0000      -0.988783       -26.9062
  17   2.0000      -0.784848       -21.3568
  18   2.0000      -0.768401       -20.9093
  19   2.0000      -0.759552       -20.6684
  20   2.0000      -0.728523       -19.8241
  21   2.0000      -0.670631       -18.2488
  22   2.0000      -0.599804       -16.3215
  23   2.0000      -0.597745       -16.2655
  24   2.0000      -0.589998       -16.0547
  25   2.0000      -0.559567       -15.2266
  26   2.0000      -0.518041       -14.0966
  27   2.0000      -0.506637       -13.7863
  28   2.0000      -0.493553       -13.4303
  29   2.0000      -0.490177       -13.3384
  30   2.0000      -0.464975       -12.6526
  31   2.0000      -0.451442       -12.2844
  32   2.0000      -0.439024       -11.9465
  33   2.0000      -0.429624       -11.6907
  34   2.0000      -0.421504       -11.4697
  35   2.0000      -0.409338       -11.1387
  36   2.0000      -0.401243       -10.9184
  37   2.0000      -0.392013       -10.6672
  38   2.0000      -0.370225       -10.0743
  39   2.0000      -0.357698        -9.7334
  40   2.0000      -0.356623        -9.7042
  41   2.0000      -0.350682        -9.5425
  42   2.0000      -0.346167        -9.4197
  43   2.0000      -0.326234        -8.8773
  44   2.0000      -0.315015        -8.5720
  45   2.0000      -0.303571        -8.2606
  46   2.0000      -0.292067        -7.9476
  47   2.0000      -0.270390        -7.3577
  48   2.0000      -0.260852        -7.0982
  49   2.0000      -0.251190        -6.8352
  50   2.0000      -0.228933        -6.2296
  51   0.0000       0.061517         1.6740
  52   0.0000       0.083459         2.2710
  53   0.0000       0.096495         2.6258
  54   0.0000       0.108074         2.9409
  55   0.0000       0.114368         3.1121

MULLIKEN ATOMIC CHARGES
-----------------------
   0 C :    0.283265
   1 C :   -0.257859
   2 C :   -0.299991
   3 C :   -0.001352
   4 O :   -0.516468
   5 H :    0.156189
   6 H :    0.141208
   7 H :    0.147142
   8 H :    0.141142
   9 H :    0.164826
  10 H :    0.151268
  11 H :    0.140556
  12 C :   -0.002287
  13 H :    0.148139
  14 H :    0.144582
  15 O :   -0.522309
  16 C :    0.096717
  17 C :    0.094552
  18 C :   -0.339979
  19 C :    0.000905
  20 O :   -0.522547
  21 H :    0.143228
  22 H :    0.141263
  23 O :   -0.622444
  24 H :    0.128240
  25 H :    0.204741
  26 H :    0.153927
  27 H :    0.134542
  28 H :    0.368805
Sum of atomic charges:   -0.0000000

LOEWDIN ATOMIC CHARGES
----------------------
   0 C :    0.171666
   1 C :   -0.225242
   2 C :   -0.216813
   3 C :   -0.025696
   4 O :   -0.316488
   5 H :    0.103684
   6 H :    0.111827
   7 H :    0.117361
   8 H :    0.113942
   9 H :    0.120720
  10 H :    0.107740
  11 H :    0.101572
  12 C :   -0.038672
  13 H :    0.108616
  14 H :    0.109177
  15 O :   -0.335612
  16 C :    0.027201
  17 C :    0.035769
  18 C :   -0.251923
  19 C :   -0.021137
  20 O :   -0.322668
  21 H :    0.110812
  22 H :    0.099128
  23 O :   -0.423476
  24 H :    0.106208
  25 H :    0.138447
  26 H :    0.109001
  27 H :    0.097270
  28 H :    0.287586

  Mayer bond orders larger than 0.100000
B(  0-C ,  1-C ) :   0.9347 B(  0-C ,  4-O ) :   0.9017 B(  0-C ,  5-H ) :   0.9064
B(  0-C , 15-O ) :   0.8308 B(  1-C ,  2-C ) :   0.9526 B(  1-C ,  6-H ) :   0.9350
B(  1-C ,  7-H ) :   0.9389 B(  2-C ,  3-C ) :   0.9564 B(  2-C ,  8-H ) :   0.9452
B(  2-C ,  9-H ) :   0.9429 B(  3-C ,  4-O ) :   0.8332 B(  3-C , 10-H ) :   0.9352
B(  3-C , 11-H ) :   0.9400 B( 12-C , 13-H ) :   0.9294 B( 12-C , 14-H ) :   0.9074
B( 12-C , 15-O ) :   0.8484 B( 12-C , 16-C ) :   0.9097 B( 16-C , 17-C ) :   0.9155
B( 16-C , 20-O ) :   0.8836 B( 16-C , 21-H ) :   0.9258 B( 17-C , 18-C ) :   0.9372
B( 17-C , 22-H ) :   0.9262 B( 17-C , 23-O ) :   0.8663 B( 18-C , 19-C ) :   0.9474
B( 18-C , 24-H ) :   0.9405 B( 18-C , 25-H ) :   0.9052 B( 19-C , 20-O ) :   0.8417
B( 19-C , 26-H ) :   0.9320 B( 19-C , 27-H ) :   0.9380 B( 23-O , 28-H ) :   0.7983

FINAL SINGLE POINT ENERGY      -652.862327008557

DIPOLE MOMENT
-------------
                                X             Y             Z
Electronic contribution:     -2.65508      -2.77619      -1.62198
Nuclear contribution   :      3.51036       2.81427       1.73426
                        -----------------------------------------
Total Dipole Moment    :      0.85528       0.03808       0.11229
                        -----------------------------------------
Magnitude (a.u.)       :      0.86346
Magnitude (Debye)      :      2.19475

Rotational constants in cm-1:     0.046754     0.016488     0.016204
Rotational constants in MHz :  1401.638394   494.305585   485.785746

                             ****ORCA TERMINATED NORMALLY****
TOTAL RUN TIME: 0 days 0 hours 49 minutes 9 seconds 465 msec
