                         Program Version 4.2.1 -  RELEASE  -
|  1> # Test redundant internal optimization
|  2> #
|  3> ! RKS B3LYP  Opt TightSCF SmallPrint
|  4>
|  5> %basis
|  6>         Basis "6-31G"
|  7> end
|  8>
|  9> %geom
| 10> Constraints
| 11> { D 4  0  19  14  285.0   C } # D for Dihedral angle
| 12> { D 0  19  14  12  60.0   C } # D for Dihedral angle
| 13> { D 0  4  3  2   C } # D for Dihedral angle
| 14> { D 4  3  2  1   C } # D for Dihedral angle
| 15> { D 3  2  1  0   C } # D for Dihedral angle
| 16> { D 2  1  0  4   C } # D for Dihedral angle
| 17> { D 1  0  4  3   C } # D for Dihedral angle
| 18> { D 14  15  16  17   C } # D for Dihedral angle
| 19> { D 15  16  17  12   C } # D for Dihedral angle
| 20> { D 16  17  12  14   C } # D for Dihedral angle
| 21> { D 17  12  14  15   C } # D for Dihedral angle
| 22> { D 12  14  15  16   C } # D for Dihedral angle
| 23> end
| 24> end
| 25>
| 26>
| 27> #%pal
| 28> #nprocs 8
| 29> #end
| 30>
| 31> * xyz 0 1
| 32> C  -21.048   26.222   46.251
| 33> C  -20.361   27.558   45.944
| 34> C  -20.329   28.222   47.341
| 35> C  -20.110   27.022   48.296
| 36> O  -20.473   25.807   47.535
| 37> H  -20.833   25.428   45.533
| 38> H  -19.344   27.382   45.576
| 39> H  -20.898   28.157   45.201
| 40> H  -19.543   28.978   47.434
| 41> H  -21.289   28.710   47.548
| 42> H  -20.733   27.082   49.195
| 43> H  -19.064   26.913   48.597
| 44> C  -22.754   24.322   47.632
| 45> H  -23.072   23.271   47.543
| 46> C  -23.203   25.146   46.420
| 47> C  -24.691   25.406   46.751
| 48> C  -24.688   25.558   48.293
| 49> O  -23.421   24.962   48.772
| 50> H  -21.682   24.355   47.830
| 51> O  -22.472   26.381   46.366
| 52> H  -23.065   24.621   45.469
| 53> H  -25.091   26.290   46.245
| 54> H  -25.301   24.544   46.450
| 55> H  -25.529   25.042   48.769
| 56> H  -24.690   26.606   48.609
| 57> *
| 58>
| 59>                          ****END OF INPUT****
 Total Charge           Charge          ....    0
 Multiplicity           Mult            ....    1
 Number of Electrons    NEL             ....   86
FINAL SINGLE POINT ENERGY      -538.431108479705
FINAL SINGLE POINT ENERGY      -538.436843015790
FINAL SINGLE POINT ENERGY      -538.438188287855
FINAL SINGLE POINT ENERGY      -538.438474671314
FINAL SINGLE POINT ENERGY      -538.438494697989
FINAL SINGLE POINT ENERGY      -538.438502355359
                    ***********************HURRAY********************

CARTESIAN COORDINATES (ANGSTROEM)
---------------------------------
  C    -20.951079   26.179760   46.252987
  C    -20.425170   27.583961   45.951292
  C    -20.441580   28.237052   47.353555
  C    -20.072680   27.062977   48.289681
  O    -20.318306   25.825542   47.505336
  H    -20.676221   25.397228   45.537483
  H    -19.402911   27.512250   45.562436
  H    -21.049450   28.105332   45.223222
  H    -19.738897   29.071608   47.437519
  H    -21.447539   28.603905   47.575094
  H    -20.685545   27.024292   49.192625
  H    -19.013631   27.053477   48.563829
  C    -22.839681   24.185854   47.649119
  H    -23.292168   23.191603   47.511990
  C    -23.169535   25.063751   46.441991
  C    -24.618114   25.486878   46.751294
  C    -24.628048   25.624839   48.293053
  O    -23.447553   24.885307   48.785282
  H    -21.776591   24.093908   47.861925
  O    -22.385976   26.294859   46.352837
  H    -23.075757   24.513596   45.494438
  H    -24.870730   26.416824   46.236414
  H    -25.306986   24.702781   46.416831
  H    -25.533053   25.203486   48.744907
  H    -24.516798   26.663932   48.614860

 Multiplicity           Mult            ....    1
 Number of Electrons    NEL             ....   86
 Basis Dimension        Dim             ....  127

ORBITAL ENERGIES
----------------

  NO   OCC          E(Eh)            E(eV)
   0   2.0000     -19.142106      -520.8832
   1   2.0000     -19.137968      -520.7706
   2   2.0000     -19.122422      -520.3476
   3   2.0000     -10.277572      -279.6670
   4   2.0000     -10.237213      -278.5687
   5   2.0000     -10.220421      -278.1118
   6   2.0000     -10.215583      -277.9801
   7   2.0000     -10.210801      -277.8500
   8   2.0000     -10.183034      -277.0944
   9   2.0000     -10.182517      -277.0804
  10   2.0000     -10.181876      -277.0629
  11   2.0000      -1.052406       -28.6374
  12   2.0000      -1.007902       -27.4264
  13   2.0000      -0.988169       -26.8895
  14   2.0000      -0.790740       -21.5171
  15   2.0000      -0.773123       -21.0378
  16   2.0000      -0.732118       -19.9219
  17   2.0000      -0.718953       -19.5637
  18   2.0000      -0.608388       -16.5551
  19   2.0000      -0.597189       -16.2503
  20   2.0000      -0.588771       -16.0213
  21   2.0000      -0.571102       -15.5405
  22   2.0000      -0.517230       -14.0745
  23   2.0000      -0.499708       -13.5977
  24   2.0000      -0.480805       -13.0834
  25   2.0000      -0.474022       -12.8988
  26   2.0000      -0.446407       -12.1474
  27   2.0000      -0.443153       -12.0588
  28   2.0000      -0.427734       -11.6392
  29   2.0000      -0.406429       -11.0595
  30   2.0000      -0.400034       -10.8855
  31   2.0000      -0.382672       -10.4130
  32   2.0000      -0.364234        -9.9113
  33   2.0000      -0.362995        -9.8776
  34   2.0000      -0.353653        -9.6234
  35   2.0000      -0.353073        -9.6076
  36   2.0000      -0.340009        -9.2521
  37   2.0000      -0.324774        -8.8376
  38   2.0000      -0.298594        -8.1252
  39   2.0000      -0.296998        -8.0817
  40   2.0000      -0.266538        -7.2529
  41   2.0000      -0.248185        -6.7535
  42   2.0000      -0.229166        -6.2359
  43   0.0000       0.083016         2.2590
  44   0.0000       0.098476         2.6797
  45   0.0000       0.101653         2.7661
  46   0.0000       0.117751         3.2042
  47   0.0000       0.127514         3.4698

MULLIKEN ATOMIC CHARGES
-----------------------
   0 C :    0.289818
   1 C :   -0.259663
   2 C :   -0.298064
   3 C :   -0.003082
   4 O :   -0.510861
   5 H :    0.137540
   6 H :    0.143395
   7 H :    0.155269
   8 H :    0.139229
   9 H :    0.162601
  10 H :    0.163200
  11 H :    0.140368
  12 C :   -0.020234
  13 H :    0.117198
  14 C :    0.077287
  15 C :   -0.296159
  16 C :    0.008662
  17 O :   -0.522267
  18 H :    0.197887
  19 O :   -0.521722
  20 H :    0.122123
  21 H :    0.161003
  22 H :    0.140276
  23 H :    0.130223
  24 H :    0.145973
Sum of atomic charges:   -0.0000000

LOEWDIN ATOMIC CHARGES
----------------------
   0 C :    0.172486
   1 C :   -0.214057
   2 C :   -0.215331
   3 C :   -0.026995
   4 O :   -0.325941
   5 H :    0.094350
   6 H :    0.113019
   7 H :    0.123176
   8 H :    0.112675
   9 H :    0.119326
  10 H :    0.113772
  11 H :    0.101824
  12 C :   -0.055159
  13 H :    0.088646
  14 C :    0.039258
  15 C :   -0.224384
  16 C :   -0.027763
  17 O :   -0.330743
  18 H :    0.134495
  19 O :   -0.324314
  20 H :    0.092912
  21 H :    0.126916
  22 H :    0.111809
  23 H :    0.095857
  24 H :    0.104168

  Mayer bond orders larger than 0.100000
B(  0-C ,  1-C ) :   0.9507 B(  0-C ,  4-O ) :   0.9007 B(  0-C ,  5-H ) :   0.9201
B(  0-C , 19-O ) :   0.8604 B(  1-C ,  2-C ) :   0.9575 B(  1-C ,  6-H ) :   0.9406
B(  1-C ,  7-H ) :   0.9370 B(  2-C ,  3-C ) :   0.9552 B(  2-C ,  8-H ) :   0.9452
B(  2-C ,  9-H ) :   0.9441 B(  3-C ,  4-O ) :   0.8278 B(  3-C , 10-H ) :   0.9324
B(  3-C , 11-H ) :   0.9405 B( 12-C , 13-H ) :   0.9082 B( 12-C , 14-C ) :   0.9156
B( 12-C , 17-O ) :   0.8659 B( 12-C , 18-H ) :   0.9081 B( 14-C , 15-C ) :   0.9598
B( 14-C , 19-O ) :   0.8343 B( 14-C , 20-H ) :   0.9218 B( 15-C , 16-C ) :   0.9451
B( 15-C , 21-H ) :   0.9368 B( 15-C , 22-H ) :   0.9421 B( 16-C , 17-O ) :   0.8620
B( 16-C , 23-H ) :   0.9334 B( 16-C , 24-H ) :   0.9379

FINAL SINGLE POINT ENERGY      -538.438502701040

DIPOLE MOMENT
-------------
                                X             Y             Z
Electronic contribution:      0.62283      -2.50925       0.59564
Nuclear contribution   :     -0.69167       2.92062      -1.46385
                        -----------------------------------------
Total Dipole Moment    :     -0.06885       0.41136      -0.86821
                        -----------------------------------------
Magnitude (a.u.)       :      0.96320
Magnitude (Debye)      :      2.44826

Rotational constants in cm-1:     0.069804     0.024786     0.023220
Rotational constants in MHz :  2092.684191   743.071443   696.117274

                             ****ORCA TERMINATED NORMALLY****
TOTAL RUN TIME: 0 days 0 hours 7 minutes 21 seconds 924 msec
