                         Program Version 4.2.0 -  RELEASE  -
|  1> # Test redundant internal optimization
|  2> #
|  3> ! RKS B3LYP  Opt TightSCF SmallPrint
|  4>
|  5> %basis
|  6>         Basis "6-31G"
|  7> end
|  8>
|  9> %geom
| 10> Constraints
| 11> { D 4  0  15  12  270.0   C } # D for Dihedral angle
| 12> { D 0  15  12  16  225.0   C } # D for Dihedral angle
| 13> { D 0  4  3  2   C } # D for Dihedral angle
| 14> { D 4  3  2  1   C } # D for Dihedral angle
| 15> { D 3  2  1  0   C } # D for Dihedral angle
| 16> { D 2  1  0  4   C } # D for Dihedral angle
| 17> { D 1  0  4  3   C } # D for Dihedral angle
| 18> { D 16  20  19  18   C } # D for Dihedral angle
| 19> { D 20  19  18  17   C } # D for Dihedral angle
| 20> { D 19  18  17  16   C } # D for Dihedral angle
| 21> { D 18  17  16  20   C } # D for Dihedral angle
| 22> { D 17  16  20  19   C } # D for Dihedral angle
| 23> { D 15  12  16  20   C } # D for Dihedral angle
| 24> end
| 25> end
| 26>
| 27>
| 28> #%pal
| 29> #nprocs 8
| 30> #end
| 31>
| 32> * xyz 0 1
| 33> C  -21.048   26.222   46.251
| 34> C  -20.361   27.558   45.944
| 35> C  -20.329   28.222   47.341
| 36> C  -20.110   27.022   48.296
| 37> O  -20.473   25.807   47.535
| 38> H  -20.833   25.428   45.533
| 39> H  -19.344   27.382   45.576
| 40> H  -20.898   28.157   45.201
| 41> H  -19.543   28.978   47.434
| 42> H  -21.289   28.710   47.548
| 43> H  -20.733   27.082   49.195
| 44> H  -19.064   26.913   48.597
| 45> C  -23.420   25.119   46.072
| 46> H  -22.782   24.380   45.571
| 47> H  -23.793   24.674   47.004
| 48> O  -22.586   26.394   46.375
| 49> C  -24.645   25.405   45.160
| 50> C  -25.507   24.151   44.978
| 51> C  -26.305   24.123   46.303
| 52> C  -26.531   25.625   46.609
| 53> O  -25.544   26.372   45.799
| 54> H  -24.299   25.856   44.228
| 55> O  -26.462   24.333   43.766
| 56> H  -24.917   23.242   44.819
| 57> H  -27.246   23.569   46.221
| 58> H  -25.707   23.654   47.093
| 59> H  -26.379   25.865   47.668
| 60> H  -27.524   25.969   46.306
| 61> H  -27.064   25.237   43.904
| 62> *
| 63>
| 64>                          ****END OF INPUT****
 Total Charge           Charge          ....    0
 Multiplicity           Mult            ....    1
 Number of Electrons    NEL             ....  102
FINAL SINGLE POINT ENERGY      -652.834298510334
FINAL SINGLE POINT ENERGY      -652.857870453571
FINAL SINGLE POINT ENERGY      -652.862054811510
FINAL SINGLE POINT ENERGY      -652.862782103041
FINAL SINGLE POINT ENERGY      -652.862865911330
FINAL SINGLE POINT ENERGY      -652.862876342203
                    ***********************HURRAY********************

CARTESIAN COORDINATES (ANGSTROEM)
---------------------------------
  C    -21.093465   26.130028   46.214887
  C    -20.555183   27.526863   45.902715
  C    -20.537872   28.181061   47.304374
  C    -20.167462   27.002961   48.233247
  O    -20.442558   25.769064   47.455840
  H    -20.841223   25.346362   45.492459
  H    -19.540309   27.440596   45.497184
  H    -21.184345   28.057454   45.185660
  H    -19.824107   29.007454   47.375603
  H    -21.535709   28.560539   47.541851
  H    -20.759838   26.980161   49.151411
  H    -19.103659   26.981092   48.489154
  C    -23.315220   25.045212   46.138495
  H    -22.713532   24.282355   45.620459
  H    -23.622677   24.634429   47.107797
  O    -22.522386   26.240924   46.364602
  C    -24.523927   25.399826   45.275744
  C    -25.464174   24.214763   45.013138
  C    -26.323639   24.199792   46.304964
  C    -26.456417   25.703860   46.651780
  O    -25.381686   26.404700   45.909183
  H    -24.171641   25.843800   44.339836
  O    -26.274456   24.449214   43.828680
  H    -24.950045   23.270846   44.826034
  H    -27.285728   23.714953   46.123312
  H    -25.804528   23.651029   47.098919
  H    -26.338731   25.903976   47.721165
  H    -27.408784   26.128967   46.320054
  H    -26.592700   25.376722   43.838451

 Multiplicity           Mult            ....    1
 Number of Electrons    NEL             ....  102
 Basis Dimension        Dim             ....  149

ORBITAL ENERGIES
----------------

  NO   OCC          E(Eh)            E(eV)
   0   2.0000     -19.141735      -520.8731
   1   2.0000     -19.140912      -520.8507
   2   2.0000     -19.140133      -520.8295
   3   2.0000     -19.134704      -520.6818
   4   2.0000     -10.277283      -279.6591
   5   2.0000     -10.244238      -278.7599
   6   2.0000     -10.234405      -278.4923
   7   2.0000     -10.233441      -278.4661
   8   2.0000     -10.230174      -278.3772
   9   2.0000     -10.220783      -278.1216
  10   2.0000     -10.190414      -277.2953
  11   2.0000     -10.181149      -277.0432
  12   2.0000     -10.180306      -277.0202
  13   2.0000      -1.051696       -28.6181
  14   2.0000      -1.036407       -28.2021
  15   2.0000      -1.006901       -27.3992
  16   2.0000      -0.991853       -26.9897
  17   2.0000      -0.789212       -21.4756
  18   2.0000      -0.780295       -21.2329
  19   2.0000      -0.766806       -20.8659
  20   2.0000      -0.728599       -19.8262
  21   2.0000      -0.673721       -18.3329
  22   2.0000      -0.605772       -16.4839
  23   2.0000      -0.596619       -16.2348
  24   2.0000      -0.591675       -16.1003
  25   2.0000      -0.581704       -15.8290
  26   2.0000      -0.528267       -14.3749
  27   2.0000      -0.510847       -13.9009
  28   2.0000      -0.494093       -13.4450
  29   2.0000      -0.488043       -13.2803
  30   2.0000      -0.472864       -12.8673
  31   2.0000      -0.457329       -12.4446
  32   2.0000      -0.449175       -12.2227
  33   2.0000      -0.442524       -12.0417
  34   2.0000      -0.423413       -11.5217
  35   2.0000      -0.410360       -11.1665
  36   2.0000      -0.397366       -10.8129
  37   2.0000      -0.393989       -10.7210
  38   2.0000      -0.373592       -10.1660
  39   2.0000      -0.366084        -9.9616
  40   2.0000      -0.361346        -9.8327
  41   2.0000      -0.352322        -9.5872
  42   2.0000      -0.345459        -9.4004
  43   2.0000      -0.331861        -9.0304
  44   2.0000      -0.320471        -8.7205
  45   2.0000      -0.308759        -8.4018
  46   2.0000      -0.298414        -8.1203
  47   2.0000      -0.272437        -7.4134
  48   2.0000      -0.268875        -7.3165
  49   2.0000      -0.252505        -6.8710
  50   2.0000      -0.238210        -6.4820
  51   0.0000       0.065008         1.7690
  52   0.0000       0.082578         2.2471
  53   0.0000       0.089731         2.4417
  54   0.0000       0.101128         2.7518
  55   0.0000       0.102806         2.7975

MULLIKEN ATOMIC CHARGES
-----------------------
   0 C :    0.277639
   1 C :   -0.256546
   2 C :   -0.299366
   3 C :   -0.001328
   4 O :   -0.510166
   5 H :    0.137373
   6 H :    0.142430
   7 H :    0.156448
   8 H :    0.138682
   9 H :    0.168868
  10 H :    0.147021
  11 H :    0.140060
  12 C :    0.005230
  13 H :    0.126431
  14 H :    0.144036
  15 O :   -0.506636
  16 C :    0.074698
  17 C :    0.076735
  18 C :   -0.301385
  19 C :   -0.025421
  20 O :   -0.511324
  21 H :    0.158029
  22 O :   -0.602881
  23 H :    0.150620
  24 H :    0.163943
  25 H :    0.147337
  26 H :    0.150781
  27 H :    0.142784
  28 H :    0.365909
Sum of atomic charges:   -0.0000000

LOEWDIN ATOMIC CHARGES
----------------------
   0 C :    0.171373
   1 C :   -0.216601
   2 C :   -0.216044
   3 C :   -0.027323
   4 O :   -0.329836
   5 H :    0.094205
   6 H :    0.112534
   7 H :    0.123735
   8 H :    0.112384
   9 H :    0.122444
  10 H :    0.105475
  11 H :    0.101170
  12 C :   -0.036664
  13 H :    0.098006
  14 H :    0.103158
  15 O :   -0.315453
  16 C :    0.014451
  17 C :    0.034669
  18 C :   -0.242225
  19 C :   -0.037213
  20 O :   -0.321356
  21 H :    0.116184
  22 O :   -0.414565
  23 H :    0.114685
  24 H :    0.127126
  25 H :    0.113955
  26 H :    0.106348
  27 H :    0.101405
  28 H :    0.283976

  Mayer bond orders larger than 0.100000
B(  0-C ,  1-C ) :   0.9481 B(  0-C ,  4-O ) :   0.9146 B(  0-C ,  5-H ) :   0.9167
B(  0-C , 15-O ) :   0.8662 B(  1-C ,  2-C ) :   0.9585 B(  1-C ,  6-H ) :   0.9398
B(  1-C ,  7-H ) :   0.9362 B(  2-C ,  3-C ) :   0.9548 B(  2-C ,  8-H ) :   0.9453
B(  2-C ,  9-H ) :   0.9429 B(  3-C ,  4-O ) :   0.8389 B(  3-C , 10-H ) :   0.9358
B(  3-C , 11-H ) :   0.9403 B( 12-C , 13-H ) :   0.9122 B( 12-C , 14-H ) :   0.9253
B( 12-C , 15-O ) :   0.8389 B( 12-C , 16-C ) :   0.8947 B( 16-C , 17-C ) :   0.8979
B( 16-C , 20-O ) :   0.8668 B( 16-C , 21-H ) :   0.9260 B( 17-C , 18-C ) :   0.9116
B( 17-C , 22-O ) :   0.8920 B( 17-C , 23-H ) :   0.9334 B( 18-C , 19-C ) :   0.9391
B( 18-C , 24-H ) :   0.9371 B( 18-C , 25-H ) :   0.9332 B( 19-C , 20-O ) :   0.8501
B( 19-C , 26-H ) :   0.9339 B( 19-C , 27-H ) :   0.9385 B( 22-O , 28-H ) :   0.7935

FINAL SINGLE POINT ENERGY      -652.862878184858

DIPOLE MOMENT
-------------
                                X             Y             Z
Electronic contribution:     -1.46404      -1.23960      -2.26324
Nuclear contribution   :      1.54757       1.30878       2.54921
                        -----------------------------------------
Total Dipole Moment    :      0.08353       0.06917       0.28597
                        -----------------------------------------
Magnitude (a.u.)       :      0.30585
Magnitude (Debye)      :      0.77740

Rotational constants in cm-1:     0.065401     0.011062     0.010871
Rotational constants in MHz :  1960.681358   331.626329   325.901186

                             ****ORCA TERMINATED NORMALLY****
TOTAL RUN TIME: 0 days 1 hours 1 minutes 41 seconds 814 msec
