                         Program Version 4.2.0 -  RELEASE  -
|  1> # Test redundant internal optimization
|  2> #
|  3> ! RKS B3LYP  Opt TightSCF SmallPrint
|  4>
|  5> %basis
|  6>         Basis "6-31G"
|  7> end
|  8>
|  9> %geom
| 10> Constraints
| 11> { D 4  0  15  12  315.0   C } # D for Dihedral angle
| 12> { D 0  15  12  16  225.0   C } # D for Dihedral angle
| 13> { D 0  4  3  2   C } # D for Dihedral angle
| 14> { D 4  3  2  1   C } # D for Dihedral angle
| 15> { D 3  2  1  0   C } # D for Dihedral angle
| 16> { D 2  1  0  4   C } # D for Dihedral angle
| 17> { D 1  0  4  3   C } # D for Dihedral angle
| 18> { D 16  20  19  18   C } # D for Dihedral angle
| 19> { D 20  19  18  17   C } # D for Dihedral angle
| 20> { D 19  18  17  16   C } # D for Dihedral angle
| 21> { D 18  17  16  20   C } # D for Dihedral angle
| 22> { D 17  16  20  19   C } # D for Dihedral angle
| 23> { D 15  12  16  20   C } # D for Dihedral angle
| 24> end
| 25> end
| 26>
| 27>
| 28> #%pal
| 29> #nprocs 8
| 30> #end
| 31>
| 32> * xyz 0 1
| 33> C  -21.048   26.222   46.251
| 34> C  -20.361   27.558   45.944
| 35> C  -20.329   28.222   47.341
| 36> C  -20.110   27.022   48.296
| 37> O  -20.473   25.807   47.535
| 38> H  -20.833   25.428   45.533
| 39> H  -19.344   27.382   45.576
| 40> H  -20.898   28.157   45.201
| 41> H  -19.543   28.978   47.434
| 42> H  -21.289   28.710   47.548
| 43> H  -20.733   27.082   49.195
| 44> H  -19.064   26.913   48.597
| 45> C  -23.319   25.255   47.135
| 46> H  -22.647   24.393   47.231
| 47> H  -23.600   25.584   48.144
| 48> O  -22.586   26.394   46.375
| 49> C  -24.613   24.787   46.413
| 50> C  -24.294   24.151   45.056
| 51> C  -23.831   22.735   45.474
| 52> C  -24.728   22.419   46.697
| 53> O  -25.263   23.713   47.172
| 54> H  -25.318   25.619   46.368
| 55> O  -25.580   24.073   44.189
| 56> H  -23.531   24.698   44.492
| 57> H  -23.943   21.998   44.673
| 58> H  -22.774   22.755   45.764
| 59> H  -24.173   21.940   47.511
| 60> H  -25.584   21.792   46.436
| 61> H  -26.360   23.528   44.733
| 62> *
| 63>
| 64>                          ****END OF INPUT****
 Total Charge           Charge          ....    0
 Multiplicity           Mult            ....    1
 Number of Electrons    NEL             ....  102
FINAL SINGLE POINT ENERGY      -652.840171320534
FINAL SINGLE POINT ENERGY      -652.863246329497
FINAL SINGLE POINT ENERGY      -652.866862206660
FINAL SINGLE POINT ENERGY      -652.867514453943
FINAL SINGLE POINT ENERGY      -652.867609107135
FINAL SINGLE POINT ENERGY      -652.867622222718
FINAL SINGLE POINT ENERGY      -652.867624762142
                    ***********************HURRAY********************

CARTESIAN COORDINATES (ANGSTROEM)
---------------------------------
  C    -21.087615   26.117166   46.295982
  C    -20.513109   27.485573   45.932120
  C    -20.476434   28.186076   47.307397
  C    -20.136579   27.038713   48.283564
  O    -20.446837   25.779302   47.548998
  H    -20.848447   25.296333   45.611551
  H    -19.504560   27.355444   45.523900
  H    -21.130929   28.008511   45.199102
  H    -19.740626   28.995214   47.347436
  H    -21.462196   28.603667   47.531184
  H    -20.726894   27.064211   49.202899
  H    -19.073751   26.993899   48.537770
  C    -23.217690   25.229991   47.189142
  H    -22.556154   24.375279   47.368924
  H    -23.505444   25.637619   48.162717
  O    -22.522098   26.261467   46.418561
  C    -24.469841   24.810367   46.417889
  C    -24.206804   24.163478   45.050645
  C    -23.830731   22.714227   45.455547
  C    -24.732745   22.447718   46.686622
  O    -25.179936   23.774665   47.178022
  H    -25.148700   25.662032   46.317878
  O    -25.402610   24.196457   44.222665
  H    -23.438394   24.677003   44.475064
  H    -24.021352   22.022358   44.631003
  H    -22.768914   22.652549   45.717468
  H    -24.207222   21.928698   47.494297
  H    -25.632967   21.878429   46.433944
  H    -26.179420   23.958553   44.771707

 Multiplicity           Mult            ....    1
 Number of Electrons    NEL             ....  102
 Basis Dimension        Dim             ....  149

ORBITAL ENERGIES
----------------

  NO   OCC          E(Eh)            E(eV)
   0   2.0000     -19.147182      -521.0213
   1   2.0000     -19.145471      -520.9748
   2   2.0000     -19.143071      -520.9094
   3   2.0000     -19.134507      -520.6764
   4   2.0000     -10.282315      -279.7960
   5   2.0000     -10.235602      -278.5249
   6   2.0000     -10.230648      -278.3901
   7   2.0000     -10.230057      -278.3740
   8   2.0000     -10.229681      -278.3638
   9   2.0000     -10.226097      -278.2662
  10   2.0000     -10.187978      -277.2290
  11   2.0000     -10.187636      -277.2197
  12   2.0000     -10.187078      -277.2045
  13   2.0000      -1.057312       -28.7709
  14   2.0000      -1.034518       -28.1507
  15   2.0000      -1.003156       -27.2973
  16   2.0000      -0.995155       -27.0795
  17   2.0000      -0.792784       -21.5728
  18   2.0000      -0.777391       -21.1539
  19   2.0000      -0.766217       -20.8498
  20   2.0000      -0.731921       -19.9166
  21   2.0000      -0.672925       -18.3112
  22   2.0000      -0.602823       -16.4037
  23   2.0000      -0.601886       -16.3782
  24   2.0000      -0.591571       -16.0975
  25   2.0000      -0.579784       -15.7767
  26   2.0000      -0.520345       -14.1593
  27   2.0000      -0.518871       -14.1192
  28   2.0000      -0.497332       -13.5331
  29   2.0000      -0.491734       -13.3808
  30   2.0000      -0.470730       -12.8092
  31   2.0000      -0.457363       -12.4455
  32   2.0000      -0.448090       -12.1931
  33   2.0000      -0.435658       -11.8549
  34   2.0000      -0.422500       -11.4968
  35   2.0000      -0.411787       -11.2053
  36   2.0000      -0.405834       -11.0433
  37   2.0000      -0.391504       -10.6534
  38   2.0000      -0.376185       -10.2365
  39   2.0000      -0.366639        -9.9768
  40   2.0000      -0.360772        -9.8171
  41   2.0000      -0.352812        -9.6005
  42   2.0000      -0.350936        -9.5495
  43   2.0000      -0.339464        -9.2373
  44   2.0000      -0.327255        -8.9051
  45   2.0000      -0.306069        -8.3285
  46   2.0000      -0.300543        -8.1782
  47   2.0000      -0.271606        -7.3908
  48   2.0000      -0.267593        -7.2816
  49   2.0000      -0.259967        -7.0741
  50   2.0000      -0.241894        -6.5823
  51   0.0000       0.066615         1.8127
  52   0.0000       0.072191         1.9644
  53   0.0000       0.094975         2.5844
  54   0.0000       0.099020         2.6945
  55   0.0000       0.105424         2.8687

MULLIKEN ATOMIC CHARGES
-----------------------
   0 C :    0.288265
   1 C :   -0.260875
   2 C :   -0.299718
   3 C :   -0.008962
   4 O :   -0.514533
   5 H :    0.143206
   6 H :    0.145380
   7 H :    0.162770
   8 H :    0.143657
   9 H :    0.163181
  10 H :    0.148189
  11 H :    0.146683
  12 C :   -0.008222
  13 H :    0.150841
  14 H :    0.152364
  15 O :   -0.532873
  16 C :    0.059623
  17 C :    0.086371
  18 C :   -0.299447
  19 C :   -0.035106
  20 O :   -0.526382
  21 H :    0.166766
  22 O :   -0.603643
  23 H :    0.164180
  24 H :    0.162296
  25 H :    0.145723
  26 H :    0.148988
  27 H :    0.147828
  28 H :    0.363450
Sum of atomic charges:   -0.0000000

LOEWDIN ATOMIC CHARGES
----------------------
   0 C :    0.173839
   1 C :   -0.214310
   2 C :   -0.216227
   3 C :   -0.028820
   4 O :   -0.329347
   5 H :    0.094010
   6 H :    0.114429
   7 H :    0.127047
   8 H :    0.115104
   9 H :    0.119699
  10 H :    0.105790
  11 H :    0.104885
  12 C :   -0.040024
  13 H :    0.107717
  14 H :    0.111146
  15 O :   -0.336859
  16 C :    0.013667
  17 C :    0.037119
  18 C :   -0.242943
  19 C :   -0.039371
  20 O :   -0.331003
  21 H :    0.118070
  22 O :   -0.414978
  23 H :    0.121291
  24 H :    0.126592
  25 H :    0.113434
  26 H :    0.105056
  27 H :    0.102985
  28 H :    0.282001

  Mayer bond orders larger than 0.100000
B(  0-C ,  1-C ) :   0.9498 B(  0-C ,  4-O ) :   0.9021 B(  0-C ,  5-H ) :   0.9201
B(  0-C , 15-O ) :   0.8551 B(  1-C ,  2-C ) :   0.9544 B(  1-C ,  6-H ) :   0.9386
B(  1-C ,  7-H ) :   0.9351 B(  2-C ,  3-C ) :   0.9562 B(  2-C ,  8-H ) :   0.9446
B(  2-C ,  9-H ) :   0.9442 B(  3-C ,  4-O ) :   0.8313 B(  3-C , 10-H ) :   0.9356
B(  3-C , 11-H ) :   0.9404 B( 12-C , 13-H ) :   0.9192 B( 12-C , 14-H ) :   0.9278
B( 12-C , 15-O ) :   0.8105 B( 12-C , 16-C ) :   0.9010 B( 16-C , 17-C ) :   0.9101
B( 16-C , 20-O ) :   0.8416 B( 16-C , 21-H ) :   0.9247 B( 17-C , 18-C ) :   0.9131
B( 17-C , 22-O ) :   0.8921 B( 17-C , 23-H ) :   0.9267 B( 18-C , 19-C ) :   0.9407
B( 18-C , 24-H ) :   0.9376 B( 18-C , 25-H ) :   0.9342 B( 19-C , 20-O ) :   0.8438
B( 19-C , 26-H ) :   0.9350 B( 19-C , 27-H ) :   0.9377 B( 22-O , 28-H ) :   0.7954

FINAL SINGLE POINT ENERGY      -652.867624911578

DIPOLE MOMENT
-------------
                                X             Y             Z
Electronic contribution:     -3.89543      -1.21656      -0.68311
Nuclear contribution   :      4.70805       1.29559       0.96581
                        -----------------------------------------
Total Dipole Moment    :      0.81262       0.07903       0.28271
                        -----------------------------------------
Magnitude (a.u.)       :      0.86402
Magnitude (Debye)      :      2.19615

Rotational constants in cm-1:     0.059858     0.012564     0.011810
Rotational constants in MHz :  1794.511676   376.671518   354.040160

                             ****ORCA TERMINATED NORMALLY****
TOTAL RUN TIME: 0 days 1 hours 10 minutes 26 seconds 790 msec
