                         Program Version 4.2.0 -  RELEASE  -
|  1> # Test redundant internal optimization
|  2> #
|  3> ! RKS B3LYP  Opt TightSCF SmallPrint
|  4>
|  5> %basis
|  6>         Basis "6-31G"
|  7> end
|  8>
|  9> %geom
| 10> Constraints
| 11> { D 4  0  15  12  150.0   C } # D for Dihedral angle
| 12> { D 0  15  12  16  135.0   C } # D for Dihedral angle
| 13> { D 0  4  3  2   C } # D for Dihedral angle
| 14> { D 4  3  2  1   C } # D for Dihedral angle
| 15> { D 3  2  1  0   C } # D for Dihedral angle
| 16> { D 2  1  0  4   C } # D for Dihedral angle
| 17> { D 1  0  4  3   C } # D for Dihedral angle
| 18> { D 16  20  19  18   C } # D for Dihedral angle
| 19> { D 20  19  18  17   C } # D for Dihedral angle
| 20> { D 19  18  17  16   C } # D for Dihedral angle
| 21> { D 18  17  16  20   C } # D for Dihedral angle
| 22> { D 17  16  20  19   C } # D for Dihedral angle
| 23> { D 15  12  16  20   C } # D for Dihedral angle
| 24> end
| 25> end
| 26>
| 27>
| 28> #%pal
| 29> #nprocs 8
| 30> #end
| 31>
| 32> * xyz 0 1
| 33> C  -21.048   26.222   46.251
| 34> C  -20.361   27.558   45.944
| 35> C  -20.329   28.222   47.341
| 36> C  -20.110   27.022   48.296
| 37> O  -20.473   25.807   47.535
| 38> H  -20.833   25.428   45.533
| 39> H  -19.344   27.382   45.576
| 40> H  -20.898   28.157   45.201
| 41> H  -19.543   28.978   47.434
| 42> H  -21.289   28.710   47.548
| 43> H  -20.733   27.082   49.195
| 44> H  -19.064   26.913   48.597
| 45> C  -23.210   27.459   45.431
| 46> H  -23.455   28.357   46.011
| 47> H  -22.496   27.741   44.646
| 48> O  -22.586   26.394   46.375
| 49> C  -24.505   26.959   44.735
| 50> C  -24.259   25.650   43.975
| 51> C  -24.291   24.611   45.122
| 52> C  -25.359   25.185   46.087
| 53> O  -25.523   26.612   45.732
| 54> H  -24.917   27.764   44.125
| 55> H  -25.075   25.468   43.266
| 56> O  -22.918   25.641   43.192
| 57> H  -24.541   23.603   44.775
| 58> H  -23.312   24.563   45.614
| 59> H  -25.060   25.107   47.137
| 60> H  -26.335   24.708   45.960
| 61> H  -22.087   25.821   43.883
| 62> *
| 63>
| 64>                          ****END OF INPUT****
 Total Charge           Charge          ....    0
 Multiplicity           Mult            ....    1
 Number of Electrons    NEL             ....  102
FINAL SINGLE POINT ENERGY      -652.820469262664
FINAL SINGLE POINT ENERGY      -652.844754795536
FINAL SINGLE POINT ENERGY      -652.849925041554
FINAL SINGLE POINT ENERGY      -652.852261360609
FINAL SINGLE POINT ENERGY      -652.852667721907
FINAL SINGLE POINT ENERGY      -652.852768610117
FINAL SINGLE POINT ENERGY      -652.852785336683
FINAL SINGLE POINT ENERGY      -652.852775488500
FINAL SINGLE POINT ENERGY      -652.852771823789
                    ***********************HURRAY********************

CARTESIAN COORDINATES (ANGSTROEM)
---------------------------------
  C    -21.059365   26.314090   46.259038
  C    -20.235207   27.567452   45.963992
  C    -20.245994   28.292412   47.335364
  C    -20.209663   27.119153   48.337085
  O    -20.629421   25.919545   47.569150
  H    -20.860644   25.464904   45.596999
  H    -19.217936   27.254103   45.702484
  H    -20.612643   28.186293   45.147623
  H    -19.394996   28.969689   47.453306
  H    -21.165590   28.875344   47.448918
  H    -20.893326   27.250091   49.179187
  H    -19.203783   26.912066   48.713149
  C    -23.174920   27.502871   45.470834
  H    -23.430102   28.381080   46.074935
  H    -22.535005   27.818154   44.638210
  O    -22.503898   26.531475   46.331031
  C    -24.456199   26.933650   44.865277
  C    -24.290194   25.687951   43.979410
  C    -24.315527   24.538836   45.032877
  C    -25.319956   25.065059   46.081243
  O    -25.439066   26.528036   45.858890
  H    -24.917465   27.754555   44.300747
  H    -25.138203   25.611827   43.294921
  O    -23.115430   25.713067   43.128135
  H    -24.623600   23.584379   44.596301
  H    -23.322453   24.432203   45.475598
  H    -24.981345   24.893474   47.105999
  H    -26.321143   24.641941   45.951405
  H    -22.340923   25.380300   43.624892

 Multiplicity           Mult            ....    1
 Number of Electrons    NEL             ....  102
 Basis Dimension        Dim             ....  149

ORBITAL ENERGIES
----------------

  NO   OCC          E(Eh)            E(eV)
   0   2.0000     -19.145569      -520.9774
   1   2.0000     -19.144777      -520.9559
   2   2.0000     -19.144586      -520.9507
   3   2.0000     -19.130298      -520.5619
   4   2.0000     -10.290128      -280.0086
   5   2.0000     -10.237593      -278.5791
   6   2.0000     -10.231225      -278.4058
   7   2.0000     -10.230546      -278.3873
   8   2.0000     -10.228318      -278.3267
   9   2.0000     -10.218590      -278.0620
  10   2.0000     -10.197796      -277.4961
  11   2.0000     -10.195527      -277.4344
  12   2.0000     -10.180574      -277.0275
  13   2.0000      -1.057526       -28.7767
  14   2.0000      -1.028274       -27.9808
  15   2.0000      -1.010275       -27.4910
  16   2.0000      -0.994339       -27.0574
  17   2.0000      -0.794603       -21.6222
  18   2.0000      -0.773982       -21.0611
  19   2.0000      -0.766435       -20.8557
  20   2.0000      -0.737040       -20.0559
  21   2.0000      -0.681027       -18.5317
  22   2.0000      -0.609589       -16.5877
  23   2.0000      -0.603517       -16.4225
  24   2.0000      -0.600544       -16.3416
  25   2.0000      -0.561051       -15.2670
  26   2.0000      -0.528293       -14.3756
  27   2.0000      -0.510486       -13.8910
  28   2.0000      -0.507520       -13.8103
  29   2.0000      -0.493518       -13.4293
  30   2.0000      -0.472345       -12.8532
  31   2.0000      -0.459175       -12.4948
  32   2.0000      -0.442868       -12.0511
  33   2.0000      -0.429309       -11.6821
  34   2.0000      -0.425533       -11.5793
  35   2.0000      -0.416575       -11.3356
  36   2.0000      -0.409203       -11.1350
  37   2.0000      -0.399692       -10.8762
  38   2.0000      -0.386900       -10.5281
  39   2.0000      -0.367178        -9.9914
  40   2.0000      -0.363997        -9.9049
  41   2.0000      -0.360189        -9.8012
  42   2.0000      -0.349990        -9.5237
  43   2.0000      -0.323633        -8.8065
  44   2.0000      -0.315752        -8.5921
  45   2.0000      -0.311950        -8.4886
  46   2.0000      -0.301020        -8.1912
  47   2.0000      -0.269715        -7.3393
  48   2.0000      -0.263534        -7.1711
  49   2.0000      -0.259881        -7.0717
  50   2.0000      -0.233501        -6.3539
  51   0.0000       0.045408         1.2356
  52   0.0000       0.076035         2.0690
  53   0.0000       0.090660         2.4670
  54   0.0000       0.096098         2.6150
  55   0.0000       0.103930         2.8281

MULLIKEN ATOMIC CHARGES
-----------------------
   0 C :    0.312620
   1 C :   -0.296115
   2 C :   -0.301246
   3 C :   -0.000914
   4 O :   -0.497745
   5 H :    0.129800
   6 H :    0.154576
   7 H :    0.150606
   8 H :    0.147375
   9 H :    0.159371
  10 H :    0.157340
  11 H :    0.144847
  12 C :   -0.018239
  13 H :    0.150299
  14 H :    0.136466
  15 O :   -0.530125
  16 C :    0.096380
  17 C :    0.084788
  18 C :   -0.315016
  19 C :    0.000713
  20 O :   -0.520425
  21 H :    0.144809
  22 H :    0.162063
  23 O :   -0.612632
  24 H :    0.140875
  25 H :    0.164913
  26 H :    0.156824
  27 H :    0.138924
  28 H :    0.358866
Sum of atomic charges:   -0.0000000

LOEWDIN ATOMIC CHARGES
----------------------
   0 C :    0.179525
   1 C :   -0.233914
   2 C :   -0.216132
   3 C :   -0.025516
   4 O :   -0.304878
   5 H :    0.088180
   6 H :    0.120613
   7 H :    0.116921
   8 H :    0.117079
   9 H :    0.115844
  10 H :    0.111164
  11 H :    0.104307
  12 C :   -0.046560
  13 H :    0.107984
  14 H :    0.101729
  15 O :   -0.341096
  16 C :    0.016830
  17 C :    0.036686
  18 C :   -0.239838
  19 C :   -0.022115
  20 O :   -0.322034
  21 H :    0.111946
  22 H :    0.115746
  23 O :   -0.413966
  24 H :    0.113357
  25 H :    0.120693
  26 H :    0.111042
  27 H :    0.099758
  28 H :    0.276644

  Mayer bond orders larger than 0.100000
B(  0-C ,  1-C ) :   0.9349 B(  0-C ,  4-O ) :   0.9365 B(  0-C ,  5-H ) :   0.9196
B(  0-C , 15-O ) :   0.8425 B(  1-C ,  2-C ) :   0.9489 B(  1-C ,  6-H ) :   0.9330
B(  1-C ,  7-H ) :   0.9257 B(  2-C ,  3-C ) :   0.9543 B(  2-C ,  8-H ) :   0.9448
B(  2-C ,  9-H ) :   0.9445 B(  3-C ,  4-O ) :   0.8335 B(  3-C , 10-H ) :   0.9339
B(  3-C , 11-H ) :   0.9396 B( 12-C , 13-H ) :   0.9250 B( 12-C , 14-H ) :   0.8973
B( 12-C , 15-O ) :   0.8401 B( 12-C , 16-C ) :   0.9056 B( 16-C , 17-C ) :   0.8848
B( 16-C , 20-O ) :   0.8818 B( 16-C , 21-H ) :   0.9261 B( 17-C , 18-C ) :   0.9390
B( 17-C , 22-H ) :   0.9344 B( 17-C , 23-O ) :   0.8900 B( 18-C , 19-C ) :   0.9455
B( 18-C , 24-H ) :   0.9412 B( 18-C , 25-H ) :   0.9268 B( 19-C , 20-O ) :   0.8379
B( 19-C , 26-H ) :   0.9311 B( 19-C , 27-H ) :   0.9379 B( 23-O , 28-H ) :   0.7946

FINAL SINGLE POINT ENERGY      -652.852771362218

DIPOLE MOMENT
-------------
                                X             Y             Z
Electronic contribution:     -2.81858      -1.90523      -0.67773
Nuclear contribution   :      3.80562       2.36389       0.60429
                        -----------------------------------------
Total Dipole Moment    :      0.98704       0.45866      -0.07345
                        -----------------------------------------
Magnitude (a.u.)       :      1.09088
Magnitude (Debye)      :      2.77280

Rotational constants in cm-1:     0.049411     0.015340     0.014491
Rotational constants in MHz :  1481.292374   459.876838   434.417560

                             ****ORCA TERMINATED NORMALLY****
TOTAL RUN TIME: 0 days 0 hours 21 minutes 31 seconds 40 msec
