                         Program Version 4.2.0 -  RELEASE  -
|  1> # Test redundant internal optimization
|  2> #
|  3> ! RKS B3LYP  Opt TightSCF SmallPrint
|  4>
|  5> %basis
|  6>         Basis "6-31G"
|  7> end
|  8>
|  9> %geom
| 10> Constraints
| 11> { D 4  0  15  12  15.0   C } # D for Dihedral angle
| 12> { D 0  15  12  16  120.0   C } # D for Dihedral angle
| 13> { D 0  4  3  2   C } # D for Dihedral angle
| 14> { D 4  3  2  1   C } # D for Dihedral angle
| 15> { D 3  2  1  0   C } # D for Dihedral angle
| 16> { D 2  1  0  4   C } # D for Dihedral angle
| 17> { D 1  0  4  3   C } # D for Dihedral angle
| 18> { D 16  20  19  18   C } # D for Dihedral angle
| 19> { D 20  19  18  17   C } # D for Dihedral angle
| 20> { D 19  18  17  16   C } # D for Dihedral angle
| 21> { D 18  17  16  20   C } # D for Dihedral angle
| 22> { D 17  16  20  19   C } # D for Dihedral angle
| 23> { D 15  12  16  20   C } # D for Dihedral angle
| 24> end
| 25> end
| 26>
| 27>
| 28> #%pal
| 29> #nprocs 8
| 30> #end
| 31>
| 32> * xyz 0 1
| 33> C  -21.048   26.222   46.251
| 34> C  -20.361   27.558   45.944
| 35> C  -20.329   28.222   47.341
| 36> C  -20.110   27.022   48.296
| 37> O  -20.473   25.807   47.535
| 38> H  -20.833   25.428   45.533
| 39> H  -19.344   27.382   45.576
| 40> H  -20.898   28.157   45.201
| 41> H  -19.543   28.978   47.434
| 42> H  -21.289   28.710   47.548
| 43> H  -20.733   27.082   49.195
| 44> H  -19.064   26.913   48.597
| 45> C  -23.128   26.462   47.829
| 46> H  -23.829   25.634   47.994
| 47> H  -22.306   26.364   48.550
| 48> O  -22.586   26.394   46.375
| 49> C  -23.867   27.795   48.133
| 50> C  -24.285   27.876   49.605
| 51> C  -22.956   28.279   50.287
| 52> C  -22.290   29.206   49.240
| 53> O  -22.962   28.935   47.951
| 54> H  -24.686   27.920   47.422
| 55> O  -25.357   28.985   49.794
| 56> H  -24.692   26.934   49.989
| 57> H  -23.107   28.777   51.250
| 58> H  -22.339   27.389   50.463
| 59> H  -21.217   29.014   49.132
| 60> H  -22.440   30.266   49.466
| 61> H  -24.970   29.938   49.416
| 62> *
| 63>
| 64>                          ****END OF INPUT****
 Total Charge           Charge          ....    0
 Multiplicity           Mult            ....    1
 Number of Electrons    NEL             ....  102
FINAL SINGLE POINT ENERGY      -652.802720450715
FINAL SINGLE POINT ENERGY      -652.832050373458
FINAL SINGLE POINT ENERGY      -652.851754388808
FINAL SINGLE POINT ENERGY      -652.855961602009
FINAL SINGLE POINT ENERGY      -652.856586682238
FINAL SINGLE POINT ENERGY      -652.856704344370
FINAL SINGLE POINT ENERGY      -652.856719107984
FINAL SINGLE POINT ENERGY      -652.856720046200
                    ***********************HURRAY********************

CARTESIAN COORDINATES (ANGSTROEM)
---------------------------------
  C    -21.129671   26.267965   46.301030
  C    -20.375196   27.516817   45.840284
  C    -19.959512   28.151865   47.189040
  C    -19.679912   26.924467   48.084173
  O    -20.353732   25.774678   47.414571
  H    -21.119396   25.469319   45.554518
  H    -19.504054   27.201768   45.254477
  H    -21.000846   28.175454   45.234259
  H    -19.081988   28.799746   47.097499
  H    -20.798487   28.739184   47.563772
  H    -20.078718   27.022852   49.099305
  H    -18.617775   26.668789   48.142488
  C    -23.108205   26.501814   47.902360
  H    -23.869619   25.711837   47.952299
  H    -22.333245   26.261403   48.639565
  O    -22.546469   26.465755   46.567737
  C    -23.802613   27.830518   48.211801
  C    -24.435111   27.905236   49.610062
  C    -23.239709   28.394725   50.469134
  C    -22.480932   29.345154   49.514011
  O    -22.944880   29.019386   48.136952
  H    -24.567186   27.986421   47.442833
  O    -25.542472   28.845671   49.637844
  H    -24.853381   26.959336   49.956802
  H    -23.593975   28.892174   51.375043
  H    -22.614713   27.544354   50.764664
  H    -21.394463   29.222751   49.566117
  H    -22.720187   30.398523   49.688368
  H    -25.295551   29.651040   49.135991

 Multiplicity           Mult            ....    1
 Number of Electrons    NEL             ....  102
 Basis Dimension        Dim             ....  149

ORBITAL ENERGIES
----------------

  NO   OCC          E(Eh)            E(eV)
   0   2.0000     -19.153093      -521.1822
   1   2.0000     -19.148195      -521.0489
   2   2.0000     -19.142947      -520.9061
   3   2.0000     -19.134701      -520.6817
   4   2.0000     -10.275906      -279.6216
   5   2.0000     -10.247940      -278.8606
   6   2.0000     -10.239211      -278.6231
   7   2.0000     -10.236104      -278.5385
   8   2.0000     -10.232173      -278.4316
   9   2.0000     -10.230405      -278.3835
  10   2.0000     -10.195855      -277.4433
  11   2.0000     -10.179409      -276.9958
  12   2.0000     -10.179225      -276.9908
  13   2.0000      -1.051152       -28.6033
  14   2.0000      -1.041526       -28.3414
  15   2.0000      -1.011909       -27.5354
  16   2.0000      -0.990675       -26.9576
  17   2.0000      -0.791673       -21.5425
  18   2.0000      -0.783164       -21.3110
  19   2.0000      -0.771848       -21.0031
  20   2.0000      -0.735246       -20.0071
  21   2.0000      -0.676783       -18.4162
  22   2.0000      -0.611064       -16.6279
  23   2.0000      -0.603861       -16.4319
  24   2.0000      -0.594245       -16.1702
  25   2.0000      -0.574898       -15.6438
  26   2.0000      -0.526660       -14.3311
  27   2.0000      -0.515241       -14.0204
  28   2.0000      -0.498493       -13.5647
  29   2.0000      -0.488013       -13.2795
  30   2.0000      -0.479512       -13.0482
  31   2.0000      -0.462133       -12.5753
  32   2.0000      -0.450350       -12.2547
  33   2.0000      -0.448588       -12.2067
  34   2.0000      -0.420959       -11.4549
  35   2.0000      -0.411619       -11.2007
  36   2.0000      -0.403160       -10.9705
  37   2.0000      -0.398845       -10.8531
  38   2.0000      -0.378854       -10.3091
  39   2.0000      -0.369340       -10.0502
  40   2.0000      -0.364909        -9.9297
  41   2.0000      -0.354761        -9.6536
  42   2.0000      -0.342704        -9.3254
  43   2.0000      -0.337723        -9.1899
  44   2.0000      -0.326145        -8.8749
  45   2.0000      -0.313028        -8.5179
  46   2.0000      -0.301170        -8.1952
  47   2.0000      -0.277504        -7.5513
  48   2.0000      -0.265574        -7.2266
  49   2.0000      -0.260910        -7.0997
  50   2.0000      -0.237379        -6.4594
  51   0.0000       0.049802         1.3552
  52   0.0000       0.077968         2.1216
  53   0.0000       0.088507         2.4084
  54   0.0000       0.094422         2.5694
  55   0.0000       0.095551         2.6001

MULLIKEN ATOMIC CHARGES
-----------------------
   0 C :    0.308683
   1 C :   -0.257824
   2 C :   -0.339249
   3 C :   -0.023818
   4 O :   -0.513534
   5 H :    0.158266
   6 H :    0.142317
   7 H :    0.162363
   8 H :    0.138046
   9 H :    0.202971
  10 H :    0.132461
  11 H :    0.150170
  12 C :   -0.016442
  13 H :    0.145708
  14 H :    0.146949
  15 O :   -0.534652
  16 C :    0.078035
  17 C :    0.075133
  18 C :   -0.294053
  19 C :   -0.040996
  20 O :   -0.516447
  21 H :    0.170394
  22 O :   -0.600407
  23 H :    0.154792
  24 H :    0.165126
  25 H :    0.145853
  26 H :    0.142208
  27 H :    0.151941
  28 H :    0.366007
Sum of atomic charges:    0.0000000

LOEWDIN ATOMIC CHARGES
----------------------
   0 C :    0.187020
   1 C :   -0.220698
   2 C :   -0.235155
   3 C :   -0.033957
   4 O :   -0.320349
   5 H :    0.105171
   6 H :    0.112910
   7 H :    0.127404
   8 H :    0.113367
   9 H :    0.133316
  10 H :    0.093601
  11 H :    0.105639
  12 C :   -0.038989
  13 H :    0.108300
  14 H :    0.104458
  15 O :   -0.335156
  16 C :    0.009010
  17 C :    0.036489
  18 C :   -0.239599
  19 C :   -0.043152
  20 O :   -0.325248
  21 H :    0.119492
  22 O :   -0.412491
  23 H :    0.117215
  24 H :    0.128371
  25 H :    0.113733
  26 H :    0.100221
  27 H :    0.105093
  28 H :    0.283982

  Mayer bond orders larger than 0.100000
B(  0-C ,  1-C ) :   0.9214 B(  0-C ,  4-O ) :   0.9099 B(  0-C ,  5-H ) :   0.9337
B(  0-C , 15-O ) :   0.8548 B(  1-C ,  2-C ) :   0.9561 B(  1-C ,  6-H ) :   0.9355
B(  1-C ,  7-H ) :   0.9353 B(  2-C ,  3-C ) :   0.9536 B(  2-C ,  8-H ) :   0.9447
B(  2-C ,  9-H ) :   0.9016 B(  3-C ,  4-O ) :   0.8304 B(  3-C , 10-H ) :   0.9308
B(  3-C , 11-H ) :   0.9400 B( 12-C , 13-H ) :   0.9211 B( 12-C , 14-H ) :   0.9133
B( 12-C , 15-O ) :   0.8524 B( 12-C , 16-C ) :   0.8878 B( 16-C , 17-C ) :   0.8924
B( 16-C , 20-O ) :   0.8495 B( 16-C , 21-H ) :   0.9239 B( 17-C , 18-C ) :   0.9123
B( 17-C , 22-O ) :   0.8944 B( 17-C , 23-H ) :   0.9337 B( 18-C , 19-C ) :   0.9433
B( 18-C , 24-H ) :   0.9371 B( 18-C , 25-H ) :   0.9333 B( 19-C , 20-O ) :   0.8428
B( 19-C , 26-H ) :   0.9252 B( 19-C , 27-H ) :   0.9380 B( 22-O , 28-H ) :   0.7944

FINAL SINGLE POINT ENERGY      -652.856718459045

DIPOLE MOMENT
-------------
                                X             Y             Z
Electronic contribution:     -4.15028      -2.04449      -2.42382
Nuclear contribution   :      4.96908       2.61356       3.05985
                        -----------------------------------------
Total Dipole Moment    :      0.81880       0.56907       0.63603
                        -----------------------------------------
Magnitude (a.u.)       :      1.18271
Magnitude (Debye)      :      3.00622

Rotational constants in cm-1:     0.051217     0.016504     0.015092
Rotational constants in MHz :  1535.433627   494.783316   452.458271

                             ****ORCA TERMINATED NORMALLY****
TOTAL RUN TIME: 0 days 0 hours 29 minutes 31 seconds 933 msec
