                         Program Version 4.2.0 -  RELEASE  -
|  1> # Test redundant internal optimization
|  2> #
|  3> ! RKS B3LYP  Opt TightSCF SmallPrint
|  4>
|  5> %basis
|  6>         Basis "6-31G"
|  7> end
|  8>
|  9> %geom
| 10> Constraints
| 11> { D 4  0  15  12  135.0   C } # D for Dihedral angle
| 12> { D 0  15  12  16  150.0   C } # D for Dihedral angle
| 13> { D 0  4  3  2   C } # D for Dihedral angle
| 14> { D 4  3  2  1   C } # D for Dihedral angle
| 15> { D 3  2  1  0   C } # D for Dihedral angle
| 16> { D 2  1  0  4   C } # D for Dihedral angle
| 17> { D 1  0  4  3   C } # D for Dihedral angle
| 18> { D 16  20  19  18   C } # D for Dihedral angle
| 19> { D 20  19  18  17   C } # D for Dihedral angle
| 20> { D 19  18  17  16   C } # D for Dihedral angle
| 21> { D 18  17  16  20   C } # D for Dihedral angle
| 22> { D 17  16  20  19   C } # D for Dihedral angle
| 23> { D 15  12  16  20   C } # D for Dihedral angle
| 24> end
| 25> end
| 26>
| 27>
| 28> #%pal
| 29> #nprocs 8
| 30> #end
| 31>
| 32> * xyz 0 1
| 33> C  -21.048   26.222   46.251
| 34> C  -20.361   27.558   45.944
| 35> C  -20.329   28.222   47.341
| 36> C  -20.110   27.022   48.296
| 37> O  -20.473   25.807   47.535
| 38> H  -20.833   25.428   45.533
| 39> H  -19.344   27.382   45.576
| 40> H  -20.898   28.157   45.201
| 41> H  -19.543   28.978   47.434
| 42> H  -21.289   28.710   47.548
| 43> H  -20.733   27.082   49.195
| 44> H  -19.064   26.913   48.597
| 45> C  -23.162   27.680   45.721
| 46> H  -23.158   28.493   46.457
| 47> H  -22.543   27.987   44.868
| 48> O  -22.586   26.394   46.375
| 49> C  -24.616   27.492   45.206
| 50> C  -25.109   28.740   44.465
| 51> C  -24.434   28.572   43.083
| 52> C  -24.453   27.038   42.867
| 53> O  -24.670   26.429   44.197
| 54> H  -25.252   27.178   46.036
| 55> O  -26.656   28.702   44.328
| 56> H  -24.829   29.675   44.963
| 57> H  -24.957   29.112   42.287
| 58> H  -23.404   28.944   43.120
| 59> H  -23.513   26.661   42.449
| 60> H  -25.280   26.716   42.227
| 61> H  -26.959   27.774   43.831
| 62> *
| 63>
| 64>                          ****END OF INPUT****
 Total Charge           Charge          ....    0
 Multiplicity           Mult            ....    1
 Number of Electrons    NEL             ....  102
FINAL SINGLE POINT ENERGY      -652.819419714744
FINAL SINGLE POINT ENERGY      -652.843522257021
FINAL SINGLE POINT ENERGY      -652.848460648774
FINAL SINGLE POINT ENERGY      -652.850788015483
FINAL SINGLE POINT ENERGY      -652.851036833794
FINAL SINGLE POINT ENERGY      -652.851077047344
FINAL SINGLE POINT ENERGY      -652.851082239728
                    ***********************HURRAY********************

CARTESIAN COORDINATES (ANGSTROEM)
---------------------------------
  C    -21.121560   26.326125   46.232549
  C    -20.176170   27.506759   45.998852
  C    -20.162943   28.192527   47.391728
  C    -20.265698   26.990537   48.357671
  O    -20.768291   25.857421   47.546169
  H    -20.978413   25.479563   45.558375
  H    -19.184725   27.106187   45.759739
  H    -20.467790   28.177326   45.187691
  H    -19.257373   28.784234   47.555866
  H    -21.025750   28.858691   47.500349
  H    -20.955813   27.164864   49.187442
  H    -19.293170   26.686488   48.755666
  C    -23.090635   27.838092   45.637406
  H    -23.149434   28.645763   46.382947
  H    -22.477232   28.191193   44.798049
  O    -22.546029   26.633854   46.223540
  C    -24.496539   27.504889   45.138123
  C    -25.211454   28.671371   44.441204
  C    -24.629396   28.586580   43.005661
  C    -24.458421   27.062815   42.787973
  O    -24.486008   26.439246   44.133257
  H    -25.081894   27.123083   45.979504
  O    -26.651574   28.475287   44.448609
  H    -25.049864   29.640595   44.916231
  H    -25.310095   29.048905   42.286591
  H    -23.667845   29.109490   42.954362
  H    -23.515187   26.807402   42.294187
  H    -25.280396   26.625755   42.212260
  H    -26.846302   27.532960   44.258998

 Multiplicity           Mult            ....    1
 Number of Electrons    NEL             ....  102
 Basis Dimension        Dim             ....  149

ORBITAL ENERGIES
----------------

  NO   OCC          E(Eh)            E(eV)
   0   2.0000     -19.141675      -520.8714
   1   2.0000     -19.140149      -520.8299
   2   2.0000     -19.137599      -520.7605
   3   2.0000     -19.136004      -520.7171
   4   2.0000     -10.279224      -279.7119
   5   2.0000     -10.245151      -278.7847
   6   2.0000     -10.237256      -278.5699
   7   2.0000     -10.234210      -278.4870
   8   2.0000     -10.231886      -278.4238
   9   2.0000     -10.226397      -278.2744
  10   2.0000     -10.194767      -277.4137
  11   2.0000     -10.194289      -277.4007
  12   2.0000     -10.192129      -277.3419
  13   2.0000      -1.050487       -28.5852
  14   2.0000      -1.037102       -28.2210
  15   2.0000      -1.007567       -27.4173
  16   2.0000      -0.990756       -26.9598
  17   2.0000      -0.791203       -21.5297
  18   2.0000      -0.786845       -21.4111
  19   2.0000      -0.771021       -20.9806
  20   2.0000      -0.733721       -19.9656
  21   2.0000      -0.680475       -18.5167
  22   2.0000      -0.607428       -16.5290
  23   2.0000      -0.604871       -16.4594
  24   2.0000      -0.596613       -16.2347
  25   2.0000      -0.578041       -15.7293
  26   2.0000      -0.528415       -14.3789
  27   2.0000      -0.508848       -13.8465
  28   2.0000      -0.500927       -13.6309
  29   2.0000      -0.493537       -13.4298
  30   2.0000      -0.481013       -13.0890
  31   2.0000      -0.462649       -12.5893
  32   2.0000      -0.450974       -12.2716
  33   2.0000      -0.445488       -12.1223
  34   2.0000      -0.426677       -11.6105
  35   2.0000      -0.411987       -11.2107
  36   2.0000      -0.405932       -11.0460
  37   2.0000      -0.395571       -10.7640
  38   2.0000      -0.382503       -10.4084
  39   2.0000      -0.374480       -10.1901
  40   2.0000      -0.367328        -9.9955
  41   2.0000      -0.359115        -9.7720
  42   2.0000      -0.352911        -9.6032
  43   2.0000      -0.333090        -9.0638
  44   2.0000      -0.313253        -8.5240
  45   2.0000      -0.307547        -8.3688
  46   2.0000      -0.293145        -7.9769
  47   2.0000      -0.272803        -7.4234
  48   2.0000      -0.262681        -7.1479
  49   2.0000      -0.253448        -6.8967
  50   2.0000      -0.241057        -6.5595
  51   0.0000       0.059615         1.6222
  52   0.0000       0.075464         2.0535
  53   0.0000       0.081569         2.2196
  54   0.0000       0.096162         2.6167
  55   0.0000       0.102699         2.7946

MULLIKEN ATOMIC CHARGES
-----------------------
   0 C :    0.318177
   1 C :   -0.297010
   2 C :   -0.307800
   3 C :   -0.000004
   4 O :   -0.493688
   5 H :    0.159875
   6 H :    0.154669
   7 H :    0.142263
   8 H :    0.145527
   9 H :    0.151413
  10 H :    0.151302
  11 H :    0.143687
  12 C :    0.002287
  13 H :    0.128176
  14 H :    0.118675
  15 O :   -0.516314
  16 C :    0.069873
  17 C :    0.074904
  18 C :   -0.291938
  19 C :   -0.030772
  20 O :   -0.507904
  21 H :    0.175905
  22 O :   -0.601619
  23 H :    0.148625
  24 H :    0.163927
  25 H :    0.138641
  26 H :    0.143862
  27 H :    0.147903
  28 H :    0.367360
Sum of atomic charges:   -0.0000000

LOEWDIN ATOMIC CHARGES
----------------------
   0 C :    0.186032
   1 C :   -0.233290
   2 C :   -0.219289
   3 C :   -0.028319
   4 O :   -0.307352
   5 H :    0.107784
   6 H :    0.121508
   7 H :    0.112538
   8 H :    0.116027
   9 H :    0.110306
  10 H :    0.107469
  11 H :    0.103493
  12 C :   -0.039682
  13 H :    0.093594
  14 H :    0.089041
  15 O :   -0.325011
  16 C :    0.017738
  17 C :    0.034930
  18 C :   -0.241609
  19 C :   -0.039372
  20 O :   -0.318538
  21 H :    0.123737
  22 O :   -0.413664
  23 H :    0.113641
  24 H :    0.127340
  25 H :    0.109792
  26 H :    0.102837
  27 H :    0.103443
  28 H :    0.284875

  Mayer bond orders larger than 0.100000
B(  0-C ,  1-C ) :   0.9331 B(  0-C ,  4-O ) :   0.9241 B(  0-C ,  5-H ) :   0.9269
B(  0-C , 15-O ) :   0.8541 B(  1-C ,  2-C ) :   0.9483 B(  1-C ,  6-H ) :   0.9340
B(  1-C ,  7-H ) :   0.9276 B(  2-C ,  3-C ) :   0.9520 B(  2-C ,  8-H ) :   0.9455
B(  2-C ,  9-H ) :   0.9440 B(  3-C ,  4-O ) :   0.8439 B(  3-C , 10-H ) :   0.9341
B(  3-C , 11-H ) :   0.9394 B( 12-C , 13-H ) :   0.9076 B( 12-C , 14-H ) :   0.9093
B( 12-C , 15-O ) :   0.8570 B( 12-C , 16-C ) :   0.8903 B( 16-C , 17-C ) :   0.8977
B( 16-C , 20-O ) :   0.8661 B( 16-C , 21-H ) :   0.9222 B( 17-C , 18-C ) :   0.9093
B( 17-C , 22-O ) :   0.8971 B( 17-C , 23-H ) :   0.9335 B( 18-C , 19-C ) :   0.9379
B( 18-C , 24-H ) :   0.9374 B( 18-C , 25-H ) :   0.9346 B( 19-C , 20-O ) :   0.8533
B( 19-C , 26-H ) :   0.9349 B( 19-C , 27-H ) :   0.9376 B( 22-O , 28-H ) :   0.7924

FINAL SINGLE POINT ENERGY      -652.851083425450

DIPOLE MOMENT
-------------
                                X             Y             Z
Electronic contribution:     -4.30509      -5.07275       1.29874
Nuclear contribution   :      5.38537       6.42256      -2.02383
                        -----------------------------------------
Total Dipole Moment    :      1.08029       1.34981      -0.72509
                        -----------------------------------------
Magnitude (a.u.)       :      1.87477
Magnitude (Debye)      :      4.76528

Rotational constants in cm-1:     0.063634     0.011660     0.011486
Rotational constants in MHz :  1907.694959   349.551186   344.334186

                             ****ORCA TERMINATED NORMALLY****
TOTAL RUN TIME: 0 days 1 hours 15 minutes 6 seconds 193 msec
