                         Program Version 4.2.0 -  RELEASE  -
|  1> # Test redundant internal optimization
|  2> #
|  3> ! RKS B3LYP  Opt TightSCF SmallPrint
|  4>
|  5> %basis
|  6>         Basis "6-31G"
|  7> end
|  8>
|  9> %geom
| 10> Constraints
| 11> { D 4  0  15  12  30.0   C } # D for Dihedral angle
| 12> { D 0  15  12  16  120.0   C } # D for Dihedral angle
| 13> { D 0  4  3  2   C } # D for Dihedral angle
| 14> { D 4  3  2  1   C } # D for Dihedral angle
| 15> { D 3  2  1  0   C } # D for Dihedral angle
| 16> { D 2  1  0  4   C } # D for Dihedral angle
| 17> { D 1  0  4  3   C } # D for Dihedral angle
| 18> { D 16  20  19  18   C } # D for Dihedral angle
| 19> { D 20  19  18  17   C } # D for Dihedral angle
| 20> { D 19  18  17  16   C } # D for Dihedral angle
| 21> { D 18  17  16  20   C } # D for Dihedral angle
| 22> { D 17  16  20  19   C } # D for Dihedral angle
| 23> { D 15  12  16  20   C } # D for Dihedral angle
| 24> end
| 25> end
| 26>
| 27>
| 28> #%pal
| 29> #nprocs 8
| 30> #end
| 31>
| 32> * xyz 0 1
| 33> C  -21.048   26.222   46.251
| 34> C  -20.361   27.558   45.944
| 35> C  -20.329   28.222   47.341
| 36> C  -20.110   27.022   48.296
| 37> O  -20.473   25.807   47.535
| 38> H  -20.833   25.428   45.533
| 39> H  -19.344   27.382   45.576
| 40> H  -20.898   28.157   45.201
| 41> H  -19.543   28.978   47.434
| 42> H  -21.289   28.710   47.548
| 43> H  -20.733   27.082   49.195
| 44> H  -19.064   26.913   48.597
| 45> C  -23.091   26.824   47.779
| 46> H  -23.767   26.054   48.172
| 47> H  -22.249   26.928   48.475
| 48> O  -22.586   26.394   46.375
| 49> C  -23.854   28.177   47.755
| 50> C  -24.237   28.627   49.169
| 51> C  -22.900   29.213   49.684
| 52> C  -22.285   29.852   48.414
| 53> O  -22.983   29.248   47.259
| 54> H  -24.695   28.102   47.062
| 55> O  -25.329   29.729   49.102
| 56> H  -24.610   27.808   49.794
| 57> H  -23.038   29.940   50.491
| 58> H  -22.257   28.410   50.062
| 59> H  -21.210   29.657   48.325
| 60> H  -22.454   30.931   48.365
| 61> H  -24.976   30.559   48.481
| 62> *
| 63>
| 64>                          ****END OF INPUT****
 Total Charge           Charge          ....    0
 Multiplicity           Mult            ....    1
 Number of Electrons    NEL             ....  102
FINAL SINGLE POINT ENERGY      -652.771703764082
FINAL SINGLE POINT ENERGY      -652.824420965651
FINAL SINGLE POINT ENERGY      -652.847082866826
FINAL SINGLE POINT ENERGY      -652.853303865762
FINAL SINGLE POINT ENERGY      -652.854228754308
FINAL SINGLE POINT ENERGY      -652.854455087603
FINAL SINGLE POINT ENERGY      -652.854494146393
FINAL SINGLE POINT ENERGY      -652.854508474618
FINAL SINGLE POINT ENERGY      -652.854510069072
FINAL SINGLE POINT ENERGY      -652.854509069185
                    ***********************HURRAY********************

CARTESIAN COORDINATES (ANGSTROEM)
---------------------------------
  C    -21.149976   26.266735   46.314171
  C    -20.316085   27.458668   45.838099
  C    -19.839605   28.069496   47.178817
  C    -19.635246   26.825951   48.075242
  O    -20.394096   25.725849   47.421291
  H    -21.202104   25.470330   45.568275
  H    -19.474599   27.082184   45.245638
  H    -20.901908   28.157852   45.238312
  H    -18.922893   28.658647   47.078309
  H    -20.628509   28.715841   47.560393
  H    -20.007408   26.956462   49.096739
  H    -18.590831   26.502270   48.117817
  C    -23.089931   26.882266   47.880820
  H    -23.846913   26.129411   48.134221
  H    -22.309673   26.838643   48.652144
  O    -22.549290   26.523881   46.585826
  C    -23.783963   28.246581   47.840834
  C    -24.446174   28.694827   49.152362
  C    -23.272775   29.418739   49.862457
  C    -22.504101   30.081865   48.695401
  O    -22.937550   29.381499   47.453572
  H    -24.540593   28.184270   47.049627
  O    -25.558822   29.593470   48.896863
  H    -24.864924   27.876590   49.739831
  H    -23.646736   30.140389   50.593162
  H    -22.644524   28.689841   50.387268
  H    -21.418627   30.000209   48.802368
  H    -22.760790   31.137923   48.566664
  H    -25.307354   30.223312   48.188476

 Multiplicity           Mult            ....    1
 Number of Electrons    NEL             ....  102
 Basis Dimension        Dim             ....  149

ORBITAL ENERGIES
----------------

  NO   OCC          E(Eh)            E(eV)
   0   2.0000     -19.153220      -521.1856
   1   2.0000     -19.145838      -520.9847
   2   2.0000     -19.142673      -520.8986
   3   2.0000     -19.135821      -520.7122
   4   2.0000     -10.275992      -279.6240
   5   2.0000     -10.248212      -278.8680
   6   2.0000     -10.239226      -278.6235
   7   2.0000     -10.236561      -278.5510
   8   2.0000     -10.235783      -278.5298
   9   2.0000     -10.230380      -278.3828
  10   2.0000     -10.196460      -277.4598
  11   2.0000     -10.184153      -277.1249
  12   2.0000     -10.179660      -277.0026
  13   2.0000      -1.050837       -28.5947
  14   2.0000      -1.041311       -28.3355
  15   2.0000      -1.011643       -27.5282
  16   2.0000      -0.991943       -26.9921
  17   2.0000      -0.791549       -21.5391
  18   2.0000      -0.784320       -21.3424
  19   2.0000      -0.773837       -21.0572
  20   2.0000      -0.735302       -20.0086
  21   2.0000      -0.679193       -18.4818
  22   2.0000      -0.611205       -16.6317
  23   2.0000      -0.603996       -16.4356
  24   2.0000      -0.597047       -16.2465
  25   2.0000      -0.576098       -15.6764
  26   2.0000      -0.526767       -14.3341
  27   2.0000      -0.515152       -14.0180
  28   2.0000      -0.501423       -13.6444
  29   2.0000      -0.488623       -13.2961
  30   2.0000      -0.478239       -13.0136
  31   2.0000      -0.463066       -12.6007
  32   2.0000      -0.451264       -12.2795
  33   2.0000      -0.449018       -12.2184
  34   2.0000      -0.421052       -11.4574
  35   2.0000      -0.414340       -11.2748
  36   2.0000      -0.404581       -11.0092
  37   2.0000      -0.400126       -10.8880
  38   2.0000      -0.379352       -10.3227
  39   2.0000      -0.372305       -10.1309
  40   2.0000      -0.362924        -9.8757
  41   2.0000      -0.355516        -9.6741
  42   2.0000      -0.341529        -9.2935
  43   2.0000      -0.339564        -9.2400
  44   2.0000      -0.322213        -8.7679
  45   2.0000      -0.314316        -8.5530
  46   2.0000      -0.303468        -8.2578
  47   2.0000      -0.277079        -7.5397
  48   2.0000      -0.264337        -7.1930
  49   2.0000      -0.261143        -7.1061
  50   2.0000      -0.238776        -6.4974
  51   0.0000       0.050533         1.3751
  52   0.0000       0.075708         2.0601
  53   0.0000       0.087873         2.3912
  54   0.0000       0.092737         2.5235
  55   0.0000       0.096977         2.6389

MULLIKEN ATOMIC CHARGES
-----------------------
   0 C :    0.307108
   1 C :   -0.256709
   2 C :   -0.337032
   3 C :   -0.017763
   4 O :   -0.511955
   5 H :    0.161994
   6 H :    0.143224
   7 H :    0.167100
   8 H :    0.140087
   9 H :    0.183234
  10 H :    0.133229
  11 H :    0.149041
  12 C :   -0.011568
  13 H :    0.149416
  14 H :    0.137010
  15 O :   -0.531902
  16 C :    0.070294
  17 C :    0.075335
  18 C :   -0.291916
  19 C :   -0.041714
  20 O :   -0.514852
  21 H :    0.173785
  22 O :   -0.598968
  23 H :    0.155683
  24 H :    0.166504
  25 H :    0.142851
  26 H :    0.139616
  27 H :    0.153011
  28 H :    0.365857
Sum of atomic charges:   -0.0000000

LOEWDIN ATOMIC CHARGES
----------------------
   0 C :    0.185678
   1 C :   -0.223161
   2 C :   -0.230415
   3 C :   -0.034932
   4 O :   -0.320859
   5 H :    0.109099
   6 H :    0.113982
   7 H :    0.129703
   8 H :    0.114816
   9 H :    0.123754
  10 H :    0.094838
  11 H :    0.104942
  12 C :   -0.036084
  13 H :    0.110805
  14 H :    0.099881
  15 O :   -0.330250
  16 C :    0.006561
  17 C :    0.035808
  18 C :   -0.239913
  19 C :   -0.043730
  20 O :   -0.326568
  21 H :    0.120443
  22 O :   -0.411889
  23 H :    0.117508
  24 H :    0.128661
  25 H :    0.112790
  26 H :    0.099241
  27 H :    0.105452
  28 H :    0.283839

  Mayer bond orders larger than 0.100000
B(  0-C ,  1-C ) :   0.9177 B(  0-C ,  4-O ) :   0.9083 B(  0-C ,  5-H ) :   0.9350
B(  0-C , 15-O ) :   0.8676 B(  1-C ,  2-C ) :   0.9573 B(  1-C ,  6-H ) :   0.9345
B(  1-C ,  7-H ) :   0.9332 B(  2-C ,  3-C ) :   0.9526 B(  2-C ,  8-H ) :   0.9459
B(  2-C ,  9-H ) :   0.9092 B(  3-C ,  4-O ) :   0.8360 B(  3-C , 10-H ) :   0.9320
B(  3-C , 11-H ) :   0.9393 B( 12-C , 13-H ) :   0.9213 B( 12-C , 14-H ) :   0.9174
B( 12-C , 15-O ) :   0.8474 B( 12-C , 16-C ) :   0.8917 B( 16-C , 17-C ) :   0.8928
B( 16-C , 20-O ) :   0.8560 B( 16-C , 21-H ) :   0.9216 B( 17-C , 18-C ) :   0.9121
B( 17-C , 22-O ) :   0.8945 B( 17-C , 23-H ) :   0.9333 B( 18-C , 19-C ) :   0.9452
B( 18-C , 24-H ) :   0.9361 B( 18-C , 25-H ) :   0.9345 B( 19-C , 20-O ) :   0.8446
B( 19-C , 26-H ) :   0.9218 B( 19-C , 27-H ) :   0.9387 B( 22-O , 28-H ) :   0.7944

FINAL SINGLE POINT ENERGY      -652.854507707750

DIPOLE MOMENT
-------------
                                X             Y             Z
Electronic contribution:     -4.31602      -2.63057      -2.58905
Nuclear contribution   :      5.19053       3.40463       3.21335
                        -----------------------------------------
Total Dipole Moment    :      0.87451       0.77406       0.62430
                        -----------------------------------------
Magnitude (a.u.)       :      1.32427
Magnitude (Debye)      :      3.36603

Rotational constants in cm-1:     0.051529     0.016025     0.014731
Rotational constants in MHz :  1544.800363   480.422081   441.627572

                             ****ORCA TERMINATED NORMALLY****
TOTAL RUN TIME: 0 days 0 hours 35 minutes 29 seconds 263 msec
