                         Program Version 4.2.0 -  RELEASE  -
|  1> # Test redundant internal optimization
|  2> #
|  3> ! RKS B3LYP  Opt TightSCF SmallPrint
|  4>
|  5> %basis
|  6>         Basis "6-31G"
|  7> end
|  8>
|  9> %geom
| 10> Constraints
| 11> { D 4  0  15  12  300.0   C } # D for Dihedral angle
| 12> { D 0  15  12  16  90.0   C } # D for Dihedral angle
| 13> { D 0  4  3  2   C } # D for Dihedral angle
| 14> { D 4  3  2  1   C } # D for Dihedral angle
| 15> { D 3  2  1  0   C } # D for Dihedral angle
| 16> { D 2  1  0  4   C } # D for Dihedral angle
| 17> { D 1  0  4  3   C } # D for Dihedral angle
| 18> { D 16  20  19  18   C } # D for Dihedral angle
| 19> { D 20  19  18  17   C } # D for Dihedral angle
| 20> { D 19  18  17  16   C } # D for Dihedral angle
| 21> { D 18  17  16  20   C } # D for Dihedral angle
| 22> { D 17  16  20  19   C } # D for Dihedral angle
| 23> { D 15  12  16  20   C } # D for Dihedral angle
| 24> end
| 25> end
| 26>
| 27>
| 28> #%pal
| 29> #nprocs 8
| 30> #end
| 31>
| 32> * xyz 0 1
| 33> C  -21.048   26.222   46.251
| 34> C  -20.361   27.558   45.944
| 35> C  -20.329   28.222   47.341
| 36> C  -20.110   27.022   48.296
| 37> O  -20.473   25.807   47.535
| 38> H  -20.833   25.428   45.533
| 39> H  -19.344   27.382   45.576
| 40> H  -20.898   28.157   45.201
| 41> H  -19.543   28.978   47.434
| 42> H  -21.289   28.710   47.548
| 43> H  -20.733   27.082   49.195
| 44> H  -19.064   26.913   48.597
| 45> C  -23.362   25.116   46.798
| 46> H  -24.365   25.139   46.356
| 47> H  -22.847   24.217   46.435
| 48> O  -22.586   26.394   46.375
| 49> C  -23.510   24.986   48.339
| 50> C  -24.176   23.660   48.724
| 51> C  -22.995   22.668   48.599
| 52> C  -21.779   23.508   49.063
| 53> O  -22.190   24.926   48.977
| 54> H  -24.013   25.874   48.727
| 55> H  -24.535   23.705   49.758
| 56> O  -25.373   23.290   47.806
| 57> H  -23.134   21.765   49.202
| 58> H  -22.874   22.357   47.554
| 59> H  -20.896   23.352   48.433
| 60> H  -21.510   23.312   50.105
| 61> H  -25.038   23.238   46.765
| 62> *
| 63>
| 64>                          ****END OF INPUT****
 Total Charge           Charge          ....    0
 Multiplicity           Mult            ....    1
 Number of Electrons    NEL             ....  102
FINAL SINGLE POINT ENERGY      -652.821872501596
FINAL SINGLE POINT ENERGY      -652.846997399095
FINAL SINGLE POINT ENERGY      -652.855642889196
FINAL SINGLE POINT ENERGY      -652.857659039623
FINAL SINGLE POINT ENERGY      -652.858037088401
FINAL SINGLE POINT ENERGY      -652.858122988885
FINAL SINGLE POINT ENERGY      -652.858130827590
FINAL SINGLE POINT ENERGY      -652.858133076879
                    ***********************HURRAY********************

CARTESIAN COORDINATES (ANGSTROEM)
---------------------------------
  C    -20.992435   26.215544   46.227813
  C    -20.510202   27.634453   45.936705
  C    -20.412599   28.238101   47.357327
  C    -19.952240   27.035313   48.211903
  O    -20.256281   25.829908   47.397450
  H    -20.772101   25.455529   45.469296
  H    -19.523721   27.591033   45.459913
  H    -21.197236   28.176290   45.283737
  H    -19.714256   29.079103   47.409541
  H    -21.399653   28.583174   47.676985
  H    -20.485620   26.940568   49.158883
  H    -18.872223   27.025650   48.388971
  C    -23.207834   25.170694   46.787524
  H    -24.199256   25.321527   46.349475
  H    -22.760932   24.266751   46.340809
  O    -22.435140   26.330158   46.380870
  C    -23.399300   24.983024   48.304778
  C    -24.198201   23.704228   48.608417
  C    -23.077007   22.616696   48.633155
  C    -21.883609   23.387966   49.242454
  O    -22.193204   24.830173   49.095600
  H    -23.894104   25.879214   48.692772
  H    -24.658742   23.790318   49.595210
  O    -25.305134   23.423522   47.716137
  H    -23.366753   21.741117   49.219539
  H    -22.860049   22.284366   47.609632
  H    -20.935552   23.188069   48.736156
  H    -21.767910   23.192376   50.312642
  H    -24.976705   23.073136   46.863306

 Multiplicity           Mult            ....    1
 Number of Electrons    NEL             ....  102
 Basis Dimension        Dim             ....  149

ORBITAL ENERGIES
----------------

  NO   OCC          E(Eh)            E(eV)
   0   2.0000     -19.148040      -521.0447
   1   2.0000     -19.138039      -520.7725
   2   2.0000     -19.132853      -520.6314
   3   2.0000     -19.130774      -520.5748
   4   2.0000     -10.271744      -279.5084
   5   2.0000     -10.242700      -278.7180
   6   2.0000     -10.227666      -278.3089
   7   2.0000     -10.226889      -278.2878
   8   2.0000     -10.224716      -278.2287
   9   2.0000     -10.212672      -277.9009
  10   2.0000     -10.193103      -277.3684
  11   2.0000     -10.176488      -276.9163
  12   2.0000     -10.176017      -276.9035
  13   2.0000      -1.044796       -28.4304
  14   2.0000      -1.031041       -28.0561
  15   2.0000      -1.012993       -27.5649
  16   2.0000      -0.988026       -26.8856
  17   2.0000      -0.782151       -21.2834
  18   2.0000      -0.777314       -21.1518
  19   2.0000      -0.760673       -20.6990
  20   2.0000      -0.725342       -19.7376
  21   2.0000      -0.674356       -18.3502
  22   2.0000      -0.609018       -16.5722
  23   2.0000      -0.590182       -16.0597
  24   2.0000      -0.587552       -15.9881
  25   2.0000      -0.569162       -15.4877
  26   2.0000      -0.523382       -14.2420
  27   2.0000      -0.510094       -13.8804
  28   2.0000      -0.491584       -13.3767
  29   2.0000      -0.479416       -13.0456
  30   2.0000      -0.463017       -12.5993
  31   2.0000      -0.451582       -12.2882
  32   2.0000      -0.442961       -12.0536
  33   2.0000      -0.426899       -11.6165
  34   2.0000      -0.418565       -11.3897
  35   2.0000      -0.415505       -11.3065
  36   2.0000      -0.401324       -10.9206
  37   2.0000      -0.392412       -10.6781
  38   2.0000      -0.378614       -10.3026
  39   2.0000      -0.364853        -9.9282
  40   2.0000      -0.347548        -9.4572
  41   2.0000      -0.346940        -9.4407
  42   2.0000      -0.337703        -9.1894
  43   2.0000      -0.328731        -8.9452
  44   2.0000      -0.319288        -8.6883
  45   2.0000      -0.311433        -8.4745
  46   2.0000      -0.288075        -7.8389
  47   2.0000      -0.269098        -7.3225
  48   2.0000      -0.267255        -7.2724
  49   2.0000      -0.252125        -6.8607
  50   2.0000      -0.223852        -6.0913
  51   0.0000       0.054438         1.4813
  52   0.0000       0.079772         2.1707
  53   0.0000       0.092694         2.5223
  54   0.0000       0.102530         2.7900
  55   0.0000       0.111313         3.0290

MULLIKEN ATOMIC CHARGES
-----------------------
   0 C :    0.298153
   1 C :   -0.265785
   2 C :   -0.298915
   3 C :   -0.005151
   4 O :   -0.499536
   5 H :    0.135140
   6 H :    0.140261
   7 H :    0.155986
   8 H :    0.136574
   9 H :    0.160278
  10 H :    0.165719
  11 H :    0.135888
  12 C :   -0.011585
  13 H :    0.155131
  14 H :    0.105835
  15 O :   -0.527656
  16 C :    0.108119
  17 C :    0.077668
  18 C :   -0.322982
  19 C :   -0.003916
  20 O :   -0.501934
  21 H :    0.152805
  22 H :    0.166724
  23 O :   -0.601458
  24 H :    0.155812
  25 H :    0.132278
  26 H :    0.156806
  27 H :    0.143989
  28 H :    0.355755
Sum of atomic charges:   -0.0000000

LOEWDIN ATOMIC CHARGES
----------------------
   0 C :    0.174507
   1 C :   -0.215795
   2 C :   -0.216262
   3 C :   -0.028682
   4 O :   -0.314543
   5 H :    0.091525
   6 H :    0.110973
   7 H :    0.122910
   8 H :    0.111273
   9 H :    0.118189
  10 H :    0.115300
  11 H :    0.099337
  12 C :   -0.050238
  13 H :    0.116877
  14 H :    0.083200
  15 O :   -0.328760
  16 C :    0.013211
  17 C :    0.033059
  18 C :   -0.241356
  19 C :   -0.027577
  20 O :   -0.306827
  21 H :    0.113388
  22 H :    0.118344
  23 O :   -0.408440
  24 H :    0.121783
  25 H :    0.103416
  26 H :    0.110232
  27 H :    0.103486
  28 H :    0.277470

  Mayer bond orders larger than 0.100000
B(  0-C ,  1-C ) :   0.9480 B(  0-C ,  4-O ) :   0.9303 B(  0-C ,  5-H ) :   0.9223
B(  0-C , 15-O ) :   0.8457 B(  1-C ,  2-C ) :   0.9593 B(  1-C ,  6-H ) :   0.9410
B(  1-C ,  7-H ) :   0.9365 B(  2-C ,  3-C ) :   0.9570 B(  2-C ,  8-H ) :   0.9452
B(  2-C ,  9-H ) :   0.9443 B(  3-C ,  4-O ) :   0.8273 B(  3-C , 10-H ) :   0.9261
B(  3-C , 11-H ) :   0.9412 B( 12-C , 13-H ) :   0.9200 B( 12-C , 14-H ) :   0.9223
B( 12-C , 15-O ) :   0.8583 B( 12-C , 16-C ) :   0.8831 B( 16-C , 17-C ) :   0.8680
B( 16-C , 20-O ) :   0.8757 B( 16-C , 21-H ) :   0.9327 B( 17-C , 18-C ) :   0.9255
B( 17-C , 22-H ) :   0.9335 B( 17-C , 23-O ) :   0.8929 B( 18-C , 19-C ) :   0.9405
B( 18-C , 24-H ) :   0.9420 B( 18-C , 25-H ) :   0.9402 B( 19-C , 20-O ) :   0.8415
B( 19-C , 26-H ) :   0.9267 B( 19-C , 27-H ) :   0.9384 B( 23-O , 28-H ) :   0.7982

FINAL SINGLE POINT ENERGY      -652.858133302121

DIPOLE MOMENT
-------------
                                X             Y             Z
Electronic contribution:     -2.48768      -0.88788       0.00945
Nuclear contribution   :      2.94758       0.43467      -0.28676
                        -----------------------------------------
Total Dipole Moment    :      0.45990      -0.45321      -0.27731
                        -----------------------------------------
Magnitude (a.u.)       :      0.70272
Magnitude (Debye)      :      1.78616

Rotational constants in cm-1:     0.054043     0.016095     0.013971
Rotational constants in MHz :  1620.179525   482.517952   418.844644

                             ****ORCA TERMINATED NORMALLY****
TOTAL RUN TIME: 0 days 1 hours 16 minutes 33 seconds 269 msec
