                         Program Version 4.2.0 -  RELEASE  -
|  1> # Test redundant internal optimization
|  2> #
|  3> ! RKS B3LYP  Opt TightSCF SmallPrint
|  4>
|  5> %basis
|  6>         Basis "6-31G"
|  7> end
|  8>
|  9> %geom
| 10> Constraints
| 11> { D 4  0  15  12  120.0   C } # D for Dihedral angle
| 12> { D 0  15  12  16  255.0   C } # D for Dihedral angle
| 13> { D 0  4  3  2   C } # D for Dihedral angle
| 14> { D 4  3  2  1   C } # D for Dihedral angle
| 15> { D 3  2  1  0   C } # D for Dihedral angle
| 16> { D 2  1  0  4   C } # D for Dihedral angle
| 17> { D 1  0  4  3   C } # D for Dihedral angle
| 18> { D 16  20  19  18   C } # D for Dihedral angle
| 19> { D 20  19  18  17   C } # D for Dihedral angle
| 20> { D 19  18  17  16   C } # D for Dihedral angle
| 21> { D 18  17  16  20   C } # D for Dihedral angle
| 22> { D 17  16  20  19   C } # D for Dihedral angle
| 23> { D 15  12  16  20   C } # D for Dihedral angle
| 24> end
| 25> end
| 26>
| 27>
| 28> #%pal
| 29> #nprocs 8
| 30> #end
| 31>
| 32> * xyz 0 1
| 33> C  -21.048   26.222   46.251
| 34> C  -20.361   27.558   45.944
| 35> C  -20.329   28.222   47.341
| 36> C  -20.110   27.022   48.296
| 37> O  -20.473   25.807   47.535
| 38> H  -20.833   25.428   45.533
| 39> H  -19.344   27.382   45.576
| 40> H  -20.898   28.157   45.201
| 41> H  -19.543   28.978   47.434
| 42> H  -21.289   28.710   47.548
| 43> H  -20.733   27.082   49.195
| 44> H  -19.064   26.913   48.597
| 45> C  -23.119   27.818   46.058
| 46> H  -22.341   28.387   45.534
| 47> H  -24.000   27.762   45.406
| 48> O  -22.586   26.394   46.375
| 49> C  -23.525   28.606   47.334
| 50> C  -24.152   29.958   46.978
| 51> C  -25.591   29.543   46.590
| 52> C  -25.891   28.368   47.554
| 53> O  -24.584   27.896   48.059
| 54> H  -22.665   28.669   48.004
| 55> O  -24.166   30.884   48.225
| 56> H  -23.627   30.476   46.169
| 57> H  -26.312   30.361   46.693
| 58> H  -25.617   29.204   45.547
| 59> H  -26.403   27.537   47.056
| 60> H  -26.479   28.679   48.421
| 61> H  -24.688   30.385   49.048
| 62> *
| 63>
| 64>                          ****END OF INPUT****
 Total Charge           Charge          ....    0
 Multiplicity           Mult            ....    1
 Number of Electrons    NEL             ....  102
FINAL SINGLE POINT ENERGY      -652.803330147097
FINAL SINGLE POINT ENERGY      -652.830048159407
FINAL SINGLE POINT ENERGY      -652.844952844428
FINAL SINGLE POINT ENERGY      -652.847585364284
FINAL SINGLE POINT ENERGY      -652.848043727895
FINAL SINGLE POINT ENERGY      -652.848088437406
FINAL SINGLE POINT ENERGY      -652.848083417423
                    ***********************HURRAY********************

CARTESIAN COORDINATES (ANGSTROEM)
---------------------------------
  C    -21.128002   26.349631   46.300852
  C    -20.156098   27.480370   45.948877
  C    -19.987707   28.201198   47.315327
  C    -20.055472   27.028338   48.323066
  O    -20.677907   25.898679   47.593200
  H    -21.037943   25.477794   45.649826
  H    -19.210947   27.022498   45.639356
  H    -20.486975   28.139027   45.141670
  H    -19.041253   28.746658   47.380777
  H    -20.794055   28.921455   47.480837
  H    -20.658835   27.255344   49.206598
  H    -19.064396   26.693035   48.641472
  C    -23.151074   27.918609   46.025460
  H    -22.460359   28.578159   45.482851
  H    -23.997020   27.702039   45.363590
  O    -22.555486   26.630433   46.317169
  C    -23.643920   28.635301   47.288542
  C    -24.328947   29.979911   47.005287
  C    -25.766105   29.529046   46.628336
  C    -25.998500   28.303571   47.547067
  O    -24.659652   27.859250   48.002359
  H    -22.815296   28.760356   47.990912
  O    -24.318906   30.825265   48.188536
  H    -23.845419   30.573181   46.227610
  H    -26.480934   30.337558   46.802484
  H    -25.811148   29.250727   45.569517
  H    -26.491447   27.474381   47.030779
  H    -26.579020   28.551303   48.441588
  H    -24.568176   30.284881   48.968053

 Multiplicity           Mult            ....    1
 Number of Electrons    NEL             ....  102
 Basis Dimension        Dim             ....  149

ORBITAL ENERGIES
----------------

  NO   OCC          E(Eh)            E(eV)
   0   2.0000     -19.142864      -520.9038
   1   2.0000     -19.140966      -520.8522
   2   2.0000     -19.136826      -520.7395
   3   2.0000     -19.135992      -520.7168
   4   2.0000     -10.278676      -279.6970
   5   2.0000     -10.246640      -278.8253
   6   2.0000     -10.237144      -278.5668
   7   2.0000     -10.235583      -278.5244
   8   2.0000     -10.230905      -278.3971
   9   2.0000     -10.225765      -278.2572
  10   2.0000     -10.195903      -277.4446
  11   2.0000     -10.194565      -277.4082
  12   2.0000     -10.192625      -277.3554
  13   2.0000      -1.047732       -28.5102
  14   2.0000      -1.037796       -28.2399
  15   2.0000      -1.008540       -27.4438
  16   2.0000      -0.991020       -26.9670
  17   2.0000      -0.790835       -21.5197
  18   2.0000      -0.787777       -21.4365
  19   2.0000      -0.770789       -20.9742
  20   2.0000      -0.734548       -19.9881
  21   2.0000      -0.681430       -18.5426
  22   2.0000      -0.609783       -16.5931
  23   2.0000      -0.606695       -16.5090
  24   2.0000      -0.598886       -16.2965
  25   2.0000      -0.574092       -15.6218
  26   2.0000      -0.523833       -14.2542
  27   2.0000      -0.516639       -14.0585
  28   2.0000      -0.502600       -13.6764
  29   2.0000      -0.495858       -13.4930
  30   2.0000      -0.472680       -12.8623
  31   2.0000      -0.459401       -12.5009
  32   2.0000      -0.453794       -12.3484
  33   2.0000      -0.440066       -11.9748
  34   2.0000      -0.432466       -11.7680
  35   2.0000      -0.416994       -11.3470
  36   2.0000      -0.402586       -10.9549
  37   2.0000      -0.396075       -10.7777
  38   2.0000      -0.381610       -10.3841
  39   2.0000      -0.374865       -10.2006
  40   2.0000      -0.364175        -9.9097
  41   2.0000      -0.359279        -9.7765
  42   2.0000      -0.354256        -9.6398
  43   2.0000      -0.335725        -9.1355
  44   2.0000      -0.313646        -8.5347
  45   2.0000      -0.308265        -8.3883
  46   2.0000      -0.289879        -7.8880
  47   2.0000      -0.273753        -7.4492
  48   2.0000      -0.270894        -7.3714
  49   2.0000      -0.252741        -6.8774
  50   2.0000      -0.235887        -6.4188
  51   0.0000       0.061811         1.6820
  52   0.0000       0.072188         1.9643
  53   0.0000       0.083908         2.2833
  54   0.0000       0.088222         2.4006
  55   0.0000       0.094501         2.5715

MULLIKEN ATOMIC CHARGES
-----------------------
   0 C :    0.316460
   1 C :   -0.305915
   2 C :   -0.312440
   3 C :   -0.004421
   4 O :   -0.491250
   5 H :    0.159278
   6 H :    0.159622
   7 H :    0.145149
   8 H :    0.147380
   9 H :    0.149849
  10 H :    0.152504
  11 H :    0.144971
  12 C :   -0.007164
  13 H :    0.120410
  14 H :    0.150985
  15 O :   -0.512707
  16 C :    0.068052
  17 C :    0.069196
  18 C :   -0.295153
  19 C :   -0.033709
  20 O :   -0.505659
  21 H :    0.162029
  22 O :   -0.601933
  23 H :    0.149336
  24 H :    0.163449
  25 H :    0.144310
  26 H :    0.153892
  27 H :    0.146937
  28 H :    0.366544
Sum of atomic charges:   -0.0000000

LOEWDIN ATOMIC CHARGES
----------------------
   0 C :    0.181702
   1 C :   -0.232979
   2 C :   -0.221960
   3 C :   -0.030640
   4 O :   -0.310517
   5 H :    0.106734
   6 H :    0.124641
   7 H :    0.113560
   8 H :    0.117052
   9 H :    0.108222
  10 H :    0.107158
  11 H :    0.104383
  12 C :   -0.040314
  13 H :    0.093648
  14 H :    0.109618
  15 O :   -0.317726
  16 C :    0.006700
  17 C :    0.032884
  18 C :   -0.241646
  19 C :   -0.039090
  20 O :   -0.317242
  21 H :    0.112224
  22 O :   -0.414800
  23 H :    0.113329
  24 H :    0.126944
  25 H :    0.112936
  26 H :    0.108043
  27 H :    0.102746
  28 H :    0.284391

  Mayer bond orders larger than 0.100000
B(  0-C ,  1-C ) :   0.9281 B(  0-C ,  4-O ) :   0.9166 B(  0-C ,  5-H ) :   0.9327
B(  0-C , 15-O ) :   0.8776 B(  1-C ,  2-C ) :   0.9518 B(  1-C ,  6-H ) :   0.9330
B(  1-C ,  7-H ) :   0.9278 B(  2-C ,  3-C ) :   0.9495 B(  2-C ,  8-H ) :   0.9455
B(  2-C ,  9-H ) :   0.9351 B(  3-C ,  4-O ) :   0.8472 B(  3-C , 10-H ) :   0.9319
B(  3-C , 11-H ) :   0.9388 B( 12-C , 13-H ) :   0.9032 B( 12-C , 14-H ) :   0.9319
B( 12-C , 15-O ) :   0.8628 B( 12-C , 16-C ) :   0.8801 B( 16-C , 17-C ) :   0.8921
B( 16-C , 20-O ) :   0.8647 B( 16-C , 21-H ) :   0.9160 B( 17-C , 18-C ) :   0.9129
B( 17-C , 22-O ) :   0.8942 B( 17-C , 23-H ) :   0.9332 B( 18-C , 19-C ) :   0.9380
B( 18-C , 24-H ) :   0.9370 B( 18-C , 25-H ) :   0.9340 B( 19-C , 20-O ) :   0.8512
B( 19-C , 26-H ) :   0.9334 B( 19-C , 27-H ) :   0.9371 B( 22-O , 28-H ) :   0.7932

FINAL SINGLE POINT ENERGY      -652.848081585427

DIPOLE MOMENT
-------------
                                X             Y             Z
Electronic contribution:     -1.37146      -3.55662       2.04092
Nuclear contribution   :      1.58400       4.57062      -2.90913
                        -----------------------------------------
Total Dipole Moment    :      0.21255       1.01399      -0.86820
                        -----------------------------------------
Magnitude (a.u.)       :      1.35172
Magnitude (Debye)      :      3.43579

Rotational constants in cm-1:     0.050907     0.014422     0.013461
Rotational constants in MHz :  1526.164374   432.349568   403.543206

                             ****ORCA TERMINATED NORMALLY****
TOTAL RUN TIME: 0 days 0 hours 25 minutes 0 seconds 108 msec
