                         Program Version 4.2.1 -  RELEASE  -
|  1> # Test redundant internal optimization
|  2> #
|  3> ! RKS B3LYP  Opt TightSCF SmallPrint
|  4>
|  5> %basis
|  6>         Basis "6-31G"
|  7> end
|  8>
|  9> %geom
| 10> Constraints
| 11> { D 4  0  19  14  315.0   C } # D for Dihedral angle
| 12> { D 0  19  14  12  105.0   C } # D for Dihedral angle
| 13> { D 0  4  3  2   C } # D for Dihedral angle
| 14> { D 4  3  2  1   C } # D for Dihedral angle
| 15> { D 3  2  1  0   C } # D for Dihedral angle
| 16> { D 2  1  0  4   C } # D for Dihedral angle
| 17> { D 1  0  4  3   C } # D for Dihedral angle
| 18> { D 14  15  16  17   C } # D for Dihedral angle
| 19> { D 15  16  17  12   C } # D for Dihedral angle
| 20> { D 16  17  12  14   C } # D for Dihedral angle
| 21> { D 17  12  14  15   C } # D for Dihedral angle
| 22> { D 12  14  15  16   C } # D for Dihedral angle
| 23> end
| 24> end
| 25>
| 26>
| 27> #%pal
| 28> #nprocs 8
| 29> #end
| 30>
| 31> * xyz 0 1
| 32> C  -21.048   26.222   46.251
| 33> C  -20.361   27.558   45.944
| 34> C  -20.329   28.222   47.341
| 35> C  -20.110   27.022   48.296
| 36> O  -20.473   25.807   47.535
| 37> H  -20.833   25.428   45.533
| 38> H  -19.344   27.382   45.576
| 39> H  -20.898   28.157   45.201
| 40> H  -19.543   28.978   47.434
| 41> H  -21.289   28.710   47.548
| 42> H  -20.733   27.082   49.195
| 43> H  -19.064   26.913   48.597
| 44> C  -23.527   25.786   48.477
| 45> H  -23.764   24.932   49.132
| 46> C  -23.132   25.318   47.072
| 47> C  -24.511   25.016   46.441
| 48> C  -25.427   26.099   47.064
| 49> O  -24.722   26.610   48.260
| 50> H  -22.787   26.419   48.968
| 51> O  -22.472   26.381   46.366
| 52> H  -22.469   24.445   47.080
| 53> H  -24.497   25.060   45.347
| 54> H  -24.847   24.013   46.731
| 55> H  -26.403   25.702   47.365
| 56> H  -25.583   26.950   46.394
| 57> *
| 58>
| 59>                          ****END OF INPUT****
 Total Charge           Charge          ....    0
 Multiplicity           Mult            ....    1
 Number of Electrons    NEL             ....   86
FINAL SINGLE POINT ENERGY      -538.434722811433
FINAL SINGLE POINT ENERGY      -538.437175288732
FINAL SINGLE POINT ENERGY      -538.437522184601
FINAL SINGLE POINT ENERGY      -538.437563344065
FINAL SINGLE POINT ENERGY      -538.437573364260
                    ***********************HURRAY********************

CARTESIAN COORDINATES (ANGSTROEM)
---------------------------------
  C    -21.009600   26.186885   46.276813
  C    -20.428995   27.561730   45.945652
  C    -20.382241   28.225946   47.338783
  C    -20.044125   27.051253   48.283439
  O    -20.363904   25.812617   47.519555
  H    -20.766904   25.383502   45.572798
  H    -19.423136   27.435571   45.529522
  H    -21.048003   28.106603   45.229923
  H    -19.642317   29.030088   47.397741
  H    -21.365827   28.640464   47.577927
  H    -20.627669   27.060557   49.207628
  H    -18.980272   26.994715   48.531547
  C    -23.567154   25.740060   48.507727
  H    -23.864278   24.886116   49.135959
  C    -23.141285   25.261238   47.120911
  C    -24.501928   25.041339   46.434839
  C    -25.385559   26.166463   47.025056
  O    -24.701921   26.628376   48.253066
  H    -22.802031   26.320844   49.022022
  O    -22.443311   26.320418   46.389278
  H    -22.522385   24.358808   47.158156
  H    -24.408883   25.097542   45.347594
  H    -24.891349   24.052179   46.703036
  H    -26.392359   25.820109   47.282697
  H    -25.460562   27.028576   46.356328

 Multiplicity           Mult            ....    1
 Number of Electrons    NEL             ....   86
 Basis Dimension        Dim             ....  127

ORBITAL ENERGIES
----------------

  NO   OCC          E(Eh)            E(eV)
   0   2.0000     -19.144861      -520.9582
   1   2.0000     -19.140400      -520.8368
   2   2.0000     -19.124040      -520.3916
   3   2.0000     -10.278389      -279.6892
   4   2.0000     -10.235595      -278.5247
   5   2.0000     -10.227473      -278.3037
   6   2.0000     -10.217191      -278.0239
   7   2.0000     -10.216505      -278.0052
   8   2.0000     -10.184794      -277.1423
   9   2.0000     -10.184594      -277.1369
  10   2.0000     -10.182147      -277.0703
  11   2.0000      -1.054800       -28.7026
  12   2.0000      -1.010810       -27.5055
  13   2.0000      -0.988275       -26.8923
  14   2.0000      -0.792452       -21.5637
  15   2.0000      -0.775038       -21.0899
  16   2.0000      -0.736882       -20.0516
  17   2.0000      -0.719262       -19.5721
  18   2.0000      -0.609886       -16.5958
  19   2.0000      -0.597988       -16.2721
  20   2.0000      -0.593040       -16.1374
  21   2.0000      -0.570661       -15.5285
  22   2.0000      -0.517140       -14.0721
  23   2.0000      -0.503032       -13.6882
  24   2.0000      -0.483529       -13.1575
  25   2.0000      -0.478624       -13.0240
  26   2.0000      -0.452026       -12.3003
  27   2.0000      -0.440122       -11.9763
  28   2.0000      -0.424223       -11.5437
  29   2.0000      -0.411407       -11.1949
  30   2.0000      -0.409041       -11.1306
  31   2.0000      -0.381737       -10.3876
  32   2.0000      -0.366702        -9.9785
  33   2.0000      -0.365476        -9.9451
  34   2.0000      -0.358033        -9.7426
  35   2.0000      -0.351841        -9.5741
  36   2.0000      -0.341853        -9.3023
  37   2.0000      -0.330449        -8.9920
  38   2.0000      -0.301360        -8.2004
  39   2.0000      -0.298186        -8.1141
  40   2.0000      -0.264043        -7.1850
  41   2.0000      -0.255449        -6.9511
  42   2.0000      -0.230017        -6.2591
  43   0.0000       0.080051         2.1783
  44   0.0000       0.091714         2.4957
  45   0.0000       0.102348         2.7850
  46   0.0000       0.112821         3.0700
  47   0.0000       0.117064         3.1855

MULLIKEN ATOMIC CHARGES
-----------------------
   0 C :    0.288744
   1 C :   -0.261794
   2 C :   -0.302039
   3 C :   -0.012996
   4 O :   -0.517744
   5 H :    0.144947
   6 H :    0.144022
   7 H :    0.161147
   8 H :    0.142497
   9 H :    0.171182
  10 H :    0.145528
  11 H :    0.146134
  12 C :    0.004150
  13 H :    0.123688
  14 C :    0.063517
  15 C :   -0.287944
  16 C :    0.002565
  17 O :   -0.522753
  18 H :    0.159572
  19 O :   -0.520906
  20 H :    0.146351
  21 H :    0.158705
  22 H :    0.137350
  23 H :    0.133570
  24 H :    0.152508
Sum of atomic charges:   -0.0000000

LOEWDIN ATOMIC CHARGES
----------------------
   0 C :    0.174442
   1 C :   -0.214172
   2 C :   -0.217084
   3 C :   -0.030503
   4 O :   -0.332411
   5 H :    0.094977
   6 H :    0.113734
   7 H :    0.126517
   8 H :    0.114658
   9 H :    0.123257
  10 H :    0.101807
  11 H :    0.104390
  12 C :   -0.040125
  13 H :    0.091560
  14 C :    0.038034
  15 C :   -0.226761
  16 C :   -0.028209
  17 O :   -0.332683
  18 H :    0.115845
  19 O :   -0.326641
  20 H :    0.108649
  21 H :    0.125458
  22 H :    0.110627
  23 H :    0.097151
  24 H :    0.107483

  Mayer bond orders larger than 0.100000
B(  0-C ,  1-C ) :   0.9490 B(  0-C ,  4-O ) :   0.8934 B(  0-C ,  5-H ) :   0.9213
B(  0-C , 19-O ) :   0.8675 B(  1-C ,  2-C ) :   0.9544 B(  1-C ,  6-H ) :   0.9389
B(  1-C ,  7-H ) :   0.9355 B(  2-C ,  3-C ) :   0.9562 B(  2-C ,  8-H ) :   0.9447
B(  2-C ,  9-H ) :   0.9415 B(  3-C ,  4-O ) :   0.8337 B(  3-C , 10-H ) :   0.9292
B(  3-C , 11-H ) :   0.9404 B( 12-C , 13-H ) :   0.9118 B( 12-C , 14-C ) :   0.9244
B( 12-C , 17-O ) :   0.8695 B( 12-C , 18-H ) :   0.9289 B( 14-C , 15-C ) :   0.9521
B( 14-C , 19-O ) :   0.8153 B( 14-C , 20-H ) :   0.9182 B( 15-C , 16-C ) :   0.9474
B( 15-C , 21-H ) :   0.9379 B( 15-C , 22-H ) :   0.9430 B( 16-C , 17-O ) :   0.8549
B( 16-C , 23-H ) :   0.9334 B( 16-C , 24-H ) :   0.9363

FINAL SINGLE POINT ENERGY      -538.437574312828

DIPOLE MOMENT
-------------
                                X             Y             Z
Electronic contribution:     -0.40982      -1.27942       0.27937
Nuclear contribution   :      0.86722       1.06905      -0.71162
                        -----------------------------------------
Total Dipole Moment    :      0.45740      -0.21037      -0.43225
                        -----------------------------------------
Magnitude (a.u.)       :      0.66356
Magnitude (Debye)      :      1.68664

Rotational constants in cm-1:     0.074574     0.022871     0.021849
Rotational constants in MHz :  2235.664666   685.657789   655.010628

                             ****ORCA TERMINATED NORMALLY****
TOTAL RUN TIME: 0 days 0 hours 6 minutes 9 seconds 380 msec
