                         Program Version 4.2.0 -  RELEASE  -
|  1> # Test redundant internal optimization
|  2> #
|  3> ! RKS B3LYP  Opt TightSCF SmallPrint
|  4>
|  5> %basis
|  6>         Basis "6-31G"
|  7> end
|  8>
|  9> %geom
| 10> Constraints
| 11> { D 4  0  15  12  285.0   C } # D for Dihedral angle
| 12> { D 0  15  12  16  225.0   C } # D for Dihedral angle
| 13> { D 0  4  3  2   C } # D for Dihedral angle
| 14> { D 4  3  2  1   C } # D for Dihedral angle
| 15> { D 3  2  1  0   C } # D for Dihedral angle
| 16> { D 2  1  0  4   C } # D for Dihedral angle
| 17> { D 1  0  4  3   C } # D for Dihedral angle
| 18> { D 16  20  19  18   C } # D for Dihedral angle
| 19> { D 20  19  18  17   C } # D for Dihedral angle
| 20> { D 19  18  17  16   C } # D for Dihedral angle
| 21> { D 18  17  16  20   C } # D for Dihedral angle
| 22> { D 17  16  20  19   C } # D for Dihedral angle
| 23> { D 15  12  16  20   C } # D for Dihedral angle
| 24> end
| 25> end
| 26>
| 27>
| 28> #%pal
| 29> #nprocs 8
| 30> #end
| 31>
| 32> * xyz 0 1
| 33> C  -21.048   26.222   46.251
| 34> C  -20.361   27.558   45.944
| 35> C  -20.329   28.222   47.341
| 36> C  -20.110   27.022   48.296
| 37> O  -20.473   25.807   47.535
| 38> H  -20.833   25.428   45.533
| 39> H  -19.344   27.382   45.576
| 40> H  -20.898   28.157   45.201
| 41> H  -19.543   28.978   47.434
| 42> H  -21.289   28.710   47.548
| 43> H  -20.733   27.082   49.195
| 44> H  -19.064   26.913   48.597
| 45> C  -23.396   25.070   46.435
| 46> H  -22.753   24.238   46.121
| 47> H  -23.734   24.873   47.461
| 48> O  -22.586   26.394   46.375
| 49> C  -24.651   25.091   45.519
| 50> C  -25.487   23.818   45.691
| 51> C  -26.249   24.118   47.003
| 52> C  -26.503   25.644   46.922
| 53> O  -25.557   26.174   45.917
| 54> H  -24.341   25.294   44.492
| 55> H  -26.186   23.711   44.854
| 56> O  -24.625   22.529   45.777
| 57> H  -27.178   23.545   47.096
| 58> H  -25.620   23.877   47.868
| 59> H  -26.330   26.150   47.878
| 60> H  -27.512   25.882   46.572
| 61> H  -23.917   22.613   46.609
| 62> *
| 63>
| 64>                          ****END OF INPUT****
 Total Charge           Charge          ....    0
 Multiplicity           Mult            ....    1
 Number of Electrons    NEL             ....  102
FINAL SINGLE POINT ENERGY      -652.830528756944
FINAL SINGLE POINT ENERGY      -652.855079274833
FINAL SINGLE POINT ENERGY      -652.859859179877
FINAL SINGLE POINT ENERGY      -652.860731039346
FINAL SINGLE POINT ENERGY      -652.860868390899
FINAL SINGLE POINT ENERGY      -652.860892557821
FINAL SINGLE POINT ENERGY      -652.860895622721
                    ***********************HURRAY********************

CARTESIAN COORDINATES (ANGSTROEM)
---------------------------------
  C    -21.076181   26.149739   46.252303
  C    -20.522515   27.537270   45.926127
  C    -20.483698   28.197942   47.322885
  C    -20.120241   27.022137   48.257512
  O    -20.418062   25.785229   47.491598
  H    -20.837994   25.354420   45.537902
  H    -19.514175   27.434039   45.509287
  H    -21.153333   28.071581   45.213180
  H    -19.758171   29.015174   47.382775
  H    -21.473936   28.592733   47.566791
  H    -20.703307   27.014833   49.182086
  H    -19.054439   26.988142   48.503558
  C    -23.250776   25.041833   46.520964
  H    -22.633957   24.192165   46.196393
  H    -23.517028   24.891651   47.574832
  O    -22.500360   26.283062   46.406886
  C    -24.487985   25.120292   45.629970
  C    -25.384437   23.872437   45.707232
  C    -26.236119   24.168013   46.978326
  C    -26.422107   25.699587   46.914299
  O    -25.380868   26.217851   45.991033
  H    -24.159923   25.329038   44.607587
  H    -26.022190   23.829851   44.821604
  O    -24.685774   22.603828   45.715935
  H    -27.182957   23.622463   46.978438
  H    -25.673522   23.868363   47.872796
  H    -26.308574   26.184850   47.888734
  H    -27.391889   25.981229   46.492814
  H    -24.295485   22.432247   46.597155

 Multiplicity           Mult            ....    1
 Number of Electrons    NEL             ....  102
 Basis Dimension        Dim             ....  149

ORBITAL ENERGIES
----------------

  NO   OCC          E(Eh)            E(eV)
   0   2.0000     -19.150128      -521.1015
   1   2.0000     -19.140800      -520.8477
   2   2.0000     -19.135681      -520.7084
   3   2.0000     -19.135188      -520.6949
   4   2.0000     -10.275054      -279.5984
   5   2.0000     -10.245050      -278.7820
   6   2.0000     -10.229385      -278.3557
   7   2.0000     -10.229145      -278.3492
   8   2.0000     -10.228140      -278.3218
   9   2.0000     -10.221273      -278.1350
  10   2.0000     -10.195509      -277.4339
  11   2.0000     -10.180379      -277.0222
  12   2.0000     -10.180134      -277.0155
  13   2.0000      -1.051186       -28.6042
  14   2.0000      -1.033187       -28.1145
  15   2.0000      -1.014579       -27.6081
  16   2.0000      -0.990389       -26.9499
  17   2.0000      -0.785988       -21.3878
  18   2.0000      -0.780821       -21.2472
  19   2.0000      -0.765039       -20.8178
  20   2.0000      -0.727462       -19.7952
  21   2.0000      -0.678051       -18.4507
  22   2.0000      -0.611547       -16.6410
  23   2.0000      -0.595353       -16.2004
  24   2.0000      -0.589009       -16.0277
  25   2.0000      -0.574060       -15.6210
  26   2.0000      -0.530822       -14.4444
  27   2.0000      -0.509568       -13.8661
  28   2.0000      -0.495383       -13.4801
  29   2.0000      -0.489225       -13.3125
  30   2.0000      -0.466509       -12.6943
  31   2.0000      -0.452653       -12.3173
  32   2.0000      -0.442308       -12.0358
  33   2.0000      -0.435620       -11.8538
  34   2.0000      -0.427910       -11.6440
  35   2.0000      -0.412366       -11.2211
  36   2.0000      -0.407612       -11.0917
  37   2.0000      -0.397638       -10.8203
  38   2.0000      -0.377339       -10.2679
  39   2.0000      -0.363080        -9.8799
  40   2.0000      -0.356024        -9.6879
  41   2.0000      -0.351754        -9.5717
  42   2.0000      -0.342520        -9.3204
  43   2.0000      -0.332708        -9.0535
  44   2.0000      -0.320384        -8.7181
  45   2.0000      -0.314597        -8.5606
  46   2.0000      -0.295781        -8.0486
  47   2.0000      -0.271555        -7.3894
  48   2.0000      -0.267725        -7.2852
  49   2.0000      -0.250738        -6.8229
  50   2.0000      -0.236405        -6.4329
  51   0.0000       0.051260         1.3949
  52   0.0000       0.077899         2.1197
  53   0.0000       0.090229         2.4553
  54   0.0000       0.096104         2.6151
  55   0.0000       0.104915         2.8549

MULLIKEN ATOMIC CHARGES
-----------------------
   0 C :    0.277023
   1 C :   -0.260084
   2 C :   -0.299070
   3 C :   -0.002558
   4 O :   -0.515392
   5 H :    0.141417
   6 H :    0.143139
   7 H :    0.161228
   8 H :    0.138878
   9 H :    0.167379
  10 H :    0.144022
  11 H :    0.140816
  12 C :   -0.007213
  13 H :    0.136420
  14 H :    0.135084
  15 O :   -0.507035
  16 C :    0.097361
  17 C :    0.084185
  18 C :   -0.323259
  19 C :   -0.006635
  20 O :   -0.505699
  21 H :    0.153683
  22 H :    0.167944
  23 O :   -0.601545
  24 H :    0.157809
  25 H :    0.132551
  26 H :    0.146006
  27 H :    0.146127
  28 H :    0.357419
Sum of atomic charges:   -0.0000000

LOEWDIN ATOMIC CHARGES
----------------------
   0 C :    0.169928
   1 C :   -0.215129
   2 C :   -0.216051
   3 C :   -0.028088
   4 O :   -0.334785
   5 H :    0.094836
   6 H :    0.113148
   7 H :    0.126276
   8 H :    0.112351
   9 H :    0.121683
  10 H :    0.103837
  11 H :    0.101490
  12 C :   -0.047444
  13 H :    0.103642
  14 H :    0.098086
  15 O :   -0.312868
  16 C :    0.018531
  17 C :    0.033996
  18 C :   -0.240909
  19 C :   -0.028932
  20 O :   -0.314302
  21 H :    0.115664
  22 H :    0.119459
  23 O :   -0.408271
  24 H :    0.122708
  25 H :    0.103699
  26 H :    0.103889
  27 H :    0.104794
  28 H :    0.278760

  Mayer bond orders larger than 0.100000
B(  0-C ,  1-C ) :   0.9505 B(  0-C ,  4-O ) :   0.9001 B(  0-C ,  5-H ) :   0.9170
B(  0-C , 15-O ) :   0.8741 B(  1-C ,  2-C ) :   0.9573 B(  1-C ,  6-H ) :   0.9404
B(  1-C ,  7-H ) :   0.9353 B(  2-C ,  3-C ) :   0.9554 B(  2-C ,  8-H ) :   0.9453
B(  2-C ,  9-H ) :   0.9434 B(  3-C ,  4-O ) :   0.8395 B(  3-C , 10-H ) :   0.9363
B(  3-C , 11-H ) :   0.9405 B( 12-C , 13-H ) :   0.9035 B( 12-C , 14-H ) :   0.9273
B( 12-C , 15-O ) :   0.8367 B( 12-C , 16-C ) :   0.9029 B( 16-C , 17-C ) :   0.8714
B( 16-C , 20-O ) :   0.8693 B( 16-C , 21-H ) :   0.9318 B( 17-C , 18-C ) :   0.9243
B( 17-C , 22-H ) :   0.9332 B( 17-C , 23-O ) :   0.8955 B( 18-C , 19-C ) :   0.9377
B( 18-C , 24-H ) :   0.9413 B( 18-C , 25-H ) :   0.9413 B( 19-C , 20-O ) :   0.8508
B( 19-C , 26-H ) :   0.9317 B( 19-C , 27-H ) :   0.9384 B( 23-O , 28-H ) :   0.7977

FINAL SINGLE POINT ENERGY      -652.860895670139

DIPOLE MOMENT
-------------
                                X             Y             Z
Electronic contribution:     -0.85935      -2.32622      -2.27758
Nuclear contribution   :      0.75227       2.34137       2.89503
                        -----------------------------------------
Total Dipole Moment    :     -0.10708       0.01515       0.61745
                        -----------------------------------------
Magnitude (a.u.)       :      0.62685
Magnitude (Debye)      :      1.59332

Rotational constants in cm-1:     0.055297     0.012213     0.011337
Rotational constants in MHz :  1657.775212   366.135177   339.873110

                             ****ORCA TERMINATED NORMALLY****
TOTAL RUN TIME: 0 days 2 hours 12 minutes 32 seconds 57 msec
