                         Program Version 4.2.0 -  RELEASE  -
|  1> # Test redundant internal optimization
|  2> #
|  3> ! RKS B3LYP  Opt TightSCF SmallPrint
|  4>
|  5> %basis
|  6>         Basis "6-31G"
|  7> end
|  8>
|  9> %geom
| 10> Constraints
| 11> { D 4  0  15  12  225.0   C } # D for Dihedral angle
| 12> { D 0  15  12  16  60.0   C } # D for Dihedral angle
| 13> { D 0  4  3  2   C } # D for Dihedral angle
| 14> { D 4  3  2  1   C } # D for Dihedral angle
| 15> { D 3  2  1  0   C } # D for Dihedral angle
| 16> { D 2  1  0  4   C } # D for Dihedral angle
| 17> { D 1  0  4  3   C } # D for Dihedral angle
| 18> { D 16  20  19  18   C } # D for Dihedral angle
| 19> { D 20  19  18  17   C } # D for Dihedral angle
| 20> { D 19  18  17  16   C } # D for Dihedral angle
| 21> { D 18  17  16  20   C } # D for Dihedral angle
| 22> { D 17  16  20  19   C } # D for Dihedral angle
| 23> { D 15  12  16  20   C } # D for Dihedral angle
| 24> end
| 25> end
| 26>
| 27>
| 28> #%pal
| 29> #nprocs 8
| 30> #end
| 31>
| 32> * xyz 0 1
| 33> C  -21.048   26.222   46.251
| 34> C  -20.361   27.558   45.944
| 35> C  -20.329   28.222   47.341
| 36> C  -20.110   27.022   48.296
| 37> O  -20.473   25.807   47.535
| 38> H  -20.833   25.428   45.533
| 39> H  -19.344   27.382   45.576
| 40> H  -20.898   28.157   45.201
| 41> H  -19.543   28.978   47.434
| 42> H  -21.289   28.710   47.548
| 43> H  -20.733   27.082   49.195
| 44> H  -19.064   26.913   48.597
| 45> C  -23.415   25.773   45.218
| 46> H  -24.482   25.957   45.398
| 47> H  -23.144   26.235   44.260
| 48> O  -22.586   26.394   46.375
| 49> C  -23.201   24.240   45.081
| 50> C  -23.715   23.494   46.317
| 51> C  -25.239   23.460   46.052
| 52> C  -25.325   23.308   44.512
| 53> O  -24.006   23.707   43.976
| 54> H  -22.155   24.046   44.837
| 55> H  -23.304   22.478   46.340
| 56> O  -23.351   24.200   47.652
| 57> H  -25.744   22.645   46.580
| 58> H  -25.697   24.402   46.374
| 59> H  -26.099   23.944   44.071
| 60> H  -25.499   22.274   44.204
| 61> H  -23.752   25.219   47.650
| 62> *
| 63>
| 64>                          ****END OF INPUT****
 Total Charge           Charge          ....    0
 Multiplicity           Mult            ....    1
 Number of Electrons    NEL             ....  102
FINAL SINGLE POINT ENERGY      -652.827091533480
FINAL SINGLE POINT ENERGY      -652.852112036416
FINAL SINGLE POINT ENERGY      -652.858749169903
FINAL SINGLE POINT ENERGY      -652.861193581232
FINAL SINGLE POINT ENERGY      -652.862326067352
FINAL SINGLE POINT ENERGY      -652.862868888461
FINAL SINGLE POINT ENERGY      -652.863033112362
FINAL SINGLE POINT ENERGY      -652.863070735865
FINAL SINGLE POINT ENERGY      -652.863073917359
                    ***********************HURRAY********************

CARTESIAN COORDINATES (ANGSTROEM)
---------------------------------
  C    -21.030478   26.179444   46.220224
  C    -20.345673   27.514130   45.933435
  C    -20.460669   28.230903   47.299044
  C    -20.312927   27.077349   48.312533
  O    -20.584539   25.830767   47.540648
  H    -20.761482   25.359974   45.552876
  H    -19.296751   27.334343   45.669845
  H    -20.823825   28.063213   45.118251
  H    -19.698114   29.003724   47.433406
  H    -21.446302   28.697113   47.386507
  H    -21.022079   27.132561   49.141548
  H    -19.297731   26.979993   48.706909
  C    -23.302329   25.768945   45.197936
  H    -24.320791   26.071143   45.450072
  H    -23.047159   26.208650   44.224840
  O    -22.481621   26.366042   46.260538
  C    -23.191542   24.239934   45.095014
  C    -23.706593   23.475155   46.326645
  C    -25.247993   23.531024   46.110877
  C    -25.391250   23.439377   44.578346
  O    -24.055905   23.791389   44.003973
  H    -22.178389   23.936574   44.819716
  H    -23.370887   22.434479   46.257955
  O    -23.284538   23.963887   47.612813
  H    -25.756634   22.717453   46.634289
  H    -25.631246   24.476519   46.508488
  H    -26.138451   24.125309   44.167966
  H    -25.616324   22.425779   44.235239
  H    -22.936779   24.881828   47.548068

 Multiplicity           Mult            ....    1
 Number of Electrons    NEL             ....  102
 Basis Dimension        Dim             ....  149

ORBITAL ENERGIES
----------------

  NO   OCC          E(Eh)            E(eV)
   0   2.0000     -19.159482      -521.3560
   1   2.0000     -19.150569      -521.1135
   2   2.0000     -19.142509      -520.8942
   3   2.0000     -19.113280      -520.0988
   4   2.0000     -10.290205      -280.0107
   5   2.0000     -10.238941      -278.6158
   6   2.0000     -10.235835      -278.5312
   7   2.0000     -10.231344      -278.4090
   8   2.0000     -10.230670      -278.3907
   9   2.0000     -10.227234      -278.2972
  10   2.0000     -10.193147      -277.3696
  11   2.0000     -10.191403      -277.3222
  12   2.0000     -10.178882      -276.9815
  13   2.0000      -1.063943       -28.9514
  14   2.0000      -1.026059       -27.9205
  15   2.0000      -1.004502       -27.3339
  16   2.0000      -0.992300       -27.0018
  17   2.0000      -0.793903       -21.6032
  18   2.0000      -0.772456       -21.0196
  19   2.0000      -0.766664       -20.8620
  20   2.0000      -0.739162       -20.1136
  21   2.0000      -0.680228       -18.5100
  22   2.0000      -0.609537       -16.5863
  23   2.0000      -0.605418       -16.4743
  24   2.0000      -0.595367       -16.2008
  25   2.0000      -0.573242       -15.5987
  26   2.0000      -0.528271       -14.3750
  27   2.0000      -0.524255       -14.2657
  28   2.0000      -0.496524       -13.5111
  29   2.0000      -0.487691       -13.2707
  30   2.0000      -0.468249       -12.7417
  31   2.0000      -0.459791       -12.5116
  32   2.0000      -0.452064       -12.3013
  33   2.0000      -0.430696       -11.7198
  34   2.0000      -0.425569       -11.5803
  35   2.0000      -0.414883       -11.2895
  36   2.0000      -0.406731       -11.0677
  37   2.0000      -0.389400       -10.5961
  38   2.0000      -0.380632       -10.3575
  39   2.0000      -0.372050       -10.1240
  40   2.0000      -0.363615        -9.8945
  41   2.0000      -0.360341        -9.8054
  42   2.0000      -0.348942        -9.4952
  43   2.0000      -0.336548        -9.1579
  44   2.0000      -0.324671        -8.8347
  45   2.0000      -0.320514        -8.7216
  46   2.0000      -0.293188        -7.9781
  47   2.0000      -0.274346        -7.4653
  48   2.0000      -0.266535        -7.2528
  49   2.0000      -0.244706        -6.6588
  50   2.0000      -0.240047        -6.5320
  51   0.0000       0.058265         1.5855
  52   0.0000       0.079682         2.1683
  53   0.0000       0.090683         2.4676
  54   0.0000       0.094471         2.5707
  55   0.0000       0.104318         2.8386

MULLIKEN ATOMIC CHARGES
-----------------------
   0 C :    0.273714
   1 C :   -0.252468
   2 C :   -0.300598
   3 C :   -0.007685
   4 O :   -0.500167
   5 H :    0.153985
   6 H :    0.148467
   7 H :    0.149137
   8 H :    0.145414
   9 H :    0.165492
  10 H :    0.158838
  11 H :    0.148196
  12 C :   -0.031857
  13 H :    0.162907
  14 H :    0.151508
  15 O :   -0.537719
  16 C :    0.042787
  17 C :    0.123897
  18 C :   -0.303414
  19 C :   -0.019442
  20 O :   -0.524217
  21 H :    0.155272
  22 H :    0.147684
  23 O :   -0.634312
  24 H :    0.154302
  25 H :    0.145869
  26 H :    0.142797
  27 H :    0.147854
  28 H :    0.393757
Sum of atomic charges:   -0.0000000

LOEWDIN ATOMIC CHARGES
----------------------
   0 C :    0.170744
   1 C :   -0.219816
   2 C :   -0.216464
   3 C :   -0.026028
   4 O :   -0.307746
   5 H :    0.104012
   6 H :    0.115331
   7 H :    0.119375
   8 H :    0.116299
   9 H :    0.120865
  10 H :    0.111573
  11 H :    0.106046
  12 C :   -0.049385
  13 H :    0.118132
  14 H :    0.105539
  15 O :   -0.340134
  16 C :    0.003621
  17 C :    0.042463
  18 C :   -0.237216
  19 C :   -0.031989
  20 O :   -0.324360
  21 H :    0.109382
  22 H :    0.106241
  23 O :   -0.426401
  24 H :    0.122672
  25 H :    0.111295
  26 H :    0.102246
  27 H :    0.106123
  28 H :    0.287578

  Mayer bond orders larger than 0.100000
B(  0-C ,  1-C ) :   0.9411 B(  0-C ,  4-O ) :   0.9325 B(  0-C ,  5-H ) :   0.9133
B(  0-C , 15-O ) :   0.8029 B(  1-C ,  2-C ) :   0.9536 B(  1-C ,  6-H ) :   0.9352
B(  1-C ,  7-H ) :   0.9381 B(  2-C ,  3-C ) :   0.9539 B(  2-C ,  8-H ) :   0.9445
B(  2-C ,  9-H ) :   0.9430 B(  3-C ,  4-O ) :   0.8268 B(  3-C , 10-H ) :   0.9345
B(  3-C , 11-H ) :   0.9396 B( 12-C , 13-H ) :   0.9378 B( 12-C , 14-H ) :   0.9256
B( 12-C , 15-O ) :   0.8129 B( 12-C , 16-C ) :   0.8843 B( 16-C , 17-C ) :   0.9068
B( 16-C , 20-O ) :   0.8444 B( 16-C , 21-H ) :   0.9256 B( 17-C , 18-C ) :   0.9002
B( 17-C , 22-H ) :   0.9311 B( 17-C , 23-O ) :   0.9392 B( 18-C , 19-C ) :   0.9383
B( 18-C , 24-H ) :   0.9441 B( 18-C , 25-H ) :   0.9432 B( 19-C , 20-O ) :   0.8301
B( 19-C , 26-H ) :   0.9344 B( 19-C , 27-H ) :   0.9391 B( 23-O , 28-H ) :   0.7251

FINAL SINGLE POINT ENERGY      -652.863074925036

DIPOLE MOMENT
-------------
                                X             Y             Z
Electronic contribution:      0.34050      -3.10940      -0.11225
Nuclear contribution   :     -0.16603       4.22023      -0.37934
                        -----------------------------------------
Total Dipole Moment    :      0.17447       1.11082      -0.49158
                        -----------------------------------------
Magnitude (a.u.)       :      1.22720
Magnitude (Debye)      :      3.11930

Rotational constants in cm-1:     0.063282     0.013947     0.012533
Rotational constants in MHz :  1897.147503   418.114429   375.722290

                             ****ORCA TERMINATED NORMALLY****
TOTAL RUN TIME: 0 days 1 hours 3 minutes 30 seconds 528 msec
