                         Program Version 4.2.0 -  RELEASE  -
|  1> # Test redundant internal optimization
|  2> #
|  3> ! RKS B3LYP  Opt TightSCF SmallPrint
|  4>
|  5> %basis
|  6>         Basis "6-31G"
|  7> end
|  8>
|  9> %geom
| 10> Constraints
| 11> { D 4  0  15  12  135.0   C } # D for Dihedral angle
| 12> { D 0  15  12  16  210.0   C } # D for Dihedral angle
| 13> { D 0  4  3  2   C } # D for Dihedral angle
| 14> { D 4  3  2  1   C } # D for Dihedral angle
| 15> { D 3  2  1  0   C } # D for Dihedral angle
| 16> { D 2  1  0  4   C } # D for Dihedral angle
| 17> { D 1  0  4  3   C } # D for Dihedral angle
| 18> { D 16  20  19  18   C } # D for Dihedral angle
| 19> { D 20  19  18  17   C } # D for Dihedral angle
| 20> { D 19  18  17  16   C } # D for Dihedral angle
| 21> { D 18  17  16  20   C } # D for Dihedral angle
| 22> { D 17  16  20  19   C } # D for Dihedral angle
| 23> { D 15  12  16  20   C } # D for Dihedral angle
| 24> end
| 25> end
| 26>
| 27>
| 28> #%pal
| 29> #nprocs 8
| 30> #end
| 31>
| 32> * xyz 0 1
| 33> C  -21.048   26.222   46.251
| 34> C  -20.361   27.558   45.944
| 35> C  -20.329   28.222   47.341
| 36> C  -20.110   27.022   48.296
| 37> O  -20.473   25.807   47.535
| 38> H  -20.833   25.428   45.533
| 39> H  -19.344   27.382   45.576
| 40> H  -20.898   28.157   45.201
| 41> H  -19.543   28.978   47.434
| 42> H  -21.289   28.710   47.548
| 43> H  -20.733   27.082   49.195
| 44> H  -19.064   26.913   48.597
| 45> C  -23.162   27.680   45.721
| 46> H  -22.403   28.471   45.749
| 47> H  -23.423   27.492   44.671
| 48> O  -22.586   26.394   46.375
| 49> C  -24.437   28.200   46.439
| 50> C  -25.043   29.398   45.700
| 51> C  -25.793   28.704   44.539
| 52> C  -26.300   27.390   45.184
| 53> O  -25.495   27.184   46.406
| 54> H  -24.205   28.387   47.490
| 55> O  -26.039   30.148   46.626
| 56> H  -24.290   30.114   45.352
| 57> H  -26.609   29.313   44.136
| 58> H  -25.099   28.489   43.718
| 59> H  -26.177   26.524   44.523
| 60> H  -27.347   27.454   45.494
| 61> H  -26.803   29.450   46.987
| 62> *
| 63>
| 64>                          ****END OF INPUT****
 Total Charge           Charge          ....    0
 Multiplicity           Mult            ....    1
 Number of Electrons    NEL             ....  102
FINAL SINGLE POINT ENERGY      -652.817074355593
FINAL SINGLE POINT ENERGY      -652.840943881649
FINAL SINGLE POINT ENERGY      -652.847120915684
FINAL SINGLE POINT ENERGY      -652.849435352875
FINAL SINGLE POINT ENERGY      -652.849765355723
FINAL SINGLE POINT ENERGY      -652.849819427097
                    ***********************HURRAY********************

CARTESIAN COORDINATES (ANGSTROEM)
---------------------------------
  C    -21.128037   26.320350   46.253031
  C    -20.189699   27.495603   45.969821
  C    -20.186965   28.244327   47.330053
  C    -20.285821   27.086302   48.349084
  O    -20.777280   25.914810   47.587279
  H    -20.966074   25.446492   45.618134
  H    -19.194915   27.088790   45.757893
  H    -20.476994   28.121932   45.121848
  H    -19.285192   28.847687   47.471108
  H    -21.052898   28.910940   47.409131
  H    -20.980471   27.292571   49.167540
  H    -19.312772   26.807077   48.763645
  C    -23.117842   27.775074   45.578228
  H    -22.438716   28.636825   45.615412
  H    -23.327809   27.554966   44.521377
  O    -22.558799   26.604469   46.220809
  C    -24.397296   28.154591   46.323864
  C    -25.128587   29.363803   45.723899
  C    -25.944568   28.705657   44.579896
  C    -26.323044   27.325342   45.173778
  O    -25.399739   27.088212   46.307355
  H    -24.145949   28.320381   47.375890
  O    -25.992008   29.988452   46.713050
  H    -24.466816   30.160305   45.379403
  H    -26.814364   29.315909   44.324230
  H    -25.323389   28.598152   43.683573
  H    -26.218345   26.509705   44.451573
  H    -27.341000   27.306361   45.575347
  H    -26.460614   29.287915   47.214752

 Multiplicity           Mult            ....    1
 Number of Electrons    NEL             ....  102
 Basis Dimension        Dim             ....  149

ORBITAL ENERGIES
----------------

  NO   OCC          E(Eh)            E(eV)
   0   2.0000     -19.140351      -520.8354
   1   2.0000     -19.139161      -520.8030
   2   2.0000     -19.137751      -520.7647
   3   2.0000     -19.135998      -520.7170
   4   2.0000     -10.279880      -279.7298
   5   2.0000     -10.244622      -278.7703
   6   2.0000     -10.236457      -278.5482
   7   2.0000     -10.234478      -278.4943
   8   2.0000     -10.229395      -278.3560
   9   2.0000     -10.226642      -278.2811
  10   2.0000     -10.195298      -277.4282
  11   2.0000     -10.194838      -277.4157
  12   2.0000     -10.190927      -277.3092
  13   2.0000      -1.050291       -28.5799
  14   2.0000      -1.036478       -28.2040
  15   2.0000      -1.006858       -27.3980
  16   2.0000      -0.990740       -26.9594
  17   2.0000      -0.791541       -21.5389
  18   2.0000      -0.786521       -21.4023
  19   2.0000      -0.770099       -20.9555
  20   2.0000      -0.734011       -19.9735
  21   2.0000      -0.679766       -18.4974
  22   2.0000      -0.607312       -16.5258
  23   2.0000      -0.605069       -16.4648
  24   2.0000      -0.595767       -16.2116
  25   2.0000      -0.577189       -15.7061
  26   2.0000      -0.524308       -14.2671
  27   2.0000      -0.516935       -14.0665
  28   2.0000      -0.501146       -13.6369
  29   2.0000      -0.494060       -13.4440
  30   2.0000      -0.474183       -12.9032
  31   2.0000      -0.461516       -12.5585
  32   2.0000      -0.450404       -12.2561
  33   2.0000      -0.444047       -12.0831
  34   2.0000      -0.428443       -11.6585
  35   2.0000      -0.416374       -11.3301
  36   2.0000      -0.399105       -10.8602
  37   2.0000      -0.394204       -10.7268
  38   2.0000      -0.381506       -10.3813
  39   2.0000      -0.373060       -10.1515
  40   2.0000      -0.365684        -9.9508
  41   2.0000      -0.361810        -9.8454
  42   2.0000      -0.354827        -9.6553
  43   2.0000      -0.333477        -9.0744
  44   2.0000      -0.313242        -8.5237
  45   2.0000      -0.306694        -8.3456
  46   2.0000      -0.290923        -7.9164
  47   2.0000      -0.273187        -7.4338
  48   2.0000      -0.266091        -7.2407
  49   2.0000      -0.249534        -6.7902
  50   2.0000      -0.239791        -6.5250
  51   0.0000       0.062291         1.6950
  52   0.0000       0.075604         2.0573
  53   0.0000       0.083980         2.2852
  54   0.0000       0.096406         2.6233
  55   0.0000       0.100726         2.7409

MULLIKEN ATOMIC CHARGES
-----------------------
   0 C :    0.320127
   1 C :   -0.304110
   2 C :   -0.304353
   3 C :   -0.001055
   4 O :   -0.492642
   5 H :    0.153968
   6 H :    0.156227
   7 H :    0.143403
   8 H :    0.146598
   9 H :    0.149186
  10 H :    0.152911
  11 H :    0.144552
  12 C :   -0.002549
  13 H :    0.122367
  14 H :    0.129770
  15 O :   -0.513456
  16 C :    0.078116
  17 C :    0.076798
  18 C :   -0.303430
  19 C :   -0.024877
  20 O :   -0.505232
  21 H :    0.163556
  22 O :   -0.602580
  23 H :    0.146539
  24 H :    0.164149
  25 H :    0.143726
  26 H :    0.150620
  27 H :    0.144648
  28 H :    0.367023
Sum of atomic charges:   -0.0000000

LOEWDIN ATOMIC CHARGES
----------------------
   0 C :    0.185014
   1 C :   -0.234440
   2 C :   -0.219138
   3 C :   -0.028117
   4 O :   -0.306453
   5 H :    0.103876
   6 H :    0.122504
   7 H :    0.113100
   8 H :    0.116547
   9 H :    0.108732
  10 H :    0.108179
  11 H :    0.103896
  12 C :   -0.041254
  13 H :    0.093112
  14 H :    0.093001
  15 O :   -0.323062
  16 C :    0.017987
  17 C :    0.034273
  18 C :   -0.243038
  19 C :   -0.037295
  20 O :   -0.315981
  21 H :    0.118699
  22 O :   -0.414689
  23 H :    0.112507
  24 H :    0.126905
  25 H :    0.112121
  26 H :    0.106299
  27 H :    0.102024
  28 H :    0.284692

  Mayer bond orders larger than 0.100000
B(  0-C ,  1-C ) :   0.9303 B(  0-C ,  4-O ) :   0.9248 B(  0-C ,  5-H ) :   0.9282
B(  0-C , 15-O ) :   0.8564 B(  1-C ,  2-C ) :   0.9489 B(  1-C ,  6-H ) :   0.9336
B(  1-C ,  7-H ) :   0.9289 B(  2-C ,  3-C ) :   0.9504 B(  2-C ,  8-H ) :   0.9456
B(  2-C ,  9-H ) :   0.9427 B(  3-C ,  4-O ) :   0.8432 B(  3-C , 10-H ) :   0.9337
B(  3-C , 11-H ) :   0.9392 B( 12-C , 13-H ) :   0.8973 B( 12-C , 14-H ) :   0.9194
B( 12-C , 15-O ) :   0.8498 B( 12-C , 16-C ) :   0.8931 B( 16-C , 17-C ) :   0.8968
B( 16-C , 20-O ) :   0.8720 B( 16-C , 21-H ) :   0.9236 B( 17-C , 18-C ) :   0.9104
B( 17-C , 22-O ) :   0.8958 B( 17-C , 23-H ) :   0.9338 B( 18-C , 19-C ) :   0.9407
B( 18-C , 24-H ) :   0.9371 B( 18-C , 25-H ) :   0.9342 B( 19-C , 20-O ) :   0.8505
B( 19-C , 26-H ) :   0.9338 B( 19-C , 27-H ) :   0.9378 B( 22-O , 28-H ) :   0.7929

FINAL SINGLE POINT ENERGY      -652.849825289630

DIPOLE MOMENT
-------------
                                X             Y             Z
Electronic contribution:     -2.67896      -3.71039       2.52704
Nuclear contribution   :      3.33324       4.69089      -3.56977
                        -----------------------------------------
Total Dipole Moment    :      0.65428       0.98050      -1.04274
                        -----------------------------------------
Magnitude (a.u.)       :      1.57377
Magnitude (Debye)      :      4.00021

Rotational constants in cm-1:     0.056700     0.012533     0.011869
Rotational constants in MHz :  1699.812242   375.744688   355.822596

                             ****ORCA TERMINATED NORMALLY****
TOTAL RUN TIME: 0 days 1 hours 23 minutes 7 seconds 196 msec
