                         Program Version 4.2.0 -  RELEASE  -
|  1> # Test redundant internal optimization
|  2> #
|  3> ! RKS B3LYP  Opt TightSCF SmallPrint
|  4>
|  5> %basis
|  6>         Basis "6-31G"
|  7> end
|  8>
|  9> %geom
| 10> Constraints
| 11> { D 4  0  15  12  195.0   C } # D for Dihedral angle
| 12> { D 0  15  12  16  225.0   C } # D for Dihedral angle
| 13> { D 0  4  3  2   C } # D for Dihedral angle
| 14> { D 4  3  2  1   C } # D for Dihedral angle
| 15> { D 3  2  1  0   C } # D for Dihedral angle
| 16> { D 2  1  0  4   C } # D for Dihedral angle
| 17> { D 1  0  4  3   C } # D for Dihedral angle
| 18> { D 16  20  19  18   C } # D for Dihedral angle
| 19> { D 20  19  18  17   C } # D for Dihedral angle
| 20> { D 19  18  17  16   C } # D for Dihedral angle
| 21> { D 18  17  16  20   C } # D for Dihedral angle
| 22> { D 17  16  20  19   C } # D for Dihedral angle
| 23> { D 15  12  16  20   C } # D for Dihedral angle
| 24> end
| 25> end
| 26>
| 27>
| 28> #%pal
| 29> #nprocs 8
| 30> #end
| 31>
| 32> * xyz 0 1
| 33> C  -21.048   26.222   46.251
| 34> C  -20.361   27.558   45.944
| 35> C  -20.329   28.222   47.341
| 36> C  -20.110   27.022   48.296
| 37> O  -20.473   25.807   47.535
| 38> H  -20.833   25.428   45.533
| 39> H  -19.344   27.382   45.576
| 40> H  -20.898   28.157   45.201
| 41> H  -19.543   28.978   47.434
| 42> H  -21.289   28.710   47.548
| 43> H  -20.733   27.082   49.195
| 44> H  -19.064   26.913   48.597
| 45> C  -23.353   26.472   45.026
| 46> H  -22.638   26.649   44.213
| 47> H  -23.874   25.527   44.825
| 48> O  -22.586   26.394   46.375
| 49> C  -24.411   27.610   45.002
| 50> C  -25.226   27.584   43.705
| 51> C  -26.232   26.444   43.988
| 52> C  -26.512   26.591   45.505
| 53> O  -25.408   27.405   46.058
| 54> H  -23.918   28.562   45.208
| 55> H  -25.750   28.537   43.569
| 56> O  -24.358   27.320   42.444
| 57> H  -27.144   26.522   43.387
| 58> H  -25.772   25.472   43.773
| 59> H  -26.539   25.625   46.022
| 60> H  -27.442   27.128   45.708
| 61> H  -23.824   26.370   42.555
| 62> *
| 63>
| 64>                          ****END OF INPUT****
 Total Charge           Charge          ....    0
 Multiplicity           Mult            ....    1
 Number of Electrons    NEL             ....  102
FINAL SINGLE POINT ENERGY      -652.824048262749
FINAL SINGLE POINT ENERGY      -652.847533903922
FINAL SINGLE POINT ENERGY      -652.851732610563
FINAL SINGLE POINT ENERGY      -652.852530626383
FINAL SINGLE POINT ENERGY      -652.852707695566
FINAL SINGLE POINT ENERGY      -652.852744569419
FINAL SINGLE POINT ENERGY      -652.852752908884
FINAL SINGLE POINT ENERGY      -652.852755271647
                    ***********************HURRAY********************

CARTESIAN COORDINATES (ANGSTROEM)
---------------------------------
  C    -21.057035   26.210128   46.197881
  C    -20.392249   27.554363   45.909766
  C    -20.465729   28.251824   47.290133
  C    -20.274985   27.081237   48.276141
  O    -20.563813   25.848864   47.493655
  H    -20.799576   25.399470   45.507998
  H    -19.350281   27.385877   45.611723
  H    -20.886656   28.122971   45.116760
  H    -19.704569   29.028767   47.408301
  H    -21.451981   28.705975   47.421008
  H    -20.958007   27.118304   49.127772
  H    -19.245952   26.987354   48.635459
  C    -23.221172   26.369252   45.029750
  H    -22.537455   26.561489   44.190569
  H    -23.690985   25.387132   44.876197
  O    -22.507085   26.342177   46.295159
  C    -24.264625   27.484513   45.052453
  C    -25.106971   27.566198   43.768948
  C    -26.201716   26.489358   44.033018
  C    -26.434273   26.610008   45.555478
  O    -25.254246   27.319749   46.111253
  H    -23.752057   28.426578   45.269018
  H    -25.558437   28.557835   43.695466
  O    -24.368114   27.405277   42.531792
  H    -27.107133   26.665789   43.446817
  H    -25.812925   25.497480   43.766132
  H    -26.531638   25.639556   46.050440
  H    -27.312763   27.217504   45.792596
  H    -24.199571   26.457974   42.352318

 Multiplicity           Mult            ....    1
 Number of Electrons    NEL             ....  102
 Basis Dimension        Dim             ....  149

ORBITAL ENERGIES
----------------

  NO   OCC          E(Eh)            E(eV)
   0   2.0000     -19.153495      -521.1931
   1   2.0000     -19.137036      -520.7452
   2   2.0000     -19.136627      -520.7341
   3   2.0000     -19.135271      -520.6972
   4   2.0000     -10.276513      -279.6381
   5   2.0000     -10.247365      -278.8450
   6   2.0000     -10.231851      -278.4228
   7   2.0000     -10.231434      -278.4115
   8   2.0000     -10.230517      -278.3865
   9   2.0000     -10.220550      -278.1153
  10   2.0000     -10.198071      -277.5036
  11   2.0000     -10.184274      -277.1282
  12   2.0000     -10.182269      -277.0736
  13   2.0000      -1.049760       -28.5654
  14   2.0000      -1.035873       -28.1875
  15   2.0000      -1.016926       -27.6720
  16   2.0000      -0.990026       -26.9400
  17   2.0000      -0.785257       -21.3679
  18   2.0000      -0.782478       -21.2923
  19   2.0000      -0.768063       -20.9001
  20   2.0000      -0.729334       -19.8462
  21   2.0000      -0.681390       -18.5416
  22   2.0000      -0.614045       -16.7090
  23   2.0000      -0.596831       -16.2406
  24   2.0000      -0.588583       -16.0162
  25   2.0000      -0.578330       -15.7372
  26   2.0000      -0.526372       -14.3233
  27   2.0000      -0.511780       -13.9262
  28   2.0000      -0.501927       -13.6581
  29   2.0000      -0.490420       -13.3450
  30   2.0000      -0.465474       -12.6662
  31   2.0000      -0.456317       -12.4170
  32   2.0000      -0.449031       -12.2188
  33   2.0000      -0.434579       -11.8255
  34   2.0000      -0.425448       -11.5770
  35   2.0000      -0.424074       -11.5396
  36   2.0000      -0.403969       -10.9925
  37   2.0000      -0.400643       -10.9021
  38   2.0000      -0.377317       -10.2673
  39   2.0000      -0.373135       -10.1535
  40   2.0000      -0.356004        -9.6874
  41   2.0000      -0.353304        -9.6139
  42   2.0000      -0.350692        -9.5428
  43   2.0000      -0.330809        -9.0018
  44   2.0000      -0.319333        -8.6895
  45   2.0000      -0.307886        -8.3780
  46   2.0000      -0.300331        -8.1724
  47   2.0000      -0.274104        -7.4587
  48   2.0000      -0.256205        -6.9717
  49   2.0000      -0.254332        -6.9207
  50   2.0000      -0.235785        -6.4160
  51   0.0000       0.047702         1.2980
  52   0.0000       0.077574         2.1109
  53   0.0000       0.083776         2.2797
  54   0.0000       0.088957         2.4207
  55   0.0000       0.100684         2.7397

MULLIKEN ATOMIC CHARGES
-----------------------
   0 C :    0.291538
   1 C :   -0.272424
   2 C :   -0.299714
   3 C :   -0.000652
   4 O :   -0.502355
   5 H :    0.136099
   6 H :    0.143790
   7 H :    0.144555
   8 H :    0.140600
   9 H :    0.166380
  10 H :    0.158201
  11 H :    0.139728
  12 C :   -0.019961
  13 H :    0.127673
  14 H :    0.128875
  15 O :   -0.493618
  16 C :    0.101437
  17 C :    0.085596
  18 C :   -0.325965
  19 C :   -0.006788
  20 O :   -0.503483
  21 H :    0.152755
  22 H :    0.165949
  23 O :   -0.602482
  24 H :    0.158820
  25 H :    0.131860
  26 H :    0.150009
  27 H :    0.147522
  28 H :    0.356055
Sum of atomic charges:    0.0000000

LOEWDIN ATOMIC CHARGES
----------------------
   0 C :    0.178612
   1 C :   -0.231591
   2 C :   -0.217139
   3 C :   -0.024147
   4 O :   -0.303285
   5 H :    0.094454
   6 H :    0.113240
   7 H :    0.113969
   8 H :    0.113827
   9 H :    0.120638
  10 H :    0.111625
  11 H :    0.101380
  12 C :   -0.051731
  13 H :    0.097099
  14 H :    0.094714
  15 O :   -0.323050
  16 C :    0.020302
  17 C :    0.033823
  18 C :   -0.240772
  19 C :   -0.028349
  20 O :   -0.312058
  21 H :    0.113754
  22 H :    0.118890
  23 O :   -0.409794
  24 H :    0.122898
  25 H :    0.103129
  26 H :    0.106104
  27 H :    0.105450
  28 H :    0.278007

  Mayer bond orders larger than 0.100000
B(  0-C ,  1-C ) :   0.9281 B(  0-C ,  4-O ) :   0.9413 B(  0-C ,  5-H ) :   0.9204
B(  0-C , 15-O ) :   0.8373 B(  1-C ,  2-C ) :   0.9523 B(  1-C ,  6-H ) :   0.9336
B(  1-C ,  7-H ) :   0.9346 B(  2-C ,  3-C ) :   0.9559 B(  2-C ,  8-H ) :   0.9449
B(  2-C ,  9-H ) :   0.9419 B(  3-C ,  4-O ) :   0.8338 B(  3-C , 10-H ) :   0.9340
B(  3-C , 11-H ) :   0.9399 B( 12-C , 13-H ) :   0.9018 B( 12-C , 14-H ) :   0.9241
B( 12-C , 15-O ) :   0.8520 B( 12-C , 16-C ) :   0.8995 B( 16-C , 17-C ) :   0.8688
B( 16-C , 20-O ) :   0.8743 B( 16-C , 21-H ) :   0.9321 B( 17-C , 18-C ) :   0.9259
B( 17-C , 22-H ) :   0.9336 B( 17-C , 23-O ) :   0.8927 B( 18-C , 19-C ) :   0.9385
B( 18-C , 24-H ) :   0.9415 B( 18-C , 25-H ) :   0.9407 B( 19-C , 20-O ) :   0.8509
B( 19-C , 26-H ) :   0.9308 B( 19-C , 27-H ) :   0.9379 B( 23-O , 28-H ) :   0.7989

FINAL SINGLE POINT ENERGY      -652.852755711168

DIPOLE MOMENT
-------------
                                X             Y             Z
Electronic contribution:     -0.65824      -1.72882       0.89078
Nuclear contribution   :      0.50876       1.77392      -1.86821
                        -----------------------------------------
Total Dipole Moment    :     -0.14948       0.04510      -0.97743
                        -----------------------------------------
Magnitude (a.u.)       :      0.98982
Magnitude (Debye)      :      2.51592

Rotational constants in cm-1:     0.055650     0.012659     0.011694
Rotational constants in MHz :  1668.358844   379.518836   350.566132

                             ****ORCA TERMINATED NORMALLY****
TOTAL RUN TIME: 0 days 1 hours 2 minutes 20 seconds 715 msec
