                         Program Version 4.2.0 -  RELEASE  -
|  1> # Test redundant internal optimization
|  2> #
|  3> ! RKS B3LYP  Opt TightSCF SmallPrint
|  4>
|  5> %basis
|  6>         Basis "6-31G"
|  7> end
|  8>
|  9> %geom
| 10> Constraints
| 11> { D 4  0  15  12  60.0   C } # D for Dihedral angle
| 12> { D 0  15  12  16  180.0   C } # D for Dihedral angle
| 13> { D 0  4  3  2   C } # D for Dihedral angle
| 14> { D 4  3  2  1   C } # D for Dihedral angle
| 15> { D 3  2  1  0   C } # D for Dihedral angle
| 16> { D 2  1  0  4   C } # D for Dihedral angle
| 17> { D 1  0  4  3   C } # D for Dihedral angle
| 18> { D 16  20  19  18   C } # D for Dihedral angle
| 19> { D 20  19  18  17   C } # D for Dihedral angle
| 20> { D 19  18  17  16   C } # D for Dihedral angle
| 21> { D 18  17  16  20   C } # D for Dihedral angle
| 22> { D 17  16  20  19   C } # D for Dihedral angle
| 23> { D 15  12  16  20   C } # D for Dihedral angle
| 24> end
| 25> end
| 26>
| 27>
| 28> #%pal
| 29> #nprocs 8
| 30> #end
| 31>
| 32> * xyz 0 1
| 33> C  -21.048   26.222   46.251
| 34> C  -20.361   27.558   45.944
| 35> C  -20.329   28.222   47.341
| 36> C  -20.110   27.022   48.296
| 37> O  -20.473   25.807   47.535
| 38> H  -20.833   25.428   45.533
| 39> H  -19.344   27.382   45.576
| 40> H  -20.898   28.157   45.201
| 41> H  -19.543   28.978   47.434
| 42> H  -21.289   28.710   47.548
| 43> H  -20.733   27.082   49.195
| 44> H  -19.064   26.913   48.597
| 45> C  -23.051   27.452   47.413
| 46> H  -22.677   27.172   48.406
| 47> H  -22.647   28.441   47.161
| 48> O  -22.586   26.394   46.375
| 49> C  -24.597   27.578   47.491
| 50> C  -25.202   27.879   46.115
| 51> C  -25.195   26.479   45.456
| 52> C  -25.487   25.529   46.645
| 53> O  -25.197   26.296   47.877
| 54> H  -24.859   28.299   48.267
| 55> O  -26.655   28.402   46.274
| 56> H  -24.629   28.619   45.545
| 57> H  -25.934   26.382   44.655
| 58> H  -24.207   26.269   45.028
| 59> H  -24.862   24.630   46.627
| 60> H  -26.538   25.230   46.692
| 61> H  -27.248   27.677   46.842
| 62> *
| 63>
| 64>                          ****END OF INPUT****
 Total Charge           Charge          ....    0
 Multiplicity           Mult            ....    1
 Number of Electrons    NEL             ....  102
FINAL SINGLE POINT ENERGY      -652.814526374593
FINAL SINGLE POINT ENERGY      -652.841754223065
FINAL SINGLE POINT ENERGY      -652.856310304153
FINAL SINGLE POINT ENERGY      -652.858861587644
FINAL SINGLE POINT ENERGY      -652.859211740097
FINAL SINGLE POINT ENERGY      -652.859267271309
FINAL SINGLE POINT ENERGY      -652.859273633453
                    ***********************HURRAY********************

CARTESIAN COORDINATES (ANGSTROEM)
---------------------------------
  C    -21.189272   26.340995   46.456027
  C    -20.354305   27.539108   45.980020
  C    -20.032605   28.266017   47.319935
  C    -19.873357   27.084228   48.310226
  O    -20.521539   25.915954   47.664657
  H    -21.141140   25.492016   45.772492
  H    -19.437677   27.163060   45.514534
  H    -20.884524   28.166156   45.257972
  H    -19.117869   28.863845   47.255926
  H    -20.843138   28.936255   47.615007
  H    -20.348175   27.264005   49.279156
  H    -18.825505   26.814943   48.471167
  C    -23.168602   27.492002   47.521032
  H    -22.865688   27.224822   48.540278
  H    -22.825558   28.512235   47.298474
  O    -22.615074   26.529400   46.583387
  C    -24.694441   27.477357   47.441367
  C    -25.319036   27.826451   46.082691
  C    -25.278104   26.457081   45.352119
  C    -25.534635   25.446469   46.497712
  O    -25.254747   26.166775   47.763839
  H    -25.060582   28.172991   48.206410
  O    -26.677204   28.320816   46.259763
  H    -24.794930   28.618534   45.546597
  H    -26.038304   26.415582   44.566533
  H    -24.288626   26.304125   44.920178
  H    -24.875807   24.576914   46.440467
  H    -26.575179   25.109040   46.544524
  H    -27.160377   27.711824   46.857511

 Multiplicity           Mult            ....    1
 Number of Electrons    NEL             ....  102
 Basis Dimension        Dim             ....  149

ORBITAL ENERGIES
----------------

  NO   OCC          E(Eh)            E(eV)
   0   2.0000     -19.150240      -521.1045
   1   2.0000     -19.146957      -521.0152
   2   2.0000     -19.134763      -520.6834
   3   2.0000     -19.133382      -520.6458
   4   2.0000     -10.283862      -279.8381
   5   2.0000     -10.235494      -278.5220
   6   2.0000     -10.235217      -278.5144
   7   2.0000     -10.233887      -278.4782
   8   2.0000     -10.233479      -278.4671
   9   2.0000     -10.218779      -278.0671
  10   2.0000     -10.197863      -277.4980
  11   2.0000     -10.195677      -277.4385
  12   2.0000     -10.173711      -276.8407
  13   2.0000      -1.058159       -28.7940
  14   2.0000      -1.030563       -28.0431
  15   2.0000      -1.004608       -27.3368
  16   2.0000      -0.996031       -27.1034
  17   2.0000      -0.793360       -21.5884
  18   2.0000      -0.781061       -21.2538
  19   2.0000      -0.763360       -20.7721
  20   2.0000      -0.735910       -20.0251
  21   2.0000      -0.677559       -18.4373
  22   2.0000      -0.609092       -16.5742
  23   2.0000      -0.605012       -16.4632
  24   2.0000      -0.594680       -16.1821
  25   2.0000      -0.569441       -15.4953
  26   2.0000      -0.523367       -14.2415
  27   2.0000      -0.513769       -13.9804
  28   2.0000      -0.501788       -13.6543
  29   2.0000      -0.486707       -13.2440
  30   2.0000      -0.475379       -12.9357
  31   2.0000      -0.457334       -12.4447
  32   2.0000      -0.450624       -12.2621
  33   2.0000      -0.438231       -11.9249
  34   2.0000      -0.423888       -11.5346
  35   2.0000      -0.415916       -11.3176
  36   2.0000      -0.403981       -10.9929
  37   2.0000      -0.386033       -10.5045
  38   2.0000      -0.384044       -10.4504
  39   2.0000      -0.367005        -9.9867
  40   2.0000      -0.365759        -9.9528
  41   2.0000      -0.360859        -9.8195
  42   2.0000      -0.349835        -9.5195
  43   2.0000      -0.327000        -8.8981
  44   2.0000      -0.321423        -8.7464
  45   2.0000      -0.310769        -8.4564
  46   2.0000      -0.298636        -8.1263
  47   2.0000      -0.271631        -7.3915
  48   2.0000      -0.263127        -7.1600
  49   2.0000      -0.257065        -6.9951
  50   2.0000      -0.240167        -6.5353
  51   0.0000       0.064561         1.7568
  52   0.0000       0.075745         2.0611
  53   0.0000       0.085758         2.3336
  54   0.0000       0.103113         2.8059
  55   0.0000       0.107973         2.9381

MULLIKEN ATOMIC CHARGES
-----------------------
   0 C :    0.305902
   1 C :   -0.275862
   2 C :   -0.314273
   3 C :   -0.012869
   4 O :   -0.503150
   5 H :    0.164350
   6 H :    0.156948
   7 H :    0.148719
   8 H :    0.148185
   9 H :    0.147614
  10 H :    0.147288
  11 H :    0.150293
  12 C :    0.008001
  13 H :    0.156901
  14 H :    0.120602
  15 O :   -0.527476
  16 C :    0.061193
  17 C :    0.072762
  18 C :   -0.286736
  19 C :   -0.015520
  20 O :   -0.523628
  21 H :    0.156023
  22 O :   -0.602179
  23 H :    0.146522
  24 H :    0.148272
  25 H :    0.170161
  26 H :    0.156153
  27 H :    0.133028
  28 H :    0.362775
Sum of atomic charges:   -0.0000000

LOEWDIN ATOMIC CHARGES
----------------------
   0 C :    0.175658
   1 C :   -0.229020
   2 C :   -0.223822
   3 C :   -0.033325
   4 O :   -0.317725
   5 H :    0.112810
   6 H :    0.122611
   7 H :    0.118472
   8 H :    0.116969
   9 H :    0.108513
  10 H :    0.103439
  11 H :    0.106045
  12 C :   -0.039772
  13 H :    0.110967
  14 H :    0.090271
  15 O :   -0.319391
  16 C :    0.015124
  17 C :    0.038292
  18 C :   -0.242538
  19 C :   -0.031893
  20 O :   -0.327777
  21 H :    0.115544
  22 O :   -0.417303
  23 H :    0.113024
  24 H :    0.117928
  25 H :    0.128541
  26 H :    0.111115
  27 H :    0.095297
  28 H :    0.281945

  Mayer bond orders larger than 0.100000
B(  0-C ,  1-C ) :   0.9176 B(  0-C ,  4-O ) :   0.9075 B(  0-C ,  5-H ) :   0.9371
B(  0-C , 15-O ) :   0.8865 B(  1-C ,  2-C ) :   0.9557 B(  1-C ,  6-H ) :   0.9348
B(  1-C ,  7-H ) :   0.9371 B(  2-C ,  3-C ) :   0.9470 B(  2-C ,  8-H ) :   0.9450
B(  2-C ,  9-H ) :   0.9395 B(  3-C ,  4-O ) :   0.8429 B(  3-C , 10-H ) :   0.9327
B(  3-C , 11-H ) :   0.9388 B( 12-C , 13-H ) :   0.9148 B( 12-C , 14-H ) :   0.8994
B( 12-C , 15-O ) :   0.8366 B( 12-C , 16-C ) :   0.9059 B( 16-C , 17-C ) :   0.9088
B( 16-C , 20-O ) :   0.8790 B( 16-C , 21-H ) :   0.9230 B( 17-C , 18-C ) :   0.9235
B( 17-C , 22-O ) :   0.8918 B( 17-C , 23-H ) :   0.9361 B( 18-C , 19-C ) :   0.9474
B( 18-C , 24-H ) :   0.9371 B( 18-C , 25-H ) :   0.9195 B( 19-C , 20-O ) :   0.8375
B( 19-C , 26-H ) :   0.9335 B( 19-C , 27-H ) :   0.9376 B( 22-O , 28-H ) :   0.7956

FINAL SINGLE POINT ENERGY      -652.859272587660

DIPOLE MOMENT
-------------
                                X             Y             Z
Electronic contribution:     -3.84368      -2.65141       1.42061
Nuclear contribution   :      4.89049       3.32640      -1.73835
                        -----------------------------------------
Total Dipole Moment    :      1.04680       0.67499      -0.31774
                        -----------------------------------------
Magnitude (a.u.)       :      1.28544
Magnitude (Debye)      :      3.26734

Rotational constants in cm-1:     0.058529     0.013575     0.013119
Rotational constants in MHz :  1754.665792   406.961111   393.291422

                             ****ORCA TERMINATED NORMALLY****
TOTAL RUN TIME: 0 days 0 hours 27 minutes 58 seconds 571 msec
