                         Program Version 4.2.0 -  RELEASE  -
|  1> # Test redundant internal optimization
|  2> #
|  3> ! RKS B3LYP  Opt TightSCF SmallPrint
|  4>
|  5> %basis
|  6>         Basis "6-31G"
|  7> end
|  8>
|  9> %geom
| 10> Constraints
| 11> { D 4  0  15  12  120.0   C } # D for Dihedral angle
| 12> { D 0  15  12  16  270.0   C } # D for Dihedral angle
| 13> { D 0  4  3  2   C } # D for Dihedral angle
| 14> { D 4  3  2  1   C } # D for Dihedral angle
| 15> { D 3  2  1  0   C } # D for Dihedral angle
| 16> { D 2  1  0  4   C } # D for Dihedral angle
| 17> { D 1  0  4  3   C } # D for Dihedral angle
| 18> { D 16  20  19  18   C } # D for Dihedral angle
| 19> { D 20  19  18  17   C } # D for Dihedral angle
| 20> { D 19  18  17  16   C } # D for Dihedral angle
| 21> { D 18  17  16  20   C } # D for Dihedral angle
| 22> { D 17  16  20  19   C } # D for Dihedral angle
| 23> { D 15  12  16  20   C } # D for Dihedral angle
| 24> end
| 25> end
| 26>
| 27>
| 28> #%pal
| 29> #nprocs 8
| 30> #end
| 31>
| 32> * xyz 0 1
| 33> C  -21.048   26.222   46.251
| 34> C  -20.361   27.558   45.944
| 35> C  -20.329   28.222   47.341
| 36> C  -20.110   27.022   48.296
| 37> O  -20.473   25.807   47.535
| 38> H  -20.833   25.428   45.533
| 39> H  -19.344   27.382   45.576
| 40> H  -20.898   28.157   45.201
| 41> H  -19.543   28.978   47.434
| 42> H  -21.289   28.710   47.548
| 43> H  -20.733   27.082   49.195
| 44> H  -19.064   26.913   48.597
| 45> C  -23.119   27.818   46.058
| 46> H  -22.466   28.292   45.314
| 47> H  -24.132   27.765   45.640
| 48> O  -22.586   26.394   46.375
| 49> C  -23.173   28.732   47.313
| 50> C  -23.810   30.088   46.987
| 51> C  -25.317   29.735   46.989
| 52> C  -25.426   28.664   48.104
| 53> O  -24.057   28.154   48.331
| 54> H  -22.176   28.796   47.753
| 55> H  -23.582   30.812   47.778
| 56> O  -23.332   30.677   45.632
| 57> H  -25.956   30.603   47.180
| 58> H  -25.606   29.313   46.019
| 59> H  -26.077   27.830   47.821
| 60> H  -25.776   29.082   49.052
| 61> H  -23.551   29.970   44.824
| 62> *
| 63>
| 64>                          ****END OF INPUT****
 Total Charge           Charge          ....    0
 Multiplicity           Mult            ....    1
 Number of Electrons    NEL             ....  102
FINAL SINGLE POINT ENERGY      -652.752193038856
FINAL SINGLE POINT ENERGY      -652.812703233997
FINAL SINGLE POINT ENERGY      -652.835039945717
FINAL SINGLE POINT ENERGY      -652.840602055899
FINAL SINGLE POINT ENERGY      -652.841574705973
FINAL SINGLE POINT ENERGY      -652.841854284984
FINAL SINGLE POINT ENERGY      -652.841892598760
FINAL SINGLE POINT ENERGY      -652.841902394867
FINAL SINGLE POINT ENERGY      -652.841904083874
                    ***********************HURRAY********************

CARTESIAN COORDINATES (ANGSTROEM)
---------------------------------
  C    -21.098645   26.332881   46.332430
  C    -20.079305   27.411960   45.947923
  C    -19.829458   28.124173   47.308540
  C    -19.927033   26.955311   48.319719
  O    -20.631678   25.859588   47.610308
  H    -21.038706   25.456170   45.682399
  H    -19.171045   26.905479   45.607033
  H    -20.409444   28.090616   45.156376
  H    -18.847698   28.607909   47.340746
  H    -20.575976   28.897040   47.495003
  H    -20.489758   27.212994   49.221420
  H    -18.945139   26.567858   48.605518
  C    -23.136505   27.907444   46.064360
  H    -22.566374   28.467324   45.308984
  H    -24.106797   27.640198   45.631932
  O    -22.521533   26.624884   46.340087
  C    -23.340491   28.811489   47.284947
  C    -24.050713   30.133634   46.944566
  C    -25.549359   29.701443   46.943216
  C    -25.596195   28.639686   48.065076
  O    -24.197127   28.204167   48.299351
  H    -22.388429   28.987107   47.785123
  H    -23.865929   30.857993   47.741287
  O    -23.594870   30.790297   45.735316
  H    -26.222906   30.543182   47.123665
  H    -25.804686   29.265756   45.968177
  H    -26.202101   27.767356   47.801641
  H    -25.965039   29.052411   49.008869
  H    -24.014063   30.389649   44.946990

 Multiplicity           Mult            ....    1
 Number of Electrons    NEL             ....  102
 Basis Dimension        Dim             ....  149

ORBITAL ENERGIES
----------------

  NO   OCC          E(Eh)            E(eV)
   0   2.0000     -19.155178      -521.2389
   1   2.0000     -19.137020      -520.7448
   2   2.0000     -19.134325      -520.6715
   3   2.0000     -19.132605      -520.6246
   4   2.0000     -10.274571      -279.5853
   5   2.0000     -10.249447      -278.9016
   6   2.0000     -10.233310      -278.4625
   7   2.0000     -10.231355      -278.4093
   8   2.0000     -10.231281      -278.4073
   9   2.0000     -10.221630      -278.1447
  10   2.0000     -10.199478      -277.5419
  11   2.0000     -10.191996      -277.3383
  12   2.0000     -10.189724      -277.2765
  13   2.0000      -1.043174       -28.3862
  14   2.0000      -1.036420       -28.2024
  15   2.0000      -1.017298       -27.6821
  16   2.0000      -0.988543       -26.8996
  17   2.0000      -0.786191       -21.3933
  18   2.0000      -0.786061       -21.3898
  19   2.0000      -0.770716       -20.9723
  20   2.0000      -0.732076       -19.9208
  21   2.0000      -0.685272       -18.6472
  22   2.0000      -0.615039       -16.7361
  23   2.0000      -0.607139       -16.5211
  24   2.0000      -0.595728       -16.2106
  25   2.0000      -0.566858       -15.4250
  26   2.0000      -0.525437       -14.2979
  27   2.0000      -0.509166       -13.8551
  28   2.0000      -0.504277       -13.7221
  29   2.0000      -0.497418       -13.5354
  30   2.0000      -0.465878       -12.6772
  31   2.0000      -0.451443       -12.2844
  32   2.0000      -0.447356       -12.1732
  33   2.0000      -0.432679       -11.7738
  34   2.0000      -0.430950       -11.7268
  35   2.0000      -0.427958       -11.6453
  36   2.0000      -0.410571       -11.1722
  37   2.0000      -0.403006       -10.9664
  38   2.0000      -0.382011       -10.3950
  39   2.0000      -0.376557       -10.2466
  40   2.0000      -0.359916        -9.7938
  41   2.0000      -0.354141        -9.6367
  42   2.0000      -0.348142        -9.4734
  43   2.0000      -0.331364        -9.0169
  44   2.0000      -0.320114        -8.7107
  45   2.0000      -0.307108        -8.3568
  46   2.0000      -0.284530        -7.7424
  47   2.0000      -0.275070        -7.4850
  48   2.0000      -0.267411        -7.2766
  49   2.0000      -0.250462        -6.8154
  50   2.0000      -0.232424        -6.3246
  51   0.0000       0.047290         1.2868
  52   0.0000       0.074153         2.0178
  53   0.0000       0.078244         2.1291
  54   0.0000       0.086014         2.3406
  55   0.0000       0.099649         2.7116

MULLIKEN ATOMIC CHARGES
-----------------------
   0 C :    0.317727
   1 C :   -0.303035
   2 C :   -0.313550
   3 C :   -0.005932
   4 O :   -0.492452
   5 H :    0.157176
   6 H :    0.159305
   7 H :    0.147138
   8 H :    0.144270
   9 H :    0.152493
  10 H :    0.154931
  11 H :    0.143465
  12 C :   -0.009256
  13 H :    0.123828
  14 H :    0.144962
  15 O :   -0.520200
  16 C :    0.083157
  17 C :    0.079664
  18 C :   -0.323530
  19 C :   -0.012023
  20 O :   -0.503177
  21 H :    0.158746
  22 H :    0.167321
  23 O :   -0.602063
  24 H :    0.160169
  25 H :    0.131939
  26 H :    0.152575
  27 H :    0.148776
  28 H :    0.357576
Sum of atomic charges:   -0.0000000

LOEWDIN ATOMIC CHARGES
----------------------
   0 C :    0.180513
   1 C :   -0.231597
   2 C :   -0.222359
   3 C :   -0.031318
   4 O :   -0.311054
   5 H :    0.104640
   6 H :    0.124494
   7 H :    0.115346
   8 H :    0.115557
   9 H :    0.109020
  10 H :    0.108884
  11 H :    0.103458
  12 C :   -0.044706
  13 H :    0.093798
  14 H :    0.108297
  15 O :   -0.318258
  16 C :    0.007748
  17 C :    0.032966
  18 C :   -0.240922
  19 C :   -0.029729
  20 O :   -0.312064
  21 H :    0.110614
  22 H :    0.118786
  23 O :   -0.410386
  24 H :    0.123426
  25 H :    0.103370
  26 H :    0.106789
  27 H :    0.105954
  28 H :    0.278734

  Mayer bond orders larger than 0.100000
B(  0-C ,  1-C ) :   0.9259 B(  0-C ,  4-O ) :   0.9164 B(  0-C ,  5-H ) :   0.9347
B(  0-C , 15-O ) :   0.8813 B(  1-C ,  2-C ) :   0.9544 B(  1-C ,  6-H ) :   0.9336
B(  1-C ,  7-H ) :   0.9298 B(  2-C ,  3-C ) :   0.9500 B(  2-C ,  8-H ) :   0.9451
B(  2-C ,  9-H ) :   0.9267 B(  3-C ,  4-O ) :   0.8468 B(  3-C , 10-H ) :   0.9319
B(  3-C , 11-H ) :   0.9388 B( 12-C , 13-H ) :   0.8988 B( 12-C , 14-H ) :   0.9367
B( 12-C , 15-O ) :   0.8687 B( 12-C , 16-C ) :   0.8828 B( 16-C , 17-C ) :   0.8670
B( 16-C , 20-O ) :   0.8662 B( 16-C , 21-H ) :   0.9134 B( 17-C , 18-C ) :   0.9284
B( 17-C , 22-H ) :   0.9316 B( 17-C , 23-O ) :   0.8945 B( 18-C , 19-C ) :   0.9368
B( 18-C , 24-H ) :   0.9409 B( 18-C , 25-H ) :   0.9404 B( 19-C , 20-O ) :   0.8499
B( 19-C , 26-H ) :   0.9303 B( 19-C , 27-H ) :   0.9375 B( 23-O , 28-H ) :   0.7981

FINAL SINGLE POINT ENERGY      -652.841896199408

DIPOLE MOMENT
-------------
                                X             Y             Z
Electronic contribution:     -0.99611      -3.29369       0.70610
Nuclear contribution   :      0.77380       4.47192      -1.53416
                        -----------------------------------------
Total Dipole Moment    :     -0.22232       1.17823      -0.82806
                        -----------------------------------------
Magnitude (a.u.)       :      1.45717
Magnitude (Debye)      :      3.70382

Rotational constants in cm-1:     0.047652     0.015207     0.013954
Rotational constants in MHz :  1428.559488   455.895203   418.334587

                             ****ORCA TERMINATED NORMALLY****
TOTAL RUN TIME: 0 days 2 hours 52 minutes 44 seconds 427 msec
