                         Program Version 4.2.1 -  RELEASE  -
|  1> # Test redundant internal optimization
|  2> #
|  3> ! RKS B3LYP  Opt TightSCF SmallPrint
|  4>
|  5> %basis
|  6>         Basis "6-31G"
|  7> end
|  8>
|  9> %geom
| 10> Constraints
| 11> { D 4  0  19  14  30.0   C } # D for Dihedral angle
| 12> { D 0  19  14  12  135.0   C } # D for Dihedral angle
| 13> { D 0  4  3  2   C } # D for Dihedral angle
| 14> { D 4  3  2  1   C } # D for Dihedral angle
| 15> { D 3  2  1  0   C } # D for Dihedral angle
| 16> { D 2  1  0  4   C } # D for Dihedral angle
| 17> { D 1  0  4  3   C } # D for Dihedral angle
| 18> { D 14  15  16  17   C } # D for Dihedral angle
| 19> { D 15  16  17  12   C } # D for Dihedral angle
| 20> { D 16  17  12  14   C } # D for Dihedral angle
| 21> { D 17  12  14  15   C } # D for Dihedral angle
| 22> { D 12  14  15  16   C } # D for Dihedral angle
| 23> end
| 24> end
| 25>
| 26>
| 27> #%pal
| 28> #nprocs 8
| 29> #end
| 30>
| 31> * xyz 0 1
| 32> C  -21.048   26.222   46.251
| 33> C  -20.361   27.558   45.944
| 34> C  -20.329   28.222   47.341
| 35> C  -20.110   27.022   48.296
| 36> O  -20.473   25.807   47.535
| 37> H  -20.833   25.428   45.533
| 38> H  -19.344   27.382   45.576
| 39> H  -20.898   28.157   45.201
| 40> H  -19.543   28.978   47.434
| 41> H  -21.289   28.710   47.548
| 42> H  -20.733   27.082   49.195
| 43> H  -19.064   26.913   48.597
| 44> C  -23.960   27.899   47.552
| 45> H  -24.104   28.417   48.513
| 46> C  -22.920   26.779   47.672
| 47> C  -23.747   25.651   48.332
| 48> C  -25.154   25.836   47.711
| 49> O  -25.191   27.207   47.155
| 50> H  -23.744   28.636   46.777
| 51> O  -22.472   26.381   46.366
| 52> H  -22.045   27.067   48.264
| 53> H  -23.335   24.655   48.144
| 54> H  -23.783   25.797   49.420
| 55> H  -25.957   25.726   48.448
| 56> H  -25.338   25.147   46.881
| 57> *
| 58>
| 59>                          ****END OF INPUT****
 Total Charge           Charge          ....    0
 Multiplicity           Mult            ....    1
 Number of Electrons    NEL             ....   86
FINAL SINGLE POINT ENERGY      -538.409679481436
FINAL SINGLE POINT ENERGY      -538.425647520450
FINAL SINGLE POINT ENERGY      -538.427391119463
FINAL SINGLE POINT ENERGY      -538.427631580091
FINAL SINGLE POINT ENERGY      -538.427655830617
FINAL SINGLE POINT ENERGY      -538.427656858705
                    ***********************HURRAY********************

CARTESIAN COORDINATES (ANGSTROEM)
---------------------------------
  C    -21.061406   26.285805   46.382798
  C    -20.346270   27.566805   45.937260
  C    -20.063086   28.265385   47.294995
  C    -19.779608   27.072984   48.241171
  O    -20.336039   25.872493   47.564267
  H    -20.968301   25.470399   45.663172
  H    -19.410052   27.296594   45.436139
  H    -20.956954   28.164091   45.256947
  H    -19.217752   28.958313   47.244546
  H    -20.940027   28.834793   47.622288
  H    -20.244196   27.176054   49.226797
  H    -18.709058   26.890079   48.373502
  C    -24.152111   27.870745   47.587417
  H    -24.430040   28.365647   48.531023
  C    -23.084353   26.803781   47.832103
  C    -23.930679   25.631274   48.367239
  C    -25.251617   25.753561   47.572793
  O    -25.282613   27.130467   47.028896
  H    -23.851278   28.617659   46.850911
  O    -22.492881   26.425685   46.551593
  H    -22.322119   27.115022   48.548107
  H    -23.418306   24.679318   48.212350
  H    -24.102932   25.763041   49.442782
  H    -26.136677   25.595581   48.198986
  H    -25.286646   25.073425   46.717921

 Multiplicity           Mult            ....    1
 Number of Electrons    NEL             ....   86
 Basis Dimension        Dim             ....  127

ORBITAL ENERGIES
----------------

  NO   OCC          E(Eh)            E(eV)
   0   2.0000     -19.150876      -521.1218
   1   2.0000     -19.137309      -520.7527
   2   2.0000     -19.123760      -520.3840
   3   2.0000     -10.280424      -279.7446
   4   2.0000     -10.239381      -278.6277
   5   2.0000     -10.236355      -278.5454
   6   2.0000     -10.219847      -278.0962
   7   2.0000     -10.215117      -277.9675
   8   2.0000     -10.196675      -277.4656
   9   2.0000     -10.188540      -277.2443
  10   2.0000     -10.179491      -276.9980
  11   2.0000      -1.055404       -28.7190
  12   2.0000      -1.012399       -27.5488
  13   2.0000      -0.988907       -26.9095
  14   2.0000      -0.793334       -21.5877
  15   2.0000      -0.781728       -21.2719
  16   2.0000      -0.740080       -20.1386
  17   2.0000      -0.722318       -19.6553
  18   2.0000      -0.617816       -16.8116
  19   2.0000      -0.606215       -16.4960
  20   2.0000      -0.594455       -16.1759
  21   2.0000      -0.566123       -15.4050
  22   2.0000      -0.526250       -14.3200
  23   2.0000      -0.503335       -13.6964
  24   2.0000      -0.486970       -13.2511
  25   2.0000      -0.480995       -13.0885
  26   2.0000      -0.452505       -12.3133
  27   2.0000      -0.441736       -12.0203
  28   2.0000      -0.427348       -11.6287
  29   2.0000      -0.417561       -11.3624
  30   2.0000      -0.411476       -11.1968
  31   2.0000      -0.385206       -10.4820
  32   2.0000      -0.371459       -10.1079
  33   2.0000      -0.365987        -9.9590
  34   2.0000      -0.363322        -9.8865
  35   2.0000      -0.358771        -9.7627
  36   2.0000      -0.344710        -9.3800
  37   2.0000      -0.326327        -8.8798
  38   2.0000      -0.310953        -8.4615
  39   2.0000      -0.295765        -8.0482
  40   2.0000      -0.266162        -7.2426
  41   2.0000      -0.251149        -6.8341
  42   2.0000      -0.227572        -6.1925
  43   0.0000       0.065851         1.7919
  44   0.0000       0.093037         2.5317
  45   0.0000       0.094290         2.5658
  46   0.0000       0.104931         2.8553
  47   0.0000       0.115213         3.1351

MULLIKEN ATOMIC CHARGES
-----------------------
   0 C :    0.297716
   1 C :   -0.259739
   2 C :   -0.314128
   3 C :   -0.021070
   4 O :   -0.509947
   5 H :    0.163302
   6 H :    0.148244
   7 H :    0.158897
   8 H :    0.150195
   9 H :    0.148158
  10 H :    0.144009
  11 H :    0.152350
  12 C :    0.011740
  13 H :    0.118451
  14 C :    0.060023
  15 C :   -0.285832
  16 C :    0.003413
  17 O :   -0.520300
  18 H :    0.155374
  19 O :   -0.525390
  20 H :    0.135856
  21 H :    0.166120
  22 H :    0.136262
  23 H :    0.130584
  24 H :    0.155711
Sum of atomic charges:   -0.0000000

LOEWDIN ATOMIC CHARGES
----------------------
   0 C :    0.181041
   1 C :   -0.225617
   2 C :   -0.223319
   3 C :   -0.036781
   4 O :   -0.321156
   5 H :    0.110706
   6 H :    0.116572
   7 H :    0.124231
   8 H :    0.118686
   9 H :    0.109439
  10 H :    0.099399
  11 H :    0.107365
  12 C :   -0.039560
  13 H :    0.088424
  14 C :    0.038429
  15 C :   -0.229431
  16 C :   -0.027835
  17 O :   -0.330043
  18 H :    0.115895
  19 O :   -0.324811
  20 H :    0.103492
  21 H :    0.129172
  22 H :    0.109768
  23 H :    0.096503
  24 H :    0.109430

  Mayer bond orders larger than 0.100000
B(  0-C ,  1-C ) :   0.9174 B(  0-C ,  4-O ) :   0.9023 B(  0-C ,  5-H ) :   0.9345
B(  0-C , 19-O ) :   0.8811 B(  1-C ,  2-C ) :   0.9536 B(  1-C ,  6-H ) :   0.9346
B(  1-C ,  7-H ) :   0.9364 B(  2-C ,  3-C ) :   0.9490 B(  2-C ,  8-H ) :   0.9447
B(  2-C ,  9-H ) :   0.9440 B(  3-C ,  4-O ) :   0.8378 B(  3-C , 10-H ) :   0.9283
B(  3-C , 11-H ) :   0.9385 B( 12-C , 13-H ) :   0.9131 B( 12-C , 14-C ) :   0.9304
B( 12-C , 17-O ) :   0.8756 B( 12-C , 18-H ) :   0.9324 B( 14-C , 15-C ) :   0.9422
B( 14-C , 19-O ) :   0.8168 B( 14-C , 20-H ) :   0.9113 B( 15-C , 16-C ) :   0.9485
B( 15-C , 21-H ) :   0.9390 B( 15-C , 22-H ) :   0.9387 B( 16-C , 17-O ) :   0.8532
B( 16-C , 23-H ) :   0.9339 B( 16-C , 24-H ) :   0.9360

FINAL SINGLE POINT ENERGY      -538.427656439259

DIPOLE MOMENT
-------------
                                X             Y             Z
Electronic contribution:     -1.72132      -2.27441      -2.13805
Nuclear contribution   :      2.74962       2.82121       2.84896
                        -----------------------------------------
Total Dipole Moment    :      1.02829       0.54681       0.71091
                        -----------------------------------------
Magnitude (a.u.)       :      1.36447
Magnitude (Debye)      :      3.46821

Rotational constants in cm-1:     0.079385     0.022024     0.020930
Rotational constants in MHz :  2379.892450   660.249946   627.466174

                             ****ORCA TERMINATED NORMALLY****
TOTAL RUN TIME: 0 days 0 hours 7 minutes 44 seconds 973 msec
