                         Program Version 4.2.1 -  RELEASE  -
|  1> # Test redundant internal optimization
|  2> #
|  3> ! RKS B3LYP  Opt TightSCF SmallPrint
|  4>
|  5> %basis
|  6>         Basis "6-31G"
|  7> end
|  8>
|  9> %geom
| 10> Constraints
| 11> { D 4  0  19  14  210.0   C } # D for Dihedral angle
| 12> { D 0  19  14  12  330.0   C } # D for Dihedral angle
| 13> { D 0  4  3  2   C } # D for Dihedral angle
| 14> { D 4  3  2  1   C } # D for Dihedral angle
| 15> { D 3  2  1  0   C } # D for Dihedral angle
| 16> { D 2  1  0  4   C } # D for Dihedral angle
| 17> { D 1  0  4  3   C } # D for Dihedral angle
| 18> { D 14  15  16  17   C } # D for Dihedral angle
| 19> { D 15  16  17  12   C } # D for Dihedral angle
| 20> { D 16  17  12  14   C } # D for Dihedral angle
| 21> { D 17  12  14  15   C } # D for Dihedral angle
| 22> { D 12  14  15  16   C } # D for Dihedral angle
| 23> end
| 24> end
| 25>
| 26>
| 27> #%pal
| 28> #nprocs 8
| 29> #end
| 30>
| 31> * xyz 0 1
| 32> C  -21.048   26.222   46.251
| 33> C  -20.361   27.558   45.944
| 34> C  -20.329   28.222   47.341
| 35> C  -20.110   27.022   48.296
| 36> O  -20.473   25.807   47.535
| 37> H  -20.833   25.428   45.533
| 38> H  -19.344   27.382   45.576
| 39> H  -20.898   28.157   45.201
| 40> H  -19.543   28.978   47.434
| 41> H  -21.289   28.710   47.548
| 42> H  -20.733   27.082   49.195
| 43> H  -19.064   26.913   48.597
| 44> C  -22.330   26.453   43.937
| 45> H  -22.938   26.538   43.023
| 46> C  -23.197   26.114   45.155
| 47> C  -23.416   24.595   44.972
| 48> C  -22.075   24.116   44.363
| 49> O  -21.402   25.321   43.830
| 50> H  -21.724   27.353   44.049
| 51> O  -22.472   26.381   46.366
| 52> H  -24.136   26.678   45.183
| 53> H  -23.654   24.083   45.911
| 54> H  -24.244   24.413   44.274
| 55> H  -22.215   23.395   43.550
| 56> H  -21.407   23.679   45.112
| 57> *
| 58>
| 59>                          ****END OF INPUT****
 Total Charge           Charge          ....    0
 Multiplicity           Mult            ....    1
 Number of Electrons    NEL             ....   86
FINAL SINGLE POINT ENERGY      -538.405793536120
FINAL SINGLE POINT ENERGY      -538.426496785880
FINAL SINGLE POINT ENERGY      -538.428648802072
FINAL SINGLE POINT ENERGY      -538.429026098431
FINAL SINGLE POINT ENERGY      -538.429086228027
FINAL SINGLE POINT ENERGY      -538.429108468459
FINAL SINGLE POINT ENERGY      -538.429110637300
                    ***********************HURRAY********************

CARTESIAN COORDINATES (ANGSTROEM)
---------------------------------
  C    -20.800919   26.250276   46.274857
  C    -20.169275   27.625193   46.055768
  C    -20.357408   28.293254   47.443114
  C    -20.185516   27.105228   48.413964
  O    -20.376179   25.883243   47.595756
  H    -20.478174   25.477867   45.577393
  H    -19.104560   27.499464   45.824426
  H    -20.634028   28.193483   45.248268
  H    -19.635032   29.093789   47.626960
  H    -21.367022   28.707509   47.516576
  H    -20.919666   27.101338   49.224012
  H    -19.178153   27.045438   48.837524
  C    -22.444455   26.357958   43.763643
  H    -23.231036   26.466062   43.002874
  C    -23.080184   26.076125   45.129230
  C    -23.418419   24.575791   45.008895
  C    -22.256562   24.006560   44.163021
  O    -21.620333   25.172377   43.489660
  H    -21.791473   27.229377   43.725763
  O    -22.262179   26.356452   46.305970
  H    -23.977619   26.679948   45.290312
  H    -23.494224   24.119673   45.997800
  H    -24.376982   24.453783   44.491192
  H    -22.590428   23.301839   43.394849
  H    -21.485173   23.527972   44.774174

 Multiplicity           Mult            ....    1
 Number of Electrons    NEL             ....   86
 Basis Dimension        Dim             ....  127

ORBITAL ENERGIES
----------------

  NO   OCC          E(Eh)            E(eV)
   0   2.0000     -19.140387      -520.8364
   1   2.0000     -19.133806      -520.6573
   2   2.0000     -19.133455      -520.6478
   3   2.0000     -10.271112      -279.4912
   4   2.0000     -10.242338      -278.7082
   5   2.0000     -10.230848      -278.3955
   6   2.0000     -10.226759      -278.2843
   7   2.0000     -10.219618      -278.0900
   8   2.0000     -10.184865      -277.1443
   9   2.0000     -10.180991      -277.0389
  10   2.0000     -10.180335      -277.0210
  11   2.0000      -1.046499       -28.4767
  12   2.0000      -1.019435       -27.7403
  13   2.0000      -0.983843       -26.7717
  14   2.0000      -0.786877       -21.4120
  15   2.0000      -0.775696       -21.1078
  16   2.0000      -0.742885       -20.2149
  17   2.0000      -0.722653       -19.6644
  18   2.0000      -0.616573       -16.7778
  19   2.0000      -0.603074       -16.4105
  20   2.0000      -0.592714       -16.1286
  21   2.0000      -0.565491       -15.3878
  22   2.0000      -0.520687       -14.1686
  23   2.0000      -0.503003       -13.6874
  24   2.0000      -0.482302       -13.1241
  25   2.0000      -0.479542       -13.0490
  26   2.0000      -0.451372       -12.2824
  27   2.0000      -0.445489       -12.1224
  28   2.0000      -0.427129       -11.6228
  29   2.0000      -0.412068       -11.2129
  30   2.0000      -0.403988       -10.9931
  31   2.0000      -0.391756       -10.6602
  32   2.0000      -0.375309       -10.2127
  33   2.0000      -0.367333        -9.9956
  34   2.0000      -0.357699        -9.7335
  35   2.0000      -0.349837        -9.5196
  36   2.0000      -0.345729        -9.4078
  37   2.0000      -0.319797        -8.7021
  38   2.0000      -0.305924        -8.3246
  39   2.0000      -0.293736        -7.9930
  40   2.0000      -0.258840        -7.0434
  41   2.0000      -0.245853        -6.6900
  42   2.0000      -0.240189        -6.5359
  43   0.0000       0.076150         2.0721
  44   0.0000       0.090028         2.4498
  45   0.0000       0.099852         2.7171
  46   0.0000       0.105711         2.8765
  47   0.0000       0.117600         3.2001

MULLIKEN ATOMIC CHARGES
-----------------------
   0 C :    0.281410
   1 C :   -0.262852
   2 C :   -0.298779
   3 C :   -0.000024
   4 O :   -0.505569
   5 H :    0.174659
   6 H :    0.146163
   7 H :    0.139862
   8 H :    0.138634
   9 H :    0.158526
  10 H :    0.150965
  11 H :    0.139413
  12 C :   -0.038083
  13 H :    0.138288
  14 C :    0.081757
  15 C :   -0.281855
  16 C :   -0.030720
  17 O :   -0.524127
  18 H :    0.158239
  19 O :   -0.526318
  20 H :    0.148231
  21 H :    0.172641
  22 H :    0.137930
  23 H :    0.146143
  24 H :    0.155468
Sum of atomic charges:   -0.0000000

LOEWDIN ATOMIC CHARGES
----------------------
   0 C :    0.175633
   1 C :   -0.224984
   2 C :   -0.217592
   3 C :   -0.025880
   4 O :   -0.307278
   5 H :    0.112836
   6 H :    0.114386
   7 H :    0.110635
   8 H :    0.112754
   9 H :    0.117375
  10 H :    0.107280
  11 H :    0.100871
  12 C :   -0.055078
  13 H :    0.101020
  14 C :    0.041845
  15 C :   -0.233333
  16 C :   -0.037834
  17 O :   -0.338433
  18 H :    0.114069
  19 O :   -0.335696
  20 H :    0.112644
  21 H :    0.132179
  22 H :    0.112089
  23 H :    0.104266
  24 H :    0.106226

  Mayer bond orders larger than 0.100000
B(  0-C ,  1-C ) :   0.9344 B(  0-C ,  4-O ) :   0.9244 B(  0-C ,  5-H ) :   0.8998
B(  0-C , 19-O ) :   0.8127 B(  1-C ,  2-C ) :   0.9521 B(  1-C ,  6-H ) :   0.9348
B(  1-C ,  7-H ) :   0.9334 B(  2-C ,  3-C ) :   0.9550 B(  2-C ,  8-H ) :   0.9452
B(  2-C ,  9-H ) :   0.9440 B(  3-C ,  4-O ) :   0.8375 B(  3-C , 10-H ) :   0.9351
B(  3-C , 11-H ) :   0.9399 B( 12-C , 13-H ) :   0.9140 B( 12-C , 14-C ) :   0.9224
B( 12-C , 17-O ) :   0.8541 B( 12-C , 18-H ) :   0.9251 B( 14-C , 15-C ) :   0.9218
B( 14-C , 19-O ) :   0.8796 B( 14-C , 20-H ) :   0.9343 B( 15-C , 16-C ) :   0.9466
B( 15-C , 21-H ) :   0.9353 B( 15-C , 22-H ) :   0.9389 B( 16-C , 17-O ) :   0.8415
B( 16-C , 23-H ) :   0.9362 B( 16-C , 24-H ) :   0.9337

FINAL SINGLE POINT ENERGY      -538.429111462150

DIPOLE MOMENT
-------------
                                X             Y             Z
Electronic contribution:      0.18769      -2.07243       0.16278
Nuclear contribution   :     -0.68424       2.66666      -0.41155
                        -----------------------------------------
Total Dipole Moment    :     -0.49655       0.59422      -0.24877
                        -----------------------------------------
Magnitude (a.u.)       :      0.81335
Magnitude (Debye)      :      2.06738

Rotational constants in cm-1:     0.079318     0.022638     0.021546
Rotational constants in MHz :  2377.901033   678.660222   645.935431

                             ****ORCA TERMINATED NORMALLY****
TOTAL RUN TIME: 0 days 0 hours 9 minutes 48 seconds 464 msec
