                         Program Version 4.2.0 -  RELEASE  -
|  1> # Test redundant internal optimization
|  2> #
|  3> ! RKS B3LYP  Opt TightSCF SmallPrint
|  4>
|  5> %basis
|  6>         Basis "6-31G"
|  7> end
|  8>
|  9> %geom
| 10> Constraints
| 11> { D 4  0  15  12  315.0   C } # D for Dihedral angle
| 12> { D 0  15  12  16  195.0   C } # D for Dihedral angle
| 13> { D 0  4  3  2   C } # D for Dihedral angle
| 14> { D 4  3  2  1   C } # D for Dihedral angle
| 15> { D 3  2  1  0   C } # D for Dihedral angle
| 16> { D 2  1  0  4   C } # D for Dihedral angle
| 17> { D 1  0  4  3   C } # D for Dihedral angle
| 18> { D 16  20  19  18   C } # D for Dihedral angle
| 19> { D 20  19  18  17   C } # D for Dihedral angle
| 20> { D 19  18  17  16   C } # D for Dihedral angle
| 21> { D 18  17  16  20   C } # D for Dihedral angle
| 22> { D 17  16  20  19   C } # D for Dihedral angle
| 23> { D 15  12  16  20   C } # D for Dihedral angle
| 24> end
| 25> end
| 26>
| 27>
| 28> #%pal
| 29> #nprocs 8
| 30> #end
| 31>
| 32> * xyz 0 1
| 33> C  -21.048   26.222   46.251
| 34> C  -20.361   27.558   45.944
| 35> C  -20.329   28.222   47.341
| 36> C  -20.110   27.022   48.296
| 37> O  -20.473   25.807   47.535
| 38> H  -20.833   25.428   45.533
| 39> H  -19.344   27.382   45.576
| 40> H  -20.898   28.157   45.201
| 41> H  -19.543   28.978   47.434
| 42> H  -21.289   28.710   47.548
| 43> H  -20.733   27.082   49.195
| 44> H  -19.064   26.913   48.597
| 45> C  -23.319   25.255   47.135
| 46> H  -22.935   24.286   46.792
| 47> H  -23.136   25.333   48.214
| 48> O  -22.586   26.394   46.375
| 49> C  -24.857   25.277   46.914
| 50> C  -25.558   24.215   47.767
| 51> C  -25.592   24.899   49.154
| 52> C  -25.797   26.394   48.804
| 53> O  -25.423   26.547   47.381
| 54> H  -25.065   25.208   45.844
| 55> O  -26.998   23.972   47.240
| 56> H  -25.028   23.256   47.780
| 57> H  -26.385   24.510   49.800
| 58> H  -24.636   24.751   49.671
| 59> H  -25.171   27.057   49.412
| 60> H  -26.840   26.706   48.899
| 61> H  -27.547   24.920   47.219
| 62> *
| 63>
| 64>                          ****END OF INPUT****
 Total Charge           Charge          ....    0
 Multiplicity           Mult            ....    1
 Number of Electrons    NEL             ....  102
FINAL SINGLE POINT ENERGY      -652.835709115233
FINAL SINGLE POINT ENERGY      -652.860138319253
FINAL SINGLE POINT ENERGY      -652.864280462841
FINAL SINGLE POINT ENERGY      -652.865045217106
FINAL SINGLE POINT ENERGY      -652.865154011152
FINAL SINGLE POINT ENERGY      -652.865166268905
                    ***********************HURRAY********************

CARTESIAN COORDINATES (ANGSTROEM)
---------------------------------
  C    -21.137033   26.153865   46.281100
  C    -20.571435   27.535150   45.952255
  C    -20.479215   28.177117   47.352929
  C    -20.106545   26.989128   48.266893
  O    -20.448602   25.761721   47.495565
  H    -20.927896   25.359300   45.555840
  H    -19.580263   27.420328   45.499030
  H    -21.217045   28.089021   45.267507
  H    -19.739425   28.982444   47.398957
  H    -21.455042   28.585632   47.630364
  H    -20.661168   26.980697   49.208988
  H    -19.034887   26.933054   48.479721
  C    -23.200038   25.221485   47.211406
  H    -22.846042   24.241517   46.854086
  H    -22.939004   25.303942   48.272408
  O    -22.562076   26.291794   46.462573
  C    -24.703547   25.327925   46.984217
  C    -25.522515   24.283623   47.756407
  C    -25.635357   24.942973   49.156918
  C    -25.739712   26.452301   48.823763
  O    -25.244830   26.613971   47.435626
  H    -24.901960   25.275060   45.909548
  O    -26.828336   24.096812   47.144306
  H    -25.070507   23.291119   47.780759
  H    -26.507048   24.560553   49.693605
  H    -24.740430   24.726207   49.751443
  H    -25.137868   27.075633   49.491963
  H    -26.771943   26.815763   48.844075
  H    -27.188230   24.972868   46.889749

 Multiplicity           Mult            ....    1
 Number of Electrons    NEL             ....  102
 Basis Dimension        Dim             ....  149

ORBITAL ENERGIES
----------------

  NO   OCC          E(Eh)            E(eV)
   0   2.0000     -19.143068      -520.9094
   1   2.0000     -19.141030      -520.8539
   2   2.0000     -19.139311      -520.8071
   3   2.0000     -19.137929      -520.7695
   4   2.0000     -10.276890      -279.6484
   5   2.0000     -10.242214      -278.7048
   6   2.0000     -10.232460      -278.4394
   7   2.0000     -10.229271      -278.3526
   8   2.0000     -10.228503      -278.3317
   9   2.0000     -10.226921      -278.2887
  10   2.0000     -10.189142      -277.2607
  11   2.0000     -10.184123      -277.1241
  12   2.0000     -10.183582      -277.1094
  13   2.0000      -1.055129       -28.7115
  14   2.0000      -1.034734       -28.1565
  15   2.0000      -1.005043       -27.3486
  16   2.0000      -0.991678       -26.9849
  17   2.0000      -0.790774       -21.5181
  18   2.0000      -0.780886       -21.2490
  19   2.0000      -0.766423       -20.8554
  20   2.0000      -0.729992       -19.8641
  21   2.0000      -0.671536       -18.2734
  22   2.0000      -0.603998       -16.4356
  23   2.0000      -0.599792       -16.3212
  24   2.0000      -0.590098       -16.0574
  25   2.0000      -0.578477       -15.7412
  26   2.0000      -0.527792       -14.3619
  27   2.0000      -0.507724       -13.8159
  28   2.0000      -0.493136       -13.4189
  29   2.0000      -0.489895       -13.3307
  30   2.0000      -0.475270       -12.9327
  31   2.0000      -0.458897       -12.4872
  32   2.0000      -0.449827       -12.2404
  33   2.0000      -0.442265       -12.0346
  34   2.0000      -0.415412       -11.3039
  35   2.0000      -0.408348       -11.1117
  36   2.0000      -0.402030       -10.9398
  37   2.0000      -0.392919       -10.6919
  38   2.0000      -0.372063       -10.1244
  39   2.0000      -0.367650       -10.0043
  40   2.0000      -0.361664        -9.8414
  41   2.0000      -0.356203        -9.6928
  42   2.0000      -0.346680        -9.4336
  43   2.0000      -0.338184        -9.2025
  44   2.0000      -0.323768        -8.8102
  45   2.0000      -0.306496        -8.3402
  46   2.0000      -0.298446        -8.1211
  47   2.0000      -0.270464        -7.3597
  48   2.0000      -0.261467        -7.1149
  49   2.0000      -0.256926        -6.9913
  50   2.0000      -0.242630        -6.6023
  51   0.0000       0.066142         1.7998
  52   0.0000       0.083767         2.2794
  53   0.0000       0.091646         2.4938
  54   0.0000       0.100454         2.7335
  55   0.0000       0.104449         2.8422

MULLIKEN ATOMIC CHARGES
-----------------------
   0 C :    0.290903
   1 C :   -0.262440
   2 C :   -0.300406
   3 C :   -0.009827
   4 O :   -0.517219
   5 H :    0.144253
   6 H :    0.143708
   7 H :    0.164399
   8 H :    0.141483
   9 H :    0.168031
  10 H :    0.142243
  11 H :    0.145597
  12 C :    0.019476
  13 H :    0.126186
  14 H :    0.141900
  15 O :   -0.519361
  16 C :    0.059084
  17 C :    0.076361
  18 C :   -0.295972
  19 C :   -0.029334
  20 O :   -0.510346
  21 H :    0.167140
  22 O :   -0.603047
  23 H :    0.152574
  24 H :    0.163331
  25 H :    0.143637
  26 H :    0.147495
  27 H :    0.144296
  28 H :    0.365856
Sum of atomic charges:   -0.0000000

LOEWDIN ATOMIC CHARGES
----------------------
   0 C :    0.174176
   1 C :   -0.214103
   2 C :   -0.216849
   3 C :   -0.029797
   4 O :   -0.331413
   5 H :    0.095038
   6 H :    0.113443
   7 H :    0.128072
   8 H :    0.113888
   9 H :    0.122011
  10 H :    0.102253
  11 H :    0.103943
  12 C :   -0.038453
  13 H :    0.097623
  14 H :    0.100487
  15 O :   -0.321201
  16 C :    0.016726
  17 C :    0.035720
  18 C :   -0.241582
  19 C :   -0.038507
  20 O :   -0.321680
  21 H :    0.120069
  22 O :   -0.414782
  23 H :    0.115715
  24 H :    0.126636
  25 H :    0.112688
  26 H :    0.104524
  27 H :    0.101613
  28 H :    0.283743

  Mayer bond orders larger than 0.100000
B(  0-C ,  1-C ) :   0.9514 B(  0-C ,  4-O ) :   0.8915 B(  0-C ,  5-H ) :   0.9189
B(  0-C , 15-O ) :   0.8617 B(  1-C ,  2-C ) :   0.9547 B(  1-C ,  6-H ) :   0.9391
B(  1-C ,  7-H ) :   0.9347 B(  2-C ,  3-C ) :   0.9559 B(  2-C ,  8-H ) :   0.9449
B(  2-C ,  9-H ) :   0.9430 B(  3-C ,  4-O ) :   0.8354 B(  3-C , 10-H ) :   0.9358
B(  3-C , 11-H ) :   0.9405 B( 12-C , 13-H ) :   0.9120 B( 12-C , 14-H ) :   0.9195
B( 12-C , 15-O ) :   0.8267 B( 12-C , 16-C ) :   0.8999 B( 16-C , 17-C ) :   0.9011
B( 16-C , 20-O ) :   0.8634 B( 16-C , 21-H ) :   0.9238 B( 17-C , 18-C ) :   0.9125
B( 17-C , 22-O ) :   0.8923 B( 17-C , 23-H ) :   0.9328 B( 18-C , 19-C ) :   0.9398
B( 18-C , 24-H ) :   0.9373 B( 18-C , 25-H ) :   0.9336 B( 19-C , 20-O ) :   0.8536
B( 19-C , 26-H ) :   0.9340 B( 19-C , 27-H ) :   0.9381 B( 22-O , 28-H ) :   0.7934

FINAL SINGLE POINT ENERGY      -652.865167972332

DIPOLE MOMENT
-------------
                                X             Y             Z
Electronic contribution:     -2.82554      -2.32456      -3.11803
Nuclear contribution   :      3.38007       2.76327       3.74384
                        -----------------------------------------
Total Dipole Moment    :      0.55453       0.43872       0.62581
                        -----------------------------------------
Magnitude (a.u.)       :      0.94426
Magnitude (Debye)      :      2.40011

Rotational constants in cm-1:     0.060363     0.012257     0.011923
Rotational constants in MHz :  1809.632783   367.455483   357.450485

                             ****ORCA TERMINATED NORMALLY****
TOTAL RUN TIME: 0 days 0 hours 18 minutes 26 seconds 99 msec
