                         Program Version 4.2.0 -  RELEASE  -
|  1> # Test redundant internal optimization
|  2> #
|  3> ! RKS B3LYP  Opt TightSCF SmallPrint
|  4>
|  5> %basis
|  6>         Basis "6-31G"
|  7> end
|  8>
|  9> %geom
| 10> Constraints
| 11> { D 4  0  15  12  105.0   C } # D for Dihedral angle
| 12> { D 0  15  12  16  270.0   C } # D for Dihedral angle
| 13> { D 0  4  3  2   C } # D for Dihedral angle
| 14> { D 4  3  2  1   C } # D for Dihedral angle
| 15> { D 3  2  1  0   C } # D for Dihedral angle
| 16> { D 2  1  0  4   C } # D for Dihedral angle
| 17> { D 1  0  4  3   C } # D for Dihedral angle
| 18> { D 16  20  19  18   C } # D for Dihedral angle
| 19> { D 20  19  18  17   C } # D for Dihedral angle
| 20> { D 19  18  17  16   C } # D for Dihedral angle
| 21> { D 18  17  16  20   C } # D for Dihedral angle
| 22> { D 17  16  20  19   C } # D for Dihedral angle
| 23> { D 15  12  16  20   C } # D for Dihedral angle
| 24> end
| 25> end
| 26>
| 27>
| 28> #%pal
| 29> #nprocs 8
| 30> #end
| 31>
| 32> * xyz 0 1
| 33> C  -21.048   26.222   46.251
| 34> C  -20.361   27.558   45.944
| 35> C  -20.329   28.222   47.341
| 36> C  -20.110   27.022   48.296
| 37> O  -20.473   25.807   47.535
| 38> H  -20.833   25.428   45.533
| 39> H  -19.344   27.382   45.576
| 40> H  -20.898   28.157   45.201
| 41> H  -19.543   28.978   47.434
| 42> H  -21.289   28.710   47.548
| 43> H  -20.733   27.082   49.195
| 44> H  -19.064   26.913   48.597
| 45> C  -23.085   27.864   46.420
| 46> H  -22.401   28.497   45.840
| 47> H  -24.085   27.944   45.976
| 48> O  -22.586   26.394   46.375
| 49> C  -23.163   28.428   47.866
| 50> C  -23.766   29.836   47.883
| 51> C  -25.278   29.532   47.755
| 52> C  -25.440   28.215   48.554
| 53> O  -24.087   27.630   48.678
| 54> H  -22.179   28.352   48.334
| 55> O  -23.460   30.532   49.237
| 56> H  -23.392   30.474   47.075
| 57> H  -25.908   30.337   48.146
| 58> H  -25.544   29.380   46.702
| 59> H  -26.096   27.496   48.050
| 60> H  -25.812   28.384   49.568
| 61> H  -23.827   29.910   50.062
| 62> *
| 63>
| 64>                          ****END OF INPUT****
 Total Charge           Charge          ....    0
 Multiplicity           Mult            ....    1
 Number of Electrons    NEL             ....  102
FINAL SINGLE POINT ENERGY      -652.784757960722
FINAL SINGLE POINT ENERGY      -652.824488757978
FINAL SINGLE POINT ENERGY      -652.843918026831
FINAL SINGLE POINT ENERGY      -652.848015752234
FINAL SINGLE POINT ENERGY      -652.848598091502
FINAL SINGLE POINT ENERGY      -652.848689225168
FINAL SINGLE POINT ENERGY      -652.848700852799
FINAL SINGLE POINT ENERGY      -652.848703214357
                    ***********************HURRAY********************

CARTESIAN COORDINATES (ANGSTROEM)
---------------------------------
  C    -21.138425   26.362219   46.331553
  C    -20.164994   27.472904   45.916917
  C    -19.860275   28.163055   47.276693
  C    -19.877758   26.972135   48.268170
  O    -20.592998   25.873636   47.575980
  H    -21.107554   25.499367   45.663409
  H    -19.263656   26.997714   45.517610
  H    -20.556621   28.153615   45.155776
  H    -18.891303   28.672371   47.271309
  H    -20.618108   28.911396   47.520195
  H    -20.395620   27.199625   49.204930
  H    -18.873060   26.605333   48.496012
  C    -23.137297   27.969806   46.458507
  H    -22.541587   28.693154   45.882132
  H    -24.106849   27.861837   45.963746
  O    -22.558673   26.641843   46.393815
  C    -23.335361   28.499297   47.884870
  C    -24.005424   29.879772   47.931019
  C    -25.506290   29.509213   47.785148
  C    -25.608434   28.166600   48.553181
  O    -24.226459   27.642894   48.671230
  H    -22.386350   28.511342   48.423470
  O    -23.731754   30.546457   49.194803
  H    -23.656033   30.571851   47.163266
  H    -26.138734   30.294245   48.207594
  H    -25.768200   29.387732   46.728313
  H    -26.226431   27.426915   48.035302
  H    -25.994159   28.292101   49.569877
  H    -23.865593   29.907571   49.927172

 Multiplicity           Mult            ....    1
 Number of Electrons    NEL             ....  102
 Basis Dimension        Dim             ....  149

ORBITAL ENERGIES
----------------

  NO   OCC          E(Eh)            E(eV)
   0   2.0000     -19.143923      -520.9326
   1   2.0000     -19.141050      -520.8544
   2   2.0000     -19.139838      -520.8215
   3   2.0000     -19.135952      -520.7157
   4   2.0000     -10.277071      -279.6533
   5   2.0000     -10.247222      -278.8411
   6   2.0000     -10.236846      -278.5587
   7   2.0000     -10.235556      -278.5236
   8   2.0000     -10.231410      -278.4108
   9   2.0000     -10.226190      -278.2688
  10   2.0000     -10.195090      -277.4225
  11   2.0000     -10.194297      -277.4009
  12   2.0000     -10.193372      -277.3757
  13   2.0000      -1.047519       -28.5044
  14   2.0000      -1.037854       -28.2414
  15   2.0000      -1.008813       -27.4512
  16   2.0000      -0.992848       -27.0168
  17   2.0000      -0.790082       -21.4992
  18   2.0000      -0.788581       -21.4584
  19   2.0000      -0.771260       -20.9871
  20   2.0000      -0.734375       -19.9834
  21   2.0000      -0.682020       -18.5587
  22   2.0000      -0.610977       -16.6255
  23   2.0000      -0.607077       -16.5194
  24   2.0000      -0.600505       -16.3406
  25   2.0000      -0.572161       -15.5693
  26   2.0000      -0.525396       -14.2968
  27   2.0000      -0.514274       -13.9941
  28   2.0000      -0.502784       -13.6815
  29   2.0000      -0.495168       -13.4742
  30   2.0000      -0.472208       -12.8494
  31   2.0000      -0.459775       -12.5111
  32   2.0000      -0.454680       -12.3725
  33   2.0000      -0.439782       -11.9671
  34   2.0000      -0.430624       -11.7179
  35   2.0000      -0.418184       -11.3794
  36   2.0000      -0.403821       -10.9885
  37   2.0000      -0.396642       -10.7932
  38   2.0000      -0.381722       -10.3872
  39   2.0000      -0.375280       -10.2119
  40   2.0000      -0.363345        -9.8871
  41   2.0000      -0.359330        -9.7779
  42   2.0000      -0.352462        -9.5910
  43   2.0000      -0.336747        -9.1634
  44   2.0000      -0.313821        -8.5395
  45   2.0000      -0.308703        -8.4002
  46   2.0000      -0.291884        -7.9426
  47   2.0000      -0.274024        -7.4566
  48   2.0000      -0.271765        -7.3951
  49   2.0000      -0.253847        -6.9075
  50   2.0000      -0.237294        -6.4571
  51   0.0000       0.061277         1.6674
  52   0.0000       0.074355         2.0233
  53   0.0000       0.083949         2.2844
  54   0.0000       0.087836         2.3901
  55   0.0000       0.094332         2.5669

MULLIKEN ATOMIC CHARGES
-----------------------
   0 C :    0.309627
   1 C :   -0.300403
   2 C :   -0.316952
   3 C :   -0.008009
   4 O :   -0.492401
   5 H :    0.163838
   6 H :    0.160728
   7 H :    0.146209
   8 H :    0.147457
   9 H :    0.149730
  10 H :    0.151866
  11 H :    0.146011
  12 C :   -0.009579
  13 H :    0.120871
  14 H :    0.155079
  15 O :   -0.508252
  16 C :    0.064533
  17 C :    0.068391
  18 C :   -0.296741
  19 C :   -0.034336
  20 O :   -0.506565
  21 H :    0.162964
  22 O :   -0.600929
  23 H :    0.150457
  24 H :    0.164140
  25 H :    0.144615
  26 H :    0.154471
  27 H :    0.146933
  28 H :    0.366248
Sum of atomic charges:    0.0000000

LOEWDIN ATOMIC CHARGES
----------------------
   0 C :    0.176717
   1 C :   -0.231615
   2 C :   -0.224025
   3 C :   -0.032987
   4 O :   -0.313738
   5 H :    0.110015
   6 H :    0.125231
   7 H :    0.114683
   8 H :    0.116866
   9 H :    0.107980
  10 H :    0.105155
  11 H :    0.104989
  12 C :   -0.041047
  13 H :    0.092216
  14 H :    0.113815
  15 O :   -0.310354
  16 C :    0.003882
  17 C :    0.032312
  18 C :   -0.241208
  19 C :   -0.039632
  20 O :   -0.317675
  21 H :    0.113530
  22 O :   -0.414654
  23 H :    0.113819
  24 H :    0.127185
  25 H :    0.113164
  26 H :    0.108152
  27 H :    0.102879
  28 H :    0.284344

  Mayer bond orders larger than 0.100000
B(  0-C ,  1-C ) :   0.9247 B(  0-C ,  4-O ) :   0.9090 B(  0-C ,  5-H ) :   0.9355
B(  0-C , 15-O ) :   0.8933 B(  1-C ,  2-C ) :   0.9517 B(  1-C ,  6-H ) :   0.9339
B(  1-C ,  7-H ) :   0.9311 B(  2-C ,  3-C ) :   0.9470 B(  2-C ,  8-H ) :   0.9453
B(  2-C ,  9-H ) :   0.9359 B(  3-C ,  4-O ) :   0.8499 B(  3-C , 10-H ) :   0.9291
B(  3-C , 11-H ) :   0.9380 B( 12-C , 13-H ) :   0.9055 B( 12-C , 14-H ) :   0.9357
B( 12-C , 15-O ) :   0.8698 B( 12-C , 16-C ) :   0.8732 B( 16-C , 17-C ) :   0.8927
B( 16-C , 20-O ) :   0.8616 B( 16-C , 21-H ) :   0.9140 B( 17-C , 18-C ) :   0.9114
B( 17-C , 22-O ) :   0.8951 B( 17-C , 23-H ) :   0.9326 B( 18-C , 19-C ) :   0.9408
B( 18-C , 24-H ) :   0.9368 B( 18-C , 25-H ) :   0.9340 B( 19-C , 20-O ) :   0.8511
B( 19-C , 26-H ) :   0.9329 B( 19-C , 27-H ) :   0.9370 B( 22-O , 28-H ) :   0.7933

FINAL SINGLE POINT ENERGY      -652.848702598135

DIPOLE MOMENT
-------------
                                X             Y             Z
Electronic contribution:     -1.12229      -3.84553       1.67130
Nuclear contribution   :      1.20011       4.95855      -2.36135
                        -----------------------------------------
Total Dipole Moment    :      0.07782       1.11302      -0.69005
                        -----------------------------------------
Magnitude (a.u.)       :      1.31188
Magnitude (Debye)      :      3.33453

Rotational constants in cm-1:     0.049270     0.015243     0.014145
Rotational constants in MHz :  1477.068760   456.958663   424.050829

                             ****ORCA TERMINATED NORMALLY****
TOTAL RUN TIME: 0 days 0 hours 27 minutes 7 seconds 947 msec
