                         Program Version 4.2.0 -  RELEASE  -
|  1> # Test redundant internal optimization
|  2> #
|  3> ! RKS B3LYP  Opt TightSCF SmallPrint
|  4>
|  5> %basis
|  6>         Basis "6-31G"
|  7> end
|  8>
|  9> %geom
| 10> Constraints
| 11> { D 4  0  15  12  345.0   C } # D for Dihedral angle
| 12> { D 0  15  12  16  150.0   C } # D for Dihedral angle
| 13> { D 0  4  3  2   C } # D for Dihedral angle
| 14> { D 4  3  2  1   C } # D for Dihedral angle
| 15> { D 3  2  1  0   C } # D for Dihedral angle
| 16> { D 2  1  0  4   C } # D for Dihedral angle
| 17> { D 1  0  4  3   C } # D for Dihedral angle
| 18> { D 16  20  19  18   C } # D for Dihedral angle
| 19> { D 20  19  18  17   C } # D for Dihedral angle
| 20> { D 19  18  17  16   C } # D for Dihedral angle
| 21> { D 18  17  16  20   C } # D for Dihedral angle
| 22> { D 17  16  20  19   C } # D for Dihedral angle
| 23> { D 15  12  16  20   C } # D for Dihedral angle
| 24> end
| 25> end
| 26>
| 27>
| 28> #%pal
| 29> #nprocs 8
| 30> #end
| 31>
| 32> * xyz 0 1
| 33> C  -21.048   26.222   46.251
| 34> C  -20.361   27.558   45.944
| 35> C  -20.329   28.222   47.341
| 36> C  -20.110   27.022   48.296
| 37> O  -20.473   25.807   47.535
| 38> H  -20.833   25.428   45.533
| 39> H  -19.344   27.382   45.576
| 40> H  -20.898   28.157   45.201
| 41> H  -19.543   28.978   47.434
| 42> H  -21.289   28.710   47.548
| 43> H  -20.733   27.082   49.195
| 44> H  -19.064   26.913   48.597
| 45> C  -23.221   25.764   47.645
| 46> H  -23.501   24.725   47.432
| 47> H  -22.501   25.762   48.474
| 48> O  -22.586   26.394   46.375
| 49> C  -24.489   26.524   48.123
| 50> C  -25.020   25.948   49.440
| 51> C  -24.061   26.587   50.472
| 52> C  -23.782   27.988   49.873
| 53> O  -24.161   27.917   48.445
| 54> H  -25.219   26.547   47.312
| 55> O  -26.479   26.424   49.680
| 56> H  -25.005   24.853   49.467
| 57> H  -24.492   26.640   51.476
| 58> H  -23.134   26.003   50.536
| 59> H  -22.728   28.275   49.950
| 60> H  -24.397   28.768   50.331
| 61> H  -26.518   27.519   49.657
| 62> *
| 63>
| 64>                          ****END OF INPUT****
 Total Charge           Charge          ....    0
 Multiplicity           Mult            ....    1
 Number of Electrons    NEL             ....  102
FINAL SINGLE POINT ENERGY      -652.833249505622
FINAL SINGLE POINT ENERGY      -652.856696001053
FINAL SINGLE POINT ENERGY      -652.861181418687
FINAL SINGLE POINT ENERGY      -652.861930703389
FINAL SINGLE POINT ENERGY      -652.862038527808
FINAL SINGLE POINT ENERGY      -652.862052033932
                    ***********************HURRAY********************

CARTESIAN COORDINATES (ANGSTROEM)
---------------------------------
  C    -21.118337   26.217651   46.292238
  C    -20.579086   27.614044   45.984415
  C    -20.386752   28.195341   47.402134
  C    -19.948719   26.971873   48.233787
  O    -20.346190   25.776694   47.432833
  H    -20.960103   25.467051   45.512853
  H    -19.624214   27.525709   45.452691
  H    -21.277115   28.193618   45.376898
  H    -19.648194   29.002278   47.431189
  H    -21.346275   28.580124   47.760060
  H    -20.434627   26.916446   49.212816
  H    -18.865024   26.905399   48.367685
  C    -23.117636   25.695349   47.723081
  H    -23.442074   24.669391   47.490939
  H    -22.370996   25.635896   48.521150
  O    -22.547933   26.320624   46.546730
  C    -24.328831   26.525189   48.139290
  C    -25.036153   26.021136   49.405929
  C    -24.165167   26.650379   50.524174
  C    -23.747385   28.013960   49.920412
  O    -23.966097   27.913494   48.456055
  H    -25.021976   26.582724   47.294516
  O    -26.408696   26.496864   49.460630
  H    -25.103896   24.934154   49.472589
  H    -24.736902   26.749190   51.450110
  H    -23.292340   26.018195   50.722574
  H    -22.696708   28.255693   50.109137
  H    -24.364688   28.841306   50.283700
  H    -26.436883   27.429226   49.158387

 Multiplicity           Mult            ....    1
 Number of Electrons    NEL             ....  102
 Basis Dimension        Dim             ....  149

ORBITAL ENERGIES
----------------

  NO   OCC          E(Eh)            E(eV)
   0   2.0000     -19.149174      -521.0755
   1   2.0000     -19.144986      -520.9616
   2   2.0000     -19.139158      -520.8030
   3   2.0000     -19.134946      -520.6884
   4   2.0000     -10.277216      -279.6573
   5   2.0000     -10.244023      -278.7540
   6   2.0000     -10.233703      -278.4732
   7   2.0000     -10.233430      -278.4658
   8   2.0000     -10.230993      -278.3995
   9   2.0000     -10.227957      -278.3169
  10   2.0000     -10.191838      -277.3340
  11   2.0000     -10.182786      -277.0877
  12   2.0000     -10.181091      -277.0416
  13   2.0000      -1.053932       -28.6789
  14   2.0000      -1.037045       -28.2194
  15   2.0000      -1.007405       -27.4129
  16   2.0000      -0.989956       -26.9381
  17   2.0000      -0.790603       -21.5134
  18   2.0000      -0.782552       -21.2943
  19   2.0000      -0.768737       -20.9184
  20   2.0000      -0.732801       -19.9405
  21   2.0000      -0.672500       -18.2997
  22   2.0000      -0.606335       -16.4992
  23   2.0000      -0.600965       -16.3531
  24   2.0000      -0.591607       -16.0985
  25   2.0000      -0.577615       -15.7177
  26   2.0000      -0.527645       -14.3579
  27   2.0000      -0.510809       -13.8998
  28   2.0000      -0.494562       -13.4577
  29   2.0000      -0.489582       -13.3222
  30   2.0000      -0.478955       -13.0330
  31   2.0000      -0.460195       -12.5225
  32   2.0000      -0.449617       -12.2347
  33   2.0000      -0.445903       -12.1336
  34   2.0000      -0.417066       -11.3489
  35   2.0000      -0.407064       -11.0768
  36   2.0000      -0.400455       -10.8969
  37   2.0000      -0.396310       -10.7841
  38   2.0000      -0.374658       -10.1950
  39   2.0000      -0.369174       -10.0457
  40   2.0000      -0.364679        -9.9234
  41   2.0000      -0.356113        -9.6903
  42   2.0000      -0.345421        -9.3994
  43   2.0000      -0.336465        -9.1557
  44   2.0000      -0.327756        -8.9187
  45   2.0000      -0.308694        -8.4000
  46   2.0000      -0.300547        -8.1783
  47   2.0000      -0.272796        -7.4231
  48   2.0000      -0.263704        -7.1758
  49   2.0000      -0.253013        -6.8848
  50   2.0000      -0.242975        -6.6117
  51   0.0000       0.050694         1.3795
  52   0.0000       0.080886         2.2010
  53   0.0000       0.094443         2.5699
  54   0.0000       0.096941         2.6379
  55   0.0000       0.100534         2.7357

MULLIKEN ATOMIC CHARGES
-----------------------
   0 C :    0.301550
   1 C :   -0.254225
   2 C :   -0.316295
   3 C :   -0.021220
   4 O :   -0.515164
   5 H :    0.150627
   6 H :    0.140103
   7 H :    0.165416
   8 H :    0.141108
   9 H :    0.185164
  10 H :    0.135698
  11 H :    0.150844
  12 C :   -0.000456
  13 H :    0.128101
  14 H :    0.152441
  15 O :   -0.532344
  16 C :    0.068371
  17 C :    0.074335
  18 C :   -0.301041
  19 C :   -0.028525
  20 O :   -0.513422
  21 H :    0.170480
  22 O :   -0.601626
  23 H :    0.156153
  24 H :    0.164842
  25 H :    0.146217
  26 H :    0.138691
  27 H :    0.148203
  28 H :    0.365977
Sum of atomic charges:   -0.0000000

LOEWDIN ATOMIC CHARGES
----------------------
   0 C :    0.184302
   1 C :   -0.216273
   2 C :   -0.223401
   3 C :   -0.032079
   4 O :   -0.323276
   5 H :    0.100524
   6 H :    0.110914
   7 H :    0.128700
   8 H :    0.114521
   9 H :    0.128562
  10 H :    0.096330
  11 H :    0.106431
  12 C :   -0.040218
  13 H :    0.096421
  14 H :    0.105712
  15 O :   -0.333362
  16 C :    0.016235
  17 C :    0.034976
  18 C :   -0.242204
  19 C :   -0.039216
  20 O :   -0.324634
  21 H :    0.120622
  22 O :   -0.413988
  23 H :    0.117276
  24 H :    0.127599
  25 H :    0.113479
  26 H :    0.098901
  27 H :    0.103334
  28 H :    0.283811

  Mayer bond orders larger than 0.100000
B(  0-C ,  1-C ) :   0.9395 B(  0-C ,  4-O ) :   0.9070 B(  0-C ,  5-H ) :   0.9261
B(  0-C , 15-O ) :   0.8409 B(  1-C ,  2-C ) :   0.9536 B(  1-C ,  6-H ) :   0.9370
B(  1-C ,  7-H ) :   0.9347 B(  2-C ,  3-C ) :   0.9554 B(  2-C ,  8-H ) :   0.9441
B(  2-C ,  9-H ) :   0.9273 B(  3-C ,  4-O ) :   0.8288 B(  3-C , 10-H ) :   0.9320
B(  3-C , 11-H ) :   0.9407 B( 12-C , 13-H ) :   0.9158 B( 12-C , 14-H ) :   0.9077
B( 12-C , 15-O ) :   0.8391 B( 12-C , 16-C ) :   0.8976 B( 16-C , 17-C ) :   0.9001
B( 16-C , 20-O ) :   0.8539 B( 16-C , 21-H ) :   0.9233 B( 17-C , 18-C ) :   0.9102
B( 17-C , 22-O ) :   0.8948 B( 17-C , 23-H ) :   0.9320 B( 18-C , 19-C ) :   0.9428
B( 18-C , 24-H ) :   0.9371 B( 18-C , 25-H ) :   0.9334 B( 19-C , 20-O ) :   0.8525
B( 19-C , 26-H ) :   0.9316 B( 19-C , 27-H ) :   0.9377 B( 22-O , 28-H ) :   0.7936

FINAL SINGLE POINT ENERGY      -652.862055157070

DIPOLE MOMENT
-------------
                                X             Y             Z
Electronic contribution:     -3.61491      -2.25335      -2.79078
Nuclear contribution   :      4.39392       2.69086       3.38490
                        -----------------------------------------
Total Dipole Moment    :      0.77900       0.43751       0.59412
                        -----------------------------------------
Magnitude (a.u.)       :      1.07296
Magnitude (Debye)      :      2.72725

Rotational constants in cm-1:     0.054241     0.015207     0.014237
Rotational constants in MHz :  1626.116971   455.881693   426.821630

                             ****ORCA TERMINATED NORMALLY****
TOTAL RUN TIME: 0 days 1 hours 14 minutes 41 seconds 685 msec
