                         Program Version 4.2.0 -  RELEASE  -
|  1> # Test redundant internal optimization
|  2> #
|  3> ! RKS B3LYP  Opt TightSCF SmallPrint
|  4>
|  5> %basis
|  6>         Basis "6-31G"
|  7> end
|  8>
|  9> %geom
| 10> Constraints
| 11> { D 4  0  15  12  195.0   C } # D for Dihedral angle
| 12> { D 0  15  12  16  225.0   C } # D for Dihedral angle
| 13> { D 0  4  3  2   C } # D for Dihedral angle
| 14> { D 4  3  2  1   C } # D for Dihedral angle
| 15> { D 3  2  1  0   C } # D for Dihedral angle
| 16> { D 2  1  0  4   C } # D for Dihedral angle
| 17> { D 1  0  4  3   C } # D for Dihedral angle
| 18> { D 16  20  19  18   C } # D for Dihedral angle
| 19> { D 20  19  18  17   C } # D for Dihedral angle
| 20> { D 19  18  17  16   C } # D for Dihedral angle
| 21> { D 18  17  16  20   C } # D for Dihedral angle
| 22> { D 17  16  20  19   C } # D for Dihedral angle
| 23> { D 15  12  16  20   C } # D for Dihedral angle
| 24> end
| 25> end
| 26>
| 27>
| 28> #%pal
| 29> #nprocs 8
| 30> #end
| 31>
| 32> * xyz 0 1
| 33> C  -21.048   26.222   46.251
| 34> C  -20.361   27.558   45.944
| 35> C  -20.329   28.222   47.341
| 36> C  -20.110   27.022   48.296
| 37> O  -20.473   25.807   47.535
| 38> H  -20.833   25.428   45.533
| 39> H  -19.344   27.382   45.576
| 40> H  -20.898   28.157   45.201
| 41> H  -19.543   28.978   47.434
| 42> H  -21.289   28.710   47.548
| 43> H  -20.733   27.082   49.195
| 44> H  -19.064   26.913   48.597
| 45> C  -23.353   26.472   45.026
| 46> H  -22.638   26.649   44.213
| 47> H  -23.874   25.527   44.825
| 48> O  -22.586   26.394   46.375
| 49> C  -24.411   27.610   45.002
| 50> C  -25.226   27.584   43.705
| 51> C  -26.232   26.444   43.988
| 52> C  -26.512   26.591   45.505
| 53> O  -25.408   27.405   46.058
| 54> H  -23.918   28.562   45.208
| 55> O  -25.968   28.935   43.514
| 56> H  -24.613   27.398   42.815
| 57> H  -27.144   26.522   43.387
| 58> H  -25.772   25.472   43.773
| 59> H  -26.539   25.625   46.022
| 60> H  -27.442   27.128   45.708
| 61> H  -26.588   29.142   44.393
| 62> *
| 63>
| 64>                          ****END OF INPUT****
 Total Charge           Charge          ....    0
 Multiplicity           Mult            ....    1
 Number of Electrons    NEL             ....  102
FINAL SINGLE POINT ENERGY      -652.829112991686
FINAL SINGLE POINT ENERGY      -652.852014961538
FINAL SINGLE POINT ENERGY      -652.855551394607
FINAL SINGLE POINT ENERGY      -652.856167429544
FINAL SINGLE POINT ENERGY      -652.856246903203
FINAL SINGLE POINT ENERGY      -652.856255003987
                    ***********************HURRAY********************

CARTESIAN COORDINATES (ANGSTROEM)
---------------------------------
  C    -21.086070   26.225457   46.165645
  C    -20.430085   27.575805   45.886021
  C    -20.502443   28.261920   47.272270
  C    -20.301300   27.084296   48.247945
  O    -20.586006   25.856948   47.456397
  H    -20.827619   25.421254   45.468812
  H    -19.388409   27.416385   45.582183
  H    -20.930746   28.148658   45.099833
  H    -19.745326   29.042162   47.393995
  H    -21.490796   28.709266   47.410621
  H    -20.981262   27.110557   49.102375
  H    -19.270430   26.993544   48.602600
  C    -23.260750   26.383020   45.009968
  H    -22.579615   26.576261   44.167164
  H    -23.730633   25.403224   44.851034
  O    -22.536656   26.349497   46.269820
  C    -24.309111   27.493499   45.051212
  C    -25.166234   27.583669   43.781010
  C    -26.237526   26.492025   44.042380
  C    -26.458162   26.581228   45.573188
  O    -25.283517   27.297950   46.126215
  H    -23.808485   28.444037   45.260305
  O    -25.762605   28.904054   43.655003
  H    -24.609757   27.430815   42.855023
  H    -27.142940   26.693883   43.465225
  H    -25.854810   25.507504   43.751471
  H    -26.531260   25.599497   46.049195
  H    -27.346016   27.164487   45.837013
  H    -26.090431   29.190096   44.534079

 Multiplicity           Mult            ....    1
 Number of Electrons    NEL             ....  102
 Basis Dimension        Dim             ....  149

ORBITAL ENERGIES
----------------

  NO   OCC          E(Eh)            E(eV)
   0   2.0000     -19.141872      -520.8768
   1   2.0000     -19.141739      -520.8732
   2   2.0000     -19.138780      -520.7927
   3   2.0000     -19.137545      -520.7591
   4   2.0000     -10.278996      -279.7057
   5   2.0000     -10.245771      -278.8016
   6   2.0000     -10.236892      -278.5600
   7   2.0000     -10.235833      -278.5312
   8   2.0000     -10.230697      -278.3914
   9   2.0000     -10.222541      -278.1695
  10   2.0000     -10.191520      -277.3254
  11   2.0000     -10.187133      -277.2060
  12   2.0000     -10.184659      -277.1387
  13   2.0000      -1.052226       -28.6325
  14   2.0000      -1.038133       -28.2490
  15   2.0000      -1.008296       -27.4371
  16   2.0000      -0.992085       -26.9960
  17   2.0000      -0.788200       -21.4480
  18   2.0000      -0.783975       -21.3330
  19   2.0000      -0.769184       -20.9306
  20   2.0000      -0.731370       -19.9016
  21   2.0000      -0.676690       -18.4137
  22   2.0000      -0.606823       -16.5125
  23   2.0000      -0.599618       -16.3164
  24   2.0000      -0.593485       -16.1496
  25   2.0000      -0.583926       -15.8894
  26   2.0000      -0.523911       -14.2564
  27   2.0000      -0.514036       -13.9876
  28   2.0000      -0.498991       -13.5782
  29   2.0000      -0.490887       -13.3577
  30   2.0000      -0.474136       -12.9019
  31   2.0000      -0.459156       -12.4943
  32   2.0000      -0.454610       -12.3706
  33   2.0000      -0.440783       -11.9943
  34   2.0000      -0.430384       -11.7113
  35   2.0000      -0.407137       -11.0788
  36   2.0000      -0.402842       -10.9619
  37   2.0000      -0.395432       -10.7602
  38   2.0000      -0.375832       -10.2269
  39   2.0000      -0.373995       -10.1769
  40   2.0000      -0.361425        -9.8349
  41   2.0000      -0.356286        -9.6950
  42   2.0000      -0.353280        -9.6132
  43   2.0000      -0.333455        -9.0738
  44   2.0000      -0.313398        -8.5280
  45   2.0000      -0.308557        -8.3963
  46   2.0000      -0.301999        -8.2178
  47   2.0000      -0.274043        -7.4571
  48   2.0000      -0.259433        -7.0595
  49   2.0000      -0.257181        -6.9982
  50   2.0000      -0.238287        -6.4841
  51   0.0000       0.064175         1.7463
  52   0.0000       0.079824         2.1721
  53   0.0000       0.084979         2.3124
  54   0.0000       0.090359         2.4588
  55   0.0000       0.098385         2.6772

MULLIKEN ATOMIC CHARGES
-----------------------
   0 C :    0.291276
   1 C :   -0.271739
   2 C :   -0.299387
   3 C :   -0.000709
   4 O :   -0.501362
   5 H :    0.138392
   6 H :    0.145001
   7 H :    0.139881
   8 H :    0.141460
   9 H :    0.165453
  10 H :    0.158691
  11 H :    0.140609
  12 C :   -0.005974
  13 H :    0.119888
  14 H :    0.139919
  15 O :   -0.493248
  16 C :    0.069954
  17 C :    0.076601
  18 C :   -0.294304
  19 C :   -0.026751
  20 O :   -0.507987
  21 H :    0.159137
  22 O :   -0.603248
  23 H :    0.148717
  24 H :    0.164389
  25 H :    0.141741
  26 H :    0.153226
  27 H :    0.143880
  28 H :    0.366494
Sum of atomic charges:   -0.0000000

LOEWDIN ATOMIC CHARGES
----------------------
   0 C :    0.178902
   1 C :   -0.231563
   2 C :   -0.217002
   3 C :   -0.024051
   4 O :   -0.302391
   5 H :    0.095585
   6 H :    0.113788
   7 H :    0.111760
   8 H :    0.114245
   9 H :    0.120219
  10 H :    0.111906
  11 H :    0.101847
  12 C :   -0.042603
  13 H :    0.093671
  14 H :    0.101327
  15 O :   -0.324853
  16 C :    0.014952
  17 C :    0.034139
  18 C :   -0.240215
  19 C :   -0.037091
  20 O :   -0.319394
  21 H :    0.115013
  22 O :   -0.415199
  23 H :    0.113562
  24 H :    0.127367
  25 H :    0.111941
  26 H :    0.108003
  27 H :    0.101898
  28 H :    0.284236

  Mayer bond orders larger than 0.100000
B(  0-C ,  1-C ) :   0.9279 B(  0-C ,  4-O ) :   0.9423 B(  0-C ,  5-H ) :   0.9202
B(  0-C , 15-O ) :   0.8358 B(  1-C ,  2-C ) :   0.9524 B(  1-C ,  6-H ) :   0.9334
B(  1-C ,  7-H ) :   0.9354 B(  2-C ,  3-C ) :   0.9558 B(  2-C ,  8-H ) :   0.9448
B(  2-C ,  9-H ) :   0.9421 B(  3-C ,  4-O ) :   0.8335 B(  3-C , 10-H ) :   0.9339
B(  3-C , 11-H ) :   0.9398 B( 12-C , 13-H ) :   0.9105 B( 12-C , 14-H ) :   0.9231
B( 12-C , 15-O ) :   0.8482 B( 12-C , 16-C ) :   0.8933 B( 16-C , 17-C ) :   0.8965
B( 16-C , 20-O ) :   0.8694 B( 16-C , 21-H ) :   0.9258 B( 17-C , 18-C ) :   0.9104
B( 17-C , 22-O ) :   0.8920 B( 17-C , 23-H ) :   0.9337 B( 18-C , 19-C ) :   0.9395
B( 18-C , 24-H ) :   0.9371 B( 18-C , 25-H ) :   0.9345 B( 19-C , 20-O ) :   0.8500
B( 19-C , 26-H ) :   0.9336 B( 19-C , 27-H ) :   0.9380 B( 22-O , 28-H ) :   0.7929

FINAL SINGLE POINT ENERGY      -652.856257303451

DIPOLE MOMENT
-------------
                                X             Y             Z
Electronic contribution:     -1.31576      -1.10746       1.41571
Nuclear contribution   :      1.47224       1.27322      -2.15266
                        -----------------------------------------
Total Dipole Moment    :      0.15648       0.16576      -0.73696
                        -----------------------------------------
Magnitude (a.u.)       :      0.77141
Magnitude (Debye)      :      1.96076

Rotational constants in cm-1:     0.060436     0.011986     0.011473
Rotational constants in MHz :  1811.813384   359.341243   343.947974

                             ****ORCA TERMINATED NORMALLY****
TOTAL RUN TIME: 0 days 1 hours 2 minutes 18 seconds 134 msec
