                         Program Version 4.2.0 -  RELEASE  -
|  1> # Test redundant internal optimization
|  2> #
|  3> ! RKS B3LYP  Opt TightSCF SmallPrint
|  4>
|  5> %basis
|  6>         Basis "6-31G"
|  7> end
|  8>
|  9> %geom
| 10> Constraints
| 11> { D 4  0  15  12  45.0   C } # D for Dihedral angle
| 12> { D 0  15  12  16  225.0   C } # D for Dihedral angle
| 13> { D 0  4  3  2   C } # D for Dihedral angle
| 14> { D 4  3  2  1   C } # D for Dihedral angle
| 15> { D 3  2  1  0   C } # D for Dihedral angle
| 16> { D 2  1  0  4   C } # D for Dihedral angle
| 17> { D 1  0  4  3   C } # D for Dihedral angle
| 18> { D 16  20  19  18   C } # D for Dihedral angle
| 19> { D 20  19  18  17   C } # D for Dihedral angle
| 20> { D 19  18  17  16   C } # D for Dihedral angle
| 21> { D 18  17  16  20   C } # D for Dihedral angle
| 22> { D 17  16  20  19   C } # D for Dihedral angle
| 23> { D 15  12  16  20   C } # D for Dihedral angle
| 24> end
| 25> end
| 26>
| 27>
| 28> #%pal
| 29> #nprocs 8
| 30> #end
| 31>
| 32> * xyz 0 1
| 33> C  -21.048   26.222   46.251
| 34> C  -20.361   27.558   45.944
| 35> C  -20.329   28.222   47.341
| 36> C  -20.110   27.022   48.296
| 37> O  -20.473   25.807   47.535
| 38> H  -20.833   25.428   45.533
| 39> H  -19.344   27.382   45.576
| 40> H  -20.898   28.157   45.201
| 41> H  -19.543   28.978   47.434
| 42> H  -21.289   28.710   47.548
| 43> H  -20.733   27.082   49.195
| 44> H  -19.064   26.913   48.597
| 45> C  -23.065   27.161   47.638
| 46> H  -22.239   27.227   48.357
| 47> H  -23.371   28.182   47.374
| 48> O  -22.586   26.394   46.375
| 49> C  -24.269   26.473   48.338
| 50> C  -23.878   25.099   48.893
| 51> C  -23.142   25.486   50.198
| 52> C  -23.924   26.731   50.687
| 53> O  -24.679   27.237   49.521
| 54> H  -25.120   26.460   47.655
| 55> O  -25.154   24.270   49.208
| 56> H  -23.252   24.519   48.207
| 57> H  -23.138   24.679   50.938
| 58> H  -22.100   25.745   49.979
| 59> H  -23.263   27.522   51.057
| 60> H  -24.654   26.488   51.463
| 61> H  -25.798   24.831   49.895
| 62> *
| 63>
| 64>                          ****END OF INPUT****
 Total Charge           Charge          ....    0
 Multiplicity           Mult            ....    1
 Number of Electrons    NEL             ....  102
FINAL SINGLE POINT ENERGY      -652.823118397262
FINAL SINGLE POINT ENERGY      -652.848684467356
FINAL SINGLE POINT ENERGY      -652.858631727620
FINAL SINGLE POINT ENERGY      -652.860514062108
FINAL SINGLE POINT ENERGY      -652.860827736607
FINAL SINGLE POINT ENERGY      -652.860883323192
FINAL SINGLE POINT ENERGY      -652.860877291695
                    ***********************HURRAY********************

CARTESIAN COORDINATES (ANGSTROEM)
---------------------------------
  C    -21.175616   26.308738   46.428954
  C    -20.412259   27.521839   45.880095
  C    -20.054030   28.292825   47.182237
  C    -19.800350   27.150115   48.196594
  O    -20.434652   25.936940   47.615998
  H    -21.139350   25.445901   45.762343
  H    -19.506561   27.170381   45.374242
  H    -21.009659   28.105824   45.176270
  H    -19.174519   28.932579   47.062106
  H    -20.887760   28.929311   47.494890
  H    -20.229981   27.340685   49.185016
  H    -18.736372   26.922874   48.311373
  C    -23.110502   27.231095   47.772942
  H    -22.339528   27.375716   48.534034
  H    -23.473479   28.211458   47.445990
  O    -22.594025   26.485895   46.630333
  C    -24.269216   26.428836   48.369383
  C    -23.886590   25.052715   48.932224
  C    -23.283265   25.435115   50.307602
  C    -24.142382   26.645362   50.749427
  O    -24.809328   27.158034   49.524685
  H    -25.075101   26.338289   47.636037
  O    -25.063536   24.208599   49.071423
  H    -23.198920   24.503835   48.292200
  H    -23.344595   24.593256   51.002629
  H    -22.228203   25.704302   50.188905
  H    -23.549894   27.451506   51.194673
  H    -24.933550   26.366986   51.452459
  H    -25.793776   24.735992   49.458937

 Multiplicity           Mult            ....    1
 Number of Electrons    NEL             ....  102
 Basis Dimension        Dim             ....  149

ORBITAL ENERGIES
----------------

  NO   OCC          E(Eh)            E(eV)
   0   2.0000     -19.154169      -521.2114
   1   2.0000     -19.147025      -521.0170
   2   2.0000     -19.142747      -520.9006
   3   2.0000     -19.130352      -520.5633
   4   2.0000     -10.284146      -279.8458
   5   2.0000     -10.239072      -278.6193
   6   2.0000     -10.232049      -278.4282
   7   2.0000     -10.230037      -278.3734
   8   2.0000     -10.229882      -278.3693
   9   2.0000     -10.228828      -278.3406
  10   2.0000     -10.198846      -277.5247
  11   2.0000     -10.193027      -277.3664
  12   2.0000     -10.182911      -277.0911
  13   2.0000      -1.059514       -28.8308
  14   2.0000      -1.032407       -28.0932
  15   2.0000      -1.002128       -27.2693
  16   2.0000      -0.998624       -27.1739
  17   2.0000      -0.794867       -21.6294
  18   2.0000      -0.779321       -21.2064
  19   2.0000      -0.768400       -20.9092
  20   2.0000      -0.735355       -20.0100
  21   2.0000      -0.677605       -18.4386
  22   2.0000      -0.610245       -16.6056
  23   2.0000      -0.600660       -16.3448
  24   2.0000      -0.596784       -16.2393
  25   2.0000      -0.577305       -15.7093
  26   2.0000      -0.524220       -14.2648
  27   2.0000      -0.513138       -13.9632
  28   2.0000      -0.507398       -13.8070
  29   2.0000      -0.488675       -13.2975
  30   2.0000      -0.475304       -12.9337
  31   2.0000      -0.459507       -12.5038
  32   2.0000      -0.452678       -12.3180
  33   2.0000      -0.435654       -11.8548
  34   2.0000      -0.422519       -11.4973
  35   2.0000      -0.417191       -11.3524
  36   2.0000      -0.409317       -11.1381
  37   2.0000      -0.388518       -10.5721
  38   2.0000      -0.384322       -10.4579
  39   2.0000      -0.367374        -9.9968
  40   2.0000      -0.363001        -9.8778
  41   2.0000      -0.358720        -9.7613
  42   2.0000      -0.353202        -9.6111
  43   2.0000      -0.330572        -8.9953
  44   2.0000      -0.323844        -8.8123
  45   2.0000      -0.315341        -8.5809
  46   2.0000      -0.302607        -8.2344
  47   2.0000      -0.275128        -7.4866
  48   2.0000      -0.264565        -7.1992
  49   2.0000      -0.258631        -7.0377
  50   2.0000      -0.241273        -6.5654
  51   0.0000       0.056659         1.5418
  52   0.0000       0.067688         1.8419
  53   0.0000       0.089912         2.4466
  54   0.0000       0.094900         2.5824
  55   0.0000       0.102818         2.7978

MULLIKEN ATOMIC CHARGES
-----------------------
   0 C :    0.294982
   1 C :   -0.264593
   2 C :   -0.315468
   3 C :   -0.022002
   4 O :   -0.509925
   5 H :    0.168245
   6 H :    0.152414
   7 H :    0.157325
   8 H :    0.150025
   9 H :    0.154425
  10 H :    0.141813
  11 H :    0.153461
  12 C :   -0.011847
  13 H :    0.135353
  14 H :    0.150042
  15 O :   -0.524778
  16 C :    0.057963
  17 C :    0.090892
  18 C :   -0.310433
  19 C :   -0.033759
  20 O :   -0.528210
  21 H :    0.167857
  22 O :   -0.603507
  23 H :    0.180771
  24 H :    0.162374
  25 H :    0.157511
  26 H :    0.140573
  27 H :    0.147641
  28 H :    0.360853
Sum of atomic charges:   -0.0000000

LOEWDIN ATOMIC CHARGES
----------------------
   0 C :    0.176134
   1 C :   -0.226687
   2 C :   -0.223840
   3 C :   -0.036928
   4 O :   -0.323597
   5 H :    0.114072
   6 H :    0.119318
   7 H :    0.123465
   8 H :    0.118553
   9 H :    0.112851
  10 H :    0.097966
  11 H :    0.107701
  12 C :   -0.041917
  13 H :    0.100014
  14 H :    0.107366
  15 O :   -0.324269
  16 C :    0.015818
  17 C :    0.039570
  18 C :   -0.245038
  19 C :   -0.040334
  20 O :   -0.333372
  21 H :    0.118891
  22 O :   -0.414967
  23 H :    0.129816
  24 H :    0.126863
  25 H :    0.118377
  26 H :    0.100770
  27 H :    0.103120
  28 H :    0.280283

  Mayer bond orders larger than 0.100000
B(  0-C ,  1-C ) :   0.9166 B(  0-C ,  4-O ) :   0.8972 B(  0-C ,  5-H ) :   0.9345
B(  0-C , 15-O ) :   0.8883 B(  1-C ,  2-C ) :   0.9544 B(  1-C ,  6-H ) :   0.9347
B(  1-C ,  7-H ) :   0.9371 B(  2-C ,  3-C ) :   0.9491 B(  2-C ,  8-H ) :   0.9444
B(  2-C ,  9-H ) :   0.9422 B(  3-C ,  4-O ) :   0.8391 B(  3-C , 10-H ) :   0.9277
B(  3-C , 11-H ) :   0.9383 B( 12-C , 13-H ) :   0.9122 B( 12-C , 14-H ) :   0.9242
B( 12-C , 15-O ) :   0.8236 B( 12-C , 16-C ) :   0.8993 B( 16-C , 17-C ) :   0.9112
B( 16-C , 20-O ) :   0.8415 B( 16-C , 21-H ) :   0.9260 B( 17-C , 18-C ) :   0.9137
B( 17-C , 22-O ) :   0.8887 B( 17-C , 23-H ) :   0.9217 B( 18-C , 19-C ) :   0.9402
B( 18-C , 24-H ) :   0.9376 B( 18-C , 25-H ) :   0.9286 B( 19-C , 20-O ) :   0.8437
B( 19-C , 26-H ) :   0.9363 B( 19-C , 27-H ) :   0.9376 B( 22-O , 28-H ) :   0.7968

FINAL SINGLE POINT ENERGY      -652.860875850408

DIPOLE MOMENT
-------------
                                X             Y             Z
Electronic contribution:     -4.85471      -3.65219      -1.66462
Nuclear contribution   :      6.01088       4.83274       1.96157
                        -----------------------------------------
Total Dipole Moment    :      1.15616       1.18054       0.29695
                        -----------------------------------------
Magnitude (a.u.)       :      1.67886
Magnitude (Debye)      :      4.26732

Rotational constants in cm-1:     0.050486     0.015126     0.014637
Rotational constants in MHz :  1513.544975   453.454025   438.814971

                             ****ORCA TERMINATED NORMALLY****
TOTAL RUN TIME: 0 days 0 hours 24 minutes 53 seconds 844 msec
