                         Program Version 4.2.0 -  RELEASE  -
|  1> # Test redundant internal optimization
|  2> #
|  3> ! RKS B3LYP  Opt TightSCF SmallPrint
|  4>
|  5> %basis
|  6>         Basis "6-31G"
|  7> end
|  8>
|  9> %geom
| 10> Constraints
| 11> { D 4  0  15  12  105.0   C } # D for Dihedral angle
| 12> { D 0  15  12  16  150.0   C } # D for Dihedral angle
| 13> { D 0  4  3  2   C } # D for Dihedral angle
| 14> { D 4  3  2  1   C } # D for Dihedral angle
| 15> { D 3  2  1  0   C } # D for Dihedral angle
| 16> { D 2  1  0  4   C } # D for Dihedral angle
| 17> { D 1  0  4  3   C } # D for Dihedral angle
| 18> { D 16  20  19  18   C } # D for Dihedral angle
| 19> { D 20  19  18  17   C } # D for Dihedral angle
| 20> { D 19  18  17  16   C } # D for Dihedral angle
| 21> { D 18  17  16  20   C } # D for Dihedral angle
| 22> { D 17  16  20  19   C } # D for Dihedral angle
| 23> { D 15  12  16  20   C } # D for Dihedral angle
| 24> end
| 25> end
| 26>
| 27>
| 28> #%pal
| 29> #nprocs 8
| 30> #end
| 31>
| 32> * xyz 0 1
| 33> C  -21.048   26.222   46.251
| 34> C  -20.361   27.558   45.944
| 35> C  -20.329   28.222   47.341
| 36> C  -20.110   27.022   48.296
| 37> O  -20.473   25.807   47.535
| 38> H  -20.833   25.428   45.533
| 39> H  -19.344   27.382   45.576
| 40> H  -20.898   28.157   45.201
| 41> H  -19.543   28.978   47.434
| 42> H  -21.289   28.710   47.548
| 43> H  -20.733   27.082   49.195
| 44> H  -19.064   26.913   48.597
| 45> C  -23.085   27.864   46.420
| 46> H  -23.109   28.206   47.462
| 47> H  -22.403   28.518   45.861
| 48> O  -22.586   26.394   46.375
| 49> C  -24.506   28.036   45.816
| 50> C  -24.918   29.511   45.771
| 51> C  -24.158   30.011   44.520
| 52> C  -24.201   28.788   43.570
| 53> O  -24.520   27.614   44.411
| 54> H  -25.203   27.388   46.352
| 55> O  -26.452   29.630   45.565
| 56> H  -24.648   30.061   46.680
| 57> H  -24.613   30.902   44.074
| 58> H  -23.122   30.260   44.782
| 59> H  -23.245   28.616   43.063
| 60> H  -24.991   28.870   42.818
| 61> H  -26.745   29.087   44.659
| 62> *
| 63>
| 64>                          ****END OF INPUT****
 Total Charge           Charge          ....    0
 Multiplicity           Mult            ....    1
 Number of Electrons    NEL             ....  102
FINAL SINGLE POINT ENERGY      -652.813985931889
FINAL SINGLE POINT ENERGY      -652.839042384804
FINAL SINGLE POINT ENERGY      -652.849617441155
FINAL SINGLE POINT ENERGY      -652.851797696431
FINAL SINGLE POINT ENERGY      -652.852175921585
FINAL SINGLE POINT ENERGY      -652.852222689795
FINAL SINGLE POINT ENERGY      -652.852227386240
                    ***********************HURRAY********************

CARTESIAN COORDINATES (ANGSTROEM)
---------------------------------
  C    -21.199338   26.360095   46.330292
  C    -20.197514   27.472809   45.999310
  C    -19.970925   28.129713   47.389905
  C    -20.053862   26.916842   48.350713
  O    -20.731153   25.839254   47.595000
  H    -21.169559   25.514302   45.642744
  H    -19.274564   27.003025   45.644169
  H    -20.538289   28.169324   45.228816
  H    -19.005804   28.641383   47.455476
  H    -20.752186   28.864035   47.610792
  H    -20.623874   27.129113   49.260130
  H    -19.066086   26.538761   48.629987
  C    -23.094935   28.065602   46.440281
  H    -23.222157   28.380373   47.486672
  H    -22.409280   28.765116   45.948206
  O    -22.601727   26.706944   46.373192
  C    -24.451992   28.085267   45.737058
  C    -25.112538   29.469524   45.674063
  C    -24.412243   30.098050   44.440370
  C    -24.216077   28.886291   43.495820
  O    -24.352177   27.671223   44.334967
  H    -25.103337   27.353336   46.223924
  O    -26.547027   29.350818   45.474059
  H    -24.995716   30.060698   46.583841
  H    -25.033506   30.884890   44.005245
  H    -23.452346   30.539532   44.731246
  H    -23.234007   28.879686   43.012093
  H    -24.985166   28.831015   42.718872
  H    -26.722612   28.629980   44.832755

 Multiplicity           Mult            ....    1
 Number of Electrons    NEL             ....  102
 Basis Dimension        Dim             ....  149

ORBITAL ENERGIES
----------------

  NO   OCC          E(Eh)            E(eV)
   0   2.0000     -19.142667      -520.8985
   1   2.0000     -19.140290      -520.8338
   2   2.0000     -19.139825      -520.8211
   3   2.0000     -19.137026      -520.7450
   4   2.0000     -10.278409      -279.6897
   5   2.0000     -10.245906      -278.8053
   6   2.0000     -10.237297      -278.5710
   7   2.0000     -10.235212      -278.5143
   8   2.0000     -10.233198      -278.4595
   9   2.0000     -10.227863      -278.3143
  10   2.0000     -10.196046      -277.4485
  11   2.0000     -10.195705      -277.4392
  12   2.0000     -10.193244      -277.3723
  13   2.0000      -1.050607       -28.5885
  14   2.0000      -1.037606       -28.2347
  15   2.0000      -1.008292       -27.4370
  16   2.0000      -0.993397       -27.0317
  17   2.0000      -0.791581       -21.5400
  18   2.0000      -0.788214       -21.4484
  19   2.0000      -0.772923       -21.0323
  20   2.0000      -0.734126       -19.9766
  21   2.0000      -0.682095       -18.5607
  22   2.0000      -0.608301       -16.5527
  23   2.0000      -0.605147       -16.4669
  24   2.0000      -0.599735       -16.3196
  25   2.0000      -0.578135       -15.7318
  26   2.0000      -0.529167       -14.3994
  27   2.0000      -0.508496       -13.8369
  28   2.0000      -0.503315       -13.6959
  29   2.0000      -0.492964       -13.4142
  30   2.0000      -0.482945       -13.1416
  31   2.0000      -0.462358       -12.5814
  32   2.0000      -0.453841       -12.3496
  33   2.0000      -0.438904       -11.9432
  34   2.0000      -0.431798       -11.7498
  35   2.0000      -0.412532       -11.2256
  36   2.0000      -0.406041       -11.0490
  37   2.0000      -0.396360       -10.7855
  38   2.0000      -0.385413       -10.4876
  39   2.0000      -0.375073       -10.2063
  40   2.0000      -0.365591        -9.9482
  41   2.0000      -0.360649        -9.8137
  42   2.0000      -0.355206        -9.6656
  43   2.0000      -0.332833        -9.0569
  44   2.0000      -0.314952        -8.5703
  45   2.0000      -0.308700        -8.4002
  46   2.0000      -0.294077        -8.0023
  47   2.0000      -0.273172        -7.4334
  48   2.0000      -0.266216        -7.2441
  49   2.0000      -0.254329        -6.9207
  50   2.0000      -0.242852        -6.6083
  51   0.0000       0.055939         1.5222
  52   0.0000       0.075289         2.0487
  53   0.0000       0.079663         2.1677
  54   0.0000       0.097261         2.6466
  55   0.0000       0.101782         2.7696

MULLIKEN ATOMIC CHARGES
-----------------------
   0 C :    0.314313
   1 C :   -0.302890
   2 C :   -0.309397
   3 C :   -0.004957
   4 O :   -0.496080
   5 H :    0.168775
   6 H :    0.159233
   7 H :    0.147930
   8 H :    0.145681
   9 H :    0.144783
  10 H :    0.146156
  11 H :    0.145453
  12 C :    0.003041
  13 H :    0.132155
  14 H :    0.124719
  15 O :   -0.514526
  16 C :    0.063588
  17 C :    0.079237
  18 C :   -0.294952
  19 C :   -0.032853
  20 O :   -0.507953
  21 H :    0.176493
  22 O :   -0.601101
  23 H :    0.149118
  24 H :    0.165398
  25 H :    0.137790
  26 H :    0.142998
  27 H :    0.150677
  28 H :    0.367168
Sum of atomic charges:   -0.0000000

LOEWDIN ATOMIC CHARGES
----------------------
   0 C :    0.180190
   1 C :   -0.232289
   2 C :   -0.222817
   3 C :   -0.031186
   4 O :   -0.317235
   5 H :    0.113841
   6 H :    0.124581
   7 H :    0.114969
   8 H :    0.116080
   9 H :    0.107407
  10 H :    0.103939
  11 H :    0.103798
  12 C :   -0.039932
  13 H :    0.096592
  14 H :    0.091576
  15 O :   -0.313227
  16 C :    0.015877
  17 C :    0.035605
  18 C :   -0.242185
  19 C :   -0.040071
  20 O :   -0.319218
  21 H :    0.123976
  22 O :   -0.413233
  23 H :    0.114155
  24 H :    0.127811
  25 H :    0.109497
  26 H :    0.102206
  27 H :    0.104484
  28 H :    0.284807

  Mayer bond orders larger than 0.100000
B(  0-C ,  1-C ) :   0.9302 B(  0-C ,  4-O ) :   0.9054 B(  0-C ,  5-H ) :   0.9324
B(  0-C , 15-O ) :   0.8857 B(  1-C ,  2-C ) :   0.9501 B(  1-C ,  6-H ) :   0.9342
B(  1-C ,  7-H ) :   0.9295 B(  2-C ,  3-C ) :   0.9482 B(  2-C ,  8-H ) :   0.9458
B(  2-C ,  9-H ) :   0.9419 B(  3-C ,  4-O ) :   0.8510 B(  3-C , 10-H ) :   0.9342
B(  3-C , 11-H ) :   0.9390 B( 12-C , 13-H ) :   0.9100 B( 12-C , 14-H ) :   0.9053
B( 12-C , 15-O ) :   0.8537 B( 12-C , 16-C ) :   0.8942 B( 16-C , 17-C ) :   0.9004
B( 16-C , 20-O ) :   0.8638 B( 16-C , 21-H ) :   0.9217 B( 17-C , 18-C ) :   0.9100
B( 17-C , 22-O ) :   0.8959 B( 17-C , 23-H ) :   0.9329 B( 18-C , 19-C ) :   0.9404
B( 18-C , 24-H ) :   0.9368 B( 18-C , 25-H ) :   0.9345 B( 19-C , 20-O ) :   0.8538
B( 19-C , 26-H ) :   0.9346 B( 19-C , 27-H ) :   0.9370 B( 22-O , 28-H ) :   0.7926

FINAL SINGLE POINT ENERGY      -652.852217584269

DIPOLE MOMENT
-------------
                                X             Y             Z
Electronic contribution:     -4.77639      -5.46024       0.06076
Nuclear contribution   :      5.91276       6.95481      -0.42582
                        -----------------------------------------
Total Dipole Moment    :      1.13637       1.49458      -0.36506
                        -----------------------------------------
Magnitude (a.u.)       :      1.91269
Magnitude (Debye)      :      4.86167

Rotational constants in cm-1:     0.060579     0.012231     0.012095
Rotational constants in MHz :  1816.098112   366.678388   362.594026

                             ****ORCA TERMINATED NORMALLY****
TOTAL RUN TIME: 0 days 2 hours 17 minutes 40 seconds 957 msec
