                         Program Version 4.2.0 -  RELEASE  -
|  1> # Test redundant internal optimization
|  2> #
|  3> ! RKS B3LYP  Opt TightSCF SmallPrint
|  4>
|  5> %basis
|  6>         Basis "6-31G"
|  7> end
|  8>
|  9> %geom
| 10> Constraints
| 11> { D 4  0  15  12  195.0   C } # D for Dihedral angle
| 12> { D 0  15  12  16  120.0   C } # D for Dihedral angle
| 13> { D 0  4  3  2   C } # D for Dihedral angle
| 14> { D 4  3  2  1   C } # D for Dihedral angle
| 15> { D 3  2  1  0   C } # D for Dihedral angle
| 16> { D 2  1  0  4   C } # D for Dihedral angle
| 17> { D 1  0  4  3   C } # D for Dihedral angle
| 18> { D 16  20  19  18   C } # D for Dihedral angle
| 19> { D 20  19  18  17   C } # D for Dihedral angle
| 20> { D 19  18  17  16   C } # D for Dihedral angle
| 21> { D 18  17  16  20   C } # D for Dihedral angle
| 22> { D 17  16  20  19   C } # D for Dihedral angle
| 23> { D 15  12  16  20   C } # D for Dihedral angle
| 24> end
| 25> end
| 26>
| 27>
| 28> #%pal
| 29> #nprocs 8
| 30> #end
| 31>
| 32> * xyz 0 1
| 33> C  -21.048   26.222   46.251
| 34> C  -20.361   27.558   45.944
| 35> C  -20.329   28.222   47.341
| 36> C  -20.110   27.022   48.296
| 37> O  -20.473   25.807   47.535
| 38> H  -20.833   25.428   45.533
| 39> H  -19.344   27.382   45.576
| 40> H  -20.898   28.157   45.201
| 41> H  -19.543   28.978   47.434
| 42> H  -21.289   28.710   47.548
| 43> H  -20.733   27.082   49.195
| 44> H  -19.064   26.913   48.597
| 45> C  -23.353   26.472   45.026
| 46> H  -23.872   27.437   44.960
| 47> H  -22.654   26.400   44.183
| 48> O  -22.586   26.394   46.375
| 49> C  -24.405   25.340   44.867
| 50> C  -23.765   23.957   45.038
| 51> C  -23.657   23.850   46.578
| 52> C  -24.927   24.587   47.072
| 53> O  -25.402   25.412   45.940
| 54> H  -24.938   25.477   43.925
| 55> O  -24.710   22.860   44.478
| 56> H  -22.795   23.866   44.538
| 57> H  -23.611   22.815   46.931
| 58> H  -22.753   24.363   46.929
| 59> H  -24.729   25.236   47.931
| 60> H  -25.737   23.897   47.329
| 61> H  -25.688   22.931   44.966
| 62> *
| 63>
| 64>                          ****END OF INPUT****
 Total Charge           Charge          ....    0
 Multiplicity           Mult            ....    1
 Number of Electrons    NEL             ....  102
FINAL SINGLE POINT ENERGY      -652.832908315320
FINAL SINGLE POINT ENERGY      -652.855716398008
FINAL SINGLE POINT ENERGY      -652.859430724763
FINAL SINGLE POINT ENERGY      -652.861070033261
FINAL SINGLE POINT ENERGY      -652.861213588999
FINAL SINGLE POINT ENERGY      -652.861236245053
                    ***********************HURRAY********************

CARTESIAN COORDINATES (ANGSTROEM)
---------------------------------
  C    -21.058099   26.239225   46.206043
  C    -20.348992   27.557570   45.904812
  C    -20.381311   28.261501   47.282808
  C    -20.221155   27.089091   48.272362
  O    -20.563363   25.864251   47.497614
  H    -20.839828   25.419271   45.513546
  H    -19.317888   27.351258   45.593609
  H    -20.836836   28.137858   45.116689
  H    -19.590280   29.009645   47.389829
  H    -21.347716   28.754191   47.422817
  H    -20.892003   27.153207   49.131979
  H    -19.192347   26.958725   48.619640
  C    -23.250318   26.476555   45.076370
  H    -23.763579   27.443363   45.043195
  H    -22.576679   26.412264   44.208460
  O    -22.500422   26.424930   46.327387
  C    -24.301519   25.368833   44.986374
  C    -23.797895   23.918907   45.063312
  C    -23.688214   23.700914   46.597768
  C    -24.877267   24.525774   47.149459
  O    -25.274657   25.464546   46.072605
  H    -24.857210   25.520984   44.052351
  O    -24.754805   23.014124   44.442847
  H    -22.861482   23.746131   44.530585
  H    -23.762477   22.636505   46.837933
  H    -22.743589   24.093772   46.976360
  H    -24.602147   25.106110   48.033174
  H    -25.754593   23.911277   47.378712
  H    -25.650328   23.214217   44.788358

 Multiplicity           Mult            ....    1
 Number of Electrons    NEL             ....  102
 Basis Dimension        Dim             ....  149

ORBITAL ENERGIES
----------------

  NO   OCC          E(Eh)            E(eV)
   0   2.0000     -19.148274      -521.0510
   1   2.0000     -19.145869      -520.9856
   2   2.0000     -19.134390      -520.6732
   3   2.0000     -19.132824      -520.6306
   4   2.0000     -10.286978      -279.9229
   5   2.0000     -10.235601      -278.5249
   6   2.0000     -10.235315      -278.5171
   7   2.0000     -10.231484      -278.4128
   8   2.0000     -10.230310      -278.3809
   9   2.0000     -10.217728      -278.0385
  10   2.0000     -10.192283      -277.3461
  11   2.0000     -10.190777      -277.3052
  12   2.0000     -10.171442      -276.7790
  13   2.0000      -1.059878       -28.8408
  14   2.0000      -1.030249       -28.0345
  15   2.0000      -1.003202       -27.2985
  16   2.0000      -0.994752       -27.0686
  17   2.0000      -0.791892       -21.5485
  18   2.0000      -0.774172       -21.0663
  19   2.0000      -0.761682       -20.7264
  20   2.0000      -0.735793       -20.0219
  21   2.0000      -0.675464       -18.3803
  22   2.0000      -0.606169       -16.4947
  23   2.0000      -0.599316       -16.3082
  24   2.0000      -0.593415       -16.1476
  25   2.0000      -0.574949       -15.6451
  26   2.0000      -0.526991       -14.3402
  27   2.0000      -0.505641       -13.7592
  28   2.0000      -0.501718       -13.6524
  29   2.0000      -0.488637       -13.2965
  30   2.0000      -0.473657       -12.8889
  31   2.0000      -0.456273       -12.4158
  32   2.0000      -0.448478       -12.2037
  33   2.0000      -0.434702       -11.8288
  34   2.0000      -0.429305       -11.6820
  35   2.0000      -0.409571       -11.1450
  36   2.0000      -0.404172       -10.9981
  37   2.0000      -0.383286       -10.4297
  38   2.0000      -0.380812       -10.3624
  39   2.0000      -0.363154        -9.8819
  40   2.0000      -0.362783        -9.8718
  41   2.0000      -0.355442        -9.6721
  42   2.0000      -0.353889        -9.6298
  43   2.0000      -0.326655        -8.8887
  44   2.0000      -0.318246        -8.6599
  45   2.0000      -0.311924        -8.4879
  46   2.0000      -0.300157        -8.1677
  47   2.0000      -0.268562        -7.3079
  48   2.0000      -0.263197        -7.1620
  49   2.0000      -0.260339        -7.0842
  50   2.0000      -0.235051        -6.3961
  51   0.0000       0.067737         1.8432
  52   0.0000       0.079168         2.1543
  53   0.0000       0.089966         2.4481
  54   0.0000       0.102536         2.7901
  55   0.0000       0.111416         3.0318

MULLIKEN ATOMIC CHARGES
-----------------------
   0 C :    0.295236
   1 C :   -0.267189
   2 C :   -0.298592
   3 C :   -0.002229
   4 O :   -0.510140
   5 H :    0.140533
   6 H :    0.146416
   7 H :    0.146443
   8 H :    0.144312
   9 H :    0.164430
  10 H :    0.156594
  11 H :    0.144484
  12 C :   -0.015163
  13 H :    0.158746
  14 H :    0.120373
  15 O :   -0.511101
  16 C :    0.078330
  17 C :    0.074366
  18 C :   -0.293207
  19 C :   -0.018182
  20 O :   -0.527291
  21 H :    0.148947
  22 O :   -0.605373
  23 H :    0.140871
  24 H :    0.147675
  25 H :    0.186732
  26 H :    0.158154
  27 H :    0.132469
  28 H :    0.363355
Sum of atomic charges:    0.0000000

LOEWDIN ATOMIC CHARGES
----------------------
   0 C :    0.175544
   1 C :   -0.228184
   2 C :   -0.216052
   3 C :   -0.023744
   4 O :   -0.306830
   5 H :    0.094717
   6 H :    0.114663
   7 H :    0.115904
   8 H :    0.115678
   9 H :    0.120502
  10 H :    0.110862
  11 H :    0.103895
  12 C :   -0.041869
  13 H :    0.114430
  14 H :    0.095283
  15 O :   -0.334386
  16 C :    0.010534
  17 C :    0.037042
  18 C :   -0.241570
  19 C :   -0.031753
  20 O :   -0.330870
  21 H :    0.112986
  22 O :   -0.417715
  23 H :    0.109860
  24 H :    0.118115
  25 H :    0.134372
  26 H :    0.111727
  27 H :    0.094594
  28 H :    0.282265

  Mayer bond orders larger than 0.100000
B(  0-C ,  1-C ) :   0.9332 B(  0-C ,  4-O ) :   0.9235 B(  0-C ,  5-H ) :   0.9166
B(  0-C , 15-O ) :   0.8234 B(  1-C ,  2-C ) :   0.9518 B(  1-C ,  6-H ) :   0.9336
B(  1-C ,  7-H ) :   0.9359 B(  2-C ,  3-C ) :   0.9561 B(  2-C ,  8-H ) :   0.9447
B(  2-C ,  9-H ) :   0.9434 B(  3-C ,  4-O ) :   0.8296 B(  3-C , 10-H ) :   0.9346
B(  3-C , 11-H ) :   0.9396 B( 12-C , 13-H ) :   0.9269 B( 12-C , 14-H ) :   0.9120
B( 12-C , 15-O ) :   0.8525 B( 12-C , 16-C ) :   0.8949 B( 16-C , 17-C ) :   0.9082
B( 16-C , 20-O ) :   0.8771 B( 16-C , 21-H ) :   0.9191 B( 17-C , 18-C ) :   0.9219
B( 17-C , 22-O ) :   0.8881 B( 17-C , 23-H ) :   0.9365 B( 18-C , 19-C ) :   0.9446
B( 18-C , 24-H ) :   0.9377 B( 18-C , 25-H ) :   0.9128 B( 19-C , 20-O ) :   0.8346
B( 19-C , 26-H ) :   0.9337 B( 19-C , 27-H ) :   0.9381 B( 22-O , 28-H ) :   0.7956

FINAL SINGLE POINT ENERGY      -652.861237020991

DIPOLE MOMENT
-------------
                                X             Y             Z
Electronic contribution:     -3.70498      -2.97412      -1.16738
Nuclear contribution   :      4.57329       3.95103       1.10329
                        -----------------------------------------
Total Dipole Moment    :      0.86831       0.97691      -0.06409
                        -----------------------------------------
Magnitude (a.u.)       :      1.30859
Magnitude (Debye)      :      3.32617

Rotational constants in cm-1:     0.057153     0.014059     0.013601
Rotational constants in MHz :  1713.413728   421.472718   407.752699

                             ****ORCA TERMINATED NORMALLY****
TOTAL RUN TIME: 0 days 0 hours 35 minutes 4 seconds 916 msec
