                         Program Version 4.2.0 -  RELEASE  -
|  1> # Test redundant internal optimization
|  2> #
|  3> ! RKS B3LYP  Opt TightSCF SmallPrint
|  4>
|  5> %basis
|  6>         Basis "6-31G"
|  7> end
|  8>
|  9> %geom
| 10> Constraints
| 11> { D 4  0  15  12  330.0   C } # D for Dihedral angle
| 12> { D 0  15  12  16  315.0   C } # D for Dihedral angle
| 13> { D 0  4  3  2   C } # D for Dihedral angle
| 14> { D 4  3  2  1   C } # D for Dihedral angle
| 15> { D 3  2  1  0   C } # D for Dihedral angle
| 16> { D 2  1  0  4   C } # D for Dihedral angle
| 17> { D 1  0  4  3   C } # D for Dihedral angle
| 18> { D 16  20  19  18   C } # D for Dihedral angle
| 19> { D 20  19  18  17   C } # D for Dihedral angle
| 20> { D 19  18  17  16   C } # D for Dihedral angle
| 21> { D 18  17  16  20   C } # D for Dihedral angle
| 22> { D 17  16  20  19   C } # D for Dihedral angle
| 23> { D 15  12  16  20   C } # D for Dihedral angle
| 24> end
| 25> end
| 26>
| 27>
| 28> #%pal
| 29> #nprocs 8
| 30> #end
| 31>
| 32> * xyz 0 1
| 33> C  -21.048   26.222   46.251
| 34> C  -20.361   27.558   45.944
| 35> C  -20.329   28.222   47.341
| 36> C  -20.110   27.022   48.296
| 37> O  -20.473   25.807   47.535
| 38> H  -20.833   25.428   45.533
| 39> H  -19.344   27.382   45.576
| 40> H  -20.898   28.157   45.201
| 41> H  -19.543   28.978   47.434
| 42> H  -21.289   28.710   47.548
| 43> H  -20.733   27.082   49.195
| 44> H  -19.064   26.913   48.597
| 45> C  -23.271   25.476   47.424
| 46> H  -23.065   25.860   48.431
| 47> H  -24.358   25.468   47.276
| 48> O  -22.586   26.394   46.375
| 49> C  -22.773   24.005   47.351
| 50> C  -23.551   23.106   48.318
| 51> C  -24.862   22.863   47.535
| 52> C  -24.386   22.807   46.062
| 53> O  -23.049   23.436   46.028
| 54> H  -21.690   23.987   47.489
| 55> O  -22.787   21.771   48.536
| 56> H  -23.720   23.571   49.296
| 57> H  -25.377   21.947   47.842
| 58> H  -25.552   23.702   47.686
| 59> H  -25.055   23.350   45.384
| 60> H  -24.271   21.782   45.699
| 61> H  -22.607   21.288   47.570
| 62> *
| 63>
| 64>                          ****END OF INPUT****
 Total Charge           Charge          ....    0
 Multiplicity           Mult            ....    1
 Number of Electrons    NEL             ....  102
FINAL SINGLE POINT ENERGY      -652.834778340942
FINAL SINGLE POINT ENERGY      -652.857734660282
FINAL SINGLE POINT ENERGY      -652.862087047865
FINAL SINGLE POINT ENERGY      -652.862868057755
FINAL SINGLE POINT ENERGY      -652.862988043708
FINAL SINGLE POINT ENERGY      -652.863002741274
                    ***********************HURRAY********************

CARTESIAN COORDINATES (ANGSTROEM)
---------------------------------
  C    -21.045502   26.198051   46.262385
  C    -20.469943   27.585759   45.976791
  C    -20.383220   28.187898   47.396801
  C    -20.022749   26.970823   48.278511
  O    -20.366851   25.768258   47.469484
  H    -20.835503   25.430547   45.513445
  H    -19.476167   27.478136   45.527498
  H    -21.107675   28.160962   45.302538
  H    -19.638904   28.986654   47.471740
  H    -21.357151   28.596976   47.681839
  H    -20.582253   26.936301   49.217306
  H    -18.952768   26.903442   48.495393
  C    -23.176440   25.471004   47.364078
  H    -23.015422   25.847182   48.385337
  H    -24.230752   25.602944   47.106678
  O    -22.481075   26.326462   46.414150
  C    -22.776492   23.991295   47.334770
  C    -23.597896   23.132133   48.308840
  C    -24.896529   22.884123   47.495266
  C    -24.377525   22.775941   46.038174
  O    -23.027370   23.384330   46.023120
  H    -21.707502   23.897353   47.530512
  O    -22.910129   21.887248   48.611223
  H    -23.777074   23.604741   49.275828
  H    -25.399757   21.976666   47.837754
  H    -25.586744   23.727339   47.612845
  H    -25.014829   23.302845   45.321618
  H    -24.268336   21.737474   45.709843
  H    -22.502446   21.541112   47.789229

 Multiplicity           Mult            ....    1
 Number of Electrons    NEL             ....  102
 Basis Dimension        Dim             ....  149

ORBITAL ENERGIES
----------------

  NO   OCC          E(Eh)            E(eV)
   0   2.0000     -19.146708      -521.0084
   1   2.0000     -19.138169      -520.7760
   2   2.0000     -19.136569      -520.7325
   3   2.0000     -19.134994      -520.6896
   4   2.0000     -10.274486      -279.5830
   5   2.0000     -10.239397      -278.6282
   6   2.0000     -10.229394      -278.3560
   7   2.0000     -10.228912      -278.3428
   8   2.0000     -10.227656      -278.3087
   9   2.0000     -10.225161      -278.2408
  10   2.0000     -10.187234      -277.2087
  11   2.0000     -10.187117      -277.2055
  12   2.0000     -10.183772      -277.1145
  13   2.0000      -1.052997       -28.6535
  14   2.0000      -1.032208       -28.0878
  15   2.0000      -1.002687       -27.2845
  16   2.0000      -0.989406       -26.9231
  17   2.0000      -0.790726       -21.5167
  18   2.0000      -0.779225       -21.2038
  19   2.0000      -0.761777       -20.7290
  20   2.0000      -0.733525       -19.9602
  21   2.0000      -0.670914       -18.2565
  22   2.0000      -0.602167       -16.3858
  23   2.0000      -0.601048       -16.3553
  24   2.0000      -0.599381       -16.3100
  25   2.0000      -0.566408       -15.4127
  26   2.0000      -0.521172       -14.1818
  27   2.0000      -0.510692       -13.8966
  28   2.0000      -0.495265       -13.4768
  29   2.0000      -0.485900       -13.2220
  30   2.0000      -0.471825       -12.8390
  31   2.0000      -0.459230       -12.4963
  32   2.0000      -0.446787       -12.1577
  33   2.0000      -0.440375       -11.9832
  34   2.0000      -0.415953       -11.3187
  35   2.0000      -0.406799       -11.0696
  36   2.0000      -0.399721       -10.8770
  37   2.0000      -0.390116       -10.6156
  38   2.0000      -0.376152       -10.2356
  39   2.0000      -0.366563        -9.9747
  40   2.0000      -0.360035        -9.7971
  41   2.0000      -0.358175        -9.7464
  42   2.0000      -0.349654        -9.5146
  43   2.0000      -0.333864        -9.0849
  44   2.0000      -0.323370        -8.7993
  45   2.0000      -0.309130        -8.4119
  46   2.0000      -0.296729        -8.0744
  47   2.0000      -0.269133        -7.3235
  48   2.0000      -0.262852        -7.1526
  49   2.0000      -0.254528        -6.9260
  50   2.0000      -0.235111        -6.3977
  51   0.0000       0.067653         1.8409
  52   0.0000       0.080986         2.2037
  53   0.0000       0.090165         2.4535
  54   0.0000       0.100014         2.7215
  55   0.0000       0.107783         2.9329

MULLIKEN ATOMIC CHARGES
-----------------------
   0 C :    0.294604
   1 C :   -0.259763
   2 C :   -0.302107
   3 C :   -0.011056
   4 O :   -0.521630
   5 H :    0.167634
   6 H :    0.145080
   7 H :    0.162701
   8 H :    0.144013
   9 H :    0.157960
  10 H :    0.143800
  11 H :    0.148870
  12 C :    0.016381
  13 H :    0.124482
  14 H :    0.147479
  15 O :   -0.533125
  16 C :    0.029963
  17 C :    0.078938
  18 C :   -0.296470
  19 C :   -0.026634
  20 O :   -0.523905
  21 H :    0.204058
  22 O :   -0.603944
  23 H :    0.149044
  24 H :    0.161952
  25 H :    0.141855
  26 H :    0.149307
  27 H :    0.144743
  28 H :    0.365769
Sum of atomic charges:    0.0000000

LOEWDIN ATOMIC CHARGES
----------------------
   0 C :    0.176935
   1 C :   -0.213534
   2 C :   -0.217282
   3 C :   -0.030629
   4 O :   -0.328482
   5 H :    0.107711
   6 H :    0.113986
   7 H :    0.127297
   8 H :    0.115242
   9 H :    0.116918
  10 H :    0.102264
  11 H :    0.105788
  12 C :   -0.036616
  13 H :    0.094024
  14 H :    0.111388
  15 O :   -0.328443
  16 C :   -0.004739
  17 C :    0.037732
  18 C :   -0.241509
  19 C :   -0.037692
  20 O :   -0.331061
  21 H :    0.133184
  22 O :   -0.414990
  23 H :    0.113972
  24 H :    0.126217
  25 H :    0.111329
  26 H :    0.105429
  27 H :    0.101853
  28 H :    0.283709

  Mayer bond orders larger than 0.100000
B(  0-C ,  1-C ) :   0.9435 B(  0-C ,  4-O ) :   0.8823 B(  0-C ,  5-H ) :   0.9192
B(  0-C , 15-O ) :   0.8496 B(  1-C ,  2-C ) :   0.9526 B(  1-C ,  6-H ) :   0.9382
B(  1-C ,  7-H ) :   0.9358 B(  2-C ,  3-C ) :   0.9550 B(  2-C ,  8-H ) :   0.9448
B(  2-C ,  9-H ) :   0.9451 B(  3-C ,  4-O ) :   0.8302 B(  3-C , 10-H ) :   0.9346
B(  3-C , 11-H ) :   0.9404 B( 12-C , 13-H ) :   0.9129 B( 12-C , 14-H ) :   0.9378
B( 12-C , 15-O ) :   0.8475 B( 12-C , 16-C ) :   0.8874 B( 16-C , 17-C ) :   0.8982
B( 16-C , 20-O ) :   0.8424 B( 16-C , 21-H ) :   0.8988 B( 17-C , 18-C ) :   0.9091
B( 17-C , 22-O ) :   0.8919 B( 17-C , 23-H ) :   0.9338 B( 18-C , 19-C ) :   0.9410
B( 18-C , 24-H ) :   0.9379 B( 18-C , 25-H ) :   0.9346 B( 19-C , 20-O ) :   0.8503
B( 19-C , 26-H ) :   0.9338 B( 19-C , 27-H ) :   0.9383 B( 22-O , 28-H ) :   0.7937

FINAL SINGLE POINT ENERGY      -652.863005031762

DIPOLE MOMENT
-------------
                                X             Y             Z
Electronic contribution:      0.78591      -3.66282      -1.09322
Nuclear contribution   :     -1.04057       4.42086       1.18509
                        -----------------------------------------
Total Dipole Moment    :     -0.25466       0.75804       0.09187
                        -----------------------------------------
Magnitude (a.u.)       :      0.80493
Magnitude (Debye)      :      2.04597

Rotational constants in cm-1:     0.059914     0.013872     0.012743
Rotational constants in MHz :  1796.162489   415.873083   382.034871

                             ****ORCA TERMINATED NORMALLY****
TOTAL RUN TIME: 0 days 0 hours 21 minutes 50 seconds 566 msec
