                         Program Version 4.2.0 -  RELEASE  -
|  1> # Test redundant internal optimization
|  2> #
|  3> ! RKS B3LYP  Opt TightSCF SmallPrint
|  4>
|  5> %basis
|  6>         Basis "6-31G"
|  7> end
|  8>
|  9> %geom
| 10> Constraints
| 11> { D 4  0  15  12  270.0   C } # D for Dihedral angle
| 12> { D 0  15  12  16  60.0   C } # D for Dihedral angle
| 13> { D 0  4  3  2   C } # D for Dihedral angle
| 14> { D 4  3  2  1   C } # D for Dihedral angle
| 15> { D 3  2  1  0   C } # D for Dihedral angle
| 16> { D 2  1  0  4   C } # D for Dihedral angle
| 17> { D 1  0  4  3   C } # D for Dihedral angle
| 18> { D 16  20  19  18   C } # D for Dihedral angle
| 19> { D 20  19  18  17   C } # D for Dihedral angle
| 20> { D 19  18  17  16   C } # D for Dihedral angle
| 21> { D 18  17  16  20   C } # D for Dihedral angle
| 22> { D 17  16  20  19   C } # D for Dihedral angle
| 23> { D 15  12  16  20   C } # D for Dihedral angle
| 24> end
| 25> end
| 26>
| 27>
| 28> #%pal
| 29> #nprocs 8
| 30> #end
| 31>
| 32> * xyz 0 1
| 33> C  -21.048   26.222   46.251
| 34> C  -20.361   27.558   45.944
| 35> C  -20.329   28.222   47.341
| 36> C  -20.110   27.022   48.296
| 37> O  -20.473   25.807   47.535
| 38> H  -20.833   25.428   45.533
| 39> H  -19.344   27.382   45.576
| 40> H  -20.898   28.157   45.201
| 41> H  -19.543   28.978   47.434
| 42> H  -21.289   28.710   47.548
| 43> H  -20.733   27.082   49.195
| 44> H  -19.064   26.913   48.597
| 45> C  -23.420   25.119   46.072
| 46> H  -24.487   25.350   46.179
| 47> H  -23.244   24.780   45.043
| 48> O  -22.586   26.394   46.375
| 49> C  -23.078   23.938   47.023
| 50> C  -23.833   22.666   46.623
| 51> C  -22.982   22.157   45.435
| 52> C  -21.539   22.543   45.845
| 53> O  -21.663   23.573   46.899
| 54> H  -23.238   24.253   48.056
| 55> H  -23.817   21.943   47.447
| 56> O  -25.313   22.931   46.234
| 57> H  -23.093   21.081   45.263
| 58> H  -23.274   22.675   44.514
| 59> H  -20.962   22.954   45.009
| 60> H  -20.989   21.703   46.278
| 61> H  -25.355   23.651   45.410
| 62> *
| 63>
| 64>                          ****END OF INPUT****
 Total Charge           Charge          ....    0
 Multiplicity           Mult            ....    1
 Number of Electrons    NEL             ....  102
FINAL SINGLE POINT ENERGY      -652.823492558332
FINAL SINGLE POINT ENERGY      -652.848420522447
FINAL SINGLE POINT ENERGY      -652.853654473979
FINAL SINGLE POINT ENERGY      -652.855358186919
FINAL SINGLE POINT ENERGY      -652.855529276575
FINAL SINGLE POINT ENERGY      -652.855566834917
FINAL SINGLE POINT ENERGY      -652.855570632615
                    ***********************HURRAY********************

CARTESIAN COORDINATES (ANGSTROEM)
---------------------------------
  C    -20.928491   26.248418   46.228747
  C    -20.431256   27.671999   45.974785
  C    -20.468055   28.280767   47.397363
  C    -20.079020   27.085813   48.294444
  O    -20.294342   25.870200   47.471145
  H    -20.637988   25.495941   45.492341
  H    -19.404282   27.631177   45.593278
  H    -21.058191   28.207092   45.258689
  H    -19.786186   29.129116   47.511215
  H    -21.483528   28.618899   47.623349
  H    -20.689136   27.013262   49.198599
  H    -19.020972   27.092177   48.574467
  C    -23.204291   25.168045   46.077765
  H    -24.223743   25.530091   46.239538
  H    -23.099775   24.896084   45.012337
  O    -22.368883   26.323834   46.339525
  C    -22.981796   23.931301   46.951268
  C    -23.890135   22.744263   46.585640
  C    -23.093685   22.079781   45.420950
  C    -21.625263   22.299794   45.842563
  O    -21.630362   23.384455   46.861117
  H    -23.101200   24.227252   47.997909
  H    -23.957228   22.066254   47.439063
  O    -25.264233   23.079701   46.275798
  H    -23.348542   21.024089   45.296026
  H    -23.325852   22.595560   44.479522
  H    -20.980145   22.594556   45.008696
  H    -21.195093   21.416160   46.322666
  H    -25.326330   23.485922   45.387194

 Multiplicity           Mult            ....    1
 Number of Electrons    NEL             ....  102
 Basis Dimension        Dim             ....  149

ORBITAL ENERGIES
----------------

  NO   OCC          E(Eh)            E(eV)
   0   2.0000     -19.150682      -521.1165
   1   2.0000     -19.136688      -520.7358
   2   2.0000     -19.136585      -520.7330
   3   2.0000     -19.124136      -520.3942
   4   2.0000     -10.268201      -279.4120
   5   2.0000     -10.245755      -278.8012
   6   2.0000     -10.230749      -278.3928
   7   2.0000     -10.229883      -278.3693
   8   2.0000     -10.227583      -278.3067
   9   2.0000     -10.212855      -277.9059
  10   2.0000     -10.196203      -277.4528
  11   2.0000     -10.176135      -276.9067
  12   2.0000     -10.175645      -276.8934
  13   2.0000      -1.043063       -28.3832
  14   2.0000      -1.032513       -28.0961
  15   2.0000      -1.014097       -27.5950
  16   2.0000      -0.984585       -26.7919
  17   2.0000      -0.783836       -21.3293
  18   2.0000      -0.778650       -21.1881
  19   2.0000      -0.762205       -20.7406
  20   2.0000      -0.725264       -19.7354
  21   2.0000      -0.677285       -18.4299
  22   2.0000      -0.612107       -16.6563
  23   2.0000      -0.593538       -16.1510
  24   2.0000      -0.587629       -15.9902
  25   2.0000      -0.567401       -15.4398
  26   2.0000      -0.526580       -14.3290
  27   2.0000      -0.509460       -13.8631
  28   2.0000      -0.494569       -13.4579
  29   2.0000      -0.478106       -13.0099
  30   2.0000      -0.462062       -12.5733
  31   2.0000      -0.452455       -12.3119
  32   2.0000      -0.444443       -12.0939
  33   2.0000      -0.429187       -11.6788
  34   2.0000      -0.424024       -11.5383
  35   2.0000      -0.415527       -11.3071
  36   2.0000      -0.405550       -11.0356
  37   2.0000      -0.388813       -10.5801
  38   2.0000      -0.381444       -10.3796
  39   2.0000      -0.362276        -9.8580
  40   2.0000      -0.354570        -9.6483
  41   2.0000      -0.346722        -9.4348
  42   2.0000      -0.338776        -9.2186
  43   2.0000      -0.329431        -8.9643
  44   2.0000      -0.317483        -8.6392
  45   2.0000      -0.310520        -8.4497
  46   2.0000      -0.286690        -7.8012
  47   2.0000      -0.270846        -7.3701
  48   2.0000      -0.261774        -7.1232
  49   2.0000      -0.249209        -6.7813
  50   2.0000      -0.228601        -6.2205
  51   0.0000       0.050238         1.3671
  52   0.0000       0.071055         1.9335
  53   0.0000       0.092134         2.5071
  54   0.0000       0.099515         2.7080
  55   0.0000       0.109292         2.9740

MULLIKEN ATOMIC CHARGES
-----------------------
   0 C :    0.303459
   1 C :   -0.257824
   2 C :   -0.297091
   3 C :   -0.003481
   4 O :   -0.488668
   5 H :    0.138059
   6 H :    0.141104
   7 H :    0.147819
   8 H :    0.135234
   9 H :    0.159870
  10 H :    0.143877
  11 H :    0.137492
  12 C :   -0.013313
  13 H :    0.158050
  14 H :    0.107065
  15 O :   -0.528252
  16 C :    0.091842
  17 C :    0.078128
  18 C :   -0.317410
  19 C :   -0.019367
  20 O :   -0.493248
  21 H :    0.164482
  22 H :    0.172551
  23 O :   -0.600093
  24 H :    0.157898
  25 H :    0.128607
  26 H :    0.142885
  27 H :    0.153379
  28 H :    0.356945
Sum of atomic charges:   -0.0000000

LOEWDIN ATOMIC CHARGES
----------------------
   0 C :    0.177599
   1 C :   -0.217373
   2 C :   -0.216629
   3 C :   -0.030108
   4 O :   -0.310203
   5 H :    0.097861
   6 H :    0.111606
   7 H :    0.119215
   8 H :    0.110432
   9 H :    0.117903
  10 H :    0.103605
  11 H :    0.099917
  12 C :   -0.045940
  13 H :    0.119175
  14 H :    0.079918
  15 O :   -0.326676
  16 C :    0.008555
  17 C :    0.034937
  18 C :   -0.241270
  19 C :   -0.033588
  20 O :   -0.305592
  21 H :    0.120097
  22 H :    0.121338
  23 O :   -0.407023
  24 H :    0.122752
  25 H :    0.102034
  26 H :    0.101100
  27 H :    0.107851
  28 H :    0.278509

  Mayer bond orders larger than 0.100000
B(  0-C ,  1-C ) :   0.9453 B(  0-C ,  4-O ) :   0.9177 B(  0-C ,  5-H ) :   0.9216
B(  0-C , 15-O ) :   0.8367 B(  1-C ,  2-C ) :   0.9581 B(  1-C ,  6-H ) :   0.9410
B(  1-C ,  7-H ) :   0.9377 B(  2-C ,  3-C ) :   0.9523 B(  2-C ,  8-H ) :   0.9460
B(  2-C ,  9-H ) :   0.9446 B(  3-C ,  4-O ) :   0.8484 B(  3-C , 10-H ) :   0.9355
B(  3-C , 11-H ) :   0.9401 B( 12-C , 13-H ) :   0.9229 B( 12-C , 14-H ) :   0.9233
B( 12-C , 15-O ) :   0.8731 B( 12-C , 16-C ) :   0.8877 B( 16-C , 17-C ) :   0.8677
B( 16-C , 20-O ) :   0.8620 B( 16-C , 21-H ) :   0.9283 B( 17-C , 18-C ) :   0.9239
B( 17-C , 22-H ) :   0.9318 B( 17-C , 23-O ) :   0.8977 B( 18-C , 19-C ) :   0.9365
B( 18-C , 24-H ) :   0.9419 B( 18-C , 25-H ) :   0.9408 B( 19-C , 20-O ) :   0.8516
B( 19-C , 26-H ) :   0.9306 B( 19-C , 27-H ) :   0.9372 B( 23-O , 28-H ) :   0.7982

FINAL SINGLE POINT ENERGY      -652.855571026075

DIPOLE MOMENT
-------------
                                X             Y             Z
Electronic contribution:     -1.83335      -2.09294       1.72472
Nuclear contribution   :      1.89193       2.08607      -2.80487
                        -----------------------------------------
Total Dipole Moment    :      0.05858      -0.00687      -1.08015
                        -----------------------------------------
Magnitude (a.u.)       :      1.08176
Magnitude (Debye)      :      2.74962

Rotational constants in cm-1:     0.058408     0.013972     0.012857
Rotational constants in MHz :  1751.041268   418.877143   385.428673

                             ****ORCA TERMINATED NORMALLY****
TOTAL RUN TIME: 0 days 0 hours 27 minutes 18 seconds 481 msec
