                         Program Version 4.2.0 -  RELEASE  -
|  1> # Test redundant internal optimization
|  2> #
|  3> ! RKS B3LYP  Opt TightSCF SmallPrint
|  4>
|  5> %basis
|  6>         Basis "6-31G"
|  7> end
|  8>
|  9> %geom
| 10> Constraints
| 11> { D 4  0  15  12  225.0   C } # D for Dihedral angle
| 12> { D 0  15  12  16  135.0   C } # D for Dihedral angle
| 13> { D 0  4  3  2   C } # D for Dihedral angle
| 14> { D 4  3  2  1   C } # D for Dihedral angle
| 15> { D 3  2  1  0   C } # D for Dihedral angle
| 16> { D 2  1  0  4   C } # D for Dihedral angle
| 17> { D 1  0  4  3   C } # D for Dihedral angle
| 18> { D 16  20  19  18   C } # D for Dihedral angle
| 19> { D 20  19  18  17   C } # D for Dihedral angle
| 20> { D 19  18  17  16   C } # D for Dihedral angle
| 21> { D 18  17  16  20   C } # D for Dihedral angle
| 22> { D 17  16  20  19   C } # D for Dihedral angle
| 23> { D 15  12  16  20   C } # D for Dihedral angle
| 24> end
| 25> end
| 26>
| 27>
| 28> #%pal
| 29> #nprocs 8
| 30> #end
| 31>
| 32> * xyz 0 1
| 33> C  -21.048   26.222   46.251
| 34> C  -20.361   27.558   45.944
| 35> C  -20.329   28.222   47.341
| 36> C  -20.110   27.022   48.296
| 37> O  -20.473   25.807   47.535
| 38> H  -20.833   25.428   45.533
| 39> H  -19.344   27.382   45.576
| 40> H  -20.898   28.157   45.201
| 41> H  -19.543   28.978   47.434
| 42> H  -21.289   28.710   47.548
| 43> H  -20.733   27.082   49.195
| 44> H  -19.064   26.913   48.597
| 45> C  -23.415   25.773   45.218
| 46> H  -23.771   26.573   44.557
| 47> H  -22.795   25.089   44.624
| 48> O  -22.586   26.394   46.375
| 49> C  -24.648   24.973   45.724
| 50> C  -25.658   25.890   46.423
| 51> C  -26.380   26.538   45.217
| 52> C  -26.412   25.395   44.172
| 53> O  -25.393   24.410   44.593
| 54> H  -24.304   24.133   46.331
| 55> H  -26.358   25.294   47.018
| 56> O  -24.989   26.936   47.357
| 57> H  -27.380   26.903   45.468
| 58> H  -25.797   27.388   44.843
| 59> H  -26.177   25.744   43.161
| 60> H  -27.374   24.875   44.152
| 61> H  -24.283   27.544   46.782
| 62> *
| 63>
| 64>                          ****END OF INPUT****
 Total Charge           Charge          ....    0
 Multiplicity           Mult            ....    1
 Number of Electrons    NEL             ....  102
FINAL SINGLE POINT ENERGY      -652.830875994065
FINAL SINGLE POINT ENERGY      -652.854633720263
FINAL SINGLE POINT ENERGY      -652.860725683298
FINAL SINGLE POINT ENERGY      -652.863023300978
FINAL SINGLE POINT ENERGY      -652.864430173890
FINAL SINGLE POINT ENERGY      -652.865305117006
FINAL SINGLE POINT ENERGY      -652.865733105054
FINAL SINGLE POINT ENERGY      -652.865829082408
FINAL SINGLE POINT ENERGY      -652.865841912189
                    ***********************HURRAY********************

CARTESIAN COORDINATES (ANGSTROEM)
---------------------------------
  C    -21.084804   26.184713   46.186126
  C    -20.388776   27.516308   45.914375
  C    -20.492507   28.218481   47.289304
  C    -20.352038   27.049289   48.286452
  O    -20.638248   25.817855   47.497679
  H    -20.828613   25.366676   45.506760
  H    -19.341709   27.328395   45.649233
  H    -20.860199   28.080200   45.105622
  H    -19.720830   28.980922   47.430226
  H    -21.470432   28.699684   47.388112
  H    -21.058042   27.099394   49.118747
  H    -19.336298   26.938631   48.676008
  C    -23.317634   25.768171   45.101075
  H    -23.613714   26.561621   44.404564
  H    -22.718290   25.031014   44.553018
  O    -22.534165   26.354439   46.191986
  C    -24.537761   25.068556   45.710894
  C    -25.516882   25.998711   46.446331
  C    -26.316406   26.614627   45.261573
  C    -26.398773   25.451058   44.252034
  O    -25.337743   24.474301   44.642767
  H    -24.192490   24.248196   46.346296
  H    -26.187703   25.383586   47.057480
  O    -24.922897   26.990676   47.306302
  H    -27.299231   26.972862   45.577490
  H    -25.758221   27.469505   44.865590
  H    -26.225680   25.760430   43.216437
  H    -27.349748   24.913023   44.304531
  H    -23.945164   26.991676   47.178986

 Multiplicity           Mult            ....    1
 Number of Electrons    NEL             ....  102
 Basis Dimension        Dim             ....  149

ORBITAL ENERGIES
----------------

  NO   OCC          E(Eh)            E(eV)
   0   2.0000     -19.162603      -521.4409
   1   2.0000     -19.150270      -521.1054
   2   2.0000     -19.139947      -520.8244
   3   2.0000     -19.110929      -520.0348
   4   2.0000     -10.293761      -280.1075
   5   2.0000     -10.241469      -278.6845
   6   2.0000     -10.232627      -278.4439
   7   2.0000     -10.232572      -278.4424
   8   2.0000     -10.228863      -278.3415
   9   2.0000     -10.226164      -278.2681
  10   2.0000     -10.194856      -277.4161
  11   2.0000     -10.193747      -277.3860
  12   2.0000     -10.177913      -276.9551
  13   2.0000      -1.065454       -28.9925
  14   2.0000      -1.025158       -27.8960
  15   2.0000      -1.008035       -27.4300
  16   2.0000      -0.990576       -26.9549
  17   2.0000      -0.795880       -21.6570
  18   2.0000      -0.773333       -21.0434
  19   2.0000      -0.767218       -20.8771
  20   2.0000      -0.736656       -20.0454
  21   2.0000      -0.679881       -18.5005
  22   2.0000      -0.608087       -16.5469
  23   2.0000      -0.602195       -16.3865
  24   2.0000      -0.594385       -16.1740
  25   2.0000      -0.580998       -15.8097
  26   2.0000      -0.528973       -14.3941
  27   2.0000      -0.522960       -14.2305
  28   2.0000      -0.499079       -13.5806
  29   2.0000      -0.488414       -13.2904
  30   2.0000      -0.473832       -12.8936
  31   2.0000      -0.457089       -12.4380
  32   2.0000      -0.449519       -12.2320
  33   2.0000      -0.436963       -11.8904
  34   2.0000      -0.426397       -11.6028
  35   2.0000      -0.415998       -11.3199
  36   2.0000      -0.407777       -11.0962
  37   2.0000      -0.386688       -10.5223
  38   2.0000      -0.381784       -10.3889
  39   2.0000      -0.367487        -9.9998
  40   2.0000      -0.363816        -9.8999
  41   2.0000      -0.363018        -9.8782
  42   2.0000      -0.348027        -9.4703
  43   2.0000      -0.341865        -9.3026
  44   2.0000      -0.324818        -8.8388
  45   2.0000      -0.319746        -8.7007
  46   2.0000      -0.284225        -7.7341
  47   2.0000      -0.281142        -7.6503
  48   2.0000      -0.263192        -7.1618
  49   2.0000      -0.247333        -6.7303
  50   2.0000      -0.240649        -6.5484
  51   0.0000       0.054156         1.4737
  52   0.0000       0.080267         2.1842
  53   0.0000       0.089014         2.4222
  54   0.0000       0.097386         2.6500
  55   0.0000       0.103854         2.8260

MULLIKEN ATOMIC CHARGES
-----------------------
   0 C :    0.302355
   1 C :   -0.257886
   2 C :   -0.305872
   3 C :   -0.009507
   4 O :   -0.498632
   5 H :    0.147787
   6 H :    0.149282
   7 H :    0.148416
   8 H :    0.147968
   9 H :    0.164720
  10 H :    0.161092
  11 H :    0.147574
  12 C :   -0.020287
  13 H :    0.146470
  14 H :    0.152792
  15 O :   -0.560463
  16 C :    0.053857
  17 C :    0.126101
  18 C :   -0.300753
  19 C :   -0.020280
  20 O :   -0.521949
  21 H :    0.164605
  22 H :    0.145224
  23 O :   -0.644961
  24 H :    0.150393
  25 H :    0.145078
  26 H :    0.140063
  27 H :    0.149564
  28 H :    0.397250
Sum of atomic charges:    0.0000000

LOEWDIN ATOMIC CHARGES
----------------------
   0 C :    0.182396
   1 C :   -0.223584
   2 C :   -0.217431
   3 C :   -0.027017
   4 O :   -0.306940
   5 H :    0.102903
   6 H :    0.116309
   7 H :    0.118704
   8 H :    0.117580
   9 H :    0.119430
  10 H :    0.112304
  11 H :    0.105741
  12 C :   -0.041227
  13 H :    0.101446
  14 H :    0.109949
  15 O :   -0.345804
  16 C :    0.014421
  17 C :    0.043365
  18 C :   -0.236091
  19 C :   -0.032427
  20 O :   -0.325190
  21 H :    0.117780
  22 H :    0.103902
  23 O :   -0.436764
  24 H :    0.121241
  25 H :    0.111048
  26 H :    0.100879
  27 H :    0.106020
  28 H :    0.287058

  Mayer bond orders larger than 0.100000
B(  0-C ,  1-C ) :   0.9399 B(  0-C ,  4-O ) :   0.9503 B(  0-C ,  5-H ) :   0.9187
B(  0-C , 15-O ) :   0.7946 B(  1-C ,  2-C ) :   0.9540 B(  1-C ,  6-H ) :   0.9341
B(  1-C ,  7-H ) :   0.9381 B(  2-C ,  3-C ) :   0.9530 B(  2-C ,  8-H ) :   0.9446
B(  2-C ,  9-H ) :   0.9433 B(  3-C ,  4-O ) :   0.8296 B(  3-C , 10-H ) :   0.9335
B(  3-C , 11-H ) :   0.9394 B( 12-C , 13-H ) :   0.9263 B( 12-C , 14-H ) :   0.9222
B( 12-C , 15-O ) :   0.7906 B( 12-C , 16-C ) :   0.8977 B( 16-C , 17-C ) :   0.9163
B( 16-C , 20-O ) :   0.8531 B( 16-C , 21-H ) :   0.9285 B( 17-C , 18-C ) :   0.9028
B( 17-C , 22-H ) :   0.9295 B( 17-C , 23-O ) :   0.9326 B( 18-C , 19-C ) :   0.9390
B( 18-C , 24-H ) :   0.9447 B( 18-C , 25-H ) :   0.9431 B( 19-C , 20-O ) :   0.8327
B( 19-C , 26-H ) :   0.9349 B( 19-C , 27-H ) :   0.9386 B( 23-O , 28-H ) :   0.7221

FINAL SINGLE POINT ENERGY      -652.865844366937

DIPOLE MOMENT
-------------
                                X             Y             Z
Electronic contribution:     -0.69504      -4.34779       1.38862
Nuclear contribution   :      1.53151       5.16311      -2.18082
                        -----------------------------------------
Total Dipole Moment    :      0.83646       0.81532      -0.79220
                        -----------------------------------------
Magnitude (a.u.)       :      1.41138
Magnitude (Debye)      :      3.58744

Rotational constants in cm-1:     0.060281     0.012973     0.012203
Rotational constants in MHz :  1807.169017   388.934568   365.827414

                             ****ORCA TERMINATED NORMALLY****
TOTAL RUN TIME: 0 days 1 hours 5 minutes 31 seconds 615 msec
