                         Program Version 4.2.1 -  RELEASE  -
|  1> # Test redundant internal optimization
|  2> #
|  3> ! RKS B3LYP  Opt TightSCF SmallPrint
|  4>
|  5> %basis
|  6>         Basis "6-31G"
|  7> end
|  8>
|  9> %geom
| 10> Constraints
| 11> { D 4  0  19  14  195.0   C } # D for Dihedral angle
| 12> { D 0  19  14  12  330.0   C } # D for Dihedral angle
| 13> { D 0  4  3  2   C } # D for Dihedral angle
| 14> { D 4  3  2  1   C } # D for Dihedral angle
| 15> { D 3  2  1  0   C } # D for Dihedral angle
| 16> { D 2  1  0  4   C } # D for Dihedral angle
| 17> { D 1  0  4  3   C } # D for Dihedral angle
| 18> { D 14  15  16  17   C } # D for Dihedral angle
| 19> { D 15  16  17  12   C } # D for Dihedral angle
| 20> { D 16  17  12  14   C } # D for Dihedral angle
| 21> { D 17  12  14  15   C } # D for Dihedral angle
| 22> { D 12  14  15  16   C } # D for Dihedral angle
| 23> end
| 24> end
| 25>
| 26>
| 27> #%pal
| 28> #nprocs 8
| 29> #end
| 30>
| 31> * xyz 0 1
| 32> C  -21.048   26.222   46.251
| 33> C  -20.361   27.558   45.944
| 34> C  -20.329   28.222   47.341
| 35> C  -20.110   27.022   48.296
| 36> O  -20.473   25.807   47.535
| 37> H  -20.833   25.428   45.533
| 38> H  -19.344   27.382   45.576
| 39> H  -20.898   28.157   45.201
| 40> H  -19.543   28.978   47.434
| 41> H  -21.289   28.710   47.548
| 42> H  -20.733   27.082   49.195
| 43> H  -19.064   26.913   48.597
| 44> C  -22.252   27.069   44.042
| 45> H  -22.830   27.400   43.164
| 46> C  -23.163   26.451   45.109
| 47> C  -23.402   25.035   44.537
| 48> C  -22.051   24.696   43.859
| 49> O  -21.341   25.980   43.672
| 50> H  -21.635   27.895   44.397
| 51> O  -22.472   26.381   46.366
| 52> H  -24.093   27.012   45.257
| 53> H  -23.678   24.306   45.306
| 54> H  -24.210   25.059   43.794
| 55> H  -22.178   24.211   42.886
| 56> H  -21.415   24.065   44.489
| 57> *
| 58>
| 59>                          ****END OF INPUT****
 Total Charge           Charge          ....    0
 Multiplicity           Mult            ....    1
 Number of Electrons    NEL             ....   86
FINAL SINGLE POINT ENERGY      -538.378621838744
FINAL SINGLE POINT ENERGY      -538.422319653644
FINAL SINGLE POINT ENERGY      -538.425045370430
FINAL SINGLE POINT ENERGY      -538.425506180498
FINAL SINGLE POINT ENERGY      -538.425591115688
FINAL SINGLE POINT ENERGY      -538.425614287445
FINAL SINGLE POINT ENERGY      -538.425616259169
                    ***********************HURRAY********************

CARTESIAN COORDINATES (ANGSTROEM)
---------------------------------
  C    -20.788294   26.243016   46.289838
  C    -20.072771   27.579931   46.091194
  C    -20.296884   28.276790   47.460907
  C    -20.239742   27.091695   48.448226
  O    -20.452749   25.873633   47.633964
  H    -20.458309   25.443523   45.624350
  H    -19.006294   27.379841   45.929897
  H    -20.433761   28.169159   45.250042
  H    -19.540645   29.037878   47.673869
  H    -21.283766   28.748357   47.479267
  H    -21.013917   27.135456   49.219098
  H    -19.260175   26.984317   48.924631
  C    -22.437745   27.027570   43.804531
  H    -23.238616   27.305327   43.103131
  C    -23.063562   26.419556   45.063133
  C    -23.401107   24.994138   44.582666
  C    -22.246245   24.652444   43.614445
  O    -21.615953   25.948397   43.243751
  H    -21.797673   27.892099   43.962133
  O    -22.249141   26.367123   46.278982
  H    -23.956135   26.966197   45.379549
  H    -23.469765   24.313730   45.433835
  H    -24.363759   24.994548   44.057634
  H    -22.588008   24.158262   42.699443
  H    -21.469984   24.038014   44.080483

 Multiplicity           Mult            ....    1
 Number of Electrons    NEL             ....   86
 Basis Dimension        Dim             ....  127

ORBITAL ENERGIES
----------------

  NO   OCC          E(Eh)            E(eV)
   0   2.0000     -19.139829      -520.8212
   1   2.0000     -19.134733      -520.6825
   2   2.0000     -19.133027      -520.6361
   3   2.0000     -10.275048      -279.5983
   4   2.0000     -10.242623      -278.7159
   5   2.0000     -10.230655      -278.3903
   6   2.0000     -10.226956      -278.2896
   7   2.0000     -10.220530      -278.1148
   8   2.0000     -10.184702      -277.1398
   9   2.0000     -10.182656      -277.0842
  10   2.0000     -10.181824      -277.0615
  11   2.0000      -1.047392       -28.5010
  12   2.0000      -1.019828       -27.7509
  13   2.0000      -0.982446       -26.7337
  14   2.0000      -0.786677       -21.4066
  15   2.0000      -0.777674       -21.1616
  16   2.0000      -0.743538       -20.2327
  17   2.0000      -0.724322       -19.7098
  18   2.0000      -0.617622       -16.8064
  19   2.0000      -0.603981       -16.4352
  20   2.0000      -0.593953       -16.1623
  21   2.0000      -0.566042       -15.4028
  22   2.0000      -0.518607       -14.1120
  23   2.0000      -0.503432       -13.6991
  24   2.0000      -0.485542       -13.2123
  25   2.0000      -0.481912       -13.1135
  26   2.0000      -0.451329       -12.2813
  27   2.0000      -0.444263       -12.0890
  28   2.0000      -0.432038       -11.7564
  29   2.0000      -0.412382       -11.2215
  30   2.0000      -0.403737       -10.9863
  31   2.0000      -0.392122       -10.6702
  32   2.0000      -0.376504       -10.2452
  33   2.0000      -0.366361        -9.9692
  34   2.0000      -0.359851        -9.7920
  35   2.0000      -0.349652        -9.5145
  36   2.0000      -0.346636        -9.4325
  37   2.0000      -0.320018        -8.7081
  38   2.0000      -0.304847        -8.2953
  39   2.0000      -0.290344        -7.9007
  40   2.0000      -0.258045        -7.0218
  41   2.0000      -0.249415        -6.7869
  42   2.0000      -0.239608        -6.5201
  43   0.0000       0.074607         2.0302
  44   0.0000       0.088598         2.4109
  45   0.0000       0.100089         2.7235
  46   0.0000       0.104843         2.8529
  47   0.0000       0.112312         3.0562

MULLIKEN ATOMIC CHARGES
-----------------------
   0 C :    0.300372
   1 C :   -0.271989
   2 C :   -0.299094
   3 C :    0.001405
   4 O :   -0.501596
   5 H :    0.158389
   6 H :    0.149535
   7 H :    0.143371
   8 H :    0.140014
   9 H :    0.155473
  10 H :    0.151512
  11 H :    0.140179
  12 C :   -0.031717
  13 H :    0.135599
  14 C :    0.080455
  15 C :   -0.290607
  16 C :   -0.021133
  17 O :   -0.528751
  18 H :    0.157080
  19 O :   -0.526713
  20 H :    0.149613
  21 H :    0.173747
  22 H :    0.139237
  23 H :    0.144568
  24 H :    0.151048
Sum of atomic charges:   -0.0000000

LOEWDIN ATOMIC CHARGES
----------------------
   0 C :    0.184728
   1 C :   -0.226778
   2 C :   -0.218174
   3 C :   -0.025681
   4 O :   -0.303959
   5 H :    0.104507
   6 H :    0.116948
   7 H :    0.112688
   8 H :    0.113300
   9 H :    0.115525
  10 H :    0.107625
  11 H :    0.101094
  12 C :   -0.052940
  13 H :    0.099235
  14 C :    0.041983
  15 C :   -0.235006
  16 C :   -0.035383
  17 O :   -0.339144
  18 H :    0.112671
  19 O :   -0.337985
  20 H :    0.113453
  21 H :    0.132238
  22 H :    0.112135
  23 H :    0.103226
  24 H :    0.103695

  Mayer bond orders larger than 0.100000
B(  0-C ,  1-C ) :   0.9316 B(  0-C ,  4-O ) :   0.9275 B(  0-C ,  5-H ) :   0.9108
B(  0-C , 19-O ) :   0.8189 B(  1-C ,  2-C ) :   0.9506 B(  1-C ,  6-H ) :   0.9332
B(  1-C ,  7-H ) :   0.9266 B(  2-C ,  3-C ) :   0.9544 B(  2-C ,  8-H ) :   0.9450
B(  2-C ,  9-H ) :   0.9448 B(  3-C ,  4-O ) :   0.8361 B(  3-C , 10-H ) :   0.9352
B(  3-C , 11-H ) :   0.9398 B( 12-C , 13-H ) :   0.9121 B( 12-C , 14-C ) :   0.9212
B( 12-C , 17-O ) :   0.8585 B( 12-C , 18-H ) :   0.9200 B( 14-C , 15-C ) :   0.9233
B( 14-C , 19-O ) :   0.8764 B( 14-C , 20-H ) :   0.9340 B( 15-C , 16-C ) :   0.9477
B( 15-C , 21-H ) :   0.9348 B( 15-C , 22-H ) :   0.9390 B( 16-C , 17-O ) :   0.8430
B( 16-C , 23-H ) :   0.9352 B( 16-C , 24-H ) :   0.9329

FINAL SINGLE POINT ENERGY      -538.425616708725

DIPOLE MOMENT
-------------
                                X             Y             Z
Electronic contribution:      0.03095      -2.13707       0.41328
Nuclear contribution   :     -0.44580       2.78071      -0.66890
                        -----------------------------------------
Total Dipole Moment    :     -0.41485       0.64365      -0.25562
                        -----------------------------------------
Magnitude (a.u.)       :      0.80729
Magnitude (Debye)      :      2.05197

Rotational constants in cm-1:     0.079179     0.022862     0.021533
Rotational constants in MHz :  2373.733000   685.398987   645.529074

                             ****ORCA TERMINATED NORMALLY****
TOTAL RUN TIME: 0 days 0 hours 18 minutes 37 seconds 900 msec
