                         Program Version 4.2.0 -  RELEASE  -
|  1> # Test redundant internal optimization
|  2> #
|  3> ! RKS B3LYP  Opt TightSCF SmallPrint
|  4>
|  5> %basis
|  6>         Basis "6-31G"
|  7> end
|  8>
|  9> %geom
| 10> Constraints
| 11> { D 4  0  15  12  285.0   C } # D for Dihedral angle
| 12> { D 0  15  12  16  45.0   C } # D for Dihedral angle
| 13> { D 0  4  3  2   C } # D for Dihedral angle
| 14> { D 4  3  2  1   C } # D for Dihedral angle
| 15> { D 3  2  1  0   C } # D for Dihedral angle
| 16> { D 2  1  0  4   C } # D for Dihedral angle
| 17> { D 1  0  4  3   C } # D for Dihedral angle
| 18> { D 16  20  19  18   C } # D for Dihedral angle
| 19> { D 20  19  18  17   C } # D for Dihedral angle
| 20> { D 19  18  17  16   C } # D for Dihedral angle
| 21> { D 18  17  16  20   C } # D for Dihedral angle
| 22> { D 17  16  20  19   C } # D for Dihedral angle
| 23> { D 15  12  16  20   C } # D for Dihedral angle
| 24> end
| 25> end
| 26>
| 27>
| 28> #%pal
| 29> #nprocs 8
| 30> #end
| 31>
| 32> * xyz 0 1
| 33> C  -21.048   26.222   46.251
| 34> C  -20.361   27.558   45.944
| 35> C  -20.329   28.222   47.341
| 36> C  -20.110   27.022   48.296
| 37> O  -20.473   25.807   47.535
| 38> H  -20.833   25.428   45.533
| 39> H  -19.344   27.382   45.576
| 40> H  -20.898   28.157   45.201
| 41> H  -19.543   28.978   47.434
| 42> H  -21.289   28.710   47.548
| 43> H  -20.733   27.082   49.195
| 44> H  -19.064   26.913   48.597
| 45> C  -23.396   25.070   46.435
| 46> H  -24.416   25.285   46.778
| 47> H  -23.458   24.612   45.440
| 48> O  -22.586   26.394   46.375
| 49> C  -22.767   24.025   47.398
| 50> C  -22.796   24.517   48.849
| 51> C  -24.263   24.230   49.248
| 52> C  -24.587   22.923   48.482
| 53> O  -23.570   22.797   47.416
| 54> H  -21.775   23.753   47.032
| 55> O  -21.818   23.677   49.715
| 56> H  -22.526   25.573   48.952
| 57> H  -24.396   24.124   50.330
| 58> H  -24.911   25.047   48.910
| 59> H  -25.583   22.939   48.028
| 60> H  -24.502   22.036   49.116
| 61> H  -22.069   22.613   49.629
| 62> *
| 63>
| 64>                          ****END OF INPUT****
 Total Charge           Charge          ....    0
 Multiplicity           Mult            ....    1
 Number of Electrons    NEL             ....  102
FINAL SINGLE POINT ENERGY      -652.836744573835
FINAL SINGLE POINT ENERGY      -652.860079000261
FINAL SINGLE POINT ENERGY      -652.864477334246
FINAL SINGLE POINT ENERGY      -652.865238297232
FINAL SINGLE POINT ENERGY      -652.865395084851
FINAL SINGLE POINT ENERGY      -652.865410460181
FINAL SINGLE POINT ENERGY      -652.865413408497
                    ***********************HURRAY********************

CARTESIAN COORDINATES (ANGSTROEM)
---------------------------------
  C    -21.002525   26.170609   46.272755
  C    -20.457704   27.556906   45.924983
  C    -20.455814   28.252326   47.306844
  C    -20.098831   27.103402   48.276813
  O    -20.367786   25.844589   47.531546
  H    -20.725532   25.369966   45.578092
  H    -19.439231   27.455478   45.533779
  H    -21.077312   28.066427   45.184687
  H    -19.740363   29.078390   47.362555
  H    -21.454513   28.643191   47.521780
  H    -20.697750   27.108172   49.191119
  H    -19.038573   27.083071   48.543957
  C    -23.217515   25.051550   46.476233
  H    -24.217112   25.393293   46.754199
  H    -23.285045   24.576697   45.487219
  O    -22.436482   26.283897   46.364271
  C    -22.722930   23.977548   47.460656
  C    -22.738016   24.379203   48.943824
  C    -24.246833   24.252549   49.289752
  C    -24.701440   23.045380   48.430603
  O    -23.672069   22.859240   47.380549
  H    -21.742395   23.593867   47.173171
  O    -21.939498   23.461634   49.740066
  H    -22.328135   25.368539   49.124021
  H    -24.381219   24.084458   50.361000
  H    -24.783021   25.166871   49.014267
  H    -25.672851   23.202660   47.951689
  H    -24.744173   22.115211   49.006086
  H    -22.059331   22.550874   49.397483

 Multiplicity           Mult            ....    1
 Number of Electrons    NEL             ....  102
 Basis Dimension        Dim             ....  149

ORBITAL ENERGIES
----------------

  NO   OCC          E(Eh)            E(eV)
   0   2.0000     -19.147013      -521.0167
   1   2.0000     -19.143520      -520.9217
   2   2.0000     -19.142449      -520.8925
   3   2.0000     -19.128573      -520.5149
   4   2.0000     -10.280319      -279.7417
   5   2.0000     -10.230376      -278.3827
   6   2.0000     -10.230003      -278.3725
   7   2.0000     -10.229472      -278.3581
   8   2.0000     -10.228847      -278.3411
   9   2.0000     -10.226682      -278.2822
  10   2.0000     -10.186188      -277.1803
  11   2.0000     -10.185935      -277.1734
  12   2.0000     -10.183125      -277.0969
  13   2.0000      -1.055382       -28.7184
  14   2.0000      -1.032669       -28.1003
  15   2.0000      -0.999961       -27.2103
  16   2.0000      -0.995739       -27.0954
  17   2.0000      -0.790234       -21.5034
  18   2.0000      -0.773222       -21.0404
  19   2.0000      -0.762470       -20.7479
  20   2.0000      -0.732983       -19.9455
  21   2.0000      -0.672864       -18.3096
  22   2.0000      -0.602508       -16.3951
  23   2.0000      -0.600054       -16.3283
  24   2.0000      -0.596896       -16.2424
  25   2.0000      -0.571002       -15.5378
  26   2.0000      -0.521136       -14.1808
  27   2.0000      -0.517691       -14.0871
  28   2.0000      -0.492467       -13.4007
  29   2.0000      -0.483530       -13.1575
  30   2.0000      -0.469158       -12.7664
  31   2.0000      -0.458132       -12.4664
  32   2.0000      -0.446557       -12.1514
  33   2.0000      -0.435260       -11.8440
  34   2.0000      -0.417249       -11.3539
  35   2.0000      -0.414114       -11.2686
  36   2.0000      -0.400308       -10.8929
  37   2.0000      -0.386869       -10.5273
  38   2.0000      -0.375618       -10.2211
  39   2.0000      -0.364865        -9.9285
  40   2.0000      -0.358145        -9.7456
  41   2.0000      -0.355178        -9.6649
  42   2.0000      -0.348931        -9.4949
  43   2.0000      -0.337062        -9.1719
  44   2.0000      -0.322005        -8.7622
  45   2.0000      -0.305253        -8.3064
  46   2.0000      -0.300048        -8.1647
  47   2.0000      -0.269251        -7.3267
  48   2.0000      -0.263342        -7.1659
  49   2.0000      -0.259509        -7.0616
  50   2.0000      -0.238653        -6.4941
  51   0.0000       0.069752         1.8980
  52   0.0000       0.076852         2.0913
  53   0.0000       0.093963         2.5569
  54   0.0000       0.097899         2.6640
  55   0.0000       0.105987         2.8841

MULLIKEN ATOMIC CHARGES
-----------------------
   0 C :    0.283092
   1 C :   -0.259786
   2 C :   -0.299279
   3 C :   -0.005134
   4 O :   -0.509961
   5 H :    0.144212
   6 H :    0.146684
   7 H :    0.158562
   8 H :    0.142384
   9 H :    0.161550
  10 H :    0.146742
  11 H :    0.148355
  12 C :   -0.007747
  13 H :    0.147676
  14 H :    0.146682
  15 O :   -0.522203
  16 C :    0.035873
  17 C :    0.113431
  18 C :   -0.302137
  19 C :   -0.028941
  20 O :   -0.530129
  21 H :    0.173375
  22 O :   -0.606342
  23 H :    0.164977
  24 H :    0.162461
  25 H :    0.142932
  26 H :    0.144522
  27 H :    0.146190
  28 H :    0.361959
Sum of atomic charges:   -0.0000000

LOEWDIN ATOMIC CHARGES
----------------------
   0 C :    0.169270
   1 C :   -0.213377
   2 C :   -0.216016
   3 C :   -0.027478
   4 O :   -0.325049
   5 H :    0.095844
   6 H :    0.114794
   7 H :    0.124871
   8 H :    0.114328
   9 H :    0.118758
  10 H :    0.103494
  11 H :    0.105868
  12 C :   -0.041855
  13 H :    0.111653
  14 H :    0.103383
  15 O :   -0.327577
  16 C :    0.004800
  17 C :    0.043740
  18 C :   -0.243850
  19 C :   -0.037689
  20 O :   -0.330789
  21 H :    0.119891
  22 O :   -0.413593
  23 H :    0.121787
  24 H :    0.126607
  25 H :    0.111939
  26 H :    0.102649
  27 H :    0.102731
  28 H :    0.280868

  Mayer bond orders larger than 0.100000
B(  0-C ,  1-C ) :   0.9491 B(  0-C ,  4-O ) :   0.8945 B(  0-C ,  5-H ) :   0.9189
B(  0-C , 15-O ) :   0.8645 B(  1-C ,  2-C ) :   0.9572 B(  1-C ,  6-H ) :   0.9404
B(  1-C ,  7-H ) :   0.9366 B(  2-C ,  3-C ) :   0.9541 B(  2-C ,  8-H ) :   0.9449
B(  2-C ,  9-H ) :   0.9446 B(  3-C ,  4-O ) :   0.8331 B(  3-C , 10-H ) :   0.9308
B(  3-C , 11-H ) :   0.9405 B( 12-C , 13-H ) :   0.9403 B( 12-C , 14-H ) :   0.9203
B( 12-C , 15-O ) :   0.8397 B( 12-C , 16-C ) :   0.8840 B( 16-C , 17-C ) :   0.9120
B( 16-C , 20-O ) :   0.8223 B( 16-C , 21-H ) :   0.9222 B( 17-C , 18-C ) :   0.9055
B( 17-C , 22-O ) :   0.8868 B( 17-C , 23-H ) :   0.9227 B( 18-C , 19-C ) :   0.9414
B( 18-C , 24-H ) :   0.9378 B( 18-C , 25-H ) :   0.9352 B( 19-C , 20-O ) :   0.8394
B( 19-C , 26-H ) :   0.9359 B( 19-C , 27-H ) :   0.9390 B( 22-O , 28-H ) :   0.7961

FINAL SINGLE POINT ENERGY      -652.865414172526

DIPOLE MOMENT
-------------
                                X             Y             Z
Electronic contribution:      0.53735      -4.23537      -0.80050
Nuclear contribution   :     -0.79870       4.95231       0.59554
                        -----------------------------------------
Total Dipole Moment    :     -0.26135       0.71694      -0.20496
                        -----------------------------------------
Magnitude (a.u.)       :      0.79014
Magnitude (Debye)      :      2.00837

Rotational constants in cm-1:     0.053018     0.015977     0.014110
Rotational constants in MHz :  1589.446223   478.984116   423.012724

                             ****ORCA TERMINATED NORMALLY****
TOTAL RUN TIME: 0 days 0 hours 30 minutes 48 seconds 407 msec
