                         Program Version 4.2.0 -  RELEASE  -
|  1> # Test redundant internal optimization
|  2> #
|  3> ! RKS B3LYP  Opt TightSCF SmallPrint
|  4>
|  5> %basis
|  6>         Basis "6-31G"
|  7> end
|  8>
|  9> %geom
| 10> Constraints
| 11> { D 4  0  15  12  165.0   C } # D for Dihedral angle
| 12> { D 0  15  12  16  150.0   C } # D for Dihedral angle
| 13> { D 0  4  3  2   C } # D for Dihedral angle
| 14> { D 4  3  2  1   C } # D for Dihedral angle
| 15> { D 3  2  1  0   C } # D for Dihedral angle
| 16> { D 2  1  0  4   C } # D for Dihedral angle
| 17> { D 1  0  4  3   C } # D for Dihedral angle
| 18> { D 16  20  19  18   C } # D for Dihedral angle
| 19> { D 20  19  18  17   C } # D for Dihedral angle
| 20> { D 19  18  17  16   C } # D for Dihedral angle
| 21> { D 18  17  16  20   C } # D for Dihedral angle
| 22> { D 17  16  20  19   C } # D for Dihedral angle
| 23> { D 15  12  16  20   C } # D for Dihedral angle
| 24> end
| 25> end
| 26>
| 27>
| 28> #%pal
| 29> #nprocs 8
| 30> #end
| 31>
| 32> * xyz 0 1
| 33> C  -21.048   26.222   46.251
| 34> C  -20.361   27.558   45.944
| 35> C  -20.329   28.222   47.341
| 36> C  -20.110   27.022   48.296
| 37> O  -20.473   25.807   47.535
| 38> H  -20.833   25.428   45.533
| 39> H  -19.344   27.382   45.576
| 40> H  -20.898   28.157   45.201
| 41> H  -19.543   28.978   47.434
| 42> H  -21.289   28.710   47.548
| 43> H  -20.733   27.082   49.195
| 44> H  -19.064   26.913   48.597
| 45> C  -23.260   27.170   45.210
| 46> H  -23.268   28.242   45.446
| 47> H  -22.697   27.029   44.278
| 48> O  -22.586   26.394   46.375
| 49> C  -24.723   26.715   44.953
| 50> C  -25.624   27.035   46.151
| 51> C  -25.894   28.545   45.947
| 52> C  -25.957   28.685   44.405
| 53> O  -25.310   27.479   43.846
| 54> H  -24.724   25.666   44.653
| 55> H  -26.556   26.463   46.083
| 56> O  -24.956   26.722   47.518
| 57> H  -26.815   28.881   46.434
| 58> H  -25.064   29.134   46.355
| 59> H  -25.431   29.574   44.043
| 60> H  -26.984   28.703   44.029
| 61> H  -24.020   27.284   47.607
| 62> *
| 63>
| 64>                          ****END OF INPUT****
 Total Charge           Charge          ....    0
 Multiplicity           Mult            ....    1
 Number of Electrons    NEL             ....  102
FINAL SINGLE POINT ENERGY      -652.826867466260
FINAL SINGLE POINT ENERGY      -652.850814442496
FINAL SINGLE POINT ENERGY      -652.857454462834
FINAL SINGLE POINT ENERGY      -652.860040390630
FINAL SINGLE POINT ENERGY      -652.861674339679
FINAL SINGLE POINT ENERGY      -652.862732564729
FINAL SINGLE POINT ENERGY      -652.863290200606
FINAL SINGLE POINT ENERGY      -652.863433910875
FINAL SINGLE POINT ENERGY      -652.863457468954
FINAL SINGLE POINT ENERGY      -652.863461696688
                    ***********************HURRAY********************

CARTESIAN COORDINATES (ANGSTROEM)
---------------------------------
  C    -21.119912   26.264840   46.206264
  C    -20.288509   27.513463   45.921609
  C    -20.334222   28.248830   47.284190
  C    -20.324728   27.088835   48.299378
  O    -20.727391   25.880496   47.525588
  H    -20.945016   25.414667   45.542044
  H    -19.265909   27.202810   45.679468
  H    -20.661393   28.120590   45.092757
  H    -19.487629   28.928361   47.418869
  H    -21.257371   28.831030   47.368185
  H    -21.030638   27.224078   49.121921
  H    -19.330162   26.879237   48.701980
  C    -23.175092   27.265370   45.134752
  H    -23.126692   28.345486   45.321019
  H    -22.657750   27.051361   44.191235
  O    -22.561533   26.538413   46.248177
  C    -24.623376   26.777551   45.022848
  C    -25.505530   27.076635   46.246363
  C    -25.871822   28.571253   46.014009
  C    -25.991932   28.668179   44.479661
  O    -25.285933   27.474405   43.922446
  H    -24.618172   25.713953   44.769572
  H    -26.413191   26.465794   46.174987
  O    -24.910197   26.838192   47.536082
  H    -26.794098   28.848429   46.531333
  H    -25.064544   29.197603   46.408799
  H    -25.534228   29.570836   44.063317
  H    -27.026991   28.605538   44.132138
  H    -23.960041   26.595764   47.425013

 Multiplicity           Mult            ....    1
 Number of Electrons    NEL             ....  102
 Basis Dimension        Dim             ....  149

ORBITAL ENERGIES
----------------

  NO   OCC          E(Eh)            E(eV)
   0   2.0000     -19.161582      -521.4132
   1   2.0000     -19.153288      -521.1875
   2   2.0000     -19.140555      -520.8410
   3   2.0000     -19.109010      -519.9826
   4   2.0000     -10.294667      -280.1321
   5   2.0000     -10.241700      -278.6908
   6   2.0000     -10.235295      -278.5165
   7   2.0000     -10.234184      -278.4863
   8   2.0000     -10.228424      -278.3296
   9   2.0000     -10.226422      -278.2751
  10   2.0000     -10.200569      -277.5716
  11   2.0000     -10.198601      -277.5180
  12   2.0000     -10.178412      -276.9687
  13   2.0000      -1.067538       -29.0492
  14   2.0000      -1.025729       -27.9115
  15   2.0000      -1.008069       -27.4309
  16   2.0000      -0.988580       -26.9006
  17   2.0000      -0.798994       -21.7417
  18   2.0000      -0.775259       -21.0959
  19   2.0000      -0.767718       -20.8907
  20   2.0000      -0.739171       -20.1139
  21   2.0000      -0.682442       -18.5702
  22   2.0000      -0.612862       -16.6768
  23   2.0000      -0.600320       -16.3355
  24   2.0000      -0.595665       -16.2089
  25   2.0000      -0.578013       -15.7285
  26   2.0000      -0.527738       -14.3605
  27   2.0000      -0.523964       -14.2578
  28   2.0000      -0.506466       -13.7816
  29   2.0000      -0.489046       -13.3076
  30   2.0000      -0.477247       -12.9866
  31   2.0000      -0.461771       -12.5654
  32   2.0000      -0.447786       -12.1849
  33   2.0000      -0.434956       -11.8358
  34   2.0000      -0.428896       -11.6709
  35   2.0000      -0.417133       -11.3508
  36   2.0000      -0.412043       -11.2123
  37   2.0000      -0.389002       -10.5853
  38   2.0000      -0.384677       -10.4676
  39   2.0000      -0.371567       -10.1108
  40   2.0000      -0.367672       -10.0049
  41   2.0000      -0.364800        -9.9267
  42   2.0000      -0.349635        -9.5141
  43   2.0000      -0.341826        -9.3016
  44   2.0000      -0.322584        -8.7780
  45   2.0000      -0.316690        -8.6176
  46   2.0000      -0.284330        -7.7370
  47   2.0000      -0.273990        -7.4556
  48   2.0000      -0.271934        -7.3997
  49   2.0000      -0.247374        -6.7314
  50   2.0000      -0.240330        -6.5397
  51   0.0000       0.056958         1.5499
  52   0.0000       0.071633         1.9492
  53   0.0000       0.089168         2.4264
  54   0.0000       0.095288         2.5929
  55   0.0000       0.104124         2.8334

MULLIKEN ATOMIC CHARGES
-----------------------
   0 C :    0.321689
   1 C :   -0.288586
   2 C :   -0.301509
   3 C :   -0.007691
   4 O :   -0.498976
   5 H :    0.155713
   6 H :    0.155932
   7 H :    0.150308
   8 H :    0.149299
   9 H :    0.159230
  10 H :    0.162449
  11 H :    0.149676
  12 C :   -0.022038
  13 H :    0.142460
  14 H :    0.152689
  15 O :   -0.560950
  16 C :    0.050123
  17 C :    0.125297
  18 C :   -0.301169
  19 C :   -0.016801
  20 O :   -0.522951
  21 H :    0.161497
  22 H :    0.145632
  23 O :   -0.645749
  24 H :    0.151356
  25 H :    0.144067
  26 H :    0.137363
  27 H :    0.148589
  28 H :    0.403049
Sum of atomic charges:   -0.0000000

LOEWDIN ATOMIC CHARGES
----------------------
   0 C :    0.187169
   1 C :   -0.232041
   2 C :   -0.216574
   3 C :   -0.025740
   4 O :   -0.299845
   5 H :    0.105601
   6 H :    0.121070
   7 H :    0.117521
   8 H :    0.118238
   9 H :    0.116304
  10 H :    0.113376
  11 H :    0.107008
  12 C :   -0.047483
  13 H :    0.097977
  14 H :    0.108004
  15 O :   -0.349473
  16 C :    0.017570
  17 C :    0.042997
  18 C :   -0.235430
  19 C :   -0.031682
  20 O :   -0.325707
  21 H :    0.116295
  22 H :    0.103756
  23 O :   -0.438026
  24 H :    0.121467
  25 H :    0.110191
  26 H :    0.099937
  27 H :    0.105855
  28 H :    0.291664

  Mayer bond orders larger than 0.100000
B(  0-C ,  1-C ) :   0.9332 B(  0-C ,  4-O ) :   0.9519 B(  0-C ,  5-H ) :   0.9233
B(  0-C , 15-O ) :   0.7882 B(  1-C ,  2-C ) :   0.9485 B(  1-C ,  6-H ) :   0.9331
B(  1-C ,  7-H ) :   0.9287 B(  2-C ,  3-C ) :   0.9544 B(  2-C ,  8-H ) :   0.9445
B(  2-C ,  9-H ) :   0.9446 B(  3-C ,  4-O ) :   0.8268 B(  3-C , 10-H ) :   0.9335
B(  3-C , 11-H ) :   0.9394 B( 12-C , 13-H ) :   0.9199 B( 12-C , 14-H ) :   0.9230
B( 12-C , 15-O ) :   0.7894 B( 12-C , 16-C ) :   0.8969 B( 16-C , 17-C ) :   0.9164
B( 16-C , 20-O ) :   0.8550 B( 16-C , 21-H ) :   0.9290 B( 17-C , 18-C ) :   0.9035
B( 17-C , 22-H ) :   0.9271 B( 17-C , 23-O ) :   0.9370 B( 18-C , 19-C ) :   0.9378
B( 18-C , 24-H ) :   0.9450 B( 18-C , 25-H ) :   0.9433 B( 19-C , 20-O ) :   0.8334
B( 19-C , 26-H ) :   0.9353 B( 19-C , 27-H ) :   0.9389 B( 23-O , 28-H ) :   0.7185

FINAL SINGLE POINT ENERGY      -652.863462530033

DIPOLE MOMENT
-------------
                                X             Y             Z
Electronic contribution:     -1.67956      -5.55541      -0.04926
Nuclear contribution   :      2.81485       6.73112      -0.48025
                        -----------------------------------------
Total Dipole Moment    :      1.13529       1.17571      -0.52951
                        -----------------------------------------
Magnitude (a.u.)       :      1.71801
Magnitude (Debye)      :      4.36682

Rotational constants in cm-1:     0.054294     0.013882     0.013067
Rotational constants in MHz :  1627.687966   416.165708   391.744589

                             ****ORCA TERMINATED NORMALLY****
TOTAL RUN TIME: 0 days 0 hours 51 minutes 25 seconds 781 msec
