                         Program Version 4.2.0 -  RELEASE  -
|  1> # Test redundant internal optimization
|  2> #
|  3> ! RKS B3LYP  Opt TightSCF SmallPrint
|  4>
|  5> %basis
|  6>         Basis "6-31G"
|  7> end
|  8>
|  9> %geom
| 10> Constraints
| 11> { D 4  0  15  12  15.0   C } # D for Dihedral angle
| 12> { D 0  15  12  16  75.0   C } # D for Dihedral angle
| 13> { D 0  4  3  2   C } # D for Dihedral angle
| 14> { D 4  3  2  1   C } # D for Dihedral angle
| 15> { D 3  2  1  0   C } # D for Dihedral angle
| 16> { D 2  1  0  4   C } # D for Dihedral angle
| 17> { D 1  0  4  3   C } # D for Dihedral angle
| 18> { D 16  20  19  18   C } # D for Dihedral angle
| 19> { D 20  19  18  17   C } # D for Dihedral angle
| 20> { D 19  18  17  16   C } # D for Dihedral angle
| 21> { D 18  17  16  20   C } # D for Dihedral angle
| 22> { D 17  16  20  19   C } # D for Dihedral angle
| 23> { D 15  12  16  20   C } # D for Dihedral angle
| 24> end
| 25> end
| 26>
| 27>
| 28> #%pal
| 29> #nprocs 8
| 30> #end
| 31>
| 32> * xyz 0 1
| 33> C  -21.048   26.222   46.251
| 34> C  -20.361   27.558   45.944
| 35> C  -20.329   28.222   47.341
| 36> C  -20.110   27.022   48.296
| 37> O  -20.473   25.807   47.535
| 38> H  -20.833   25.428   45.533
| 39> H  -19.344   27.382   45.576
| 40> H  -20.898   28.157   45.201
| 41> H  -19.543   28.978   47.434
| 42> H  -21.289   28.710   47.548
| 43> H  -20.733   27.082   49.195
| 44> H  -19.064   26.913   48.597
| 45> C  -23.128   26.462   47.829
| 46> H  -24.214   26.305   47.819
| 47> H  -22.673   25.676   48.446
| 48> O  -22.586   26.394   46.375
| 49> C  -22.839   27.827   48.514
| 50> C  -23.581   28.970   47.813
| 51> C  -25.011   28.812   48.382
| 52> C  -24.760   28.340   49.836
| 53> O  -23.371   27.836   49.881
| 54> H  -21.759   27.967   48.590
| 55> H  -23.151   29.934   48.108
| 56> O  -23.534   28.868   46.263
| 57> H  -25.590   29.739   48.338
| 58> H  -25.558   28.048   47.816
| 59> H  -25.442   27.539   50.141
| 60> H  -24.830   29.158   50.558
| 61> H  -23.959   27.910   45.945
| 62> *
| 63>
| 64>                          ****END OF INPUT****
 Total Charge           Charge          ....    0
 Multiplicity           Mult            ....    1
 Number of Electrons    NEL             ....  102
FINAL SINGLE POINT ENERGY      -652.784575038663
FINAL SINGLE POINT ENERGY      -652.830409463979
FINAL SINGLE POINT ENERGY      -652.851346686625
FINAL SINGLE POINT ENERGY      -652.856343721738
FINAL SINGLE POINT ENERGY      -652.857526162738
FINAL SINGLE POINT ENERGY      -652.858009642524
FINAL SINGLE POINT ENERGY      -652.858121146053
FINAL SINGLE POINT ENERGY      -652.858146994822
                    ***********************HURRAY********************

CARTESIAN COORDINATES (ANGSTROEM)
---------------------------------
  C    -21.115616   26.241987   46.407282
  C    -20.387077   27.467323   45.847634
  C    -19.987220   28.222657   47.142344
  C    -19.682778   27.075663   48.132979
  O    -20.333381   25.862281   47.552213
  H    -21.071121   25.389234   45.724855
  H    -19.505012   27.116303   45.302050
  H    -21.006700   28.070723   45.180430
  H    -19.115283   28.867281   46.993048
  H    -20.813802   28.857116   47.466639
  H    -20.072077   27.236626   49.141696
  H    -18.615122   26.848184   48.195998
  C    -23.197939   26.485662   47.948018
  H    -24.249162   26.278701   47.732549
  H    -22.815494   25.694459   48.601030
  O    -22.558503   26.387542   46.628312
  C    -23.044184   27.827330   48.673199
  C    -23.710508   29.012838   47.955612
  C    -25.204362   28.811123   48.335857
  C    -25.131693   28.251731   49.772504
  O    -23.737011   27.746375   49.960119
  H    -22.001497   28.018631   48.917804
  H    -23.344976   29.954883   48.374694
  O    -23.446050   29.077734   46.535117
  H    -25.767927   29.745783   48.274740
  H    -25.662566   28.100206   47.639544
  H    -25.830681   27.429417   49.953572
  H    -25.287814   29.022461   50.532698
  H    -23.315443   28.165746   46.182462

 Multiplicity           Mult            ....    1
 Number of Electrons    NEL             ....  102
 Basis Dimension        Dim             ....  149

ORBITAL ENERGIES
----------------

  NO   OCC          E(Eh)            E(eV)
   0   2.0000     -19.156643      -521.2787
   1   2.0000     -19.155115      -521.2372
   2   2.0000     -19.143847      -520.9306
   3   2.0000     -19.129014      -520.5269
   4   2.0000     -10.287077      -279.9256
   5   2.0000     -10.238052      -278.5916
   6   2.0000     -10.236446      -278.5479
   7   2.0000     -10.235713      -278.5279
   8   2.0000     -10.234794      -278.5029
   9   2.0000     -10.230998      -278.3996
  10   2.0000     -10.192876      -277.3623
  11   2.0000     -10.191687      -277.3299
  12   2.0000     -10.185884      -277.1720
  13   2.0000      -1.059342       -28.8262
  14   2.0000      -1.029180       -28.0054
  15   2.0000      -1.007495       -27.4153
  16   2.0000      -0.998467       -27.1697
  17   2.0000      -0.794088       -21.6082
  18   2.0000      -0.778973       -21.1969
  19   2.0000      -0.772531       -21.0216
  20   2.0000      -0.737793       -20.0764
  21   2.0000      -0.683657       -18.6033
  22   2.0000      -0.609408       -16.5828
  23   2.0000      -0.605838       -16.4857
  24   2.0000      -0.601008       -16.3543
  25   2.0000      -0.575566       -15.6619
  26   2.0000      -0.531808       -14.4712
  27   2.0000      -0.510494       -13.8913
  28   2.0000      -0.504671       -13.7328
  29   2.0000      -0.489391       -13.3170
  30   2.0000      -0.476405       -12.9636
  31   2.0000      -0.460129       -12.5207
  32   2.0000      -0.452202       -12.3050
  33   2.0000      -0.429146       -11.6777
  34   2.0000      -0.426439       -11.6040
  35   2.0000      -0.414479       -11.2786
  36   2.0000      -0.414047       -11.2668
  37   2.0000      -0.396582       -10.7916
  38   2.0000      -0.381144       -10.3715
  39   2.0000      -0.373506       -10.1636
  40   2.0000      -0.364479        -9.9180
  41   2.0000      -0.353693        -9.6245
  42   2.0000      -0.352274        -9.5859
  43   2.0000      -0.345042        -9.3891
  44   2.0000      -0.331449        -9.0192
  45   2.0000      -0.319015        -8.6808
  46   2.0000      -0.298994        -8.1360
  47   2.0000      -0.274891        -7.4802
  48   2.0000      -0.268650        -7.3103
  49   2.0000      -0.258441        -7.0325
  50   2.0000      -0.239459        -6.5160
  51   0.0000       0.056979         1.5505
  52   0.0000       0.073775         2.0075
  53   0.0000       0.084800         2.3075
  54   0.0000       0.090030         2.4499
  55   0.0000       0.101410         2.7595

MULLIKEN ATOMIC CHARGES
-----------------------
   0 C :    0.315168
   1 C :   -0.277519
   2 C :   -0.325081
   3 C :   -0.028375
   4 O :   -0.510137
   5 H :    0.166738
   6 H :    0.154195
   7 H :    0.166113
   8 H :    0.150069
   9 H :    0.173742
  10 H :    0.159932
  11 H :    0.154925
  12 C :   -0.039499
  13 H :    0.159764
  14 H :    0.178956
  15 O :   -0.561371
  16 C :    0.043694
  17 C :    0.116693
  18 C :   -0.311094
  19 C :   -0.023871
  20 O :   -0.519865
  21 H :    0.155054
  22 H :    0.148255
  23 O :   -0.636753
  24 H :    0.154390
  25 H :    0.149621
  26 H :    0.146635
  27 H :    0.152017
  28 H :    0.387606
Sum of atomic charges:   -0.0000000

LOEWDIN ATOMIC CHARGES
----------------------
   0 C :    0.182186
   1 C :   -0.224191
   2 C :   -0.226363
   3 C :   -0.036140
   4 O :   -0.314062
   5 H :    0.109337
   6 H :    0.120221
   7 H :    0.127899
   8 H :    0.119396
   9 H :    0.119505
  10 H :    0.106840
  11 H :    0.109484
  12 C :   -0.049014
  13 H :    0.115139
  14 H :    0.122470
  15 O :   -0.347658
  16 C :   -0.000484
  17 C :    0.038665
  18 C :   -0.239453
  19 C :   -0.032989
  20 O :   -0.321744
  21 H :    0.112044
  22 H :    0.107680
  23 O :   -0.429591
  24 H :    0.122594
  25 H :    0.113074
  26 H :    0.104082
  27 H :    0.107300
  28 H :    0.283773

  Mayer bond orders larger than 0.100000
B(  0-C ,  1-C ) :   0.9243 B(  0-C ,  4-O ) :   0.9245 B(  0-C ,  5-H ) :   0.9338
B(  0-C , 15-O ) :   0.8190 B(  1-C ,  2-C ) :   0.9524 B(  1-C ,  6-H ) :   0.9337
B(  1-C ,  7-H ) :   0.9311 B(  2-C ,  3-C ) :   0.9501 B(  2-C ,  8-H ) :   0.9436
B(  2-C ,  9-H ) :   0.9239 B(  3-C ,  4-O ) :   0.8259 B(  3-C , 10-H ) :   0.9228
B(  3-C , 11-H ) :   0.9370 B( 12-C , 13-H ) :   0.9368 B( 12-C , 14-H ) :   0.9225
B( 12-C , 15-O ) :   0.8016 B( 12-C , 16-C ) :   0.8832 B( 16-C , 17-C ) :   0.9037
B( 16-C , 20-O ) :   0.8433 B( 16-C , 21-H ) :   0.9159 B( 17-C , 18-C ) :   0.9064
B( 17-C , 22-H ) :   0.9355 B( 17-C , 23-O ) :   0.9147 B( 18-C , 19-C ) :   0.9412
B( 18-C , 24-H ) :   0.9433 B( 18-C , 25-H ) :   0.9419 B( 19-C , 20-O ) :   0.8341
B( 19-C , 26-H ) :   0.9331 B( 19-C , 27-H ) :   0.9378 B( 23-O , 28-H ) :   0.7264

FINAL SINGLE POINT ENERGY      -652.858148634430

DIPOLE MOMENT
-------------
                                X             Y             Z
Electronic contribution:     -0.23981      -3.12295      -0.13696
Nuclear contribution   :      0.40402       3.46118       0.14629
                        -----------------------------------------
Total Dipole Moment    :      0.16421       0.33823       0.00933
                        -----------------------------------------
Magnitude (a.u.)       :      0.37610
Magnitude (Debye)      :      0.95597

Rotational constants in cm-1:     0.048756     0.017420     0.016242
Rotational constants in MHz :  1461.667135   522.224163   486.936487

                             ****ORCA TERMINATED NORMALLY****
TOTAL RUN TIME: 0 days 0 hours 29 minutes 3 seconds 223 msec
