                         Program Version 4.2.0 -  RELEASE  -
|  1> # Test redundant internal optimization
|  2> #
|  3> ! RKS B3LYP  Opt TightSCF SmallPrint
|  4>
|  5> %basis
|  6>         Basis "6-31G"
|  7> end
|  8>
|  9> %geom
| 10> Constraints
| 11> { D 4  0  15  12  285.0   C } # D for Dihedral angle
| 12> { D 0  15  12  16  105.0   C } # D for Dihedral angle
| 13> { D 0  4  3  2   C } # D for Dihedral angle
| 14> { D 4  3  2  1   C } # D for Dihedral angle
| 15> { D 3  2  1  0   C } # D for Dihedral angle
| 16> { D 2  1  0  4   C } # D for Dihedral angle
| 17> { D 1  0  4  3   C } # D for Dihedral angle
| 18> { D 16  20  19  18   C } # D for Dihedral angle
| 19> { D 20  19  18  17   C } # D for Dihedral angle
| 20> { D 19  18  17  16   C } # D for Dihedral angle
| 21> { D 18  17  16  20   C } # D for Dihedral angle
| 22> { D 17  16  20  19   C } # D for Dihedral angle
| 23> { D 15  12  16  20   C } # D for Dihedral angle
| 24> end
| 25> end
| 26>
| 27>
| 28> #%pal
| 29> #nprocs 8
| 30> #end
| 31>
| 32> * xyz 0 1
| 33> C  -21.048   26.222   46.251
| 34> C  -20.361   27.558   45.944
| 35> C  -20.329   28.222   47.341
| 36> C  -20.110   27.022   48.296
| 37> O  -20.473   25.807   47.535
| 38> H  -20.833   25.428   45.533
| 39> H  -19.344   27.382   45.576
| 40> H  -20.898   28.157   45.201
| 41> H  -19.543   28.978   47.434
| 42> H  -21.289   28.710   47.548
| 43> H  -20.733   27.082   49.195
| 44> H  -19.064   26.913   48.597
| 45> C  -23.396   25.070   46.435
| 46> H  -24.260   25.144   45.764
| 47> H  -22.777   24.226   46.106
| 48> O  -22.586   26.394   46.375
| 49> C  -23.913   24.747   47.864
| 50> C  -24.606   23.381   47.910
| 51> C  -23.397   22.417   47.963
| 52> C  -22.363   23.198   48.812
| 53> O  -22.790   24.613   48.798
| 54> H  -24.527   25.577   48.219
| 55> H  -25.210   23.294   48.820
| 56> O  -25.528   23.123   46.686
| 57> H  -23.647   21.445   48.400
| 58> H  -23.012   22.240   46.952
| 59> H  -21.347   23.126   48.406
| 60> H  -22.351   22.875   49.857
| 61> H  -24.945   23.203   45.762
| 62> *
| 63>
| 64>                          ****END OF INPUT****
 Total Charge           Charge          ....    0
 Multiplicity           Mult            ....    1
 Number of Electrons    NEL             ....  102
FINAL SINGLE POINT ENERGY      -652.829830616296
FINAL SINGLE POINT ENERGY      -652.853995903314
FINAL SINGLE POINT ENERGY      -652.859277658962
FINAL SINGLE POINT ENERGY      -652.860122560646
FINAL SINGLE POINT ENERGY      -652.860256591773
FINAL SINGLE POINT ENERGY      -652.860289325236
FINAL SINGLE POINT ENERGY      -652.860293293953
                    ***********************HURRAY********************

CARTESIAN COORDINATES (ANGSTROEM)
---------------------------------
  C    -21.018234   26.179274   46.211749
  C    -20.483228   27.589827   45.970814
  C    -20.461046   28.173228   47.403633
  C    -20.085541   26.947873   48.267944
  O    -20.364958   25.759931   47.424019
  H    -20.778662   25.425565   45.454026
  H    -19.469294   27.528008   45.558001
  H    -21.114179   28.155793   45.282894
  H    -19.746927   28.995299   47.511954
  H    -21.457855   28.538223   47.665800
  H    -20.681354   26.862245   49.178468
  H    -19.020310   26.911581   48.516349
  C    -23.250758   25.109887   46.371326
  H    -24.114006   25.277985   45.718242
  H    -22.661507   24.270458   45.971847
  O    -22.456068   26.325417   46.328961
  C    -23.765046   24.803086   47.784869
  C    -24.562945   23.490549   47.846804
  C    -23.429948   22.429034   47.997669
  C    -22.390483   23.172995   48.867446
  O    -22.714131   24.616732   48.772038
  H    -24.349108   25.662566   48.126481
  H    -25.199383   23.493354   48.734615
  O    -25.478272   23.262013   46.745544
  H    -23.789164   21.504224   48.455709
  H    -23.021650   22.180994   47.008692
  H    -21.360579   23.028345   48.529604
  H    -22.463051   22.897110   49.924004
  H    -24.992313   22.962404   45.950499

 Multiplicity           Mult            ....    1
 Number of Electrons    NEL             ....  102
 Basis Dimension        Dim             ....  149

ORBITAL ENERGIES
----------------

  NO   OCC          E(Eh)            E(eV)
   0   2.0000     -19.147927      -521.0416
   1   2.0000     -19.138478      -520.7845
   2   2.0000     -19.131576      -520.5966
   3   2.0000     -19.129670      -520.5448
   4   2.0000     -10.272801      -279.5371
   5   2.0000     -10.241942      -278.6974
   6   2.0000     -10.227413      -278.3021
   7   2.0000     -10.225328      -278.2453
   8   2.0000     -10.224132      -278.2128
   9   2.0000     -10.213586      -277.9258
  10   2.0000     -10.192841      -277.3613
  11   2.0000     -10.177367      -276.9402
  12   2.0000     -10.176309      -276.9114
  13   2.0000      -1.046049       -28.4644
  14   2.0000      -1.030152       -28.0319
  15   2.0000      -1.011611       -27.5273
  16   2.0000      -0.987833       -26.8803
  17   2.0000      -0.782216       -21.2852
  18   2.0000      -0.777252       -21.1501
  19   2.0000      -0.760337       -20.6898
  20   2.0000      -0.724360       -19.7108
  21   2.0000      -0.674533       -18.3550
  22   2.0000      -0.608351       -16.5541
  23   2.0000      -0.589800       -16.0493
  24   2.0000      -0.585785       -15.9400
  25   2.0000      -0.573966       -15.6184
  26   2.0000      -0.524278       -14.2663
  27   2.0000      -0.508993       -13.8504
  28   2.0000      -0.491679       -13.3793
  29   2.0000      -0.480634       -13.0787
  30   2.0000      -0.463342       -12.6082
  31   2.0000      -0.452181       -12.3045
  32   2.0000      -0.442678       -12.0459
  33   2.0000      -0.427172       -11.6239
  34   2.0000      -0.418431       -11.3861
  35   2.0000      -0.417131       -11.3507
  36   2.0000      -0.400783       -10.9058
  37   2.0000      -0.392049       -10.6682
  38   2.0000      -0.377778       -10.2799
  39   2.0000      -0.365579        -9.9479
  40   2.0000      -0.347638        -9.4597
  41   2.0000      -0.345835        -9.4106
  42   2.0000      -0.338389        -9.2080
  43   2.0000      -0.327773        -8.9192
  44   2.0000      -0.318620        -8.6701
  45   2.0000      -0.311493        -8.4761
  46   2.0000      -0.292590        -7.9618
  47   2.0000      -0.269085        -7.3222
  48   2.0000      -0.264547        -7.1987
  49   2.0000      -0.250081        -6.8051
  50   2.0000      -0.225829        -6.1451
  51   0.0000       0.052958         1.4411
  52   0.0000       0.078643         2.1400
  53   0.0000       0.092334         2.5125
  54   0.0000       0.102630         2.7927
  55   0.0000       0.109899         2.9905

MULLIKEN ATOMIC CHARGES
-----------------------
   0 C :    0.290810
   1 C :   -0.262874
   2 C :   -0.298177
   3 C :   -0.001022
   4 O :   -0.501366
   5 H :    0.133989
   6 H :    0.140011
   7 H :    0.153997
   8 H :    0.136237
   9 H :    0.163355
  10 H :    0.163528
  11 H :    0.134637
  12 C :   -0.021835
  13 H :    0.151430
  14 H :    0.112480
  15 O :   -0.515691
  16 C :    0.108649
  17 C :    0.081243
  18 C :   -0.324320
  19 C :   -0.007779
  20 O :   -0.502226
  21 H :    0.157254
  22 H :    0.165971
  23 O :   -0.602083
  24 H :    0.154691
  25 H :    0.130664
  26 H :    0.158291
  27 H :    0.144949
  28 H :    0.355185
Sum of atomic charges:    0.0000000

LOEWDIN ATOMIC CHARGES
----------------------
   0 C :    0.173447
   1 C :   -0.216370
   2 C :   -0.215693
   3 C :   -0.026745
   4 O :   -0.319237
   5 H :    0.091898
   6 H :    0.110999
   7 H :    0.122142
   8 H :    0.110947
   9 H :    0.119747
  10 H :    0.114253
  11 H :    0.098854
  12 C :   -0.051157
  13 H :    0.112212
  14 H :    0.087723
  15 O :   -0.322145
  16 C :    0.015878
  17 C :    0.032940
  18 C :   -0.241553
  19 C :   -0.028821
  20 O :   -0.309698
  21 H :    0.116331
  22 H :    0.118319
  23 O :   -0.409790
  24 H :    0.121572
  25 H :    0.102381
  26 H :    0.110521
  27 H :    0.103713
  28 H :    0.277332

  Mayer bond orders larger than 0.100000
B(  0-C ,  1-C ) :   0.9493 B(  0-C ,  4-O ) :   0.9243 B(  0-C ,  5-H ) :   0.9202
B(  0-C , 15-O ) :   0.8562 B(  1-C ,  2-C ) :   0.9592 B(  1-C ,  6-H ) :   0.9412
B(  1-C ,  7-H ) :   0.9368 B(  2-C ,  3-C ) :   0.9561 B(  2-C ,  8-H ) :   0.9455
B(  2-C ,  9-H ) :   0.9439 B(  3-C ,  4-O ) :   0.8320 B(  3-C , 10-H ) :   0.9298
B(  3-C , 11-H ) :   0.9408 B( 12-C , 13-H ) :   0.9191 B( 12-C , 14-H ) :   0.9217
B( 12-C , 15-O ) :   0.8565 B( 12-C , 16-C ) :   0.8881 B( 16-C , 17-C ) :   0.8684
B( 16-C , 20-O ) :   0.8788 B( 16-C , 21-H ) :   0.9325 B( 17-C , 18-C ) :   0.9255
B( 17-C , 22-H ) :   0.9333 B( 17-C , 23-O ) :   0.8936 B( 18-C , 19-C ) :   0.9392
B( 18-C , 24-H ) :   0.9422 B( 18-C , 25-H ) :   0.9399 B( 19-C , 20-O ) :   0.8445
B( 19-C , 26-H ) :   0.9266 B( 19-C , 27-H ) :   0.9382 B( 23-O , 28-H ) :   0.7988

FINAL SINGLE POINT ENERGY      -652.860293368814

DIPOLE MOMENT
-------------
                                X             Y             Z
Electronic contribution:     -2.76471      -0.86961      -0.02205
Nuclear contribution   :      3.30420       0.42838      -0.39741
                        -----------------------------------------
Total Dipole Moment    :      0.53949      -0.44123      -0.41946
                        -----------------------------------------
Magnitude (a.u.)       :      0.81344
Magnitude (Debye)      :      2.06760

Rotational constants in cm-1:     0.055446     0.015415     0.013482
Rotational constants in MHz :  1662.221327   462.140981   404.173666

                             ****ORCA TERMINATED NORMALLY****
TOTAL RUN TIME: 0 days 0 hours 23 minutes 50 seconds 901 msec
