                         Program Version 4.2.0 -  RELEASE  -
|  1> # Test redundant internal optimization
|  2> #
|  3> ! RKS B3LYP  Opt TightSCF SmallPrint
|  4>
|  5> %basis
|  6>         Basis "6-31G"
|  7> end
|  8>
|  9> %geom
| 10> Constraints
| 11> { D 4  0  15  12  195.0   C } # D for Dihedral angle
| 12> { D 0  15  12  16  45.0   C } # D for Dihedral angle
| 13> { D 0  4  3  2   C } # D for Dihedral angle
| 14> { D 4  3  2  1   C } # D for Dihedral angle
| 15> { D 3  2  1  0   C } # D for Dihedral angle
| 16> { D 2  1  0  4   C } # D for Dihedral angle
| 17> { D 1  0  4  3   C } # D for Dihedral angle
| 18> { D 16  20  19  18   C } # D for Dihedral angle
| 19> { D 20  19  18  17   C } # D for Dihedral angle
| 20> { D 19  18  17  16   C } # D for Dihedral angle
| 21> { D 18  17  16  20   C } # D for Dihedral angle
| 22> { D 17  16  20  19   C } # D for Dihedral angle
| 23> { D 15  12  16  20   C } # D for Dihedral angle
| 24> end
| 25> end
| 26>
| 27>
| 28> #%pal
| 29> #nprocs 8
| 30> #end
| 31>
| 32> * xyz 0 1
| 33> C  -21.048   26.222   46.251
| 34> C  -20.361   27.558   45.944
| 35> C  -20.329   28.222   47.341
| 36> C  -20.110   27.022   48.296
| 37> O  -20.473   25.807   47.535
| 38> H  -20.833   25.428   45.533
| 39> H  -19.344   27.382   45.576
| 40> H  -20.898   28.157   45.201
| 41> H  -19.543   28.978   47.434
| 42> H  -21.289   28.710   47.548
| 43> H  -20.733   27.082   49.195
| 44> H  -19.064   26.913   48.597
| 45> C  -23.353   26.472   45.026
| 46> H  -24.425   26.332   45.211
| 47> H  -23.211   27.456   44.560
| 48> O  -22.586   26.394   46.375
| 49> C  -22.887   25.395   44.008
| 50> C  -23.580   25.574   42.653
| 51> C  -22.764   26.734   42.034
| 52> C  -21.328   26.469   42.552
| 53> O  -21.461   25.556   43.707
| 54> H  -23.011   24.405   44.452
| 55> H  -23.475   24.664   42.052
| 56> O  -25.093   25.904   42.780
| 57> H  -22.816   26.754   40.940
| 58> H  -23.137   27.697   42.404
| 59> H  -20.823   27.386   42.875
| 60> H  -20.704   25.963   41.810
| 61> H  -25.224   26.813   43.377
| 62> *
| 63>
| 64>                          ****END OF INPUT****
 Total Charge           Charge          ....    0
 Multiplicity           Mult            ....    1
 Number of Electrons    NEL             ....  102
FINAL SINGLE POINT ENERGY      -652.822605611415
FINAL SINGLE POINT ENERGY      -652.845755199687
FINAL SINGLE POINT ENERGY      -652.851973585495
FINAL SINGLE POINT ENERGY      -652.854126030639
FINAL SINGLE POINT ENERGY      -652.854393362479
FINAL SINGLE POINT ENERGY      -652.854463671318
FINAL SINGLE POINT ENERGY      -652.854471986408
FINAL SINGLE POINT ENERGY      -652.854473936818
                    ***********************HURRAY********************

CARTESIAN COORDINATES (ANGSTROEM)
---------------------------------
  C    -20.910657   26.225466   46.257867
  C    -20.218000   27.570283   46.047289
  C    -20.383537   28.237730   47.434156
  C    -20.270352   27.042729   48.404690
  O    -20.511185   25.831476   47.579058
  H    -20.626684   25.435884   45.567848
  H    -19.160128   27.400177   45.814557
  H    -20.657985   28.155942   45.234514
  H    -19.627728   29.005420   47.626339
  H    -21.373115   28.698428   47.506196
  H    -21.008522   27.070657   49.210544
  H    -19.268958   26.936250   48.833239
  C    -23.147985   26.466665   45.078335
  H    -24.180396   26.306938   45.403068
  H    -23.072578   27.488722   44.664565
  O    -22.367095   26.388046   46.296742
  C    -22.822836   25.451584   43.978660
  C    -23.675154   25.623871   42.707680
  C    -22.886711   26.731545   41.942165
  C    -21.416417   26.407371   42.290703
  O    -21.445027   25.533004   43.494177
  H    -22.924364   24.444629   44.396620
  H    -23.668997   24.690628   42.141010
  O    -25.075478   25.907294   42.927938
  H    -23.082793   26.709528   40.867137
  H    -23.180305   27.718568   42.322065
  H    -20.822372   27.299209   42.512914
  H    -20.917541   25.839935   41.499625
  H    -25.200100   26.831024   43.227300

 Multiplicity           Mult            ....    1
 Number of Electrons    NEL             ....  102
 Basis Dimension        Dim             ....  149

ORBITAL ENERGIES
----------------

  NO   OCC          E(Eh)            E(eV)
   0   2.0000     -19.156622      -521.2782
   1   2.0000     -19.152003      -521.1525
   2   2.0000     -19.131100      -520.5837
   3   2.0000     -19.128967      -520.5257
   4   2.0000     -10.262933      -279.2686
   5   2.0000     -10.253289      -279.0062
   6   2.0000     -10.241619      -278.6886
   7   2.0000     -10.237981      -278.5896
   8   2.0000     -10.233213      -278.4599
   9   2.0000     -10.216062      -277.9932
  10   2.0000     -10.203849      -277.6609
  11   2.0000     -10.178832      -276.9801
  12   2.0000     -10.177797      -276.9519
  13   2.0000      -1.046048       -28.4644
  14   2.0000      -1.038169       -28.2500
  15   2.0000      -1.025460       -27.9042
  16   2.0000      -0.982736       -26.7416
  17   2.0000      -0.791534       -21.5387
  18   2.0000      -0.778311       -21.1789
  19   2.0000      -0.769799       -20.9473
  20   2.0000      -0.728079       -19.8120
  21   2.0000      -0.682750       -18.5786
  22   2.0000      -0.621218       -16.9042
  23   2.0000      -0.601019       -16.3546
  24   2.0000      -0.589669       -16.0457
  25   2.0000      -0.563517       -15.3341
  26   2.0000      -0.537148       -14.6165
  27   2.0000      -0.512943       -13.9579
  28   2.0000      -0.496074       -13.4988
  29   2.0000      -0.480417       -13.0728
  30   2.0000      -0.473167       -12.8755
  31   2.0000      -0.456910       -12.4331
  32   2.0000      -0.443964       -12.0809
  33   2.0000      -0.439390       -11.9564
  34   2.0000      -0.430784       -11.7222
  35   2.0000      -0.424338       -11.5468
  36   2.0000      -0.404562       -11.0087
  37   2.0000      -0.397374       -10.8131
  38   2.0000      -0.388743       -10.5782
  39   2.0000      -0.368845       -10.0368
  40   2.0000      -0.358990        -9.7686
  41   2.0000      -0.349358        -9.5065
  42   2.0000      -0.346219        -9.4211
  43   2.0000      -0.335465        -9.1285
  44   2.0000      -0.326201        -8.8764
  45   2.0000      -0.303370        -8.2551
  46   2.0000      -0.299267        -8.1435
  47   2.0000      -0.279908        -7.6167
  48   2.0000      -0.259667        -7.0659
  49   2.0000      -0.249628        -6.7927
  50   2.0000      -0.234419        -6.3789
  51   0.0000       0.045095         1.2271
  52   0.0000       0.060024         1.6333
  53   0.0000       0.084406         2.2968
  54   0.0000       0.094084         2.5602
  55   0.0000       0.101824         2.7708

MULLIKEN ATOMIC CHARGES
-----------------------
   0 C :    0.287988
   1 C :   -0.266473
   2 C :   -0.298347
   3 C :    0.000453
   4 O :   -0.503898
   5 H :    0.186356
   6 H :    0.144297
   7 H :    0.130857
   8 H :    0.136460
   9 H :    0.155214
  10 H :    0.150410
  11 H :    0.137806
  12 C :   -0.004463
  13 H :    0.161635
  14 H :    0.103251
  15 O :   -0.523289
  16 C :    0.072042
  17 C :    0.087030
  18 C :   -0.318052
  19 C :   -0.020454
  20 O :   -0.522722
  21 H :    0.167690
  22 H :    0.171607
  23 O :   -0.597233
  24 H :    0.163097
  25 H :    0.132675
  26 H :    0.149049
  27 H :    0.157701
  28 H :    0.359312
Sum of atomic charges:   -0.0000000

LOEWDIN ATOMIC CHARGES
----------------------
   0 C :    0.176547
   1 C :   -0.226499
   2 C :   -0.218386
   3 C :   -0.026090
   4 O :   -0.305333
   5 H :    0.118246
   6 H :    0.114060
   7 H :    0.107740
   8 H :    0.111238
   9 H :    0.115517
  10 H :    0.107115
  11 H :    0.100185
  12 C :   -0.048216
  13 H :    0.121175
  14 H :    0.076338
  15 O :   -0.333972
  16 C :    0.005890
  17 C :    0.038889
  18 C :   -0.240284
  19 C :   -0.031931
  20 O :   -0.323365
  21 H :    0.119699
  22 H :    0.121340
  23 O :   -0.403612
  24 H :    0.125239
  25 H :    0.104424
  26 H :    0.103945
  27 H :    0.109778
  28 H :    0.280324

  Mayer bond orders larger than 0.100000
B(  0-C ,  1-C ) :   0.9333 B(  0-C ,  4-O ) :   0.9204 B(  0-C ,  5-H ) :   0.9027
B(  0-C , 15-O ) :   0.8128 B(  1-C ,  2-C ) :   0.9508 B(  1-C ,  6-H ) :   0.9363
B(  1-C ,  7-H ) :   0.9384 B(  2-C ,  3-C ) :   0.9556 B(  2-C ,  8-H ) :   0.9457
B(  2-C ,  9-H ) :   0.9453 B(  3-C ,  4-O ) :   0.8418 B(  3-C , 10-H ) :   0.9349
B(  3-C , 11-H ) :   0.9402 B( 12-C , 13-H ) :   0.9188 B( 12-C , 14-H ) :   0.9159
B( 12-C , 15-O ) :   0.8751 B( 12-C , 16-C ) :   0.8937 B( 16-C , 17-C ) :   0.8708
B( 16-C , 20-O ) :   0.8398 B( 16-C , 21-H ) :   0.9271 B( 17-C , 18-C ) :   0.9220
B( 17-C , 22-H ) :   0.9325 B( 17-C , 23-O ) :   0.9054 B( 18-C , 19-C ) :   0.9410
B( 18-C , 24-H ) :   0.9407 B( 18-C , 25-H ) :   0.9399 B( 19-C , 20-O ) :   0.8366
B( 19-C , 26-H ) :   0.9296 B( 19-C , 27-H ) :   0.9369 B( 23-O , 28-H ) :   0.7966

FINAL SINGLE POINT ENERGY      -652.854473904717

DIPOLE MOMENT
-------------
                                X             Y             Z
Electronic contribution:     -2.19369      -5.43223       1.11143
Nuclear contribution   :      2.35715       6.92623      -2.27197
                        -----------------------------------------
Total Dipole Moment    :      0.16346       1.49400      -1.16053
                        -----------------------------------------
Magnitude (a.u.)       :      1.89884
Magnitude (Debye)      :      4.82646

Rotational constants in cm-1:     0.058291     0.013670     0.012666
Rotational constants in MHz :  1747.515891   409.808058   379.729657

                             ****ORCA TERMINATED NORMALLY****
TOTAL RUN TIME: 0 days 0 hours 23 minutes 51 seconds 335 msec
