                         Program Version 4.2.0 -  RELEASE  -
|  1> # Test redundant internal optimization
|  2> #
|  3> ! RKS B3LYP  Opt TightSCF SmallPrint
|  4>
|  5> %basis
|  6>         Basis "6-31G"
|  7> end
|  8>
|  9> %geom
| 10> Constraints
| 11> { D 4  0  15  12  45.0   C } # D for Dihedral angle
| 12> { D 0  15  12  16  255.0   C } # D for Dihedral angle
| 13> { D 0  4  3  2   C } # D for Dihedral angle
| 14> { D 4  3  2  1   C } # D for Dihedral angle
| 15> { D 3  2  1  0   C } # D for Dihedral angle
| 16> { D 2  1  0  4   C } # D for Dihedral angle
| 17> { D 1  0  4  3   C } # D for Dihedral angle
| 18> { D 16  20  19  18   C } # D for Dihedral angle
| 19> { D 20  19  18  17   C } # D for Dihedral angle
| 20> { D 19  18  17  16   C } # D for Dihedral angle
| 21> { D 18  17  16  20   C } # D for Dihedral angle
| 22> { D 17  16  20  19   C } # D for Dihedral angle
| 23> { D 15  12  16  20   C } # D for Dihedral angle
| 24> end
| 25> end
| 26>
| 27>
| 28> #%pal
| 29> #nprocs 8
| 30> #end
| 31>
| 32> * xyz 0 1
| 33> C  -21.048   26.222   46.251
| 34> C  -20.361   27.558   45.944
| 35> C  -20.329   28.222   47.341
| 36> C  -20.110   27.022   48.296
| 37> O  -20.473   25.807   47.535
| 38> H  -20.833   25.428   45.533
| 39> H  -19.344   27.382   45.576
| 40> H  -20.898   28.157   45.201
| 41> H  -19.543   28.978   47.434
| 42> H  -21.289   28.710   47.548
| 43> H  -20.733   27.082   49.195
| 44> H  -19.064   26.913   48.597
| 45> C  -23.065   27.161   47.638
| 46> H  -22.213   27.688   48.086
| 47> H  -23.826   27.906   47.369
| 48> O  -22.586   26.394   46.375
| 49> C  -23.680   26.224   48.713
| 50> C  -24.246   27.024   49.892
| 51> C  -25.599   27.510   49.320
| 52> C  -26.048   26.326   48.427
| 53> O  -24.842   25.512   48.169
| 54> H  -22.943   25.468   48.992
| 55> H  -24.404   26.365   50.753
| 56> O  -23.324   28.194   50.333
| 57> H  -26.330   27.745   50.101
| 58> H  -25.450   28.414   48.717
| 59> H  -26.468   26.659   47.471
| 60> H  -26.774   25.679   48.927
| 61> H  -23.151   28.868   49.487
| 62> *
| 63>
| 64>                          ****END OF INPUT****
 Total Charge           Charge          ....    0
 Multiplicity           Mult            ....    1
 Number of Electrons    NEL             ....  102
FINAL SINGLE POINT ENERGY      -652.807182086552
FINAL SINGLE POINT ENERGY      -652.834127260806
FINAL SINGLE POINT ENERGY      -652.847518661676
FINAL SINGLE POINT ENERGY      -652.850013181459
FINAL SINGLE POINT ENERGY      -652.850560598884
FINAL SINGLE POINT ENERGY      -652.850716692057
FINAL SINGLE POINT ENERGY      -652.850732806492
FINAL SINGLE POINT ENERGY      -652.850725083913
                    ***********************HURRAY********************

CARTESIAN COORDINATES (ANGSTROEM)
---------------------------------
  C    -21.151420   26.312950   46.397732
  C    -20.308018   27.492262   45.890647
  C    -19.961685   28.234814   47.214331
  C    -19.803903   27.069947   48.225152
  O    -20.474467   25.895777   47.608279
  H    -21.122333   25.456917   45.721446
  H    -19.401888   27.099048   45.417931
  H    -20.847458   28.110553   45.169144
  H    -19.042269   28.823553   47.132711
  H    -20.764142   28.921224   47.498186
  H    -20.265782   27.271309   49.196663
  H    -18.756915   26.792643   48.377336
  C    -23.101794   27.273999   47.677928
  H    -22.336982   27.851385   48.201243
  H    -23.841480   27.967147   47.258222
  O    -22.569877   26.533163   46.543493
  C    -23.748381   26.312655   48.677557
  C    -24.377804   27.013341   49.893093
  C    -25.772948   27.426428   49.336980
  C    -26.121694   26.254949   48.392042
  O    -24.849990   25.547708   48.102596
  H    -22.991660   25.577851   48.965033
  H    -24.485708   26.298553   50.711878
  O    -23.593328   28.100992   50.451750
  H    -26.511720   27.572195   50.129609
  H    -25.679175   28.370914   48.783161
  H    -26.570299   26.586807   47.450639
  H    -26.791744   25.529313   48.863825
  H    -23.729138   28.919601   49.932393

 Multiplicity           Mult            ....    1
 Number of Electrons    NEL             ....  102
 Basis Dimension        Dim             ....  149

ORBITAL ENERGIES
----------------

  NO   OCC          E(Eh)            E(eV)
   0   2.0000     -19.151523      -521.1394
   1   2.0000     -19.143154      -520.9117
   2   2.0000     -19.136803      -520.7389
   3   2.0000     -19.132146      -520.6122
   4   2.0000     -10.274828      -279.5923
   5   2.0000     -10.243602      -278.7426
   6   2.0000     -10.229318      -278.3539
   7   2.0000     -10.228179      -278.3229
   8   2.0000     -10.227498      -278.3044
   9   2.0000     -10.222777      -278.1759
  10   2.0000     -10.195955      -277.4460
  11   2.0000     -10.193336      -277.3748
  12   2.0000     -10.187410      -277.2135
  13   2.0000      -1.050111       -28.5750
  14   2.0000      -1.032342       -28.0915
  15   2.0000      -1.012631       -27.5551
  16   2.0000      -0.990768       -26.9602
  17   2.0000      -0.787888       -21.4395
  18   2.0000      -0.781559       -21.2673
  19   2.0000      -0.768353       -20.9079
  20   2.0000      -0.731290       -19.8994
  21   2.0000      -0.680415       -18.5150
  22   2.0000      -0.610672       -16.6172
  23   2.0000      -0.603198       -16.4138
  24   2.0000      -0.598541       -16.2871
  25   2.0000      -0.565561       -15.3897
  26   2.0000      -0.521011       -14.1774
  27   2.0000      -0.515656       -14.0317
  28   2.0000      -0.501865       -13.6565
  29   2.0000      -0.492321       -13.3967
  30   2.0000      -0.465027       -12.6540
  31   2.0000      -0.458392       -12.4735
  32   2.0000      -0.438077       -11.9207
  33   2.0000      -0.432058       -11.7569
  34   2.0000      -0.424339       -11.5469
  35   2.0000      -0.417706       -11.3664
  36   2.0000      -0.414884       -11.2896
  37   2.0000      -0.399893       -10.8816
  38   2.0000      -0.378231       -10.2922
  39   2.0000      -0.376228       -10.2377
  40   2.0000      -0.359933        -9.7943
  41   2.0000      -0.354222        -9.6389
  42   2.0000      -0.345341        -9.3972
  43   2.0000      -0.327092        -8.9006
  44   2.0000      -0.319614        -8.6971
  45   2.0000      -0.315394        -8.5823
  46   2.0000      -0.303334        -8.2541
  47   2.0000      -0.270879        -7.3710
  48   2.0000      -0.261983        -7.1289
  49   2.0000      -0.253779        -6.9057
  50   2.0000      -0.230027        -6.2593
  51   0.0000       0.047876         1.3028
  52   0.0000       0.075011         2.0412
  53   0.0000       0.084445         2.2979
  54   0.0000       0.092713         2.5229
  55   0.0000       0.101517         2.7624

MULLIKEN ATOMIC CHARGES
-----------------------
   0 C :    0.293038
   1 C :   -0.262632
   2 C :   -0.316355
   3 C :   -0.024177
   4 O :   -0.507574
   5 H :    0.167433
   6 H :    0.151296
   7 H :    0.151735
   8 H :    0.145998
   9 H :    0.146375
  10 H :    0.158238
  11 H :    0.149612
  12 C :   -0.032467
  13 H :    0.133817
  14 H :    0.133517
  15 O :   -0.508361
  16 C :    0.102535
  17 C :    0.074744
  18 C :   -0.329866
  19 C :   -0.009319
  20 O :   -0.503325
  21 H :    0.178268
  22 H :    0.170574
  23 O :   -0.601736
  24 H :    0.158812
  25 H :    0.129860
  26 H :    0.146141
  27 H :    0.149716
  28 H :    0.354105
Sum of atomic charges:   -0.0000000

LOEWDIN ATOMIC CHARGES
----------------------
   0 C :    0.175931
   1 C :   -0.227069
   2 C :   -0.224823
   3 C :   -0.038526
   4 O :   -0.322956
   5 H :    0.113825
   6 H :    0.119022
   7 H :    0.120606
   8 H :    0.115955
   9 H :    0.107025
  10 H :    0.107039
  11 H :    0.106547
  12 C :   -0.052533
  13 H :    0.101912
  14 H :    0.100543
  15 O :   -0.309848
  16 C :    0.014811
  17 C :    0.031788
  18 C :   -0.242699
  19 C :   -0.030174
  20 O :   -0.311401
  21 H :    0.126139
  22 H :    0.120396
  23 O :   -0.411803
  24 H :    0.122601
  25 H :    0.101911
  26 H :    0.103772
  27 H :    0.105747
  28 H :    0.276261

  Mayer bond orders larger than 0.100000
B(  0-C ,  1-C ) :   0.9143 B(  0-C ,  4-O ) :   0.8948 B(  0-C ,  5-H ) :   0.9352
B(  0-C , 15-O ) :   0.8991 B(  1-C ,  2-C ) :   0.9542 B(  1-C ,  6-H ) :   0.9349
B(  1-C ,  7-H ) :   0.9380 B(  2-C ,  3-C ) :   0.9467 B(  2-C ,  8-H ) :   0.9446
B(  2-C ,  9-H ) :   0.9407 B(  3-C ,  4-O ) :   0.8410 B(  3-C , 10-H ) :   0.9279
B(  3-C , 11-H ) :   0.9384 B( 12-C , 13-H ) :   0.8927 B( 12-C , 14-H ) :   0.9388
B( 12-C , 15-O ) :   0.8522 B( 12-C , 16-C ) :   0.8896 B( 16-C , 17-C ) :   0.8690
B( 16-C , 20-O ) :   0.8689 B( 16-C , 21-H ) :   0.9241 B( 17-C , 18-C ) :   0.9280
B( 17-C , 22-H ) :   0.9318 B( 17-C , 23-O ) :   0.8875 B( 18-C , 19-C ) :   0.9384
B( 18-C , 24-H ) :   0.9410 B( 18-C , 25-H ) :   0.9407 B( 19-C , 20-O ) :   0.8550
B( 19-C , 26-H ) :   0.9308 B( 19-C , 27-H ) :   0.9370 B( 23-O , 28-H ) :   0.8000

FINAL SINGLE POINT ENERGY      -652.850723107635

DIPOLE MOMENT
-------------
                                X             Y             Z
Electronic contribution:     -1.01399      -4.80739      -0.08695
Nuclear contribution   :      0.96908       6.47282       0.08324
                        -----------------------------------------
Total Dipole Moment    :     -0.04491       1.66543      -0.00371
                        -----------------------------------------
Magnitude (a.u.)       :      1.66604
Magnitude (Debye)      :      4.23473

Rotational constants in cm-1:     0.050318     0.015192     0.013365
Rotational constants in MHz :  1508.481789   455.449485   400.680305

                             ****ORCA TERMINATED NORMALLY****
TOTAL RUN TIME: 0 days 0 hours 48 minutes 45 seconds 250 msec
