                         Program Version 4.2.0 -  RELEASE  -
|  1> # Test redundant internal optimization
|  2> #
|  3> ! RKS B3LYP  Opt TightSCF SmallPrint
|  4>
|  5> %basis
|  6>         Basis "6-31G"
|  7> end
|  8>
|  9> %geom
| 10> Constraints
| 11> { D 4  0  15  12  300.0   C } # D for Dihedral angle
| 12> { D 0  15  12  16  90.0   C } # D for Dihedral angle
| 13> { D 0  4  3  2   C } # D for Dihedral angle
| 14> { D 4  3  2  1   C } # D for Dihedral angle
| 15> { D 3  2  1  0   C } # D for Dihedral angle
| 16> { D 2  1  0  4   C } # D for Dihedral angle
| 17> { D 1  0  4  3   C } # D for Dihedral angle
| 18> { D 16  20  19  18   C } # D for Dihedral angle
| 19> { D 20  19  18  17   C } # D for Dihedral angle
| 20> { D 19  18  17  16   C } # D for Dihedral angle
| 21> { D 18  17  16  20   C } # D for Dihedral angle
| 22> { D 17  16  20  19   C } # D for Dihedral angle
| 23> { D 15  12  16  20   C } # D for Dihedral angle
| 24> end
| 25> end
| 26>
| 27>
| 28> #%pal
| 29> #nprocs 8
| 30> #end
| 31>
| 32> * xyz 0 1
| 33> C  -21.048   26.222   46.251
| 34> C  -20.361   27.558   45.944
| 35> C  -20.329   28.222   47.341
| 36> C  -20.110   27.022   48.296
| 37> O  -20.473   25.807   47.535
| 38> H  -20.833   25.428   45.533
| 39> H  -19.344   27.382   45.576
| 40> H  -20.898   28.157   45.201
| 41> H  -19.543   28.978   47.434
| 42> H  -21.289   28.710   47.548
| 43> H  -20.733   27.082   49.195
| 44> H  -19.064   26.913   48.597
| 45> C  -23.362   25.116   46.798
| 46> H  -24.365   25.139   46.356
| 47> H  -22.847   24.217   46.435
| 48> O  -22.586   26.394   46.375
| 49> C  -23.510   24.986   48.339
| 50> C  -24.367   26.119   48.913
| 51> C  -25.797   25.631   48.580
| 52> C  -25.688   24.093   48.736
| 53> O  -24.248   23.766   48.681
| 54> H  -22.518   24.897   48.787
| 55> O  -24.164   26.214   50.450
| 56> H  -24.138   27.097   48.476
| 57> H  -26.557   26.065   49.237
| 58> H  -26.054   25.898   47.548
| 59> H  -26.210   23.553   47.939
| 60> H  -26.062   23.745   49.703
| 61> H  -24.388   25.245   50.912
| 62> *
| 63>
| 64>                          ****END OF INPUT****
 Total Charge           Charge          ....    0
 Multiplicity           Mult            ....    1
 Number of Electrons    NEL             ....  102
FINAL SINGLE POINT ENERGY      -652.843989112663
FINAL SINGLE POINT ENERGY      -652.867194337129
FINAL SINGLE POINT ENERGY      -652.870828092485
FINAL SINGLE POINT ENERGY      -652.871493861009
FINAL SINGLE POINT ENERGY      -652.871589123819
FINAL SINGLE POINT ENERGY      -652.871601941145
                    ***********************HURRAY********************

CARTESIAN COORDINATES (ANGSTROEM)
---------------------------------
  C    -21.092014   26.135833   46.297501
  C    -20.500145   27.518632   46.020188
  C    -20.527064   28.159451   47.426224
  C    -20.233138   26.969080   48.366366
  O    -20.509422   25.742353   47.564318
  H    -20.828940   25.343327   45.588984
  H    -19.473099   27.402773   45.656678
  H    -21.081085   28.072933   45.280432
  H    -19.792218   28.962855   47.536195
  H    -21.520354   28.572182   47.624425
  H    -20.870023   26.956180   49.254620
  H    -19.183663   26.910659   48.667822
  C    -23.278091   25.084391   46.740316
  H    -24.238988   25.163203   46.223327
  H    -22.767371   24.177039   46.393654
  O    -22.527037   26.280070   46.360671
  C    -23.463049   25.008390   48.257825
  C    -24.270847   26.160045   48.870236
  C    -25.724636   25.709366   48.584028
  C    -25.652995   24.167703   48.724974
  O    -24.218637   23.802078   48.616824
  H    -22.480367   24.918362   48.724481
  O    -24.000421   26.284856   50.295126
  H    -24.025989   27.129408   48.437907
  H    -26.421638   26.170158   49.288269
  H    -26.017005   26.003547   47.570358
  H    -26.215739   23.642091   47.947109
  H    -26.001521   23.819134   49.702163
  H    -23.970504   25.389899   50.694979

 Multiplicity           Mult            ....    1
 Number of Electrons    NEL             ....  102
 Basis Dimension        Dim             ....  149

ORBITAL ENERGIES
----------------

  NO   OCC          E(Eh)            E(eV)
   0   2.0000     -19.148559      -521.0588
   1   2.0000     -19.144049      -520.9361
   2   2.0000     -19.140540      -520.8406
   3   2.0000     -19.135005      -520.6900
   4   2.0000     -10.280693      -279.7519
   5   2.0000     -10.233721      -278.4737
   6   2.0000     -10.228592      -278.3341
   7   2.0000     -10.228432      -278.3298
   8   2.0000     -10.225196      -278.2417
   9   2.0000     -10.223733      -278.2019
  10   2.0000     -10.186560      -277.1904
  11   2.0000     -10.185740      -277.1681
  12   2.0000     -10.185175      -277.1527
  13   2.0000      -1.056701       -28.7543
  14   2.0000      -1.032044       -28.0834
  15   2.0000      -1.002219       -27.2718
  16   2.0000      -0.995711       -27.0947
  17   2.0000      -0.791019       -21.5247
  18   2.0000      -0.776407       -21.1271
  19   2.0000      -0.763068       -20.7641
  20   2.0000      -0.729410       -19.8482
  21   2.0000      -0.672630       -18.3032
  22   2.0000      -0.600797       -16.3485
  23   2.0000      -0.598908       -16.2971
  24   2.0000      -0.595200       -16.1962
  25   2.0000      -0.577715       -15.7204
  26   2.0000      -0.520810       -14.1720
  27   2.0000      -0.514667       -14.0048
  28   2.0000      -0.492092       -13.3905
  29   2.0000      -0.488070       -13.2811
  30   2.0000      -0.470053       -12.7908
  31   2.0000      -0.458365       -12.4728
  32   2.0000      -0.447709       -12.1828
  33   2.0000      -0.436457       -11.8766
  34   2.0000      -0.417928       -11.3724
  35   2.0000      -0.411101       -11.1866
  36   2.0000      -0.402363       -10.9489
  37   2.0000      -0.390455       -10.6248
  38   2.0000      -0.373070       -10.1518
  39   2.0000      -0.365072        -9.9341
  40   2.0000      -0.357709        -9.7338
  41   2.0000      -0.355577        -9.6757
  42   2.0000      -0.348414        -9.4808
  43   2.0000      -0.331385        -9.0174
  44   2.0000      -0.327950        -8.9240
  45   2.0000      -0.305288        -8.3073
  46   2.0000      -0.300905        -8.1880
  47   2.0000      -0.279093        -7.5945
  48   2.0000      -0.266415        -7.2495
  49   2.0000      -0.257996        -7.0204
  50   2.0000      -0.238268        -6.4836
  51   0.0000       0.066784         1.8173
  52   0.0000       0.079651         2.1674
  53   0.0000       0.095530         2.5995
  54   0.0000       0.100654         2.7389
  55   0.0000       0.103865         2.8263

MULLIKEN ATOMIC CHARGES
-----------------------
   0 C :    0.285299
   1 C :   -0.262124
   2 C :   -0.299336
   3 C :   -0.018882
   4 O :   -0.512321
   5 H :    0.147784
   6 H :    0.146943
   7 H :    0.158954
   8 H :    0.143210
   9 H :    0.162980
  10 H :    0.163283
  11 H :    0.145647
  12 C :   -0.023913
  13 H :    0.143805
  14 H :    0.148643
  15 O :   -0.521510
  16 C :    0.050793
  17 C :    0.090393
  18 C :   -0.297714
  19 C :   -0.027129
  20 O :   -0.528437
  21 H :    0.190080
  22 O :   -0.609739
  23 H :    0.167232
  24 H :    0.160839
  25 H :    0.142928
  26 H :    0.145528
  27 H :    0.142825
  28 H :    0.363939
Sum of atomic charges:   -0.0000000

LOEWDIN ATOMIC CHARGES
----------------------
   0 C :    0.172194
   1 C :   -0.214349
   2 C :   -0.215254
   3 C :   -0.032480
   4 O :   -0.330509
   5 H :    0.097613
   6 H :    0.115328
   7 H :    0.125350
   8 H :    0.114705
   9 H :    0.118460
  10 H :    0.111744
  11 H :    0.104768
  12 C :   -0.039329
  13 H :    0.106853
  14 H :    0.108874
  15 O :   -0.328229
  16 C :    0.001917
  17 C :    0.035926
  18 C :   -0.240593
  19 C :   -0.038244
  20 O :   -0.331424
  21 H :    0.127526
  22 O :   -0.418529
  23 H :    0.121481
  24 H :    0.125998
  25 H :    0.113359
  26 H :    0.103190
  27 H :    0.101224
  28 H :    0.282431

  Mayer bond orders larger than 0.100000
B(  0-C ,  1-C ) :   0.9500 B(  0-C ,  4-O ) :   0.9003 B(  0-C ,  5-H ) :   0.9197
B(  0-C , 15-O ) :   0.8599 B(  1-C ,  2-C ) :   0.9555 B(  1-C ,  6-H ) :   0.9397
B(  1-C ,  7-H ) :   0.9359 B(  2-C ,  3-C ) :   0.9555 B(  2-C ,  8-H ) :   0.9451
B(  2-C ,  9-H ) :   0.9435 B(  3-C ,  4-O ) :   0.8281 B(  3-C , 10-H ) :   0.9282
B(  3-C , 11-H ) :   0.9408 B( 12-C , 13-H ) :   0.9408 B( 12-C , 14-H ) :   0.9206
B( 12-C , 15-O ) :   0.8355 B( 12-C , 16-C ) :   0.8847 B( 16-C , 17-C ) :   0.9128
B( 16-C , 20-O ) :   0.8327 B( 16-C , 21-H ) :   0.9090 B( 17-C , 18-C ) :   0.9125
B( 17-C , 22-O ) :   0.8841 B( 17-C , 23-H ) :   0.9257 B( 18-C , 19-C ) :   0.9425
B( 18-C , 24-H ) :   0.9380 B( 18-C , 25-H ) :   0.9353 B( 19-C , 20-O ) :   0.8461
B( 19-C , 26-H ) :   0.9354 B( 19-C , 27-H ) :   0.9388 B( 22-O , 28-H ) :   0.7961

FINAL SINGLE POINT ENERGY      -652.871604276036

DIPOLE MOMENT
-------------
                                X             Y             Z
Electronic contribution:      0.28869      -3.36702       0.84944
Nuclear contribution   :     -0.44606       3.77434      -1.37414
                        -----------------------------------------
Total Dipole Moment    :     -0.15736       0.40732      -0.52470
                        -----------------------------------------
Magnitude (a.u.)       :      0.68263
Magnitude (Debye)      :      1.73511

Rotational constants in cm-1:     0.051599     0.015636     0.014320
Rotational constants in MHz :  1546.896463   468.752203   429.311798

                             ****ORCA TERMINATED NORMALLY****
TOTAL RUN TIME: 0 days 2 hours 1 minutes 46 seconds 966 msec
