                         Program Version 4.2.0 -  RELEASE  -
|  1> # Test redundant internal optimization
|  2> #
|  3> ! RKS B3LYP  Opt TightSCF SmallPrint
|  4>
|  5> %basis
|  6>         Basis "6-31G"
|  7> end
|  8>
|  9> %geom
| 10> Constraints
| 11> { D 4  0  15  12  300.0   C } # D for Dihedral angle
| 12> { D 0  15  12  16  165.0   C } # D for Dihedral angle
| 13> { D 0  4  3  2   C } # D for Dihedral angle
| 14> { D 4  3  2  1   C } # D for Dihedral angle
| 15> { D 3  2  1  0   C } # D for Dihedral angle
| 16> { D 2  1  0  4   C } # D for Dihedral angle
| 17> { D 1  0  4  3   C } # D for Dihedral angle
| 18> { D 16  20  19  18   C } # D for Dihedral angle
| 19> { D 20  19  18  17   C } # D for Dihedral angle
| 20> { D 19  18  17  16   C } # D for Dihedral angle
| 21> { D 18  17  16  20   C } # D for Dihedral angle
| 22> { D 17  16  20  19   C } # D for Dihedral angle
| 23> { D 15  12  16  20   C } # D for Dihedral angle
| 24> end
| 25> end
| 26>
| 27>
| 28> #%pal
| 29> #nprocs 8
| 30> #end
| 31>
| 32> * xyz 0 1
| 33> C  -21.048   26.222   46.251
| 34> C  -20.361   27.558   45.944
| 35> C  -20.329   28.222   47.341
| 36> C  -20.110   27.022   48.296
| 37> O  -20.473   25.807   47.535
| 38> H  -20.833   25.428   45.533
| 39> H  -19.344   27.382   45.576
| 40> H  -20.898   28.157   45.201
| 41> H  -19.543   28.978   47.434
| 42> H  -21.289   28.710   47.548
| 43> H  -20.733   27.082   49.195
| 44> H  -19.064   26.913   48.597
| 45> C  -23.362   25.116   46.798
| 46> H  -23.410   24.424   45.948
| 47> H  -22.846   24.609   47.623
| 48> O  -22.586   26.394   46.375
| 49> C  -24.812   25.421   47.263
| 50> C  -24.829   26.455   48.395
| 51> C  -24.638   27.777   47.614
| 52> C  -25.407   27.521   46.294
| 53> O  -25.575   26.055   46.183
| 54> H  -25.316   24.482   47.501
| 55> O  -26.206   26.437   49.113
| 56> H  -24.047   26.287   49.143
| 57> H  -25.018   28.649   48.156
| 58> H  -23.573   27.945   47.414
| 59> H  -24.867   27.889   45.415
| 60> H  -26.409   27.959   46.303
| 61> H  -27.005   26.604   48.382
| 62> *
| 63>
| 64>                          ****END OF INPUT****
 Total Charge           Charge          ....    0
 Multiplicity           Mult            ....    1
 Number of Electrons    NEL             ....  102
FINAL SINGLE POINT ENERGY      -652.840100679464
FINAL SINGLE POINT ENERGY      -652.863900751944
FINAL SINGLE POINT ENERGY      -652.868000785152
FINAL SINGLE POINT ENERGY      -652.869267487212
FINAL SINGLE POINT ENERGY      -652.869396918373
FINAL SINGLE POINT ENERGY      -652.869413471549
                    ***********************HURRAY********************

CARTESIAN COORDINATES (ANGSTROEM)
---------------------------------
  C    -21.092319   26.140655   46.278385
  C    -20.432165   27.477491   45.939803
  C    -20.394797   28.169566   47.321123
  C    -20.146624   26.997072   48.296642
  O    -20.505169   25.763199   47.547100
  H    -20.875834   25.315494   45.591344
  H    -19.420509   27.292352   45.562990
  H    -20.995511   28.036067   45.189509
  H    -19.611917   28.931788   47.386804
  H    -21.355557   28.651342   47.524838
  H    -20.757323   27.052143   49.201435
  H    -19.094874   26.894272   48.578188
  C    -23.261506   25.164301   46.799790
  H    -23.313900   24.452079   45.964437
  H    -22.735433   24.691557   47.638104
  O    -22.518720   26.346212   46.363945
  C    -24.679666   25.527971   47.222522
  C    -24.826981   26.520773   48.385281
  C    -24.710988   27.884677   47.654280
  C    -25.403094   27.609776   46.295349
  O    -25.445708   26.138239   46.134397
  H    -25.187873   24.588333   47.472648
  O    -26.116604   26.354940   49.040460
  H    -24.085919   26.385664   49.173804
  H    -25.198065   28.676676   48.229714
  H    -23.659001   28.129067   47.502776
  H    -24.850227   28.037402   45.454802
  H    -26.437207   27.968162   46.264199
  H    -26.817509   26.307730   48.356331

 Multiplicity           Mult            ....    1
 Number of Electrons    NEL             ....  102
 Basis Dimension        Dim             ....  149

ORBITAL ENERGIES
----------------

  NO   OCC          E(Eh)            E(eV)
   0   2.0000     -19.150217      -521.1039
   1   2.0000     -19.147944      -521.0420
   2   2.0000     -19.135490      -520.7032
   3   2.0000     -19.133656      -520.6532
   4   2.0000     -10.283055      -279.8162
   5   2.0000     -10.235489      -278.5218
   6   2.0000     -10.232477      -278.4399
   7   2.0000     -10.231933      -278.4250
   8   2.0000     -10.227801      -278.3126
   9   2.0000     -10.221459      -278.1400
  10   2.0000     -10.192127      -277.3419
  11   2.0000     -10.190871      -277.3077
  12   2.0000     -10.176438      -276.9149
  13   2.0000      -1.060710       -28.8634
  14   2.0000      -1.030948       -28.0535
  15   2.0000      -1.003154       -27.2972
  16   2.0000      -0.995496       -27.0888
  17   2.0000      -0.794966       -21.6321
  18   2.0000      -0.775422       -21.1003
  19   2.0000      -0.763228       -20.7685
  20   2.0000      -0.733936       -19.9714
  21   2.0000      -0.672168       -18.2906
  22   2.0000      -0.605716       -16.4824
  23   2.0000      -0.597143       -16.2491
  24   2.0000      -0.595099       -16.1935
  25   2.0000      -0.576812       -15.6959
  26   2.0000      -0.524712       -14.2781
  27   2.0000      -0.508031       -13.8242
  28   2.0000      -0.499859       -13.6019
  29   2.0000      -0.487793       -13.2735
  30   2.0000      -0.471338       -12.8258
  31   2.0000      -0.463301       -12.6071
  32   2.0000      -0.447813       -12.1856
  33   2.0000      -0.431674       -11.7465
  34   2.0000      -0.422434       -11.4950
  35   2.0000      -0.409216       -11.1353
  36   2.0000      -0.407559       -11.0902
  37   2.0000      -0.385558       -10.4916
  38   2.0000      -0.379599       -10.3294
  39   2.0000      -0.365405        -9.9432
  40   2.0000      -0.362978        -9.8771
  41   2.0000      -0.355078        -9.6622
  42   2.0000      -0.350459        -9.5365
  43   2.0000      -0.341312        -9.2876
  44   2.0000      -0.322667        -8.7802
  45   2.0000      -0.304439        -8.2842
  46   2.0000      -0.300489        -8.1767
  47   2.0000      -0.271459        -7.3868
  48   2.0000      -0.264601        -7.2002
  49   2.0000      -0.260244        -7.0816
  50   2.0000      -0.240933        -6.5561
  51   0.0000       0.062990         1.7141
  52   0.0000       0.080014         2.1773
  53   0.0000       0.093311         2.5391
  54   0.0000       0.102177         2.7804
  55   0.0000       0.106248         2.8912

MULLIKEN ATOMIC CHARGES
-----------------------
   0 C :    0.294857
   1 C :   -0.265069
   2 C :   -0.305388
   3 C :   -0.007268
   4 O :   -0.513680
   5 H :    0.147029
   6 H :    0.149094
   7 H :    0.159085
   8 H :    0.145592
   9 H :    0.160725
  10 H :    0.147098
  11 H :    0.147490
  12 C :    0.000941
  13 H :    0.144430
  14 H :    0.155762
  15 O :   -0.528982
  16 C :    0.059909
  17 C :    0.076208
  18 C :   -0.299306
  19 C :   -0.014995
  20 O :   -0.526014
  21 H :    0.155825
  22 O :   -0.602862
  23 H :    0.150226
  24 H :    0.146210
  25 H :    0.175410
  26 H :    0.149478
  27 H :    0.135338
  28 H :    0.362856
Sum of atomic charges:   -0.0000000

LOEWDIN ATOMIC CHARGES
----------------------
   0 C :    0.173274
   1 C :   -0.213320
   2 C :   -0.216693
   3 C :   -0.028651
   4 O :   -0.329035
   5 H :    0.097610
   6 H :    0.116726
   7 H :    0.125396
   8 H :    0.115647
   9 H :    0.114497
  10 H :    0.104915
  11 H :    0.105406
  12 C :   -0.043269
  13 H :    0.104249
  14 H :    0.111466
  15 O :   -0.328940
  16 C :    0.014664
  17 C :    0.039544
  18 C :   -0.243624
  19 C :   -0.031791
  20 O :   -0.330423
  21 H :    0.116509
  22 O :   -0.417128
  23 H :    0.115287
  24 H :    0.117577
  25 H :    0.124729
  26 H :    0.107361
  27 H :    0.096029
  28 H :    0.281988

  Mayer bond orders larger than 0.100000
B(  0-C ,  1-C ) :   0.9490 B(  0-C ,  4-O ) :   0.8981 B(  0-C ,  5-H ) :   0.9192
B(  0-C , 15-O ) :   0.8598 B(  1-C ,  2-C ) :   0.9554 B(  1-C ,  6-H ) :   0.9394
B(  1-C ,  7-H ) :   0.9356 B(  2-C ,  3-C ) :   0.9552 B(  2-C ,  8-H ) :   0.9444
B(  2-C ,  9-H ) :   0.9388 B(  3-C ,  4-O ) :   0.8350 B(  3-C , 10-H ) :   0.9353
B(  3-C , 11-H ) :   0.9401 B( 12-C , 13-H ) :   0.9188 B( 12-C , 14-H ) :   0.9011
B( 12-C , 15-O ) :   0.8293 B( 12-C , 16-C ) :   0.9148 B( 16-C , 17-C ) :   0.9089
B( 16-C , 20-O ) :   0.8695 B( 16-C , 21-H ) :   0.9217 B( 17-C , 18-C ) :   0.9247
B( 17-C , 22-O ) :   0.8916 B( 17-C , 23-H ) :   0.9353 B( 18-C , 19-C ) :   0.9464
B( 18-C , 24-H ) :   0.9380 B( 18-C , 25-H ) :   0.9111 B( 19-C , 20-O ) :   0.8404
B( 19-C , 26-H ) :   0.9345 B( 19-C , 27-H ) :   0.9379 B( 22-O , 28-H ) :   0.7955

FINAL SINGLE POINT ENERGY      -652.869413688696

DIPOLE MOMENT
-------------
                                X             Y             Z
Electronic contribution:     -3.52182      -4.50578      -0.39449
Nuclear contribution   :      4.39113       5.24578       0.12889
                        -----------------------------------------
Total Dipole Moment    :      0.86932       0.74000      -0.26561
                        -----------------------------------------
Magnitude (a.u.)       :      1.17212
Magnitude (Debye)      :      2.97928

Rotational constants in cm-1:     0.048907     0.015234     0.014964
Rotational constants in MHz :  1466.196122   456.707408   448.594776

                             ****ORCA TERMINATED NORMALLY****
TOTAL RUN TIME: 0 days 0 hours 18 minutes 27 seconds 817 msec
