                         Program Version 4.2.0 -  RELEASE  -
|  1> # Test redundant internal optimization
|  2> #
|  3> ! RKS B3LYP  Opt TightSCF SmallPrint
|  4>
|  5> %basis
|  6>         Basis "6-31G"
|  7> end
|  8>
|  9> %geom
| 10> Constraints
| 11> { D 4  0  15  12  120.0   C } # D for Dihedral angle
| 12> { D 0  15  12  16  180.0   C } # D for Dihedral angle
| 13> { D 0  4  3  2   C } # D for Dihedral angle
| 14> { D 4  3  2  1   C } # D for Dihedral angle
| 15> { D 3  2  1  0   C } # D for Dihedral angle
| 16> { D 2  1  0  4   C } # D for Dihedral angle
| 17> { D 1  0  4  3   C } # D for Dihedral angle
| 18> { D 16  20  19  18   C } # D for Dihedral angle
| 19> { D 20  19  18  17   C } # D for Dihedral angle
| 20> { D 19  18  17  16   C } # D for Dihedral angle
| 21> { D 18  17  16  20   C } # D for Dihedral angle
| 22> { D 17  16  20  19   C } # D for Dihedral angle
| 23> { D 15  12  16  20   C } # D for Dihedral angle
| 24> end
| 25> end
| 26>
| 27>
| 28> #%pal
| 29> #nprocs 8
| 30> #end
| 31>
| 32> * xyz 0 1
| 33> C  -21.048   26.222   46.251
| 34> C  -20.361   27.558   45.944
| 35> C  -20.329   28.222   47.341
| 36> C  -20.110   27.022   48.296
| 37> O  -20.473   25.807   47.535
| 38> H  -20.833   25.428   45.533
| 39> H  -19.344   27.382   45.576
| 40> H  -20.898   28.157   45.201
| 41> H  -19.543   28.978   47.434
| 42> H  -21.289   28.710   47.548
| 43> H  -20.733   27.082   49.195
| 44> H  -19.064   26.913   48.597
| 45> C  -23.119   27.818   46.058
| 46> H  -22.658   28.538   46.745
| 47> H  -22.856   28.107   45.032
| 48> O  -22.586   26.394   46.375
| 49> C  -24.663   27.927   46.199
| 50> C  -25.165   29.309   45.768
| 51> C  -25.161   29.178   44.226
| 52> C  -25.562   27.699   43.999
| 53> O  -25.328   26.998   45.279
| 54> H  -24.951   27.637   47.212
| 55> O  -26.608   29.541   46.295
| 56> H  -24.531   30.128   46.126
| 57> H  -25.848   29.876   43.739
| 58> H  -24.155   29.370   43.835
| 59> H  -24.966   27.219   43.214
| 60> H  -26.623   27.586   43.758
| 61> H  -27.260   28.732   45.947
| 62> *
| 63>
| 64>                          ****END OF INPUT****
 Total Charge           Charge          ....    0
 Multiplicity           Mult            ....    1
 Number of Electrons    NEL             ....  102
FINAL SINGLE POINT ENERGY      -652.816094234887
FINAL SINGLE POINT ENERGY      -652.840994273896
FINAL SINGLE POINT ENERGY      -652.848109608859
FINAL SINGLE POINT ENERGY      -652.850415765709
FINAL SINGLE POINT ENERGY      -652.850738271643
FINAL SINGLE POINT ENERGY      -652.850778969791
FINAL SINGLE POINT ENERGY      -652.850784432193
                    ***********************HURRAY********************

CARTESIAN COORDINATES (ANGSTROEM)
---------------------------------
  C    -21.182308   26.352176   46.307596
  C    -20.189932   27.477061   45.991996
  C    -20.053285   28.186818   47.369199
  C    -20.160439   27.005730   48.364211
  O    -20.771875   25.887791   47.609532
  H    -21.095618   25.483467   45.652451
  H    -19.237577   27.022765   45.699782
  H    -20.508430   28.144973   45.187407
  H    -19.103861   28.722459   47.465690
  H    -20.859523   28.910336   47.522961
  H    -20.783898   27.232547   49.233604
  H    -19.181537   26.657924   48.706372
  C    -23.091371   28.005975   45.985401
  H    -22.733744   28.762217   46.698726
  H    -22.781575   28.311682   44.976023
  O    -22.595898   26.683055   46.296526
  C    -24.615080   27.940381   46.080958
  C    -25.317571   29.261832   45.740311
  C    -25.375502   29.199681   44.190311
  C    -25.588875   27.691295   43.911045
  O    -25.197139   26.974415   45.148666
  H    -24.879227   27.592918   47.083838
  O    -26.647049   29.305372   46.325648
  H    -24.806857   30.149349   46.117817
  H    -26.186576   29.825803   43.810474
  H    -24.433537   29.556972   43.759456
  H    -24.982369   27.323267   43.078293
  H    -26.636876   27.445463   43.713774
  H    -27.067471   28.424276   46.229934

 Multiplicity           Mult            ....    1
 Number of Electrons    NEL             ....  102
 Basis Dimension        Dim             ....  149

ORBITAL ENERGIES
----------------

  NO   OCC          E(Eh)            E(eV)
   0   2.0000     -19.140356      -520.8356
   1   2.0000     -19.139709      -520.8180
   2   2.0000     -19.138740      -520.7916
   3   2.0000     -19.137814      -520.7664
   4   2.0000     -10.278638      -279.6960
   5   2.0000     -10.244885      -278.7775
   6   2.0000     -10.237672      -278.5812
   7   2.0000     -10.234906      -278.5060
   8   2.0000     -10.230120      -278.3757
   9   2.0000     -10.227422      -278.3023
  10   2.0000     -10.196070      -277.4492
  11   2.0000     -10.195781      -277.4413
  12   2.0000     -10.191119      -277.3144
  13   2.0000      -1.050405       -28.5830
  14   2.0000      -1.036662       -28.2090
  15   2.0000      -1.007178       -27.4067
  16   2.0000      -0.993121       -27.0242
  17   2.0000      -0.791541       -21.5389
  18   2.0000      -0.787166       -21.4199
  19   2.0000      -0.771378       -20.9903
  20   2.0000      -0.733738       -19.9660
  21   2.0000      -0.680619       -18.5206
  22   2.0000      -0.608048       -16.5458
  23   2.0000      -0.604968       -16.4620
  24   2.0000      -0.597035       -16.2461
  25   2.0000      -0.578012       -15.7285
  26   2.0000      -0.526571       -14.3287
  27   2.0000      -0.512353       -13.9418
  28   2.0000      -0.500753       -13.6262
  29   2.0000      -0.492768       -13.4089
  30   2.0000      -0.479465       -13.0469
  31   2.0000      -0.462705       -12.5908
  32   2.0000      -0.449150       -12.2220
  33   2.0000      -0.444406       -12.0929
  34   2.0000      -0.428161       -11.6509
  35   2.0000      -0.415742       -11.3129
  36   2.0000      -0.405225       -11.0267
  37   2.0000      -0.394416       -10.7326
  38   2.0000      -0.384307       -10.4575
  39   2.0000      -0.373965       -10.1761
  40   2.0000      -0.366900        -9.9838
  41   2.0000      -0.360216        -9.8020
  42   2.0000      -0.352305        -9.5867
  43   2.0000      -0.332834        -9.0569
  44   2.0000      -0.313852        -8.5404
  45   2.0000      -0.307192        -8.3591
  46   2.0000      -0.292255        -7.9527
  47   2.0000      -0.272722        -7.4212
  48   2.0000      -0.265421        -7.2225
  49   2.0000      -0.249749        -6.7960
  50   2.0000      -0.244649        -6.6572
  51   0.0000       0.061065         1.6617
  52   0.0000       0.075013         2.0412
  53   0.0000       0.079955         2.1757
  54   0.0000       0.095790         2.6066
  55   0.0000       0.101727         2.7681

MULLIKEN ATOMIC CHARGES
-----------------------
   0 C :    0.316076
   1 C :   -0.297107
   2 C :   -0.312356
   3 C :   -0.002696
   4 O :   -0.493834
   5 H :    0.162208
   6 H :    0.157022
   7 H :    0.143696
   8 H :    0.146261
   9 H :    0.150513
  10 H :    0.148972
  11 H :    0.145219
  12 C :    0.008501
  13 H :    0.123475
  14 H :    0.119013
  15 O :   -0.515979
  16 C :    0.073155
  17 C :    0.074524
  18 C :   -0.291701
  19 C :   -0.026174
  20 O :   -0.507420
  21 H :    0.172542
  22 O :   -0.603255
  23 H :    0.147385
  24 H :    0.164754
  25 H :    0.137881
  26 H :    0.146835
  27 H :    0.144843
  28 H :    0.367647
Sum of atomic charges:    0.0000000

LOEWDIN ATOMIC CHARGES
----------------------
   0 C :    0.181409
   1 C :   -0.231668
   2 C :   -0.221462
   3 C :   -0.030298
   4 O :   -0.311851
   5 H :    0.108802
   6 H :    0.123451
   7 H :    0.114088
   8 H :    0.116374
   9 H :    0.108121
  10 H :    0.105835
  11 H :    0.104064
  12 C :   -0.038651
  13 H :    0.091069
  14 H :    0.087946
  15 O :   -0.318356
  16 C :    0.020754
  17 C :    0.034885
  18 C :   -0.240782
  19 C :   -0.037705
  20 O :   -0.316822
  21 H :    0.123114
  22 O :   -0.414434
  23 H :    0.112851
  24 H :    0.127382
  25 H :    0.109722
  26 H :    0.104611
  27 H :    0.102529
  28 H :    0.285023

  Mayer bond orders larger than 0.100000
B(  0-C ,  1-C ) :   0.9304 B(  0-C ,  4-O ) :   0.9158 B(  0-C ,  5-H ) :   0.9308
B(  0-C , 15-O ) :   0.8729 B(  1-C ,  2-C ) :   0.9501 B(  1-C ,  6-H ) :   0.9346
B(  1-C ,  7-H ) :   0.9307 B(  2-C ,  3-C ) :   0.9489 B(  2-C ,  8-H ) :   0.9455
B(  2-C ,  9-H ) :   0.9395 B(  3-C ,  4-O ) :   0.8477 B(  3-C , 10-H ) :   0.9341
B(  3-C , 11-H ) :   0.9392 B( 12-C , 13-H ) :   0.8960 B( 12-C , 14-H ) :   0.9133
B( 12-C , 15-O ) :   0.8521 B( 12-C , 16-C ) :   0.8969 B( 16-C , 17-C ) :   0.9004
B( 16-C , 20-O ) :   0.8683 B( 16-C , 21-H ) :   0.9228 B( 17-C , 18-C ) :   0.9098
B( 17-C , 22-O ) :   0.8940 B( 17-C , 23-H ) :   0.9332 B( 18-C , 19-C ) :   0.9393
B( 18-C , 24-H ) :   0.9370 B( 18-C , 25-H ) :   0.9346 B( 19-C , 20-O ) :   0.8541
B( 19-C , 26-H ) :   0.9343 B( 19-C , 27-H ) :   0.9381 B( 22-O , 28-H ) :   0.7923

FINAL SINGLE POINT ENERGY      -652.850785639476

DIPOLE MOMENT
-------------
                                X             Y             Z
Electronic contribution:     -4.04726      -4.86526       1.78369
Nuclear contribution   :      5.02935       6.17611      -2.60290
                        -----------------------------------------
Total Dipole Moment    :      0.98209       1.31086      -0.81921
                        -----------------------------------------
Magnitude (a.u.)       :      1.83138
Magnitude (Debye)      :      4.65499

Rotational constants in cm-1:     0.059980     0.011859     0.011493
Rotational constants in MHz :  1798.169874   355.536119   344.559231

                             ****ORCA TERMINATED NORMALLY****
TOTAL RUN TIME: 0 days 1 hours 37 minutes 55 seconds 657 msec
