                         Program Version 4.2.0 -  RELEASE  -
|  1> # Test redundant internal optimization
|  2> #
|  3> ! RKS B3LYP  Opt TightSCF SmallPrint
|  4>
|  5> %basis
|  6>         Basis "6-31G"
|  7> end
|  8>
|  9> %geom
| 10> Constraints
| 11> { D 4  0  15  12  135.0   C } # D for Dihedral angle
| 12> { D 0  15  12  16  165.0   C } # D for Dihedral angle
| 13> { D 0  4  3  2   C } # D for Dihedral angle
| 14> { D 4  3  2  1   C } # D for Dihedral angle
| 15> { D 3  2  1  0   C } # D for Dihedral angle
| 16> { D 2  1  0  4   C } # D for Dihedral angle
| 17> { D 1  0  4  3   C } # D for Dihedral angle
| 18> { D 16  20  19  18   C } # D for Dihedral angle
| 19> { D 20  19  18  17   C } # D for Dihedral angle
| 20> { D 19  18  17  16   C } # D for Dihedral angle
| 21> { D 18  17  16  20   C } # D for Dihedral angle
| 22> { D 17  16  20  19   C } # D for Dihedral angle
| 23> { D 15  12  16  20   C } # D for Dihedral angle
| 24> end
| 25> end
| 26>
| 27>
| 28> #%pal
| 29> #nprocs 8
| 30> #end
| 31>
| 32> * xyz 0 1
| 33> C  -21.048   26.222   46.251
| 34> C  -20.361   27.558   45.944
| 35> C  -20.329   28.222   47.341
| 36> C  -20.110   27.022   48.296
| 37> O  -20.473   25.807   47.535
| 38> H  -20.833   25.428   45.533
| 39> H  -19.344   27.382   45.576
| 40> H  -20.898   28.157   45.201
| 41> H  -19.543   28.978   47.434
| 42> H  -21.289   28.710   47.548
| 43> H  -20.733   27.082   49.195
| 44> H  -19.064   26.913   48.597
| 45> C  -23.162   27.680   45.721
| 46> H  -22.917   28.546   46.348
| 47> H  -22.718   27.838   44.729
| 48> O  -22.586   26.394   46.375
| 49> C  -24.705   27.625   45.544
| 50> C  -25.418   27.575   46.900
| 51> C  -25.366   29.059   47.337
| 52> C  -25.516   29.824   45.998
| 53> O  -25.194   28.861   44.924
| 54> H  -24.959   26.806   44.869
| 55> O  -26.888   27.110   46.711
| 56> H  -24.934   26.904   47.618
| 57> H  -26.149   29.317   48.055
| 58> H  -24.398   29.280   47.802
| 59> H  -24.838   30.681   45.927
| 60> H  -26.539   30.168   45.826
| 61> H  -27.394   27.769   45.996
| 62> *
| 63>
| 64>                          ****END OF INPUT****
 Total Charge           Charge          ....    0
 Multiplicity           Mult            ....    1
 Number of Electrons    NEL             ....  102
FINAL SINGLE POINT ENERGY      -652.827402530890
FINAL SINGLE POINT ENERGY      -652.851228599700
FINAL SINGLE POINT ENERGY      -652.855374730560
FINAL SINGLE POINT ENERGY      -652.856899028553
FINAL SINGLE POINT ENERGY      -652.857051242423
FINAL SINGLE POINT ENERGY      -652.857081664050
                    ***********************HURRAY********************

CARTESIAN COORDINATES (ANGSTROEM)
---------------------------------
  C    -21.200922   26.313402   46.250651
  C    -20.243037   27.462856   45.929216
  C    -20.147096   28.196855   47.294082
  C    -20.228232   27.032646   48.307153
  O    -20.794507   25.883353   47.561008
  H    -21.107012   25.440681   45.601098
  H    -19.272961   27.034598   45.654621
  H    -20.568364   28.109636   45.111126
  H    -19.220931   28.770796   47.392536
  H    -20.986824   28.888208   47.420988
  H    -20.872781   27.250311   49.162873
  H    -19.244675   26.718605   48.667797
  C    -23.129002   27.871054   45.665082
  H    -22.868863   28.764843   46.248049
  H    -22.743309   28.004447   44.646493
  O    -22.617650   26.662138   46.287065
  C    -24.644989   27.697499   45.579564
  C    -25.365606   27.573162   46.928946
  C    -25.455429   29.054914   47.373249
  C    -25.661291   29.813807   46.038621
  O    -25.238394   28.886866   44.957828
  H    -24.873414   26.843837   44.936417
  O    -26.686279   26.986815   46.754701
  H    -24.841683   26.927977   47.631836
  H    -26.279568   29.198660   48.076352
  H    -24.526484   29.361299   47.867185
  H    -25.067768   30.730498   45.972952
  H    -26.710536   30.064194   45.854630
  H    -27.108394   27.374040   45.958879

 Multiplicity           Mult            ....    1
 Number of Electrons    NEL             ....  102
 Basis Dimension        Dim             ....  149

ORBITAL ENERGIES
----------------

  NO   OCC          E(Eh)            E(eV)
   0   2.0000     -19.145372      -520.9720
   1   2.0000     -19.144052      -520.9361
   2   2.0000     -19.142283      -520.8880
   3   2.0000     -19.132497      -520.6217
   4   2.0000     -10.283554      -279.8297
   5   2.0000     -10.235826      -278.5310
   6   2.0000     -10.233169      -278.4587
   7   2.0000     -10.232783      -278.4482
   8   2.0000     -10.232013      -278.4272
   9   2.0000     -10.230202      -278.3779
  10   2.0000     -10.197167      -277.4790
  11   2.0000     -10.196957      -277.4733
  12   2.0000     -10.187199      -277.2078
  13   2.0000      -1.054494       -28.6942
  14   2.0000      -1.035447       -28.1760
  15   2.0000      -1.002537       -27.2804
  16   2.0000      -0.996980       -27.1292
  17   2.0000      -0.794088       -21.6082
  18   2.0000      -0.780901       -21.2494
  19   2.0000      -0.770297       -20.9608
  20   2.0000      -0.734293       -19.9811
  21   2.0000      -0.680167       -18.5083
  22   2.0000      -0.608449       -16.5568
  23   2.0000      -0.603232       -16.4148
  24   2.0000      -0.596476       -16.2309
  25   2.0000      -0.576260       -15.6808
  26   2.0000      -0.522934       -14.2298
  27   2.0000      -0.517233       -14.0746
  28   2.0000      -0.504980       -13.7412
  29   2.0000      -0.493544       -13.4300
  30   2.0000      -0.474478       -12.9112
  31   2.0000      -0.456374       -12.4186
  32   2.0000      -0.453178       -12.3316
  33   2.0000      -0.442232       -12.0338
  34   2.0000      -0.430152       -11.7050
  35   2.0000      -0.412932       -11.2365
  36   2.0000      -0.408928       -11.1275
  37   2.0000      -0.391355       -10.6493
  38   2.0000      -0.385740       -10.4965
  39   2.0000      -0.369019       -10.0415
  40   2.0000      -0.363891        -9.9020
  41   2.0000      -0.361609        -9.8399
  42   2.0000      -0.354629        -9.6499
  43   2.0000      -0.332404        -9.0452
  44   2.0000      -0.317388        -8.6366
  45   2.0000      -0.306203        -8.3322
  46   2.0000      -0.296645        -8.0721
  47   2.0000      -0.270507        -7.3609
  48   2.0000      -0.267990        -7.2924
  49   2.0000      -0.255551        -6.9539
  50   2.0000      -0.245637        -6.6841
  51   0.0000       0.060118         1.6359
  52   0.0000       0.066175         1.8007
  53   0.0000       0.090788         2.4705
  54   0.0000       0.098128         2.6702
  55   0.0000       0.101455         2.7607

MULLIKEN ATOMIC CHARGES
-----------------------
   0 C :    0.319808
   1 C :   -0.296816
   2 C :   -0.308527
   3 C :   -0.001789
   4 O :   -0.494614
   5 H :    0.157501
   6 H :    0.155826
   7 H :    0.149058
   8 H :    0.147292
   9 H :    0.151852
  10 H :    0.150306
  11 H :    0.146210
  12 C :   -0.001695
  13 H :    0.122129
  14 H :    0.143669
  15 O :   -0.533586
  16 C :    0.055390
  17 C :    0.089067
  18 C :   -0.300187
  19 C :   -0.029366
  20 O :   -0.529517
  21 H :    0.168034
  22 O :   -0.602819
  23 H :    0.185464
  24 H :    0.165085
  25 H :    0.139631
  26 H :    0.143901
  27 H :    0.146643
  28 H :    0.362048
Sum of atomic charges:   -0.0000000

LOEWDIN ATOMIC CHARGES
----------------------
   0 C :    0.184362
   1 C :   -0.232387
   2 C :   -0.219119
   3 C :   -0.028422
   4 O :   -0.307392
   5 H :    0.106209
   6 H :    0.122455
   7 H :    0.117016
   8 H :    0.117097
   9 H :    0.109861
  10 H :    0.106891
  11 H :    0.104803
  12 C :   -0.038631
  13 H :    0.087166
  14 H :    0.101264
  15 O :   -0.338732
  16 C :    0.018999
  17 C :    0.038597
  18 C :   -0.241762
  19 C :   -0.038212
  20 O :   -0.332548
  21 H :    0.119888
  22 O :   -0.414388
  23 H :    0.132134
  24 H :    0.127656
  25 H :    0.110884
  26 H :    0.102592
  27 H :    0.102890
  28 H :    0.280829

  Mayer bond orders larger than 0.100000
B(  0-C ,  1-C ) :   0.9343 B(  0-C ,  4-O ) :   0.9285 B(  0-C ,  5-H ) :   0.9279
B(  0-C , 15-O ) :   0.8434 B(  1-C ,  2-C ) :   0.9498 B(  1-C ,  6-H ) :   0.9338
B(  1-C ,  7-H ) :   0.9274 B(  2-C ,  3-C ) :   0.9508 B(  2-C ,  8-H ) :   0.9454
B(  2-C ,  9-H ) :   0.9415 B(  3-C ,  4-O ) :   0.8417 B(  3-C , 10-H ) :   0.9345
B(  3-C , 11-H ) :   0.9393 B( 12-C , 13-H ) :   0.9096 B( 12-C , 14-H ) :   0.9133
B( 12-C , 15-O ) :   0.8341 B( 12-C , 16-C ) :   0.8987 B( 16-C , 17-C ) :   0.9163
B( 16-C , 20-O ) :   0.8434 B( 16-C , 21-H ) :   0.9245 B( 17-C , 18-C ) :   0.9113
B( 17-C , 22-O ) :   0.8880 B( 17-C , 23-H ) :   0.9209 B( 18-C , 19-C ) :   0.9418
B( 18-C , 24-H ) :   0.9374 B( 18-C , 25-H ) :   0.9358 B( 19-C , 20-O ) :   0.8431
B( 19-C , 26-H ) :   0.9360 B( 19-C , 27-H ) :   0.9383 B( 22-O , 28-H ) :   0.7962

FINAL SINGLE POINT ENERGY      -652.857084870018

DIPOLE MOMENT
-------------
                                X             Y             Z
Electronic contribution:     -3.76574      -5.22716      -1.73298
Nuclear contribution   :      4.79924       6.75130       1.61274
                        -----------------------------------------
Total Dipole Moment    :      1.03350       1.52415      -0.12024
                        -----------------------------------------
Magnitude (a.u.)       :      1.84543
Magnitude (Debye)      :      4.69070

Rotational constants in cm-1:     0.052614     0.013067     0.012591
Rotational constants in MHz :  1577.337681   391.749369   377.468300

                             ****ORCA TERMINATED NORMALLY****
TOTAL RUN TIME: 0 days 0 hours 21 minutes 58 seconds 572 msec
