                         Program Version 4.2.1 -  RELEASE  -
|  1> # Test redundant internal optimization
|  2> #
|  3> ! RKS B3LYP  Opt TightSCF SmallPrint
|  4>
|  5> %basis
|  6>         Basis "6-31G"
|  7> end
|  8>
|  9> %geom
| 10> Constraints
| 11> { D 4  0  19  14  270.0   C } # D for Dihedral angle
| 12> { D 0  19  14  12  30.0   C } # D for Dihedral angle
| 13> { D 0  4  3  2   C } # D for Dihedral angle
| 14> { D 4  3  2  1   C } # D for Dihedral angle
| 15> { D 3  2  1  0   C } # D for Dihedral angle
| 16> { D 2  1  0  4   C } # D for Dihedral angle
| 17> { D 1  0  4  3   C } # D for Dihedral angle
| 18> { D 14  15  16  17   C } # D for Dihedral angle
| 19> { D 15  16  17  12   C } # D for Dihedral angle
| 20> { D 16  17  12  14   C } # D for Dihedral angle
| 21> { D 17  12  14  15   C } # D for Dihedral angle
| 22> { D 12  14  15  16   C } # D for Dihedral angle
| 23> end
| 24> end
| 25>
| 26>
| 27> #%pal
| 28> #nprocs 8
| 29> #end
| 30>
| 31> * xyz 0 1
| 32> C  -21.048   26.222   46.251
| 33> C  -20.361   27.558   45.944
| 34> C  -20.329   28.222   47.341
| 35> C  -20.110   27.022   48.296
| 36> O  -20.473   25.807   47.535
| 37> H  -20.833   25.428   45.533
| 38> H  -19.344   27.382   45.576
| 39> H  -20.898   28.157   45.201
| 40> H  -19.543   28.978   47.434
| 41> H  -21.289   28.710   47.548
| 42> H  -20.733   27.082   49.195
| 43> H  -19.064   26.913   48.597
| 44> C  -22.406   23.949   46.452
| 45> H  -22.822   23.042   45.988
| 46> C  -23.226   25.191   46.082
| 47> C  -24.433   25.068   47.041
| 48> C  -23.807   24.456   48.319
| 49> O  -22.510   23.870   47.913
| 50> H  -21.344   24.020   46.211
| 51> O  -22.472   26.381   46.366
| 52> H  -23.521   25.213   45.028
| 53> H  -24.923   26.027   47.234
| 54> H  -25.184   24.389   46.617
| 55> H  -24.432   23.673   48.761
| 56> H  -23.594   25.212   49.082
| 57> *
| 58>
| 59>                          ****END OF INPUT****
 Total Charge           Charge          ....    0
 Multiplicity           Mult            ....    1
 Number of Electrons    NEL             ....   86
FINAL SINGLE POINT ENERGY      -538.416527133701
FINAL SINGLE POINT ENERGY      -538.428904008551
FINAL SINGLE POINT ENERGY      -538.430218088469
FINAL SINGLE POINT ENERGY      -538.430483982707
FINAL SINGLE POINT ENERGY      -538.430512380280
FINAL SINGLE POINT ENERGY      -538.430519303031
                    ***********************HURRAY********************

CARTESIAN COORDINATES (ANGSTROEM)
---------------------------------
  C    -20.880886   26.208993   46.246299
  C    -20.383298   27.626670   45.961208
  C    -20.436760   28.272958   47.367127
  C    -20.055128   27.100725   48.299183
  O    -20.259983   25.865526   47.504152
  H    -20.564898   25.452556   45.523579
  H    -19.351910   27.580342   45.592633
  H    -21.003681   28.140659   45.224471
  H    -19.756008   29.123767   47.466220
  H    -21.454728   28.615673   47.573734
  H    -20.674106   27.047983   49.198201
  H    -19.000024   27.115213   48.589003
  C    -22.552099   23.742372   46.430974
  H    -23.142610   22.955388   45.937985
  C    -23.155024   25.104931   46.092056
  C    -24.349829   25.164656   47.059002
  C    -23.829341   24.435710   48.321259
  O    -22.652009   23.650873   47.889171
  H    -21.500187   23.610728   46.177173
  O    -22.318329   26.282535   46.336781
  H    -23.475407   25.146667   45.042276
  H    -24.641648   26.199823   47.249627
  H    -25.202743   24.635974   46.619045
  H    -24.575471   23.759716   48.753897
  H    -23.482893   25.131565   49.089943

 Multiplicity           Mult            ....    1
 Number of Electrons    NEL             ....   86
 Basis Dimension        Dim             ....  127

ORBITAL ENERGIES
----------------

  NO   OCC          E(Eh)            E(eV)
   0   2.0000     -19.139222      -520.8047
   1   2.0000     -19.131029      -520.5818
   2   2.0000     -19.124267      -520.3978
   3   2.0000     -10.275352      -279.6065
   4   2.0000     -10.239377      -278.6276
   5   2.0000     -10.222389      -278.1653
   6   2.0000     -10.218647      -278.0635
   7   2.0000     -10.216805      -278.0134
   8   2.0000     -10.182512      -277.0802
   9   2.0000     -10.180873      -277.0356
  10   2.0000     -10.180442      -277.0239
  11   2.0000      -1.047798       -28.5120
  12   2.0000      -1.009027       -27.4570
  13   2.0000      -0.985738       -26.8233
  14   2.0000      -0.789651       -21.4875
  15   2.0000      -0.773033       -21.0353
  16   2.0000      -0.734517       -19.9872
  17   2.0000      -0.721107       -19.6223
  18   2.0000      -0.614840       -16.7306
  19   2.0000      -0.594005       -16.1637
  20   2.0000      -0.591682       -16.1005
  21   2.0000      -0.565336       -15.3836
  22   2.0000      -0.522392       -14.2150
  23   2.0000      -0.497069       -13.5259
  24   2.0000      -0.484100       -13.1730
  25   2.0000      -0.473248       -12.8777
  26   2.0000      -0.447394       -12.1742
  27   2.0000      -0.436529       -11.8786
  28   2.0000      -0.432938       -11.7808
  29   2.0000      -0.409835       -11.1522
  30   2.0000      -0.400156       -10.8888
  31   2.0000      -0.377101       -10.2614
  32   2.0000      -0.369706       -10.0602
  33   2.0000      -0.361888        -9.8475
  34   2.0000      -0.357046        -9.7157
  35   2.0000      -0.350970        -9.5504
  36   2.0000      -0.340418        -9.2632
  37   2.0000      -0.321406        -8.7459
  38   2.0000      -0.300807        -8.1854
  39   2.0000      -0.290182        -7.8963
  40   2.0000      -0.262009        -7.1296
  41   2.0000      -0.244558        -6.6548
  42   2.0000      -0.229797        -6.2531
  43   0.0000       0.081408         2.2152
  44   0.0000       0.098641         2.6842
  45   0.0000       0.101579         2.7641
  46   0.0000       0.115464         3.1419
  47   0.0000       0.120949         3.2912

MULLIKEN ATOMIC CHARGES
-----------------------
   0 C :    0.290296
   1 C :   -0.256911
   2 C :   -0.297165
   3 C :   -0.000376
   4 O :   -0.499649
   5 H :    0.136100
   6 H :    0.142348
   7 H :    0.150410
   8 H :    0.137812
   9 H :    0.159168
  10 H :    0.147915
  11 H :    0.140233
  12 C :   -0.017142
  13 H :    0.127015
  14 C :    0.095090
  15 C :   -0.292099
  16 C :    0.000825
  17 O :   -0.510870
  18 H :    0.165338
  19 O :   -0.532029
  20 H :    0.129011
  21 H :    0.162614
  22 H :    0.136771
  23 H :    0.133700
  24 H :    0.151596
Sum of atomic charges:   -0.0000000

LOEWDIN ATOMIC CHARGES
----------------------
   0 C :    0.172730
   1 C :   -0.215092
   2 C :   -0.216103
   3 C :   -0.026653
   4 O :   -0.318878
   5 H :    0.093948
   6 H :    0.112018
   7 H :    0.120563
   8 H :    0.111929
   9 H :    0.117557
  10 H :    0.105673
  11 H :    0.101500
  12 C :   -0.048888
  13 H :    0.094861
  14 C :    0.042985
  15 C :   -0.224788
  16 C :   -0.028665
  17 O :   -0.323619
  18 H :    0.119548
  19 O :   -0.329648
  20 H :    0.096361
  21 H :    0.127736
  22 H :    0.110345
  23 H :    0.097344
  24 H :    0.107234

  Mayer bond orders larger than 0.100000
B(  0-C ,  1-C ) :   0.9458 B(  0-C ,  4-O ) :   0.9159 B(  0-C ,  5-H ) :   0.9195
B(  0-C , 19-O ) :   0.8521 B(  1-C ,  2-C ) :   0.9591 B(  1-C ,  6-H ) :   0.9405
B(  1-C ,  7-H ) :   0.9376 B(  2-C ,  3-C ) :   0.9533 B(  2-C ,  8-H ) :   0.9456
B(  2-C ,  9-H ) :   0.9447 B(  3-C ,  4-O ) :   0.8423 B(  3-C , 10-H ) :   0.9349
B(  3-C , 11-H ) :   0.9400 B( 12-C , 13-H ) :   0.9071 B( 12-C , 14-C ) :   0.9232
B( 12-C , 17-O ) :   0.8719 B( 12-C , 18-H ) :   0.9238 B( 14-C , 15-C ) :   0.9498
B( 14-C , 19-O ) :   0.8386 B( 14-C , 20-H ) :   0.9260 B( 15-C , 16-C ) :   0.9467
B( 15-C , 21-H ) :   0.9364 B( 15-C , 22-H ) :   0.9409 B( 16-C , 17-O ) :   0.8593
B( 16-C , 23-H ) :   0.9332 B( 16-C , 24-H ) :   0.9358

FINAL SINGLE POINT ENERGY      -538.430519995187

DIPOLE MOMENT
-------------
                                X             Y             Z
Electronic contribution:      0.82566      -2.96945       0.00656
Nuclear contribution   :     -1.22395       3.68508      -0.70700
                        -----------------------------------------
Total Dipole Moment    :     -0.39828       0.71562      -0.70044
                        -----------------------------------------
Magnitude (a.u.)       :      1.07767
Magnitude (Debye)      :      2.73921

Rotational constants in cm-1:     0.071443     0.024180     0.022858
Rotational constants in MHz :  2141.821803   724.910651   685.265651

                             ****ORCA TERMINATED NORMALLY****
TOTAL RUN TIME: 0 days 0 hours 7 minutes 19 seconds 741 msec
