                         Program Version 4.2.0 -  RELEASE  -
|  1> # Test redundant internal optimization
|  2> #
|  3> ! RKS B3LYP  Opt TightSCF SmallPrint
|  4>
|  5> %basis
|  6>         Basis "6-31G"
|  7> end
|  8>
|  9> %geom
| 10> Constraints
| 11> { D 4  0  15  12  210.0   C } # D for Dihedral angle
| 12> { D 0  15  12  16  165.0   C } # D for Dihedral angle
| 13> { D 0  4  3  2   C } # D for Dihedral angle
| 14> { D 4  3  2  1   C } # D for Dihedral angle
| 15> { D 3  2  1  0   C } # D for Dihedral angle
| 16> { D 2  1  0  4   C } # D for Dihedral angle
| 17> { D 1  0  4  3   C } # D for Dihedral angle
| 18> { D 16  20  19  18   C } # D for Dihedral angle
| 19> { D 20  19  18  17   C } # D for Dihedral angle
| 20> { D 19  18  17  16   C } # D for Dihedral angle
| 21> { D 18  17  16  20   C } # D for Dihedral angle
| 22> { D 17  16  20  19   C } # D for Dihedral angle
| 23> { D 15  12  16  20   C } # D for Dihedral angle
| 24> end
| 25> end
| 26>
| 27>
| 28> #%pal
| 29> #nprocs 8
| 30> #end
| 31>
| 32> * xyz 0 1
| 33> C  -21.048   26.222   46.251
| 34> C  -20.361   27.558   45.944
| 35> C  -20.329   28.222   47.341
| 36> C  -20.110   27.022   48.296
| 37> O  -20.473   25.807   47.535
| 38> H  -20.833   25.428   45.533
| 39> H  -19.344   27.382   45.576
| 40> H  -20.898   28.157   45.201
| 41> H  -19.543   28.978   47.434
| 42> H  -21.289   28.710   47.548
| 43> H  -20.733   27.082   49.195
| 44> H  -19.064   26.913   48.597
| 45> C  -23.389   26.110   45.076
| 46> H  -23.255   26.946   44.378
| 47> H  -23.024   25.196   44.591
| 48> O  -22.586   26.394   46.375
| 49> C  -24.910   25.932   45.337
| 50> C  -25.172   24.837   46.377
| 51> C  -24.876   25.583   47.700
| 52> C  -25.373   27.022   47.411
| 53> O  -25.472   27.145   45.940
| 54> H  -25.422   25.782   44.385
| 55> O  -26.659   24.393   46.320
| 56> H  -24.542   23.952   46.239
| 57> H  -25.378   25.134   48.563
| 58> H  -23.798   25.580   47.901
| 59> H  -24.687   27.787   47.790
| 60> H  -26.371   27.209   47.818
| 61> H  -27.310   25.264   46.457
| 62> *
| 63>
| 64>                          ****END OF INPUT****
 Total Charge           Charge          ....    0
 Multiplicity           Mult            ....    1
 Number of Electrons    NEL             ....  102
FINAL SINGLE POINT ENERGY      -652.836131506279
FINAL SINGLE POINT ENERGY      -652.858942143739
FINAL SINGLE POINT ENERGY      -652.862820421546
FINAL SINGLE POINT ENERGY      -652.863885473971
FINAL SINGLE POINT ENERGY      -652.864009768288
FINAL SINGLE POINT ENERGY      -652.864025678861
                    ***********************HURRAY********************

CARTESIAN COORDINATES (ANGSTROEM)
---------------------------------
  C    -21.092621   26.214263   46.185648
  C    -20.390918   27.539142   45.895033
  C    -20.412150   28.222651   47.282360
  C    -20.238194   27.037993   48.255798
  O    -20.583201   25.821177   47.469974
  H    -20.875103   25.401691   45.483604
  H    -19.362760   27.342782   45.568686
  H    -20.895498   28.125414   45.121908
  H    -19.624084   28.973335   47.393556
  H    -21.379377   28.710343   47.435828
  H    -20.898836   27.090230   49.124427
  H    -19.205323   26.908988   48.591662
  C    -23.301275   26.120451   45.094774
  H    -23.184572   26.946842   44.379329
  H    -22.946657   25.193653   44.614912
  O    -22.531085   26.389883   46.296262
  C    -24.782294   25.979387   45.435849
  C    -25.158306   24.864321   46.422381
  C    -24.905492   25.552243   47.790480
  C    -25.315518   27.021385   47.522125
  O    -25.319973   27.194658   46.048544
  H    -25.321974   25.838594   44.491537
  O    -26.549459   24.473530   46.241044
  H    -24.584291   23.946707   46.289644
  H    -25.502933   25.080329   48.575463
  H    -23.845489   25.486209   48.039508
  H    -24.609531   27.735075   47.954375
  H    -26.325342   27.255535   47.874569
  H    -27.106745   25.280191   46.229721

 Multiplicity           Mult            ....    1
 Number of Electrons    NEL             ....  102
 Basis Dimension        Dim             ....  149

ORBITAL ENERGIES
----------------

  NO   OCC          E(Eh)            E(eV)
   0   2.0000     -19.148150      -521.0477
   1   2.0000     -19.145640      -520.9794
   2   2.0000     -19.135739      -520.7099
   3   2.0000     -19.131832      -520.6036
   4   2.0000     -10.285279      -279.8767
   5   2.0000     -10.237150      -278.5670
   6   2.0000     -10.233380      -278.4644
   7   2.0000     -10.233197      -278.4595
   8   2.0000     -10.229122      -278.3485
   9   2.0000     -10.219851      -278.0963
  10   2.0000     -10.190064      -277.2857
  11   2.0000     -10.189414      -277.2681
  12   2.0000     -10.170985      -276.7666
  13   2.0000      -1.059619       -28.8337
  14   2.0000      -1.030097       -28.0304
  15   2.0000      -1.003723       -27.3127
  16   2.0000      -0.995432       -27.0871
  17   2.0000      -0.791062       -21.5259
  18   2.0000      -0.775973       -21.1153
  19   2.0000      -0.761381       -20.7182
  20   2.0000      -0.733903       -19.9705
  21   2.0000      -0.674541       -18.3552
  22   2.0000      -0.603867       -16.4321
  23   2.0000      -0.598370       -16.2825
  24   2.0000      -0.592811       -16.1312
  25   2.0000      -0.578081       -15.7304
  26   2.0000      -0.528186       -14.3727
  27   2.0000      -0.502438       -13.6720
  28   2.0000      -0.500671       -13.6239
  29   2.0000      -0.486987       -13.2516
  30   2.0000      -0.475642       -12.9429
  31   2.0000      -0.454385       -12.3644
  32   2.0000      -0.449688       -12.2366
  33   2.0000      -0.441159       -12.0046
  34   2.0000      -0.422142       -11.4871
  35   2.0000      -0.411591       -11.2000
  36   2.0000      -0.403757       -10.9868
  37   2.0000      -0.384242       -10.4558
  38   2.0000      -0.374196       -10.1824
  39   2.0000      -0.366967        -9.9857
  40   2.0000      -0.360195        -9.8014
  41   2.0000      -0.356089        -9.6897
  42   2.0000      -0.353561        -9.6209
  43   2.0000      -0.327032        -8.8990
  44   2.0000      -0.316807        -8.6207
  45   2.0000      -0.312405        -8.5010
  46   2.0000      -0.299930        -8.1615
  47   2.0000      -0.268296        -7.3007
  48   2.0000      -0.263923        -7.1817
  49   2.0000      -0.255599        -6.9552
  50   2.0000      -0.240182        -6.5357
  51   0.0000       0.066432         1.8077
  52   0.0000       0.081189         2.2093
  53   0.0000       0.091003         2.4763
  54   0.0000       0.102447         2.7877
  55   0.0000       0.108045         2.9400

MULLIKEN ATOMIC CHARGES
-----------------------
   0 C :    0.298367
   1 C :   -0.262139
   2 C :   -0.301385
   3 C :   -0.003579
   4 O :   -0.505671
   5 H :    0.139792
   6 H :    0.145226
   7 H :    0.149213
   8 H :    0.144147
   9 H :    0.164729
  10 H :    0.151406
  11 H :    0.144096
  12 C :    0.005321
  13 H :    0.143189
  14 H :    0.122605
  15 O :   -0.519957
  16 C :    0.067237
  17 C :    0.077041
  18 C :   -0.290517
  19 C :   -0.017876
  20 O :   -0.527929
  21 H :    0.154085
  22 O :   -0.602785
  23 H :    0.151295
  24 H :    0.145526
  25 H :    0.185435
  26 H :    0.149230
  27 H :    0.132878
  28 H :    0.361018
Sum of atomic charges:   -0.0000000

LOEWDIN ATOMIC CHARGES
----------------------
   0 C :    0.178657
   1 C :   -0.226204
   2 C :   -0.216775
   3 C :   -0.025891
   4 O :   -0.309043
   5 H :    0.096842
   6 H :    0.114198
   7 H :    0.118215
   8 H :    0.115583
   9 H :    0.120006
  10 H :    0.107733
  11 H :    0.103628
  12 C :   -0.037218
  13 H :    0.099916
  14 H :    0.093654
  15 O :   -0.331282
  16 C :    0.015055
  17 C :    0.040148
  18 C :   -0.243164
  19 C :   -0.032293
  20 O :   -0.331479
  21 H :    0.115515
  22 O :   -0.417340
  23 H :    0.116092
  24 H :    0.117132
  25 H :    0.135828
  26 H :    0.106495
  27 H :    0.095096
  28 H :    0.280894

  Mayer bond orders larger than 0.100000
B(  0-C ,  1-C ) :   0.9336 B(  0-C ,  4-O ) :   0.9340 B(  0-C ,  5-H ) :   0.9183
B(  0-C , 15-O ) :   0.8276 B(  1-C ,  2-C ) :   0.9539 B(  1-C ,  6-H ) :   0.9343
B(  1-C ,  7-H ) :   0.9365 B(  2-C ,  3-C ) :   0.9554 B(  2-C ,  8-H ) :   0.9448
B(  2-C ,  9-H ) :   0.9430 B(  3-C ,  4-O ) :   0.8345 B(  3-C , 10-H ) :   0.9349
B(  3-C , 11-H ) :   0.9396 B( 12-C , 13-H ) :   0.9156 B( 12-C , 14-H ) :   0.9065
B( 12-C , 15-O ) :   0.8407 B( 12-C , 16-C ) :   0.9093 B( 16-C , 17-C ) :   0.9086
B( 16-C , 20-O ) :   0.8754 B( 16-C , 21-H ) :   0.9217 B( 17-C , 18-C ) :   0.9240
B( 17-C , 22-O ) :   0.8895 B( 17-C , 23-H ) :   0.9359 B( 18-C , 19-C ) :   0.9473
B( 18-C , 24-H ) :   0.9378 B( 18-C , 25-H ) :   0.9141 B( 19-C , 20-O ) :   0.8362
B( 19-C , 26-H ) :   0.9343 B( 19-C , 27-H ) :   0.9382 B( 22-O , 28-H ) :   0.7969

FINAL SINGLE POINT ENERGY      -652.864026141130

DIPOLE MOMENT
-------------
                                X             Y             Z
Electronic contribution:     -3.49639      -2.96116      -1.47337
Nuclear contribution   :      4.42763       3.76373       1.31505
                        -----------------------------------------
Total Dipole Moment    :      0.93124       0.80257      -0.15832
                        -----------------------------------------
Magnitude (a.u.)       :      1.23952
Magnitude (Debye)      :      3.15060

Rotational constants in cm-1:     0.055350     0.013973     0.013683
Rotational constants in MHz :  1659.348489   418.885480   410.219787

                             ****ORCA TERMINATED NORMALLY****
TOTAL RUN TIME: 0 days 0 hours 21 minutes 0 seconds 754 msec
