                         Program Version 4.2.0 -  RELEASE  -
|  1> # Test redundant internal optimization
|  2> #
|  3> ! RKS B3LYP  Opt TightSCF SmallPrint
|  4>
|  5> %basis
|  6>         Basis "6-31G"
|  7> end
|  8>
|  9> %geom
| 10> Constraints
| 11> { D 4  0  15  12  120.0   C } # D for Dihedral angle
| 12> { D 0  15  12  16  255.0   C } # D for Dihedral angle
| 13> { D 0  4  3  2   C } # D for Dihedral angle
| 14> { D 4  3  2  1   C } # D for Dihedral angle
| 15> { D 3  2  1  0   C } # D for Dihedral angle
| 16> { D 2  1  0  4   C } # D for Dihedral angle
| 17> { D 1  0  4  3   C } # D for Dihedral angle
| 18> { D 16  20  19  18   C } # D for Dihedral angle
| 19> { D 20  19  18  17   C } # D for Dihedral angle
| 20> { D 19  18  17  16   C } # D for Dihedral angle
| 21> { D 18  17  16  20   C } # D for Dihedral angle
| 22> { D 17  16  20  19   C } # D for Dihedral angle
| 23> { D 15  12  16  20   C } # D for Dihedral angle
| 24> end
| 25> end
| 26>
| 27>
| 28> #%pal
| 29> #nprocs 8
| 30> #end
| 31>
| 32> * xyz 0 1
| 33> C  -21.048   26.222   46.251
| 34> C  -20.361   27.558   45.944
| 35> C  -20.329   28.222   47.341
| 36> C  -20.110   27.022   48.296
| 37> O  -20.473   25.807   47.535
| 38> H  -20.833   25.428   45.533
| 39> H  -19.344   27.382   45.576
| 40> H  -20.898   28.157   45.201
| 41> H  -19.543   28.978   47.434
| 42> H  -21.289   28.710   47.548
| 43> H  -20.733   27.082   49.195
| 44> H  -19.064   26.913   48.597
| 45> C  -23.119   27.818   46.058
| 46> H  -22.341   28.387   45.534
| 47> H  -24.000   27.762   45.406
| 48> O  -22.586   26.394   46.375
| 49> C  -23.525   28.606   47.334
| 50> C  -24.152   29.958   46.978
| 51> C  -25.591   29.543   46.590
| 52> C  -25.891   28.368   47.554
| 53> O  -24.584   27.896   48.059
| 54> H  -22.665   28.669   48.004
| 55> H  -24.162   30.612   47.857
| 56> O  -23.407   30.693   45.830
| 57> H  -26.312   30.361   46.693
| 58> H  -25.617   29.204   45.547
| 59> H  -26.403   27.537   47.056
| 60> H  -26.479   28.679   48.421
| 61> H  -23.385   30.058   44.938
| 62> *
| 63>
| 64>                          ****END OF INPUT****
 Total Charge           Charge          ....    0
 Multiplicity           Mult            ....    1
 Number of Electrons    NEL             ....  102
FINAL SINGLE POINT ENERGY      -652.798346617393
FINAL SINGLE POINT ENERGY      -652.825155201213
FINAL SINGLE POINT ENERGY      -652.840765539654
FINAL SINGLE POINT ENERGY      -652.843707023078
FINAL SINGLE POINT ENERGY      -652.844316700859
FINAL SINGLE POINT ENERGY      -652.844445734341
FINAL SINGLE POINT ENERGY      -652.844456953561
FINAL SINGLE POINT ENERGY      -652.844456220768
                    ***********************HURRAY********************

CARTESIAN COORDINATES (ANGSTROEM)
---------------------------------
  C    -21.104632   26.312748   46.318822
  C    -20.129310   27.436669   45.954565
  C    -19.967873   28.178582   47.310530
  C    -20.042779   27.022149   48.336244
  O    -20.662403   25.881344   47.621219
  H    -21.010352   25.430418   45.682443
  H    -19.183049   26.972995   45.657107
  H    -20.455994   28.084307   45.137031
  H    -19.020658   28.723270   47.372008
  H    -20.773553   28.903613   47.456070
  H    -20.651117   27.263878   49.212505
  H    -19.053863   26.690929   48.665788
  C    -23.121225   27.879651   46.007424
  H    -22.424063   28.532877   45.469051
  H    -23.961814   27.652479   45.340537
  O    -22.531608   26.593441   46.322884
  C    -23.618918   28.615261   47.256695
  C    -24.294192   29.962330   46.949809
  C    -25.743137   29.518045   46.583592
  C    -25.977151   28.316522   47.525640
  O    -24.638883   27.868355   47.984902
  H    -22.789441   28.729592   47.959432
  H    -24.301928   30.578061   47.852272
  O    -23.625733   30.775067   45.951177
  H    -26.471312   30.321209   46.727112
  H    -25.777179   29.213266   45.528757
  H    -26.483306   27.480665   47.032881
  H    -26.545077   28.595579   48.418311
  H    -23.883450   30.492698   45.050189

 Multiplicity           Mult            ....    1
 Number of Electrons    NEL             ....  102
 Basis Dimension        Dim             ....  149

ORBITAL ENERGIES
----------------

  NO   OCC          E(Eh)            E(eV)
   0   2.0000     -19.155022      -521.2346
   1   2.0000     -19.136338      -520.7262
   2   2.0000     -19.133712      -520.6548
   3   2.0000     -19.132724      -520.6279
   4   2.0000     -10.275390      -279.6076
   5   2.0000     -10.248746      -278.8826
   6   2.0000     -10.232176      -278.4317
   7   2.0000     -10.230826      -278.3949
   8   2.0000     -10.230798      -278.3942
   9   2.0000     -10.222456      -278.1672
  10   2.0000     -10.199647      -277.5465
  11   2.0000     -10.192280      -277.3460
  12   2.0000     -10.190395      -277.2948
  13   2.0000      -1.044328       -28.4176
  14   2.0000      -1.036097       -28.1936
  15   2.0000      -1.016755       -27.6673
  16   2.0000      -0.987883       -26.8817
  17   2.0000      -0.787124       -21.4187
  18   2.0000      -0.785535       -21.3755
  19   2.0000      -0.770160       -20.9571
  20   2.0000      -0.731687       -19.9102
  21   2.0000      -0.684892       -18.6369
  22   2.0000      -0.614736       -16.7278
  23   2.0000      -0.605424       -16.4744
  24   2.0000      -0.594845       -16.1866
  25   2.0000      -0.567459       -15.4414
  26   2.0000      -0.524398       -14.2696
  27   2.0000      -0.513378       -13.9697
  28   2.0000      -0.503738       -13.7074
  29   2.0000      -0.498402       -13.5622
  30   2.0000      -0.464769       -12.6470
  31   2.0000      -0.450578       -12.2608
  32   2.0000      -0.447866       -12.1871
  33   2.0000      -0.433301       -11.7907
  34   2.0000      -0.430906       -11.7256
  35   2.0000      -0.426855       -11.6153
  36   2.0000      -0.411344       -11.1932
  37   2.0000      -0.399766       -10.8782
  38   2.0000      -0.380439       -10.3523
  39   2.0000      -0.376522       -10.2457
  40   2.0000      -0.359763        -9.7896
  41   2.0000      -0.355445        -9.6722
  42   2.0000      -0.350455        -9.5364
  43   2.0000      -0.330651        -8.9975
  44   2.0000      -0.320203        -8.7132
  45   2.0000      -0.307912        -8.3787
  46   2.0000      -0.285817        -7.7775
  47   2.0000      -0.274867        -7.4795
  48   2.0000      -0.267373        -7.2756
  49   2.0000      -0.249151        -6.7798
  50   2.0000      -0.232350        -6.3226
  51   0.0000       0.046330         1.2607
  52   0.0000       0.074205         2.0192
  53   0.0000       0.078920         2.1475
  54   0.0000       0.087080         2.3696
  55   0.0000       0.099752         2.7144

MULLIKEN ATOMIC CHARGES
-----------------------
   0 C :    0.316531
   1 C :   -0.304869
   2 C :   -0.312773
   3 C :   -0.004757
   4 O :   -0.492001
   5 H :    0.157019
   6 H :    0.157609
   7 H :    0.145930
   8 H :    0.145651
   9 H :    0.155033
  10 H :    0.152309
  11 H :    0.143315
  12 C :   -0.020199
  13 H :    0.129197
  14 H :    0.140640
  15 O :   -0.514199
  16 C :    0.096784
  17 C :    0.076620
  18 C :   -0.328370
  19 C :   -0.012694
  20 O :   -0.500862
  21 H :    0.155734
  22 H :    0.168715
  23 O :   -0.602709
  24 H :    0.159846
  25 H :    0.133417
  26 H :    0.150667
  27 H :    0.151103
  28 H :    0.357315
Sum of atomic charges:   -0.0000000

LOEWDIN ATOMIC CHARGES
----------------------
   0 C :    0.181382
   1 C :   -0.232514
   2 C :   -0.221932
   3 C :   -0.031084
   4 O :   -0.311385
   5 H :    0.105561
   6 H :    0.123570
   7 H :    0.114186
   8 H :    0.116356
   9 H :    0.110563
  10 H :    0.106988
  11 H :    0.103526
  12 C :   -0.048698
  13 H :    0.097425
  14 H :    0.103534
  15 O :   -0.317064
  16 C :    0.011901
  17 C :    0.032178
  18 C :   -0.242231
  19 C :   -0.029766
  20 O :   -0.309586
  21 H :    0.111319
  22 H :    0.119100
  23 O :   -0.411484
  24 H :    0.123044
  25 H :    0.103685
  26 H :    0.106148
  27 H :    0.106631
  28 H :    0.278648

  Mayer bond orders larger than 0.100000
B(  0-C ,  1-C ) :   0.9285 B(  0-C ,  4-O ) :   0.9161 B(  0-C ,  5-H ) :   0.9331
B(  0-C , 15-O ) :   0.8790 B(  1-C ,  2-C ) :   0.9522 B(  1-C ,  6-H ) :   0.9334
B(  1-C ,  7-H ) :   0.9277 B(  2-C ,  3-C ) :   0.9491 B(  2-C ,  8-H ) :   0.9458
B(  2-C ,  9-H ) :   0.9336 B(  3-C ,  4-O ) :   0.8472 B(  3-C , 10-H ) :   0.9319
B(  3-C , 11-H ) :   0.9389 B( 12-C , 13-H ) :   0.8940 B( 12-C , 14-H ) :   0.9337
B( 12-C , 15-O ) :   0.8653 B( 12-C , 16-C ) :   0.8879 B( 16-C , 17-C ) :   0.8673
B( 16-C , 20-O ) :   0.8686 B( 16-C , 21-H ) :   0.9230 B( 17-C , 18-C ) :   0.9300
B( 17-C , 22-H ) :   0.9314 B( 17-C , 23-O ) :   0.8918 B( 18-C , 19-C ) :   0.9372
B( 18-C , 24-H ) :   0.9407 B( 18-C , 25-H ) :   0.9399 B( 19-C , 20-O ) :   0.8524
B( 19-C , 26-H ) :   0.9305 B( 19-C , 27-H ) :   0.9370 B( 23-O , 28-H ) :   0.7989

FINAL SINGLE POINT ENERGY      -652.844455046911

DIPOLE MOMENT
-------------
                                X             Y             Z
Electronic contribution:     -1.02412      -3.52720       1.06425
Nuclear contribution   :      0.89954       4.78045      -2.06905
                        -----------------------------------------
Total Dipole Moment    :     -0.12458       1.25325      -1.00480
                        -----------------------------------------
Magnitude (a.u.)       :      1.61114
Magnitude (Debye)      :      4.09520

Rotational constants in cm-1:     0.048428     0.015129     0.013699
Rotational constants in MHz :  1451.827650   453.557039   410.678559

                             ****ORCA TERMINATED NORMALLY****
TOTAL RUN TIME: 0 days 2 hours 18 minutes 30 seconds 967 msec
