                         Program Version 4.2.0 -  RELEASE  -
|  1> # Test redundant internal optimization
|  2> #
|  3> ! RKS B3LYP  Opt TightSCF SmallPrint
|  4>
|  5> %basis
|  6>         Basis "6-31G"
|  7> end
|  8>
|  9> %geom
| 10> Constraints
| 11> { D 4  0  15  12  90.0   C } # D for Dihedral angle
| 12> { D 0  15  12  16  240.0   C } # D for Dihedral angle
| 13> { D 0  4  3  2   C } # D for Dihedral angle
| 14> { D 4  3  2  1   C } # D for Dihedral angle
| 15> { D 3  2  1  0   C } # D for Dihedral angle
| 16> { D 2  1  0  4   C } # D for Dihedral angle
| 17> { D 1  0  4  3   C } # D for Dihedral angle
| 18> { D 16  20  19  18   C } # D for Dihedral angle
| 19> { D 20  19  18  17   C } # D for Dihedral angle
| 20> { D 19  18  17  16   C } # D for Dihedral angle
| 21> { D 18  17  16  20   C } # D for Dihedral angle
| 22> { D 17  16  20  19   C } # D for Dihedral angle
| 23> { D 15  12  16  20   C } # D for Dihedral angle
| 24> end
| 25> end
| 26>
| 27>
| 28> #%pal
| 29> #nprocs 8
| 30> #end
| 31>
| 32> * xyz 0 1
| 33> C  -21.048   26.222   46.251
| 34> C  -20.361   27.558   45.944
| 35> C  -20.329   28.222   47.341
| 36> C  -20.110   27.022   48.296
| 37> O  -20.473   25.807   47.535
| 38> H  -20.833   25.428   45.533
| 39> H  -19.344   27.382   45.576
| 40> H  -20.898   28.157   45.201
| 41> H  -19.543   28.978   47.434
| 42> H  -21.289   28.710   47.548
| 43> H  -20.733   27.082   49.195
| 44> H  -19.064   26.913   48.597
| 45> C  -23.061   27.816   46.783
| 46> H  -22.187   28.468   46.906
| 47> H  -23.702   28.245   46.003
| 48> O  -22.586   26.394   46.375
| 49> C  -23.865   27.821   48.112
| 50> C  -24.416   29.217   48.424
| 51> C  -25.652   29.282   47.496
| 52> C  -26.175   27.824   47.506
| 53> O  -25.061   26.981   47.991
| 54> H  -23.250   27.391   48.905
| 55> O  -24.844   29.302   49.915
| 56> H  -23.694   30.018   48.226
| 57> H  -26.405   29.998   47.841
| 58> H  -25.348   29.576   46.484
| 59> H  -26.478   27.480   46.510
| 60> H  -27.011   27.685   48.198
| 61> H  -25.567   28.509   50.135
| 62> *
| 63>
| 64>                          ****END OF INPUT****
 Total Charge           Charge          ....    0
 Multiplicity           Mult            ....    1
 Number of Electrons    NEL             ....  102
FINAL SINGLE POINT ENERGY      -652.787511339097
FINAL SINGLE POINT ENERGY      -652.826226205041
FINAL SINGLE POINT ENERGY      -652.844828094642
FINAL SINGLE POINT ENERGY      -652.848691930046
FINAL SINGLE POINT ENERGY      -652.849270266894
FINAL SINGLE POINT ENERGY      -652.849371623016
FINAL SINGLE POINT ENERGY      -652.849383688317
FINAL SINGLE POINT ENERGY      -652.849385705240
                    ***********************HURRAY********************

CARTESIAN COORDINATES (ANGSTROEM)
---------------------------------
  C    -21.188326   26.376962   46.411505
  C    -20.196870   27.451630   45.935391
  C    -19.836508   28.180257   47.267495
  C    -19.858036   27.016377   48.293517
  O    -20.616996   25.916300   47.658712
  H    -21.196778   25.494948   45.769343
  H    -19.315246   26.950398   45.524712
  H    -20.610155   28.114648   45.169943
  H    -18.852789   28.658440   47.220934
  H    -20.562676   28.956445   47.518642
  H    -20.338203   27.286779   49.239073
  H    -18.855489   26.632422   48.503075
  C    -23.135673   28.000548   46.805224
  H    -22.359352   28.753746   46.967387
  H    -23.736919   28.314014   45.942876
  O    -22.592375   26.693639   46.475410
  C    -24.012145   27.896403   48.055247
  C    -24.676393   29.219923   48.462338
  C    -25.916959   29.252291   47.530659
  C    -26.318292   27.759422   47.435231
  O    -25.135389   26.976655   47.867776
  H    -23.411920   27.482313   48.871318
  O    -25.057482   29.195626   49.865362
  H    -24.033014   30.094952   48.354225
  H    -26.702099   29.881667   47.957135
  H    -25.645847   29.657635   46.549091
  H    -26.593094   27.457276   46.420528
  H    -27.140038   27.501902   48.110842
  H    -25.431934   28.314383   50.078009

 Multiplicity           Mult            ....    1
 Number of Electrons    NEL             ....  102
 Basis Dimension        Dim             ....  149

ORBITAL ENERGIES
----------------

  NO   OCC          E(Eh)            E(eV)
   0   2.0000     -19.140463      -520.8385
   1   2.0000     -19.139919      -520.8237
   2   2.0000     -19.139488      -520.8119
   3   2.0000     -19.138196      -520.7768
   4   2.0000     -10.278265      -279.6858
   5   2.0000     -10.244478      -278.7664
   6   2.0000     -10.235776      -278.5296
   7   2.0000     -10.233583      -278.4699
   8   2.0000     -10.229167      -278.3498
   9   2.0000     -10.228755      -278.3386
  10   2.0000     -10.196712      -277.4666
  11   2.0000     -10.195230      -277.4263
  12   2.0000     -10.190536      -277.2986
  13   2.0000      -1.049260       -28.5518
  14   2.0000      -1.035944       -28.1895
  15   2.0000      -1.006573       -27.3902
  16   2.0000      -0.994021       -27.0487
  17   2.0000      -0.790297       -21.5051
  18   2.0000      -0.786719       -21.4077
  19   2.0000      -0.770912       -20.9776
  20   2.0000      -0.733937       -19.9714
  21   2.0000      -0.681087       -18.5333
  22   2.0000      -0.608404       -16.5555
  23   2.0000      -0.604762       -16.4564
  24   2.0000      -0.600409       -16.3380
  25   2.0000      -0.574683       -15.6379
  26   2.0000      -0.521849       -14.2002
  27   2.0000      -0.518664       -14.1136
  28   2.0000      -0.502678       -13.6786
  29   2.0000      -0.491654       -13.3786
  30   2.0000      -0.473957       -12.8970
  31   2.0000      -0.460836       -12.5400
  32   2.0000      -0.447479       -12.1765
  33   2.0000      -0.443446       -12.0668
  34   2.0000      -0.427747       -11.6396
  35   2.0000      -0.419411       -11.4128
  36   2.0000      -0.402991       -10.9659
  37   2.0000      -0.393730       -10.7139
  38   2.0000      -0.384600       -10.4655
  39   2.0000      -0.373467       -10.1625
  40   2.0000      -0.365439        -9.9441
  41   2.0000      -0.361220        -9.8293
  42   2.0000      -0.348685        -9.4882
  43   2.0000      -0.333851        -9.0846
  44   2.0000      -0.314037        -8.5454
  45   2.0000      -0.308257        -8.3881
  46   2.0000      -0.291779        -7.9397
  47   2.0000      -0.271866        -7.3978
  48   2.0000      -0.270349        -7.3566
  49   2.0000      -0.253921        -6.9096
  50   2.0000      -0.238253        -6.4832
  51   0.0000       0.061391         1.6705
  52   0.0000       0.074224         2.0197
  53   0.0000       0.081791         2.2257
  54   0.0000       0.094226         2.5640
  55   0.0000       0.095362         2.5949

MULLIKEN ATOMIC CHARGES
-----------------------
   0 C :    0.304831
   1 C :   -0.291433
   2 C :   -0.316132
   3 C :   -0.008277
   4 O :   -0.498130
   5 H :    0.167969
   6 H :    0.160490
   7 H :    0.146877
   8 H :    0.146627
   9 H :    0.149703
  10 H :    0.145292
  11 H :    0.148061
  12 C :   -0.009502
  13 H :    0.120523
  14 H :    0.141786
  15 O :   -0.508183
  16 C :    0.072729
  17 C :    0.075361
  18 C :   -0.296686
  19 C :   -0.025519
  20 O :   -0.505414
  21 H :    0.169941
  22 O :   -0.603722
  23 H :    0.144828
  24 H :    0.165309
  25 H :    0.140420
  26 H :    0.148477
  27 H :    0.145674
  28 H :    0.368100
Sum of atomic charges:   -0.0000000

LOEWDIN ATOMIC CHARGES
----------------------
   0 C :    0.175977
   1 C :   -0.231435
   2 C :   -0.224208
   3 C :   -0.033657
   4 O :   -0.319399
   5 H :    0.113353
   6 H :    0.125223
   7 H :    0.116486
   8 H :    0.116222
   9 H :    0.105796
  10 H :    0.102759
  11 H :    0.105027
  12 C :   -0.043582
  13 H :    0.096719
  14 H :    0.103660
  15 O :   -0.308546
  16 C :    0.013718
  17 C :    0.033206
  18 C :   -0.241826
  19 C :   -0.037299
  20 O :   -0.317023
  21 H :    0.120611
  22 O :   -0.415530
  23 H :    0.111448
  24 H :    0.127541
  25 H :    0.111048
  26 H :    0.105963
  27 H :    0.102545
  28 H :    0.285200

  Mayer bond orders larger than 0.100000
B(  0-C ,  1-C ) :   0.9206 B(  0-C ,  4-O ) :   0.8979 B(  0-C ,  5-H ) :   0.9355
B(  0-C , 15-O ) :   0.9105 B(  1-C ,  2-C ) :   0.9528 B(  1-C ,  6-H ) :   0.9348
B(  1-C ,  7-H ) :   0.9357 B(  2-C ,  3-C ) :   0.9449 B(  2-C ,  8-H ) :   0.9448
B(  2-C ,  9-H ) :   0.9362 B(  3-C ,  4-O ) :   0.8521 B(  3-C , 10-H ) :   0.9330
B(  3-C , 11-H ) :   0.9388 B( 12-C , 13-H ) :   0.8984 B( 12-C , 14-H ) :   0.9317
B( 12-C , 15-O ) :   0.8471 B( 12-C , 16-C ) :   0.8885 B( 16-C , 17-C ) :   0.8956
B( 16-C , 20-O ) :   0.8688 B( 16-C , 21-H ) :   0.9247 B( 17-C , 18-C ) :   0.9109
B( 17-C , 22-O ) :   0.8931 B( 17-C , 23-H ) :   0.9339 B( 18-C , 19-C ) :   0.9387
B( 18-C , 24-H ) :   0.9365 B( 18-C , 25-H ) :   0.9343 B( 19-C , 20-O ) :   0.8524
B( 19-C , 26-H ) :   0.9344 B( 19-C , 27-H ) :   0.9378 B( 22-O , 28-H ) :   0.7919

FINAL SINGLE POINT ENERGY      -652.849384415604

DIPOLE MOMENT
-------------
                                X             Y             Z
Electronic contribution:     -2.29292      -4.87335       1.89396
Nuclear contribution   :      2.74232       6.21874      -2.65675
                        -----------------------------------------
Total Dipole Moment    :      0.44940       1.34539      -0.76279
                        -----------------------------------------
Magnitude (a.u.)       :      1.61055
Magnitude (Debye)      :      4.09370

Rotational constants in cm-1:     0.052963     0.013461     0.012591
Rotational constants in MHz :  1587.782394   403.538204   377.481997

                             ****ORCA TERMINATED NORMALLY****
TOTAL RUN TIME: 0 days 0 hours 47 minutes 39 seconds 849 msec
