                         Program Version 4.2.0 -  RELEASE  -
|  1> # Test redundant internal optimization
|  2> #
|  3> ! RKS B3LYP  Opt TightSCF SmallPrint
|  4>
|  5> %basis
|  6>         Basis "6-31G"
|  7> end
|  8>
|  9> %geom
| 10> Constraints
| 11> { D 4  0  15  12  255.0   C } # D for Dihedral angle
| 12> { D 0  15  12  16  240.0   C } # D for Dihedral angle
| 13> { D 0  4  3  2   C } # D for Dihedral angle
| 14> { D 4  3  2  1   C } # D for Dihedral angle
| 15> { D 3  2  1  0   C } # D for Dihedral angle
| 16> { D 2  1  0  4   C } # D for Dihedral angle
| 17> { D 1  0  4  3   C } # D for Dihedral angle
| 18> { D 16  20  19  18   C } # D for Dihedral angle
| 19> { D 20  19  18  17   C } # D for Dihedral angle
| 20> { D 19  18  17  16   C } # D for Dihedral angle
| 21> { D 18  17  16  20   C } # D for Dihedral angle
| 22> { D 17  16  20  19   C } # D for Dihedral angle
| 23> { D 15  12  16  20   C } # D for Dihedral angle
| 24> end
| 25> end
| 26>
| 27>
| 28> #%pal
| 29> #nprocs 8
| 30> #end
| 31>
| 32> * xyz 0 1
| 33> C  -21.048   26.222   46.251
| 34> C  -20.361   27.558   45.944
| 35> C  -20.329   28.222   47.341
| 36> C  -20.110   27.022   48.296
| 37> O  -20.473   25.807   47.535
| 38> H  -20.833   25.428   45.533
| 39> H  -19.344   27.382   45.576
| 40> H  -20.898   28.157   45.201
| 41> H  -19.543   28.978   47.434
| 42> H  -21.289   28.710   47.548
| 43> H  -20.733   27.082   49.195
| 44> H  -19.064   26.913   48.597
| 45> C  -23.431   25.260   45.734
| 46> H  -22.759   24.509   45.300
| 47> H  -24.052   24.767   46.493
| 48> O  -22.586   26.394   46.375
| 49> C  -24.376   25.775   44.613
| 50> C  -25.276   24.653   44.084
| 51> C  -26.364   24.579   45.181
| 52> C  -26.525   26.057   45.616
| 53> O  -25.315   26.767   45.150
| 54> H  -23.782   26.278   43.847
| 55> H  -25.715   24.943   43.123
| 56> O  -24.524   23.307   43.891
| 57> H  -27.303   24.146   44.820
| 58> H  -26.013   23.966   46.019
| 59> H  -26.609   26.168   46.703
| 60> H  -27.385   26.541   45.144
| 61> H  -24.076   22.995   44.841
| 62> *
| 63>
| 64>                          ****END OF INPUT****
 Total Charge           Charge          ....    0
 Multiplicity           Mult            ....    1
 Number of Electrons    NEL             ....  102
FINAL SINGLE POINT ENERGY      -652.828020752411
FINAL SINGLE POINT ENERGY      -652.851441150786
FINAL SINGLE POINT ENERGY      -652.856106261206
FINAL SINGLE POINT ENERGY      -652.856945412652
FINAL SINGLE POINT ENERGY      -652.857092296181
FINAL SINGLE POINT ENERGY      -652.857129229035
FINAL SINGLE POINT ENERGY      -652.857135132635
FINAL SINGLE POINT ENERGY      -652.857136683159
                    ***********************HURRAY********************

CARTESIAN COORDINATES (ANGSTROEM)
---------------------------------
  C    -21.043316   26.154892   46.219706
  C    -20.487948   27.545293   45.909346
  C    -20.505744   28.214252   47.304698
  C    -20.168721   27.042716   48.254043
  O    -20.430120   25.803904   47.480228
  H    -20.776818   25.366045   45.508790
  H    -19.461941   27.451031   45.534086
  H    -21.093406   28.073273   45.170180
  H    -19.790002   29.037730   47.387443
  H    -21.508080   28.600833   47.510247
  H    -20.786908   27.031000   49.155201
  H    -19.112524   27.017188   48.539596
  C    -23.298871   25.192879   45.805738
  H    -22.668557   24.409110   45.360888
  H    -23.861735   24.753881   46.639650
  O    -22.478864   26.261203   46.344709
  C    -24.239864   25.738982   44.732078
  C    -25.182944   24.678448   44.139107
  C    -26.332243   24.646443   45.191012
  C    -26.420010   26.120961   45.642288
  O    -25.142881   26.766026   45.242664
  H    -23.636926   26.229034   43.961498
  H    -25.559250   25.027501   43.175384
  O    -24.573529   23.395725   43.851962
  H    -27.269086   24.272892   44.769176
  H    -26.050319   23.987910   46.023653
  H    -26.550227   26.229286   46.723525
  H    -27.223304   26.661933   45.134237
  H    -24.461859   22.875630   44.673864

 Multiplicity           Mult            ....    1
 Number of Electrons    NEL             ....  102
 Basis Dimension        Dim             ....  149

ORBITAL ENERGIES
----------------

  NO   OCC          E(Eh)            E(eV)
   0   2.0000     -19.151616      -521.1420
   1   2.0000     -19.138115      -520.7746
   2   2.0000     -19.137153      -520.7484
   3   2.0000     -19.132684      -520.6268
   4   2.0000     -10.275624      -279.6140
   5   2.0000     -10.246231      -278.8141
   6   2.0000     -10.231358      -278.4094
   7   2.0000     -10.230526      -278.3868
   8   2.0000     -10.230356      -278.3821
   9   2.0000     -10.218837      -278.0687
  10   2.0000     -10.197166      -277.4790
  11   2.0000     -10.178965      -276.9837
  12   2.0000     -10.178546      -276.9723
  13   2.0000      -1.048407       -28.5286
  14   2.0000      -1.034392       -28.1472
  15   2.0000      -1.015922       -27.6447
  16   2.0000      -0.989978       -26.9387
  17   2.0000      -0.785163       -21.3654
  18   2.0000      -0.780489       -21.2382
  19   2.0000      -0.765706       -20.8359
  20   2.0000      -0.727731       -19.8026
  21   2.0000      -0.679240       -18.4831
  22   2.0000      -0.612984       -16.6801
  23   2.0000      -0.593589       -16.1524
  24   2.0000      -0.590438       -16.0666
  25   2.0000      -0.575820       -15.6689
  26   2.0000      -0.530452       -14.4343
  27   2.0000      -0.511628       -13.9221
  28   2.0000      -0.495805       -13.4916
  29   2.0000      -0.488099       -13.2819
  30   2.0000      -0.465531       -12.6677
  31   2.0000      -0.452862       -12.3230
  32   2.0000      -0.440947       -11.9988
  33   2.0000      -0.438707       -11.9378
  34   2.0000      -0.428666       -11.6646
  35   2.0000      -0.416413       -11.3312
  36   2.0000      -0.408190       -11.1074
  37   2.0000      -0.395598       -10.7648
  38   2.0000      -0.378287       -10.2937
  39   2.0000      -0.362785        -9.8719
  40   2.0000      -0.357303        -9.7227
  41   2.0000      -0.350272        -9.5314
  42   2.0000      -0.343444        -9.3456
  43   2.0000      -0.330350        -8.9893
  44   2.0000      -0.317948        -8.6518
  45   2.0000      -0.313236        -8.5236
  46   2.0000      -0.298601        -8.1253
  47   2.0000      -0.272906        -7.4261
  48   2.0000      -0.265465        -7.2237
  49   2.0000      -0.250235        -6.8092
  50   2.0000      -0.233731        -6.3602
  51   0.0000       0.049395         1.3441
  52   0.0000       0.077278         2.1028
  53   0.0000       0.087161         2.3718
  54   0.0000       0.093210         2.5364
  55   0.0000       0.104876         2.8538

MULLIKEN ATOMIC CHARGES
-----------------------
   0 C :    0.274904
   1 C :   -0.252460
   2 C :   -0.299980
   3 C :   -0.000383
   4 O :   -0.506574
   5 H :    0.138975
   6 H :    0.140695
   7 H :    0.154401
   8 H :    0.138156
   9 H :    0.169138
  10 H :    0.147879
  11 H :    0.138625
  12 C :   -0.012155
  13 H :    0.130406
  14 H :    0.135583
  15 O :   -0.506207
  16 C :    0.100588
  17 C :    0.087189
  18 C :   -0.328431
  19 C :   -0.007920
  20 O :   -0.505913
  21 H :    0.153090
  22 H :    0.166287
  23 O :   -0.602241
  24 H :    0.156302
  25 H :    0.136679
  26 H :    0.147247
  27 H :    0.148860
  28 H :    0.357259
Sum of atomic charges:   -0.0000000

LOEWDIN ATOMIC CHARGES
----------------------
   0 C :    0.172720
   1 C :   -0.218381
   2 C :   -0.216263
   3 C :   -0.027093
   4 O :   -0.325110
   5 H :    0.096011
   6 H :    0.111507
   7 H :    0.122366
   8 H :    0.112285
   9 H :    0.122626
  10 H :    0.105917
  11 H :    0.100502
  12 C :   -0.044715
  13 H :    0.099792
  14 H :    0.099360
  15 O :   -0.315972
  16 C :    0.015404
  17 C :    0.034248
  18 C :   -0.241582
  19 C :   -0.029256
  20 O :   -0.314883
  21 H :    0.113873
  22 H :    0.119081
  23 O :   -0.408822
  24 H :    0.122149
  25 H :    0.104934
  26 H :    0.104707
  27 H :    0.105988
  28 H :    0.278606

  Mayer bond orders larger than 0.100000
B(  0-C ,  1-C ) :   0.9457 B(  0-C ,  4-O ) :   0.9224 B(  0-C ,  5-H ) :   0.9164
B(  0-C , 15-O ) :   0.8586 B(  1-C ,  2-C ) :   0.9588 B(  1-C ,  6-H ) :   0.9387
B(  1-C ,  7-H ) :   0.9366 B(  2-C ,  3-C ) :   0.9545 B(  2-C ,  8-H ) :   0.9454
B(  2-C ,  9-H ) :   0.9426 B(  3-C ,  4-O ) :   0.8394 B(  3-C , 10-H ) :   0.9355
B(  3-C , 11-H ) :   0.9401 B( 12-C , 13-H ) :   0.9044 B( 12-C , 14-H ) :   0.9310
B( 12-C , 15-O ) :   0.8525 B( 12-C , 16-C ) :   0.8947 B( 16-C , 17-C ) :   0.8697
B( 16-C , 20-O ) :   0.8713 B( 16-C , 21-H ) :   0.9327 B( 17-C , 18-C ) :   0.9245
B( 17-C , 22-H ) :   0.9331 B( 17-C , 23-O ) :   0.8933 B( 18-C , 19-C ) :   0.9391
B( 18-C , 24-H ) :   0.9421 B( 18-C , 25-H ) :   0.9403 B( 19-C , 20-O ) :   0.8517
B( 19-C , 26-H ) :   0.9312 B( 19-C , 27-H ) :   0.9376 B( 23-O , 28-H ) :   0.7984

FINAL SINGLE POINT ENERGY      -652.857137074471

DIPOLE MOMENT
-------------
                                X             Y             Z
Electronic contribution:     -0.26886      -1.98981      -1.37788
Nuclear contribution   :     -0.10738       1.83970       1.51107
                        -----------------------------------------
Total Dipole Moment    :     -0.37624      -0.15011       0.13319
                        -----------------------------------------
Magnitude (a.u.)       :      0.42641
Magnitude (Debye)      :      1.08385

Rotational constants in cm-1:     0.057608     0.011935     0.011061
Rotational constants in MHz :  1727.045804   357.815551   331.601241

                             ****ORCA TERMINATED NORMALLY****
TOTAL RUN TIME: 0 days 2 hours 9 minutes 6 seconds 537 msec
