                         Program Version 4.2.0 -  RELEASE  -
|  1> # Test redundant internal optimization
|  2> #
|  3> ! RKS B3LYP  Opt TightSCF SmallPrint
|  4>
|  5> %basis
|  6>         Basis "6-31G"
|  7> end
|  8>
|  9> %geom
| 10> Constraints
| 11> { D 4  0  15  12  255.0   C } # D for Dihedral angle
| 12> { D 0  15  12  16  150.0   C } # D for Dihedral angle
| 13> { D 0  4  3  2   C } # D for Dihedral angle
| 14> { D 4  3  2  1   C } # D for Dihedral angle
| 15> { D 3  2  1  0   C } # D for Dihedral angle
| 16> { D 2  1  0  4   C } # D for Dihedral angle
| 17> { D 1  0  4  3   C } # D for Dihedral angle
| 18> { D 16  20  19  18   C } # D for Dihedral angle
| 19> { D 20  19  18  17   C } # D for Dihedral angle
| 20> { D 19  18  17  16   C } # D for Dihedral angle
| 21> { D 18  17  16  20   C } # D for Dihedral angle
| 22> { D 17  16  20  19   C } # D for Dihedral angle
| 23> { D 15  12  16  20   C } # D for Dihedral angle
| 24> end
| 25> end
| 26>
| 27>
| 28> #%pal
| 29> #nprocs 8
| 30> #end
| 31>
| 32> * xyz 0 1
| 33> C  -21.048   26.222   46.251
| 34> C  -20.361   27.558   45.944
| 35> C  -20.329   28.222   47.341
| 36> C  -20.110   27.022   48.296
| 37> O  -20.473   25.807   47.535
| 38> H  -20.833   25.428   45.533
| 39> H  -19.344   27.382   45.576
| 40> H  -20.898   28.157   45.201
| 41> H  -19.543   28.978   47.434
| 42> H  -21.289   28.710   47.548
| 43> H  -20.733   27.082   49.195
| 44> H  -19.064   26.913   48.597
| 45> C  -23.431   25.260   45.734
| 46> H  -23.635   25.509   44.685
| 47> H  -22.882   24.310   45.760
| 48> O  -22.586   26.394   46.375
| 49> C  -24.789   25.040   46.456
| 50> C  -24.587   24.775   47.953
| 51> C  -24.354   26.205   48.496
| 52> C  -25.279   27.074   47.608
| 53> O  -25.597   26.264   46.412
| 54> H  -25.352   24.266   45.932
| 55> O  -25.876   24.161   48.564
| 56> H  -23.750   24.100   48.162
| 57> H  -24.589   26.299   49.561
| 58> H  -23.305   26.494   48.358
| 59> H  -24.802   28.008   47.292
| 60> H  -26.228   27.310   48.098
| 61> H  -26.728   24.821   48.367
| 62> *
| 63>
| 64>                          ****END OF INPUT****
 Total Charge           Charge          ....    0
 Multiplicity           Mult            ....    1
 Number of Electrons    NEL             ....  102
FINAL SINGLE POINT ENERGY      -652.837139531408
FINAL SINGLE POINT ENERGY      -652.859656161073
FINAL SINGLE POINT ENERGY      -652.863538881954
FINAL SINGLE POINT ENERGY      -652.864820989792
FINAL SINGLE POINT ENERGY      -652.864929975369
FINAL SINGLE POINT ENERGY      -652.864945988878
                    ***********************HURRAY********************

CARTESIAN COORDINATES (ANGSTROEM)
---------------------------------
  C    -21.071323   26.160851   46.218823
  C    -20.431662   27.514201   45.906250
  C    -20.437052   28.196678   47.294840
  C    -20.185178   27.018255   48.262431
  O    -20.502955   25.787211   47.494220
  H    -20.830334   25.354877   45.519967
  H    -19.406313   27.357225   45.552010
  H    -20.990133   28.068503   45.149328
  H    -19.675850   28.977589   47.384313
  H    -21.416766   28.647866   47.479139
  H    -20.817782   27.050944   49.153500
  H    -19.137907   26.934740   48.567385
  C    -23.334105   25.272536   45.747493
  H    -23.544640   25.513487   44.697869
  H    -22.806936   24.308312   45.792149
  O    -22.504551   26.330338   46.314242
  C    -24.660908   25.147188   46.490636
  C    -24.591886   24.815898   47.988714
  C    -24.382018   26.219375   48.613964
  C    -25.213717   27.141998   47.689104
  O    -25.440228   26.385192   46.434078
  H    -25.250641   24.383340   45.968622
  O    -25.831251   24.191088   48.429360
  H    -23.804305   24.107840   48.247280
  H    -24.725467   26.234889   49.652328
  H    -23.323577   26.476792   48.569587
  H    -24.689723   28.070249   47.445833
  H    -26.199056   27.383914   48.100575
  H    -26.588740   24.719625   48.099961

 Multiplicity           Mult            ....    1
 Number of Electrons    NEL             ....  102
 Basis Dimension        Dim             ....  149

ORBITAL ENERGIES
----------------

  NO   OCC          E(Eh)            E(eV)
   0   2.0000     -19.148498      -521.0571
   1   2.0000     -19.143469      -520.9203
   2   2.0000     -19.135740      -520.7100
   3   2.0000     -19.132566      -520.6236
   4   2.0000     -10.284368      -279.8519
   5   2.0000     -10.235340      -278.5178
   6   2.0000     -10.233244      -278.4607
   7   2.0000     -10.232574      -278.4425
   8   2.0000     -10.229040      -278.3463
   9   2.0000     -10.220760      -278.1210
  10   2.0000     -10.189345      -277.2662
  11   2.0000     -10.188547      -277.2445
  12   2.0000     -10.173632      -276.8386
  13   2.0000      -1.057419       -28.7738
  14   2.0000      -1.030014       -28.0281
  15   2.0000      -1.002541       -27.2805
  16   2.0000      -0.995017       -27.0758
  17   2.0000      -0.791761       -21.5449
  18   2.0000      -0.774931       -21.0869
  19   2.0000      -0.762644       -20.7526
  20   2.0000      -0.733199       -19.9514
  21   2.0000      -0.673966       -18.3396
  22   2.0000      -0.602223       -16.3873
  23   2.0000      -0.598170       -16.2770
  24   2.0000      -0.593543       -16.1511
  25   2.0000      -0.580303       -15.7908
  26   2.0000      -0.526501       -14.3268
  27   2.0000      -0.503513       -13.7013
  28   2.0000      -0.499291       -13.5864
  29   2.0000      -0.487096       -13.2546
  30   2.0000      -0.473922       -12.8961
  31   2.0000      -0.456085       -12.4107
  32   2.0000      -0.445131       -12.1126
  33   2.0000      -0.439355       -11.9555
  34   2.0000      -0.424982       -11.5644
  35   2.0000      -0.411490       -11.1972
  36   2.0000      -0.404405       -11.0044
  37   2.0000      -0.384923       -10.4743
  38   2.0000      -0.372103       -10.1254
  39   2.0000      -0.365839        -9.9550
  40   2.0000      -0.360043        -9.7973
  41   2.0000      -0.357126        -9.7179
  42   2.0000      -0.349667        -9.5149
  43   2.0000      -0.326584        -8.8868
  44   2.0000      -0.323800        -8.8110
  45   2.0000      -0.309518        -8.4224
  46   2.0000      -0.300146        -8.1674
  47   2.0000      -0.273460        -7.4412
  48   2.0000      -0.263984        -7.1834
  49   2.0000      -0.253009        -6.8847
  50   2.0000      -0.239199        -6.5089
  51   0.0000       0.063727         1.7341
  52   0.0000       0.083581         2.2743
  53   0.0000       0.085531         2.3274
  54   0.0000       0.103383         2.8132
  55   0.0000       0.107790         2.9331

MULLIKEN ATOMIC CHARGES
-----------------------
   0 C :    0.282675
   1 C :   -0.252848
   2 C :   -0.303847
   3 C :   -0.003624
   4 O :   -0.507916
   5 H :    0.144009
   6 H :    0.145418
   7 H :    0.154911
   8 H :    0.144063
   9 H :    0.161581
  10 H :    0.146173
  11 H :    0.144563
  12 C :    0.003401
  13 H :    0.149875
  14 H :    0.134508
  15 O :   -0.523599
  16 C :    0.063916
  17 C :    0.073071
  18 C :   -0.293438
  19 C :   -0.018103
  20 O :   -0.526310
  21 H :    0.155000
  22 O :   -0.603616
  23 H :    0.159544
  24 H :    0.145947
  25 H :    0.179174
  26 H :    0.148405
  27 H :    0.134767
  28 H :    0.362299
Sum of atomic charges:   -0.0000000

LOEWDIN ATOMIC CHARGES
----------------------
   0 C :    0.174281
   1 C :   -0.217424
   2 C :   -0.216825
   3 C :   -0.028640
   4 O :   -0.324574
   5 H :    0.099785
   6 H :    0.114154
   7 H :    0.123092
   8 H :    0.115102
   9 H :    0.117757
  10 H :    0.103546
  11 H :    0.103847
  12 C :   -0.035567
  13 H :    0.106429
  14 H :    0.101309
  15 O :   -0.331071
  16 C :    0.012589
  17 C :    0.039540
  18 C :   -0.242264
  19 C :   -0.032696
  20 O :   -0.331137
  21 H :    0.115715
  22 O :   -0.417669
  23 H :    0.119620
  24 H :    0.117395
  25 H :    0.129866
  26 H :    0.106330
  27 H :    0.095994
  28 H :    0.281518

  Mayer bond orders larger than 0.100000
B(  0-C ,  1-C ) :   0.9451 B(  0-C ,  4-O ) :   0.9175 B(  0-C ,  5-H ) :   0.9198
B(  0-C , 15-O ) :   0.8500 B(  1-C ,  2-C ) :   0.9567 B(  1-C ,  6-H ) :   0.9378
B(  1-C ,  7-H ) :   0.9370 B(  2-C ,  3-C ) :   0.9538 B(  2-C ,  8-H ) :   0.9451
B(  2-C ,  9-H ) :   0.9437 B(  3-C ,  4-O ) :   0.8380 B(  3-C , 10-H ) :   0.9329
B(  3-C , 11-H ) :   0.9400 B( 12-C , 13-H ) :   0.9201 B( 12-C , 14-H ) :   0.9095
B( 12-C , 15-O ) :   0.8384 B( 12-C , 16-C ) :   0.9116 B( 16-C , 17-C ) :   0.9088
B( 16-C , 20-O ) :   0.8737 B( 16-C , 21-H ) :   0.9205 B( 17-C , 18-C ) :   0.9230
B( 17-C , 22-O ) :   0.8901 B( 17-C , 23-H ) :   0.9336 B( 18-C , 19-C ) :   0.9460
B( 18-C , 24-H ) :   0.9378 B( 18-C , 25-H ) :   0.9147 B( 19-C , 20-O ) :   0.8381
B( 19-C , 26-H ) :   0.9345 B( 19-C , 27-H ) :   0.9377 B( 22-O , 28-H ) :   0.7959

FINAL SINGLE POINT ENERGY      -652.864946483778

DIPOLE MOMENT
-------------
                                X             Y             Z
Electronic contribution:     -3.57936      -4.00916      -1.20308
Nuclear contribution   :      4.40550       4.80893       0.88161
                        -----------------------------------------
Total Dipole Moment    :      0.82614       0.79977      -0.32147
                        -----------------------------------------
Magnitude (a.u.)       :      1.19394
Magnitude (Debye)      :      3.03475

Rotational constants in cm-1:     0.050199     0.015115     0.014713
Rotational constants in MHz :  1504.931595   453.150731   441.082600

                             ****ORCA TERMINATED NORMALLY****
TOTAL RUN TIME: 0 days 1 hours 16 minutes 12 seconds 969 msec
