                         Program Version 4.2.0 -  RELEASE  -
|  1> # Test redundant internal optimization
|  2> #
|  3> ! RKS B3LYP  Opt TightSCF SmallPrint
|  4>
|  5> %basis
|  6>         Basis "6-31G"
|  7> end
|  8>
|  9> %geom
| 10> Constraints
| 11> { D 4  0  15  12  345.0   C } # D for Dihedral angle
| 12> { D 0  15  12  16  195.0   C } # D for Dihedral angle
| 13> { D 0  4  3  2   C } # D for Dihedral angle
| 14> { D 4  3  2  1   C } # D for Dihedral angle
| 15> { D 3  2  1  0   C } # D for Dihedral angle
| 16> { D 2  1  0  4   C } # D for Dihedral angle
| 17> { D 1  0  4  3   C } # D for Dihedral angle
| 18> { D 16  20  19  18   C } # D for Dihedral angle
| 19> { D 20  19  18  17   C } # D for Dihedral angle
| 20> { D 19  18  17  16   C } # D for Dihedral angle
| 21> { D 18  17  16  20   C } # D for Dihedral angle
| 22> { D 17  16  20  19   C } # D for Dihedral angle
| 23> { D 15  12  16  20   C } # D for Dihedral angle
| 24> end
| 25> end
| 26>
| 27>
| 28> #%pal
| 29> #nprocs 8
| 30> #end
| 31>
| 32> * xyz 0 1
| 33> C  -21.048   26.222   46.251
| 34> C  -20.361   27.558   45.944
| 35> C  -20.329   28.222   47.341
| 36> C  -20.110   27.022   48.296
| 37> O  -20.473   25.807   47.535
| 38> H  -20.833   25.428   45.533
| 39> H  -19.344   27.382   45.576
| 40> H  -20.898   28.157   45.201
| 41> H  -19.543   28.978   47.434
| 42> H  -21.289   28.710   47.548
| 43> H  -20.733   27.082   49.195
| 44> H  -19.064   26.913   48.597
| 45> C  -23.221   25.764   47.645
| 46> H  -22.801   24.763   47.801
| 47> H  -22.994   26.373   48.530
| 48> O  -22.586   26.394   46.375
| 49> C  -24.766   25.635   47.544
| 50> C  -25.171   24.660   46.432
| 51> C  -24.947   23.292   47.119
| 52> C  -25.343   23.568   48.591
| 53> O  -25.311   25.036   48.766
| 54> H  -25.203   26.631   47.453
| 55> O  -26.669   24.856   46.073
| 56> H  -24.580   24.779   45.518
| 57> H  -25.542   22.490   46.670
| 58> H  -23.891   23.004   47.049
| 59> H  -24.652   23.107   49.304
| 60> H  -26.359   23.238   48.819
| 61> H  -27.283   24.740   46.975
| 62> *
| 63>
| 64>                          ****END OF INPUT****
 Total Charge           Charge          ....    0
 Multiplicity           Mult            ....    1
 Number of Electrons    NEL             ....  102
FINAL SINGLE POINT ENERGY      -652.837717277295
FINAL SINGLE POINT ENERGY      -652.860503923353
FINAL SINGLE POINT ENERGY      -652.864176643697
FINAL SINGLE POINT ENERGY      -652.864782700554
FINAL SINGLE POINT ENERGY      -652.864870430871
FINAL SINGLE POINT ENERGY      -652.864885223962
                    ***********************HURRAY********************

CARTESIAN COORDINATES (ANGSTROEM)
---------------------------------
  C    -21.125613   26.160169   46.349844
  C    -20.573363   27.529235   45.954855
  C    -20.435543   28.221521   47.328981
  C    -20.031085   27.066236   48.270456
  O    -20.399398   25.813148   47.549120
  H    -20.936295   25.353097   45.636836
  H    -19.596322   27.400210   45.474883
  H    -21.240455   28.058503   45.271103
  H    -19.695138   29.027279   47.321504
  H    -21.399052   28.646560   47.626647
  H    -20.553079   27.083616   49.230764
  H    -18.952940   27.014916   48.446965
  C    -23.135914   25.701455   47.765564
  H    -22.704111   24.718077   47.981215
  H    -22.941104   26.349568   48.627464
  O    -22.566516   26.263436   46.545876
  C    -24.643561   25.604786   47.540605
  C    -25.071716   24.659010   46.408494
  C    -24.966064   23.276089   47.100378
  C    -25.397741   23.575183   48.557985
  O    -25.273812   25.042696   48.741253
  H    -25.061922   26.603874   47.390295
  O    -26.434702   24.944957   45.985679
  H    -24.456435   24.757480   45.516415
  H    -25.611836   22.546142   46.606344
  H    -23.935415   22.907038   47.058360
  H    -24.771839   23.070339   49.299929
  H    -26.443322   23.314631   48.748353
  H    -26.989705   25.101752   46.778836

 Multiplicity           Mult            ....    1
 Number of Electrons    NEL             ....  102
 Basis Dimension        Dim             ....  149

ORBITAL ENERGIES
----------------

  NO   OCC          E(Eh)            E(eV)
   0   2.0000     -19.151815      -521.1474
   1   2.0000     -19.142288      -520.8882
   2   2.0000     -19.141889      -520.8773
   3   2.0000     -19.131615      -520.5977
   4   2.0000     -10.281906      -279.7849
   5   2.0000     -10.233358      -278.4638
   6   2.0000     -10.232022      -278.4275
   7   2.0000     -10.229337      -278.3544
   8   2.0000     -10.228902      -278.3426
   9   2.0000     -10.226620      -278.2805
  10   2.0000     -10.191316      -277.3198
  11   2.0000     -10.187765      -277.2232
  12   2.0000     -10.184488      -277.1340
  13   2.0000      -1.057544       -28.7772
  14   2.0000      -1.032938       -28.1077
  15   2.0000      -1.000918       -27.2364
  16   2.0000      -0.994438       -27.0600
  17   2.0000      -0.793697       -21.5976
  18   2.0000      -0.776598       -21.1323
  19   2.0000      -0.766687       -20.8626
  20   2.0000      -0.732376       -19.9290
  21   2.0000      -0.671511       -18.2727
  22   2.0000      -0.605077       -16.4650
  23   2.0000      -0.600450       -16.3391
  24   2.0000      -0.591110       -16.0849
  25   2.0000      -0.576493       -15.6872
  26   2.0000      -0.520795       -14.1715
  27   2.0000      -0.515820       -14.0362
  28   2.0000      -0.499315       -13.5871
  29   2.0000      -0.491165       -13.3653
  30   2.0000      -0.472444       -12.8559
  31   2.0000      -0.455572       -12.3967
  32   2.0000      -0.446770       -12.1572
  33   2.0000      -0.436608       -11.8807
  34   2.0000      -0.420141       -11.4326
  35   2.0000      -0.414327       -11.2744
  36   2.0000      -0.403670       -10.9844
  37   2.0000      -0.389311       -10.5937
  38   2.0000      -0.375646       -10.2218
  39   2.0000      -0.364404        -9.9159
  40   2.0000      -0.362803        -9.8724
  41   2.0000      -0.355332        -9.6691
  42   2.0000      -0.351280        -9.5588
  43   2.0000      -0.341689        -9.2978
  44   2.0000      -0.324652        -8.8342
  45   2.0000      -0.309110        -8.4113
  46   2.0000      -0.301013        -8.1910
  47   2.0000      -0.268511        -7.3066
  48   2.0000      -0.263969        -7.1830
  49   2.0000      -0.254607        -6.9282
  50   2.0000      -0.243638        -6.6297
  51   0.0000       0.068786         1.8718
  52   0.0000       0.071467         1.9447
  53   0.0000       0.094857         2.5812
  54   0.0000       0.100572         2.7367
  55   0.0000       0.103047         2.8040

MULLIKEN ATOMIC CHARGES
-----------------------
   0 C :    0.301477
   1 C :   -0.257505
   2 C :   -0.305060
   3 C :   -0.017785
   4 O :   -0.512820
   5 H :    0.151989
   6 H :    0.144690
   7 H :    0.163253
   8 H :    0.147233
   9 H :    0.159474
  10 H :    0.148894
  11 H :    0.151405
  12 C :    0.009199
  13 H :    0.145382
  14 H :    0.141343
  15 O :   -0.548166
  16 C :    0.051422
  17 C :    0.095211
  18 C :   -0.304546
  19 C :   -0.029003
  20 O :   -0.528831
  21 H :    0.163838
  22 O :   -0.604707
  23 H :    0.170975
  24 H :    0.162335
  25 H :    0.146354
  26 H :    0.147794
  27 H :    0.144353
  28 H :    0.361802
Sum of atomic charges:   -0.0000000

LOEWDIN ATOMIC CHARGES
----------------------
   0 C :    0.181196
   1 C :   -0.217569
   2 C :   -0.218114
   3 C :   -0.031722
   4 O :   -0.321160
   5 H :    0.101388
   6 H :    0.113856
   7 H :    0.127106
   8 H :    0.117381
   9 H :    0.117305
  10 H :    0.104623
  11 H :    0.107243
  12 C :   -0.035615
  13 H :    0.102710
  14 H :    0.101107
  15 O :   -0.347368
  16 C :    0.016704
  17 C :    0.039059
  18 C :   -0.242913
  19 C :   -0.037848
  20 O :   -0.331731
  21 H :    0.117255
  22 O :   -0.415952
  23 H :    0.125444
  24 H :    0.126393
  25 H :    0.114172
  26 H :    0.104389
  27 H :    0.101861
  28 H :    0.280797

  Mayer bond orders larger than 0.100000
B(  0-C ,  1-C ) :   0.9403 B(  0-C ,  4-O ) :   0.9109 B(  0-C ,  5-H ) :   0.9264
B(  0-C , 15-O ) :   0.8350 B(  1-C ,  2-C ) :   0.9525 B(  1-C ,  6-H ) :   0.9361
B(  1-C ,  7-H ) :   0.9354 B(  2-C ,  3-C ) :   0.9547 B(  2-C ,  8-H ) :   0.9444
B(  2-C ,  9-H ) :   0.9450 B(  3-C ,  4-O ) :   0.8283 B(  3-C , 10-H ) :   0.9327
B(  3-C , 11-H ) :   0.9401 B( 12-C , 13-H ) :   0.9192 B( 12-C , 14-H ) :   0.9193
B( 12-C , 15-O ) :   0.8119 B( 12-C , 16-C ) :   0.9048 B( 16-C , 17-C ) :   0.9129
B( 16-C , 20-O ) :   0.8428 B( 16-C , 21-H ) :   0.9245 B( 17-C , 18-C ) :   0.9126
B( 17-C , 22-O ) :   0.8872 B( 17-C , 23-H ) :   0.9246 B( 18-C , 19-C ) :   0.9432
B( 18-C , 24-H ) :   0.9379 B( 18-C , 25-H ) :   0.9343 B( 19-C , 20-O ) :   0.8428
B( 19-C , 26-H ) :   0.9351 B( 19-C , 27-H ) :   0.9387 B( 22-O , 28-H ) :   0.7963

FINAL SINGLE POINT ENERGY      -652.864886583590

DIPOLE MOMENT
-------------
                                X             Y             Z
Electronic contribution:     -3.29723      -0.96218      -0.73593
Nuclear contribution   :      4.15358       1.10259       1.07046
                        -----------------------------------------
Total Dipole Moment    :      0.85636       0.14041       0.33454
                        -----------------------------------------
Magnitude (a.u.)       :      0.93004
Magnitude (Debye)      :      2.36398

Rotational constants in cm-1:     0.059024     0.012628     0.011877
Rotational constants in MHz :  1769.483488   378.567694   356.071622

                             ****ORCA TERMINATED NORMALLY****
TOTAL RUN TIME: 0 days 1 hours 34 minutes 36 seconds 84 msec
