                         Program Version 4.2.0 -  RELEASE  -
|  1> # Test redundant internal optimization
|  2> #
|  3> ! RKS B3LYP  Opt TightSCF SmallPrint
|  4>
|  5> %basis
|  6>         Basis "6-31G"
|  7> end
|  8>
|  9> %geom
| 10> Constraints
| 11> { D 4  0  15  12  180.0   C } # D for Dihedral angle
| 12> { D 0  15  12  16  270.0   C } # D for Dihedral angle
| 13> { D 0  4  3  2   C } # D for Dihedral angle
| 14> { D 4  3  2  1   C } # D for Dihedral angle
| 15> { D 3  2  1  0   C } # D for Dihedral angle
| 16> { D 2  1  0  4   C } # D for Dihedral angle
| 17> { D 1  0  4  3   C } # D for Dihedral angle
| 18> { D 16  20  19  18   C } # D for Dihedral angle
| 19> { D 20  19  18  17   C } # D for Dihedral angle
| 20> { D 19  18  17  16   C } # D for Dihedral angle
| 21> { D 18  17  16  20   C } # D for Dihedral angle
| 22> { D 17  16  20  19   C } # D for Dihedral angle
| 23> { D 15  12  16  20   C } # D for Dihedral angle
| 24> end
| 25> end
| 26>
| 27>
| 28> #%pal
| 29> #nprocs 8
| 30> #end
| 31>
| 32> * xyz 0 1
| 33> C  -21.048   26.222   46.251
| 34> C  -20.361   27.558   45.944
| 35> C  -20.329   28.222   47.341
| 36> C  -20.110   27.022   48.296
| 37> O  -20.473   25.807   47.535
| 38> H  -20.833   25.428   45.533
| 39> H  -19.344   27.382   45.576
| 40> H  -20.898   28.157   45.201
| 41> H  -19.543   28.978   47.434
| 42> H  -21.289   28.710   47.548
| 43> H  -20.733   27.082   49.195
| 44> H  -19.064   26.913   48.597
| 45> C  -23.309   26.834   45.072
| 46> H  -22.762   26.441   44.205
| 47> H  -24.330   26.431   45.045
| 48> O  -22.586   26.394   46.375
| 49> C  -23.405   28.378   44.931
| 50> C  -24.223   28.774   43.696
| 51> C  -25.671   28.575   44.203
| 52> C  -25.583   28.993   45.692
| 53> O  -24.151   28.950   46.057
| 54> H  -22.400   28.804   44.963
| 55> O  -23.965   30.264   43.342
| 56> H  -23.994   28.165   42.815
| 57> H  -26.401   29.170   43.645
| 58> H  -25.960   27.521   44.114
| 59> H  -26.141   28.318   46.351
| 60> H  -25.929   30.017   45.859
| 61> H  -24.189   30.893   44.210
| 62> *
| 63>
| 64>                          ****END OF INPUT****
 Total Charge           Charge          ....    0
 Multiplicity           Mult            ....    1
 Number of Electrons    NEL             ....  102
FINAL SINGLE POINT ENERGY      -652.824820866868
FINAL SINGLE POINT ENERGY      -652.848319503220
FINAL SINGLE POINT ENERGY      -652.852763662708
FINAL SINGLE POINT ENERGY      -652.854203680536
FINAL SINGLE POINT ENERGY      -652.854374718297
FINAL SINGLE POINT ENERGY      -652.854404041809
                    ***********************HURRAY********************

CARTESIAN COORDINATES (ANGSTROEM)
---------------------------------
  C    -21.028559   26.275934   46.152954
  C    -20.259792   27.577418   45.932442
  C    -20.344336   28.244280   47.329350
  C    -20.278303   27.035374   48.284394
  O    -20.617238   25.850188   47.456394
  H    -20.791503   25.474959   45.443655
  H    -19.220408   27.322375   45.690501
  H    -20.642754   28.200852   45.123632
  H    -19.533973   28.958838   47.501278
  H    -21.300623   28.766272   47.433417
  H    -20.993548   27.098235   49.107885
  H    -19.274744   26.860781   48.683652
  C    -23.232002   26.858457   45.070408
  H    -22.772012   26.466188   44.146977
  H    -24.209741   26.382413   45.186410
  O    -22.480259   26.431049   46.234205
  C    -23.406809   28.376345   44.929007
  C    -24.272143   28.764882   43.719627
  C    -25.706613   28.565749   44.280150
  C    -25.562220   28.993388   45.763442
  O    -24.114012   28.953536   46.074843
  H    -22.441518   28.881507   44.881417
  O    -24.028956   30.144981   43.330510
  H    -24.073621   28.176702   42.822530
  H    -26.424745   29.175879   43.727363
  H    -26.007785   27.516073   44.193729
  H    -26.092354   28.327424   46.450411
  H    -25.902970   30.018439   45.939737
  H    -24.010459   30.704482   44.135679

 Multiplicity           Mult            ....    1
 Number of Electrons    NEL             ....  102
 Basis Dimension        Dim             ....  149

ORBITAL ENERGIES
----------------

  NO   OCC          E(Eh)            E(eV)
   0   2.0000     -19.145419      -520.9734
   1   2.0000     -19.144381      -520.9451
   2   2.0000     -19.136724      -520.7367
   3   2.0000     -19.136398      -520.7279
   4   2.0000     -10.278550      -279.6936
   5   2.0000     -10.248147      -278.8662
   6   2.0000     -10.237763      -278.5837
   7   2.0000     -10.235603      -278.5249
   8   2.0000     -10.234133      -278.4849
   9   2.0000     -10.220840      -278.1232
  10   2.0000     -10.194329      -277.4018
  11   2.0000     -10.186897      -277.1996
  12   2.0000     -10.182494      -277.0797
  13   2.0000      -1.050959       -28.5980
  14   2.0000      -1.040552       -28.3149
  15   2.0000      -1.010966       -27.5098
  16   2.0000      -0.989368       -26.9221
  17   2.0000      -0.789026       -21.4705
  18   2.0000      -0.783627       -21.3236
  19   2.0000      -0.770020       -20.9533
  20   2.0000      -0.733664       -19.9640
  21   2.0000      -0.677442       -18.4341
  22   2.0000      -0.609459       -16.5842
  23   2.0000      -0.601710       -16.3733
  24   2.0000      -0.596730       -16.2379
  25   2.0000      -0.579932       -15.7808
  26   2.0000      -0.525110       -14.2890
  27   2.0000      -0.512545       -13.9471
  28   2.0000      -0.498686       -13.5699
  29   2.0000      -0.493068       -13.4171
  30   2.0000      -0.473088       -12.8734
  31   2.0000      -0.457003       -12.4357
  32   2.0000      -0.453987       -12.3536
  33   2.0000      -0.446638       -12.1536
  34   2.0000      -0.428244       -11.6531
  35   2.0000      -0.412367       -11.2211
  36   2.0000      -0.402829       -10.9615
  37   2.0000      -0.397853       -10.8261
  38   2.0000      -0.377256       -10.2657
  39   2.0000      -0.375979       -10.2309
  40   2.0000      -0.362792        -9.8721
  41   2.0000      -0.355051        -9.6614
  42   2.0000      -0.350155        -9.5282
  43   2.0000      -0.336268        -9.1503
  44   2.0000      -0.313366        -8.5271
  45   2.0000      -0.307497        -8.3674
  46   2.0000      -0.295803        -8.0492
  47   2.0000      -0.275806        -7.5051
  48   2.0000      -0.266195        -7.2435
  49   2.0000      -0.254793        -6.9333
  50   2.0000      -0.238141        -6.4802
  51   0.0000       0.061747         1.6802
  52   0.0000       0.083038         2.2596
  53   0.0000       0.085136         2.3167
  54   0.0000       0.087144         2.3713
  55   0.0000       0.098746         2.6870

MULLIKEN ATOMIC CHARGES
-----------------------
   0 C :    0.304314
   1 C :   -0.284646
   2 C :   -0.308170
   3 C :    0.000821
   4 O :   -0.499349
   5 H :    0.139180
   6 H :    0.147198
   7 H :    0.138295
   8 H :    0.140171
   9 H :    0.180740
  10 H :    0.157805
  11 H :    0.139700
  12 C :   -0.010627
  13 H :    0.114989
  14 H :    0.155708
  15 O :   -0.498269
  16 C :    0.057476
  17 C :    0.074977
  18 C :   -0.298562
  19 C :   -0.028256
  20 O :   -0.514658
  21 H :    0.163672
  22 O :   -0.600075
  23 H :    0.152509
  24 H :    0.164952
  25 H :    0.145512
  26 H :    0.155858
  27 H :    0.144355
  28 H :    0.364380
Sum of atomic charges:   -0.0000000

LOEWDIN ATOMIC CHARGES
----------------------
   0 C :    0.183897
   1 C :   -0.234037
   2 C :   -0.219661
   3 C :   -0.023756
   4 O :   -0.300949
   5 H :    0.095499
   6 H :    0.115987
   7 H :    0.109931
   8 H :    0.113631
   9 H :    0.126350
  10 H :    0.111408
  11 H :    0.101160
  12 C :   -0.042304
  13 H :    0.090765
  14 H :    0.114664
  15 O :   -0.325003
  16 C :    0.002690
  17 C :    0.034547
  18 C :   -0.241119
  19 C :   -0.037358
  20 O :   -0.325330
  21 H :    0.112085
  22 O :   -0.413689
  23 H :    0.115264
  24 H :    0.127672
  25 H :    0.113709
  26 H :    0.108843
  27 H :    0.102026
  28 H :    0.283079

  Mayer bond orders larger than 0.100000
B(  0-C ,  1-C ) :   0.9268 B(  0-C ,  4-O ) :   0.9422 B(  0-C ,  5-H ) :   0.9202
B(  0-C , 15-O ) :   0.8389 B(  1-C ,  2-C ) :   0.9513 B(  1-C ,  6-H ) :   0.9320
B(  1-C ,  7-H ) :   0.9241 B(  2-C ,  3-C ) :   0.9549 B(  2-C ,  8-H ) :   0.9449
B(  2-C ,  9-H ) :   0.9355 B(  3-C ,  4-O ) :   0.8322 B(  3-C , 10-H ) :   0.9342
B(  3-C , 11-H ) :   0.9401 B( 12-C , 13-H ) :   0.9126 B( 12-C , 14-H ) :   0.9356
B( 12-C , 15-O ) :   0.8738 B( 12-C , 16-C ) :   0.8724 B( 16-C , 17-C ) :   0.8946
B( 16-C , 20-O ) :   0.8586 B( 16-C , 21-H ) :   0.9122 B( 17-C , 18-C ) :   0.9106
B( 17-C , 22-O ) :   0.8927 B( 17-C , 23-H ) :   0.9332 B( 18-C , 19-C ) :   0.9407
B( 18-C , 24-H ) :   0.9372 B( 18-C , 25-H ) :   0.9339 B( 19-C , 20-O ) :   0.8458
B( 19-C , 26-H ) :   0.9330 B( 19-C , 27-H ) :   0.9381 B( 22-O , 28-H ) :   0.7946

FINAL SINGLE POINT ENERGY      -652.854407739836

DIPOLE MOMENT
-------------
                                X             Y             Z
Electronic contribution:     -0.13820      -1.81431       0.62220
Nuclear contribution   :     -0.06603       2.32752      -1.15773
                        -----------------------------------------
Total Dipole Moment    :     -0.20423       0.51321      -0.53553
                        -----------------------------------------
Magnitude (a.u.)       :      0.76934
Magnitude (Debye)      :      1.95551

Rotational constants in cm-1:     0.056272     0.013321     0.013045
Rotational constants in MHz :  1686.978688   399.350302   391.083565

                             ****ORCA TERMINATED NORMALLY****
TOTAL RUN TIME: 0 days 0 hours 19 minutes 45 seconds 821 msec
