                         Program Version 4.2.0 -  RELEASE  -
|  1> # Test redundant internal optimization
|  2> #
|  3> ! RKS B3LYP  Opt TightSCF SmallPrint
|  4>
|  5> %basis
|  6>         Basis "6-31G"
|  7> end
|  8>
|  9> %geom
| 10> Constraints
| 11> { D 4  0  15  12  210.0   C } # D for Dihedral angle
| 12> { D 0  15  12  16  150.0   C } # D for Dihedral angle
| 13> { D 0  4  3  2   C } # D for Dihedral angle
| 14> { D 4  3  2  1   C } # D for Dihedral angle
| 15> { D 3  2  1  0   C } # D for Dihedral angle
| 16> { D 2  1  0  4   C } # D for Dihedral angle
| 17> { D 1  0  4  3   C } # D for Dihedral angle
| 18> { D 16  20  19  18   C } # D for Dihedral angle
| 19> { D 20  19  18  17   C } # D for Dihedral angle
| 20> { D 19  18  17  16   C } # D for Dihedral angle
| 21> { D 18  17  16  20   C } # D for Dihedral angle
| 22> { D 17  16  20  19   C } # D for Dihedral angle
| 23> { D 15  12  16  20   C } # D for Dihedral angle
| 24> end
| 25> end
| 26>
| 27>
| 28> #%pal
| 29> #nprocs 8
| 30> #end
| 31>
| 32> * xyz 0 1
| 33> C  -21.048   26.222   46.251
| 34> C  -20.361   27.558   45.944
| 35> C  -20.329   28.222   47.341
| 36> C  -20.110   27.022   48.296
| 37> O  -20.473   25.807   47.535
| 38> H  -20.833   25.428   45.533
| 39> H  -19.344   27.382   45.576
| 40> H  -20.898   28.157   45.201
| 41> H  -19.543   28.978   47.434
| 42> H  -21.289   28.710   47.548
| 43> H  -20.733   27.082   49.195
| 44> H  -19.064   26.913   48.597
| 45> C  -23.389   26.110   45.076
| 46> H  -23.479   27.038   44.497
| 47> H  -22.869   25.368   44.457
| 48> O  -22.586   26.394   46.375
| 49> C  -24.818   25.571   45.359
| 50> C  -24.776   24.320   46.245
| 51> C  -24.564   24.937   47.648
| 52> C  -25.373   26.256   47.579
| 53> O  -25.587   26.542   46.143
| 54> H  -25.344   25.436   44.413
| 55> H  -25.734   23.792   46.196
| 56> O  -23.649   23.328   45.847
| 57> H  -24.904   24.281   48.457
| 58> H  -23.499   25.145   47.812
| 59> H  -24.844   27.098   48.038
| 60> H  -26.361   26.165   48.040
| 61> H  -22.679   23.836   45.890
| 62> *
| 63>
| 64>                          ****END OF INPUT****
 Total Charge           Charge          ....    0
 Multiplicity           Mult            ....    1
 Number of Electrons    NEL             ....  102
FINAL SINGLE POINT ENERGY      -652.831937625072
FINAL SINGLE POINT ENERGY      -652.855647048305
FINAL SINGLE POINT ENERGY      -652.860446772767
FINAL SINGLE POINT ENERGY      -652.862703396762
FINAL SINGLE POINT ENERGY      -652.863005629608
FINAL SINGLE POINT ENERGY      -652.863064151832
FINAL SINGLE POINT ENERGY      -652.863068268564
                    ***********************HURRAY********************

CARTESIAN COORDINATES (ANGSTROEM)
---------------------------------
  C    -21.064348   26.239998   46.164337
  C    -20.355171   27.566511   45.898285
  C    -20.392196   28.233428   47.293580
  C    -20.233882   27.036846   48.255243
  O    -20.572131   25.829696   47.451082
  H    -20.839734   25.438316   45.451015
  H    -19.323408   27.371591   45.582488
  H    -20.849774   28.161607   45.125786
  H    -19.603246   28.979908   47.424122
  H    -21.360169   28.721147   47.441480
  H    -20.906188   27.080553   49.115215
  H    -19.205898   26.900256   48.602686
  C    -23.281543   26.167789   45.064687
  H    -23.368445   27.093915   44.482093
  H    -22.788020   25.404273   44.444524
  O    -22.501745   26.417891   46.270252
  C    -24.677020   25.666520   45.421237
  C    -24.720504   24.356637   46.229539
  C    -24.557488   24.874791   47.692576
  C    -25.318971   26.217336   47.660164
  O    -25.448380   26.599569   46.230399
  H    -25.222411   25.562054   44.474862
  H    -25.687583   23.868563   46.086149
  O    -23.731379   23.375783   45.827995
  H    -24.973069   24.173642   48.422879
  H    -23.496617   25.033432   47.899030
  H    -24.786794   27.014360   48.186923
  H    -26.335205   26.135186   48.057642
  H    -22.878677   23.576403   46.266731

 Multiplicity           Mult            ....    1
 Number of Electrons    NEL             ....  102
 Basis Dimension        Dim             ....  149

ORBITAL ENERGIES
----------------

  NO   OCC          E(Eh)            E(eV)
   0   2.0000     -19.149786      -521.0922
   1   2.0000     -19.149128      -521.0743
   2   2.0000     -19.136990      -520.7440
   3   2.0000     -19.129953      -520.5525
   4   2.0000     -10.288268      -279.9580
   5   2.0000     -10.233644      -278.4716
   6   2.0000     -10.232082      -278.4291
   7   2.0000     -10.231790      -278.4212
   8   2.0000     -10.227764      -278.3116
   9   2.0000     -10.217933      -278.0441
  10   2.0000     -10.191688      -277.3299
  11   2.0000     -10.191038      -277.3122
  12   2.0000     -10.174969      -276.8750
  13   2.0000      -1.061754       -28.8918
  14   2.0000      -1.024244       -27.8711
  15   2.0000      -1.006910       -27.3994
  16   2.0000      -0.998998       -27.1841
  17   2.0000      -0.792396       -21.5622
  18   2.0000      -0.771177       -20.9848
  19   2.0000      -0.762605       -20.7515
  20   2.0000      -0.734756       -19.9937
  21   2.0000      -0.676699       -18.4139
  22   2.0000      -0.605980       -16.4896
  23   2.0000      -0.600412       -16.3380
  24   2.0000      -0.596913       -16.2428
  25   2.0000      -0.569214       -15.4891
  26   2.0000      -0.528981       -14.3943
  27   2.0000      -0.503773       -13.7083
  28   2.0000      -0.501178       -13.6377
  29   2.0000      -0.490244       -13.3402
  30   2.0000      -0.473400       -12.8819
  31   2.0000      -0.453009       -12.3270
  32   2.0000      -0.450808       -12.2671
  33   2.0000      -0.428128       -11.6500
  34   2.0000      -0.422738       -11.5033
  35   2.0000      -0.409688       -11.1482
  36   2.0000      -0.406921       -11.0729
  37   2.0000      -0.398196       -10.8355
  38   2.0000      -0.377095       -10.2613
  39   2.0000      -0.366845        -9.9824
  40   2.0000      -0.361674        -9.8417
  41   2.0000      -0.356172        -9.6919
  42   2.0000      -0.350175        -9.5288
  43   2.0000      -0.323462        -8.8019
  44   2.0000      -0.319078        -8.6826
  45   2.0000      -0.310561        -8.4508
  46   2.0000      -0.306935        -8.3521
  47   2.0000      -0.270930        -7.3724
  48   2.0000      -0.260294        -7.0829
  49   2.0000      -0.257949        -7.0192
  50   2.0000      -0.234856        -6.3908
  51   0.0000       0.060821         1.6550
  52   0.0000       0.081699         2.2231
  53   0.0000       0.090249         2.4558
  54   0.0000       0.099489         2.7072
  55   0.0000       0.106574         2.9000

MULLIKEN ATOMIC CHARGES
-----------------------
   0 C :    0.287933
   1 C :   -0.260203
   2 C :   -0.300500
   3 C :   -0.003886
   4 O :   -0.511661
   5 H :    0.139221
   6 H :    0.145587
   7 H :    0.150204
   8 H :    0.144929
   9 H :    0.166470
  10 H :    0.153296
  11 H :    0.145179
  12 C :   -0.017587
  13 H :    0.146952
  14 H :    0.136447
  15 O :   -0.523051
  16 C :    0.095553
  17 C :    0.086532
  18 C :   -0.325665
  19 C :   -0.001332
  20 O :   -0.522038
  21 H :    0.146401
  22 H :    0.158847
  23 O :   -0.613800
  24 H :    0.141704
  25 H :    0.181192
  26 H :    0.145308
  27 H :    0.139862
  28 H :    0.368105
Sum of atomic charges:   -0.0000000

LOEWDIN ATOMIC CHARGES
----------------------
   0 C :    0.173473
   1 C :   -0.225429
   2 C :   -0.216302
   3 C :   -0.025215
   4 O :   -0.314723
   5 H :    0.095087
   6 H :    0.114424
   7 H :    0.118908
   8 H :    0.116044
   9 H :    0.121344
  10 H :    0.108715
  11 H :    0.104153
  12 C :   -0.046394
  13 H :    0.103453
  14 H :    0.101356
  15 O :   -0.334674
  16 C :    0.019071
  17 C :    0.037947
  18 C :   -0.246557
  19 C :   -0.023715
  20 O :   -0.323704
  21 H :    0.112929
  22 H :    0.114031
  23 O :   -0.415140
  24 H :    0.113445
  25 H :    0.128610
  26 H :    0.104691
  27 H :    0.100085
  28 H :    0.284089

  Mayer bond orders larger than 0.100000
B(  0-C ,  1-C ) :   0.9345 B(  0-C ,  4-O ) :   0.9270 B(  0-C ,  5-H ) :   0.9158
B(  0-C , 15-O ) :   0.8343 B(  1-C ,  2-C ) :   0.9538 B(  1-C ,  6-H ) :   0.9341
B(  1-C ,  7-H ) :   0.9372 B(  2-C ,  3-C ) :   0.9559 B(  2-C ,  8-H ) :   0.9446
B(  2-C ,  9-H ) :   0.9428 B(  3-C ,  4-O ) :   0.8302 B(  3-C , 10-H ) :   0.9350
B(  3-C , 11-H ) :   0.9397 B( 12-C , 13-H ) :   0.9218 B( 12-C , 14-H ) :   0.9000
B( 12-C , 15-O ) :   0.8297 B( 12-C , 16-C ) :   0.9147 B( 16-C , 17-C ) :   0.8865
B( 16-C , 20-O ) :   0.8821 B( 16-C , 21-H ) :   0.9270 B( 17-C , 18-C ) :   0.9393
B( 17-C , 22-H ) :   0.9357 B( 17-C , 23-O ) :   0.8957 B( 18-C , 19-C ) :   0.9479
B( 18-C , 24-H ) :   0.9405 B( 18-C , 25-H ) :   0.9182 B( 19-C , 20-O ) :   0.8358
B( 19-C , 26-H ) :   0.9329 B( 19-C , 27-H ) :   0.9382 B( 23-O , 28-H ) :   0.7920

FINAL SINGLE POINT ENERGY      -652.863067300093

DIPOLE MOMENT
-------------
                                X             Y             Z
Electronic contribution:     -2.55463      -3.11614      -1.62942
Nuclear contribution   :      3.48043       3.85234       1.77146
                        -----------------------------------------
Total Dipole Moment    :      0.92580       0.73620       0.14204
                        -----------------------------------------
Magnitude (a.u.)       :      1.19133
Magnitude (Debye)      :      3.02812

Rotational constants in cm-1:     0.045609     0.016019     0.015552
Rotational constants in MHz :  1367.333099   480.238181   466.242302

                             ****ORCA TERMINATED NORMALLY****
TOTAL RUN TIME: 0 days 0 hours 58 minutes 6 seconds 243 msec
