                         Program Version 4.2.0 -  RELEASE  -
|  1> # Test redundant internal optimization
|  2> #
|  3> ! RKS B3LYP  Opt TightSCF SmallPrint
|  4>
|  5> %basis
|  6>         Basis "6-31G"
|  7> end
|  8>
|  9> %geom
| 10> Constraints
| 11> { D 4  0  15  12  0.0   C } # D for Dihedral angle
| 12> { D 0  15  12  16  225.0   C } # D for Dihedral angle
| 13> { D 0  4  3  2   C } # D for Dihedral angle
| 14> { D 4  3  2  1   C } # D for Dihedral angle
| 15> { D 3  2  1  0   C } # D for Dihedral angle
| 16> { D 2  1  0  4   C } # D for Dihedral angle
| 17> { D 1  0  4  3   C } # D for Dihedral angle
| 18> { D 16  20  19  18   C } # D for Dihedral angle
| 19> { D 20  19  18  17   C } # D for Dihedral angle
| 20> { D 19  18  17  16   C } # D for Dihedral angle
| 21> { D 18  17  16  20   C } # D for Dihedral angle
| 22> { D 17  16  20  19   C } # D for Dihedral angle
| 23> { D 15  12  16  20   C } # D for Dihedral angle
| 24> end
| 25> end
| 26>
| 27>
| 28> #%pal
| 29> #nprocs 8
| 30> #end
| 31>
| 32> * xyz 0 1
| 33> C  -21.048   26.222   46.251
| 34> C  -20.361   27.558   45.944
| 35> C  -20.329   28.222   47.341
| 36> C  -20.110   27.022   48.296
| 37> O  -20.473   25.807   47.535
| 38> H  -20.833   25.428   45.533
| 39> H  -19.344   27.382   45.576
| 40> H  -20.898   28.157   45.201
| 41> H  -19.543   28.978   47.434
| 42> H  -21.289   28.710   47.548
| 43> H  -20.733   27.082   49.195
| 44> H  -19.064   26.913   48.597
| 45> C  -23.172   26.101   47.783
| 46> H  -22.422   25.572   48.385
| 47> H  -23.425   27.037   48.297
| 48> O  -22.586   26.394   46.375
| 49> C  -24.457   25.229   47.730
| 50> C  -25.523   25.865   46.829
| 51> C  -25.015   25.476   45.420
| 52> C  -24.402   24.070   45.642
| 53> O  -24.174   23.937   47.098
| 54> H  -24.792   25.022   48.748
| 55> H  -26.501   25.411   47.026
| 56> O  -25.648   27.401   47.021
| 57> H  -25.811   25.469   44.668
| 58> H  -24.247   26.184   45.088
| 59> H  -23.451   23.939   45.116
| 60> H  -25.083   23.266   45.348
| 61> H  -24.680   27.876   46.828
| 62> *
| 63>
| 64>                          ****END OF INPUT****
 Total Charge           Charge          ....    0
 Multiplicity           Mult            ....    1
 Number of Electrons    NEL             ....  102
FINAL SINGLE POINT ENERGY      -652.832631523284
FINAL SINGLE POINT ENERGY      -652.855290807617
FINAL SINGLE POINT ENERGY      -652.859777416805
FINAL SINGLE POINT ENERGY      -652.861239391793
FINAL SINGLE POINT ENERGY      -652.861368459218
FINAL SINGLE POINT ENERGY      -652.861392696581
FINAL SINGLE POINT ENERGY      -652.861393728088
                    ***********************HURRAY********************

CARTESIAN COORDINATES (ANGSTROEM)
---------------------------------
  C    -21.062820   26.224651   46.369393
  C    -20.433515   27.570054   46.007972
  C    -20.282775   28.233570   47.397512
  C    -19.954988   27.041941   48.322229
  O    -20.376981   25.823528   47.570300
  H    -20.905981   25.426862   45.641272
  H    -19.454718   27.398678   45.545009
  H    -21.057191   28.144457   45.319602
  H    -19.500654   28.998596   47.415989
  H    -21.225539   28.707574   47.690317
  H    -20.491554   27.068252   49.274098
  H    -18.884521   26.929055   48.513020
  C    -23.139409   26.117717   47.813907
  H    -22.433828   25.580521   48.452816
  H    -23.402904   27.073395   48.288073
  O    -22.512945   26.373170   46.520009
  C    -24.401920   25.273353   47.659513
  C    -25.505672   25.891636   46.782765
  C    -25.063443   25.454541   45.352521
  C    -24.455935   24.057278   45.599959
  O    -24.163839   23.970990   47.053814
  H    -24.773004   25.078028   48.673437
  H    -26.475839   25.465437   47.046777
  O    -25.667013   27.322499   46.945182
  H    -25.902537   25.433511   44.650727
  H    -24.301637   26.149771   44.991295
  H    -23.527914   23.895672   45.044174
  H    -25.156765   23.248437   45.370266
  H    -24.898158   27.776825   46.541052

 Multiplicity           Mult            ....    1
 Number of Electrons    NEL             ....  102
 Basis Dimension        Dim             ....  149

ORBITAL ENERGIES
----------------

  NO   OCC          E(Eh)            E(eV)
   0   2.0000     -19.156753      -521.2818
   1   2.0000     -19.143949      -520.9333
   2   2.0000     -19.135855      -520.7131
   3   2.0000     -19.128964      -520.5256
   4   2.0000     -10.285356      -279.8788
   5   2.0000     -10.237452      -278.5752
   6   2.0000     -10.231715      -278.4191
   7   2.0000     -10.224555      -278.2243
   8   2.0000     -10.224317      -278.2178
   9   2.0000     -10.218348      -278.0554
  10   2.0000     -10.196810      -277.4693
  11   2.0000     -10.191874      -277.3350
  12   2.0000     -10.175352      -276.8854
  13   2.0000      -1.060291       -28.8520
  14   2.0000      -1.023435       -27.8491
  15   2.0000      -1.005569       -27.3629
  16   2.0000      -0.993673       -27.0392
  17   2.0000      -0.796655       -21.6781
  18   2.0000      -0.770737       -20.9728
  19   2.0000      -0.762851       -20.7582
  20   2.0000      -0.735363       -20.0102
  21   2.0000      -0.674122       -18.3438
  22   2.0000      -0.609644       -16.5893
  23   2.0000      -0.599425       -16.3112
  24   2.0000      -0.597063       -16.2469
  25   2.0000      -0.560099       -15.2411
  26   2.0000      -0.527912       -14.3652
  27   2.0000      -0.511560       -13.9203
  28   2.0000      -0.497610       -13.5407
  29   2.0000      -0.488820       -13.3015
  30   2.0000      -0.470377       -12.7996
  31   2.0000      -0.460958       -12.5433
  32   2.0000      -0.440349       -11.9825
  33   2.0000      -0.428417       -11.6578
  34   2.0000      -0.423373       -11.5206
  35   2.0000      -0.415415       -11.3040
  36   2.0000      -0.398898       -10.8546
  37   2.0000      -0.390920       -10.6375
  38   2.0000      -0.378028       -10.2867
  39   2.0000      -0.373867       -10.1734
  40   2.0000      -0.365987        -9.9590
  41   2.0000      -0.356861        -9.7107
  42   2.0000      -0.347650        -9.4600
  43   2.0000      -0.334157        -9.0929
  44   2.0000      -0.321167        -8.7394
  45   2.0000      -0.307678        -8.3723
  46   2.0000      -0.300607        -8.1799
  47   2.0000      -0.272053        -7.4029
  48   2.0000      -0.262329        -7.1383
  49   2.0000      -0.254613        -6.9284
  50   2.0000      -0.232125        -6.3165
  51   0.0000       0.063275         1.7218
  52   0.0000       0.084005         2.2859
  53   0.0000       0.091682         2.4948
  54   0.0000       0.099183         2.6989
  55   0.0000       0.102791         2.7971

MULLIKEN ATOMIC CHARGES
-----------------------
   0 C :    0.309055
   1 C :   -0.257341
   2 C :   -0.309945
   3 C :   -0.017351
   4 O :   -0.505737
   5 H :    0.161330
   6 H :    0.147032
   7 H :    0.154768
   8 H :    0.150736
   9 H :    0.154815
  10 H :    0.148337
  11 H :    0.154833
  12 C :   -0.038468
  13 H :    0.183035
  14 H :    0.129249
  15 O :   -0.558579
  16 C :    0.098977
  17 C :    0.089727
  18 C :   -0.317998
  19 C :    0.000567
  20 O :   -0.520413
  21 H :    0.144456
  22 H :    0.157610
  23 O :   -0.608581
  24 H :    0.143684
  25 H :    0.164571
  26 H :    0.139777
  27 H :    0.139533
  28 H :    0.362321
Sum of atomic charges:   -0.0000000

LOEWDIN ATOMIC CHARGES
----------------------
   0 C :    0.185872
   1 C :   -0.221377
   2 C :   -0.219436
   3 C :   -0.031742
   4 O :   -0.310806
   5 H :    0.107794
   6 H :    0.115082
   7 H :    0.122577
   8 H :    0.118964
   9 H :    0.114203
  10 H :    0.105000
  11 H :    0.109525
  12 C :   -0.055297
  13 H :    0.124372
  14 H :    0.095116
  15 O :   -0.355045
  16 C :    0.017547
  17 C :    0.037215
  18 C :   -0.245436
  19 C :   -0.024014
  20 O :   -0.322158
  21 H :    0.112365
  22 H :    0.114344
  23 O :   -0.412932
  24 H :    0.114412
  25 H :    0.121461
  26 H :    0.101551
  27 H :    0.099779
  28 H :    0.281063

  Mayer bond orders larger than 0.100000
B(  0-C ,  1-C ) :   0.9313 B(  0-C ,  4-O ) :   0.9202 B(  0-C ,  5-H ) :   0.9292
B(  0-C , 15-O ) :   0.8268 B(  1-C ,  2-C ) :   0.9524 B(  1-C ,  6-H ) :   0.9345
B(  1-C ,  7-H ) :   0.9370 B(  2-C ,  3-C ) :   0.9528 B(  2-C ,  8-H ) :   0.9445
B(  2-C ,  9-H ) :   0.9456 B(  3-C ,  4-O ) :   0.8266 B(  3-C , 10-H ) :   0.9332
B(  3-C , 11-H ) :   0.9402 B( 12-C , 13-H ) :   0.9055 B( 12-C , 14-H ) :   0.9100
B( 12-C , 15-O ) :   0.8291 B( 12-C , 16-C ) :   0.9046 B( 16-C , 17-C ) :   0.8870
B( 16-C , 20-O ) :   0.8799 B( 16-C , 21-H ) :   0.9274 B( 17-C , 18-C ) :   0.9331
B( 17-C , 22-H ) :   0.9375 B( 17-C , 23-O ) :   0.8988 B( 18-C , 19-C ) :   0.9471
B( 18-C , 24-H ) :   0.9409 B( 18-C , 25-H ) :   0.9262 B( 19-C , 20-O ) :   0.8401
B( 19-C , 26-H ) :   0.9331 B( 19-C , 27-H ) :   0.9378 B( 23-O , 28-H ) :   0.7934

FINAL SINGLE POINT ENERGY      -652.861392254414

DIPOLE MOMENT
-------------
                                X             Y             Z
Electronic contribution:     -2.21406      -3.35779       1.14167
Nuclear contribution   :      3.12468       4.31871      -1.52104
                        -----------------------------------------
Total Dipole Moment    :      0.91061       0.96092      -0.37937
                        -----------------------------------------
Magnitude (a.u.)       :      1.37714
Magnitude (Debye)      :      3.50041

Rotational constants in cm-1:     0.049599     0.015558     0.014565
Rotational constants in MHz :  1486.935714   466.417870   436.656162

                             ****ORCA TERMINATED NORMALLY****
TOTAL RUN TIME: 0 days 0 hours 57 minutes 53 seconds 291 msec
