                         Program Version 4.2.0 -  RELEASE  -
|  1> # Test redundant internal optimization
|  2> #
|  3> ! RKS B3LYP  Opt TightSCF SmallPrint
|  4>
|  5> %basis
|  6>         Basis "6-31G"
|  7> end
|  8>
|  9> %geom
| 10> Constraints
| 11> { D 4  0  15  12  150.0   C } # D for Dihedral angle
| 12> { D 0  15  12  16  120.0   C } # D for Dihedral angle
| 13> { D 0  4  3  2   C } # D for Dihedral angle
| 14> { D 4  3  2  1   C } # D for Dihedral angle
| 15> { D 3  2  1  0   C } # D for Dihedral angle
| 16> { D 2  1  0  4   C } # D for Dihedral angle
| 17> { D 1  0  4  3   C } # D for Dihedral angle
| 18> { D 16  20  19  18   C } # D for Dihedral angle
| 19> { D 20  19  18  17   C } # D for Dihedral angle
| 20> { D 19  18  17  16   C } # D for Dihedral angle
| 21> { D 18  17  16  20   C } # D for Dihedral angle
| 22> { D 17  16  20  19   C } # D for Dihedral angle
| 23> { D 15  12  16  20   C } # D for Dihedral angle
| 24> end
| 25> end
| 26>
| 27>
| 28> #%pal
| 29> #nprocs 8
| 30> #end
| 31>
| 32> * xyz 0 1
| 33> C  -21.048   26.222   46.251
| 34> C  -20.361   27.558   45.944
| 35> C  -20.329   28.222   47.341
| 36> C  -20.110   27.022   48.296
| 37> O  -20.473   25.807   47.535
| 38> H  -20.833   25.428   45.533
| 39> H  -19.344   27.382   45.576
| 40> H  -20.898   28.157   45.201
| 41> H  -19.543   28.978   47.434
| 42> H  -21.289   28.710   47.548
| 43> H  -20.733   27.082   49.195
| 44> H  -19.064   26.913   48.597
| 45> C  -23.210   27.459   45.431
| 46> H  -23.696   28.236   46.034
| 47> H  -22.431   27.934   44.821
| 48> O  -22.586   26.394   46.375
| 49> C  -24.267   26.858   44.464
| 50> C  -23.682   25.699   43.649
| 51> C  -23.734   24.539   44.672
| 52> C  -25.029   24.831   45.469
| 53> O  -25.366   26.249   45.220
| 54> H  -24.699   27.661   43.863
| 55> O  -24.592   25.394   42.428
| 56> H  -22.669   25.898   43.284
| 57> H  -23.749   23.553   44.196
| 58> H  -22.858   24.579   45.331
| 59> H  -24.904   24.675   46.546
| 60> H  -25.877   24.233   45.121
| 61> H  -25.612   25.191   42.771
| 62> *
| 63>
| 64>                          ****END OF INPUT****
 Total Charge           Charge          ....    0
 Multiplicity           Mult            ....    1
 Number of Electrons    NEL             ....  102
FINAL SINGLE POINT ENERGY      -652.822404013680
FINAL SINGLE POINT ENERGY      -652.846325111507
FINAL SINGLE POINT ENERGY      -652.851604138859
FINAL SINGLE POINT ENERGY      -652.853775557537
FINAL SINGLE POINT ENERGY      -652.854017018921
FINAL SINGLE POINT ENERGY      -652.854059688124
FINAL SINGLE POINT ENERGY      -652.854062741331
                    ***********************HURRAY********************

CARTESIAN COORDINATES (ANGSTROEM)
---------------------------------
  C    -21.061631   26.286322   46.269433
  C    -20.223343   27.525482   45.954542
  C    -20.250721   28.287543   47.305754
  C    -20.239416   27.140646   48.338395
  O    -20.655507   25.924805   47.596460
  H    -20.862712   25.420498   45.631899
  H    -19.205162   27.193670   45.720862
  H    -20.573380   28.125944   45.112480
  H    -19.396573   28.961545   47.419975
  H    -21.167703   28.879851   47.388949
  H    -20.934836   27.299326   49.166122
  H    -19.240926   26.937513   48.736046
  C    -23.193138   27.452067   45.448034
  H    -23.696976   28.177759   46.096313
  H    -22.496460   27.993935   44.796724
  O    -22.508364   26.510376   46.323102
  C    -24.254733   26.783690   44.572012
  C    -23.777456   25.683462   43.612795
  C    -23.766080   24.436985   44.538808
  C    -24.975760   24.689088   45.472521
  O    -25.291814   26.133398   45.369946
  H    -24.750795   27.582085   44.004986
  O    -24.704940   25.534163   42.501422
  H    -22.811073   25.889995   43.149413
  H    -23.864788   23.521025   43.949646
  H    -22.840947   24.398607   45.114927
  H    -24.749089   24.455450   46.515263
  H    -25.872491   24.140778   45.164692
  H    -25.619188   25.497990   42.854477

 Multiplicity           Mult            ....    1
 Number of Electrons    NEL             ....  102
 Basis Dimension        Dim             ....  149

ORBITAL ENERGIES
----------------

  NO   OCC          E(Eh)            E(eV)
   0   2.0000     -19.144001      -520.9348
   1   2.0000     -19.143732      -520.9274
   2   2.0000     -19.135647      -520.7074
   3   2.0000     -19.135607      -520.7063
   4   2.0000     -10.287643      -279.9410
   5   2.0000     -10.238538      -278.6048
   6   2.0000     -10.235600      -278.5248
   7   2.0000     -10.232728      -278.4467
   8   2.0000     -10.229762      -278.3660
   9   2.0000     -10.220165      -278.1048
  10   2.0000     -10.197977      -277.5011
  11   2.0000     -10.195428      -277.4317
  12   2.0000     -10.178034      -276.9584
  13   2.0000      -1.056259       -28.7423
  14   2.0000      -1.032454       -28.0945
  15   2.0000      -1.003609       -27.3096
  16   2.0000      -0.992867       -27.0173
  17   2.0000      -0.794270       -21.6132
  18   2.0000      -0.777678       -21.1617
  19   2.0000      -0.765975       -20.8432
  20   2.0000      -0.737700       -20.0738
  21   2.0000      -0.679436       -18.4884
  22   2.0000      -0.609593       -16.5879
  23   2.0000      -0.601500       -16.3677
  24   2.0000      -0.597311       -16.2537
  25   2.0000      -0.570022       -15.5111
  26   2.0000      -0.526015       -14.3136
  27   2.0000      -0.511526       -13.9193
  28   2.0000      -0.508311       -13.8319
  29   2.0000      -0.488593       -13.2953
  30   2.0000      -0.473658       -12.8889
  31   2.0000      -0.458913       -12.4876
  32   2.0000      -0.450626       -12.2621
  33   2.0000      -0.435774       -11.8580
  34   2.0000      -0.427314       -11.6278
  35   2.0000      -0.418514       -11.3883
  36   2.0000      -0.404185       -10.9984
  37   2.0000      -0.387893       -10.5551
  38   2.0000      -0.384786       -10.4706
  39   2.0000      -0.365939        -9.9577
  40   2.0000      -0.363537        -9.8923
  41   2.0000      -0.361622        -9.8402
  42   2.0000      -0.354236        -9.6393
  43   2.0000      -0.327055        -8.8996
  44   2.0000      -0.318637        -8.6706
  45   2.0000      -0.302360        -8.2276
  46   2.0000      -0.299937        -8.1617
  47   2.0000      -0.270013        -7.3474
  48   2.0000      -0.265374        -7.2212
  49   2.0000      -0.260520        -7.0891
  50   2.0000      -0.235372        -6.4048
  51   0.0000       0.065624         1.7857
  52   0.0000       0.076398         2.0789
  53   0.0000       0.092882         2.5274
  54   0.0000       0.097443         2.6516
  55   0.0000       0.105389         2.8678

MULLIKEN ATOMIC CHARGES
-----------------------
   0 C :    0.313977
   1 C :   -0.300307
   2 C :   -0.299143
   3 C :   -0.000312
   4 O :   -0.495476
   5 H :    0.144988
   6 H :    0.156421
   7 H :    0.146696
   8 H :    0.146495
   9 H :    0.156944
  10 H :    0.156158
  11 H :    0.144690
  12 C :   -0.006865
  13 H :    0.158516
  14 H :    0.117998
  15 O :   -0.526335
  16 C :    0.077525
  17 C :    0.074218
  18 C :   -0.285138
  19 C :   -0.019838
  20 O :   -0.525148
  21 H :    0.149729
  22 O :   -0.604215
  23 H :    0.139441
  24 H :    0.149607
  25 H :    0.166469
  26 H :    0.163663
  27 H :    0.135132
  28 H :    0.364112
Sum of atomic charges:   -0.0000000

LOEWDIN ATOMIC CHARGES
----------------------
   0 C :    0.182317
   1 C :   -0.233747
   2 C :   -0.216447
   3 C :   -0.025858
   4 O :   -0.304035
   5 H :    0.095970
   6 H :    0.121473
   7 H :    0.113916
   8 H :    0.116572
   9 H :    0.114734
  10 H :    0.110528
  11 H :    0.104134
  12 C :   -0.039753
  13 H :    0.113658
  14 H :    0.094189
  15 O :   -0.337026
  16 C :    0.008810
  17 C :    0.036762
  18 C :   -0.237806
  19 C :   -0.032212
  20 O :   -0.329054
  21 H :    0.113099
  22 O :   -0.416873
  23 H :    0.109568
  24 H :    0.119055
  25 H :    0.124859
  26 H :    0.114514
  27 H :    0.095860
  28 H :    0.282792

  Mayer bond orders larger than 0.100000
B(  0-C ,  1-C ) :   0.9337 B(  0-C ,  4-O ) :   0.9366 B(  0-C ,  5-H ) :   0.9173
B(  0-C , 15-O ) :   0.8365 B(  1-C ,  2-C ) :   0.9486 B(  1-C ,  6-H ) :   0.9327
B(  1-C ,  7-H ) :   0.9257 B(  2-C ,  3-C ) :   0.9541 B(  2-C ,  8-H ) :   0.9450
B(  2-C ,  9-H ) :   0.9455 B(  3-C ,  4-O ) :   0.8351 B(  3-C , 10-H ) :   0.9340
B(  3-C , 11-H ) :   0.9396 B( 12-C , 13-H ) :   0.9274 B( 12-C , 14-H ) :   0.9019
B( 12-C , 15-O ) :   0.8599 B( 12-C , 16-C ) :   0.8889 B( 16-C , 17-C ) :   0.9086
B( 16-C , 20-O ) :   0.8770 B( 16-C , 21-H ) :   0.9188 B( 17-C , 18-C ) :   0.9218
B( 17-C , 22-O ) :   0.8909 B( 17-C , 23-H ) :   0.9373 B( 18-C , 19-C ) :   0.9451
B( 18-C , 24-H ) :   0.9375 B( 18-C , 25-H ) :   0.9201 B( 19-C , 20-O ) :   0.8369
B( 19-C , 26-H ) :   0.9321 B( 19-C , 27-H ) :   0.9374 B( 22-O , 28-H ) :   0.7950

FINAL SINGLE POINT ENERGY      -652.854061744201

DIPOLE MOMENT
-------------
                                X             Y             Z
Electronic contribution:     -3.96365      -2.20349      -0.76179
Nuclear contribution   :      4.91689       3.01685       0.75003
                        -----------------------------------------
Total Dipole Moment    :      0.95324       0.81336      -0.01176
                        -----------------------------------------
Magnitude (a.u.)       :      1.25314
Magnitude (Debye)      :      3.18523

Rotational constants in cm-1:     0.059066     0.013596     0.013126
Rotational constants in MHz :  1770.763872   407.583072   393.500600

                             ****ORCA TERMINATED NORMALLY****
TOTAL RUN TIME: 0 days 1 hours 7 minutes 40 seconds 467 msec
