                         Program Version 4.2.0 -  RELEASE  -
|  1> # Test redundant internal optimization
|  2> #
|  3> ! RKS B3LYP  Opt TightSCF SmallPrint
|  4>
|  5> %basis
|  6>         Basis "6-31G"
|  7> end
|  8>
|  9> %geom
| 10> Constraints
| 11> { D 4  0  15  12  60.0   C } # D for Dihedral angle
| 12> { D 0  15  12  16  240.0   C } # D for Dihedral angle
| 13> { D 0  4  3  2   C } # D for Dihedral angle
| 14> { D 4  3  2  1   C } # D for Dihedral angle
| 15> { D 3  2  1  0   C } # D for Dihedral angle
| 16> { D 2  1  0  4   C } # D for Dihedral angle
| 17> { D 1  0  4  3   C } # D for Dihedral angle
| 18> { D 16  20  19  18   C } # D for Dihedral angle
| 19> { D 20  19  18  17   C } # D for Dihedral angle
| 20> { D 19  18  17  16   C } # D for Dihedral angle
| 21> { D 18  17  16  20   C } # D for Dihedral angle
| 22> { D 17  16  20  19   C } # D for Dihedral angle
| 23> { D 15  12  16  20   C } # D for Dihedral angle
| 24> end
| 25> end
| 26>
| 27>
| 28> #%pal
| 29> #nprocs 8
| 30> #end
| 31>
| 32> * xyz 0 1
| 33> C  -21.048   26.222   46.251
| 34> C  -20.361   27.558   45.944
| 35> C  -20.329   28.222   47.341
| 36> C  -20.110   27.022   48.296
| 37> O  -20.473   25.807   47.535
| 38> H  -20.833   25.428   45.533
| 39> H  -19.344   27.382   45.576
| 40> H  -20.898   28.157   45.201
| 41> H  -19.543   28.978   47.434
| 42> H  -21.289   28.710   47.548
| 43> H  -20.733   27.082   49.195
| 44> H  -19.064   26.913   48.597
| 45> C  -23.051   27.452   47.413
| 46> H  -22.171   27.909   47.883
| 47> H  -23.628   28.245   46.921
| 48> O  -22.586   26.394   46.375
| 49> C  -23.941   26.844   48.533
| 50> C  -23.155   25.841   49.385
| 51> C  -22.356   26.781   50.318
| 52> C  -23.337   27.957   50.557
| 53> O  -24.350   27.883   49.483
| 54> H  -24.852   26.442   48.086
| 55> O  -24.135   24.957   50.205
| 56> H  -22.512   25.182   48.792
| 57> H  -22.052   26.295   51.251
| 58> H  -21.449   27.131   49.812
| 59> H  -22.840   28.932   50.516
| 60> H  -23.868   27.870   51.509
| 61> H  -24.791   25.596   50.808
| 62> *
| 63>
| 64>                          ****END OF INPUT****
 Total Charge           Charge          ....    0
 Multiplicity           Mult            ....    1
 Number of Electrons    NEL             ....  102
FINAL SINGLE POINT ENERGY      -652.752628804199
FINAL SINGLE POINT ENERGY      -652.825803212909
FINAL SINGLE POINT ENERGY      -652.849734513612
FINAL SINGLE POINT ENERGY      -652.855916156458
FINAL SINGLE POINT ENERGY      -652.856856821895
FINAL SINGLE POINT ENERGY      -652.857079387267
FINAL SINGLE POINT ENERGY      -652.857126672876
FINAL SINGLE POINT ENERGY      -652.857153999482
FINAL SINGLE POINT ENERGY      -652.857164304293
FINAL SINGLE POINT ENERGY      -652.857168149383
                    ***********************HURRAY********************

CARTESIAN COORDINATES (ANGSTROEM)
---------------------------------
  C    -21.155041   26.351317   46.418528
  C    -20.336208   27.488111   45.787551
  C    -19.855318   28.274682   47.042387
  C    -19.631143   27.148776   48.082801
  O    -20.378929   25.966364   47.581075
  H    -21.178371   25.463863   45.783544
  H    -19.485618   27.051308   45.254253
  H    -20.922311   28.090976   45.089807
  H    -18.936850   28.839903   46.855789
  H    -20.618006   28.987080   47.369537
  H    -19.987790   27.407069   49.082492
  H    -18.581110   26.849246   48.148866
  C    -23.130423   27.548466   47.550142
  H    -22.361061   28.149122   48.046628
  H    -23.771683   28.219131   46.971108
  O    -22.558837   26.562843   46.637298
  C    -23.974134   26.811791   48.598512
  C    -23.236538   25.815588   49.506109
  C    -22.614449   26.759705   50.568054
  C    -23.686911   27.866577   50.726014
  O    -24.559014   27.784220   49.528893
  H    -24.805492   26.311099   48.093899
  O    -24.181561   24.886425   50.107254
  H    -22.501392   25.208621   48.982732
  H    -22.420092   26.218503   51.497237
  H    -21.667793   27.167862   50.205095
  H    -23.258995   28.872345   50.784852
  H    -24.326640   27.709872   51.600053
  H    -24.977287   25.381137   50.397490

 Multiplicity           Mult            ....    1
 Number of Electrons    NEL             ....  102
 Basis Dimension        Dim             ....  149

ORBITAL ENERGIES
----------------

  NO   OCC          E(Eh)            E(eV)
   0   2.0000     -19.153261      -521.1867
   1   2.0000     -19.147979      -521.0430
   2   2.0000     -19.143445      -520.9196
   3   2.0000     -19.129941      -520.5522
   4   2.0000     -10.285000      -279.8691
   5   2.0000     -10.238018      -278.5906
   6   2.0000     -10.235083      -278.5108
   7   2.0000     -10.230362      -278.3823
   8   2.0000     -10.228827      -278.3405
   9   2.0000     -10.228685      -278.3367
  10   2.0000     -10.200171      -277.5608
  11   2.0000     -10.195501      -277.4337
  12   2.0000     -10.184368      -277.1307
  13   2.0000      -1.057439       -28.7744
  14   2.0000      -1.033478       -28.1224
  15   2.0000      -1.003215       -27.2989
  16   2.0000      -0.998879       -27.1809
  17   2.0000      -0.795559       -21.6483
  18   2.0000      -0.779426       -21.2092
  19   2.0000      -0.769691       -20.9444
  20   2.0000      -0.735913       -20.0252
  21   2.0000      -0.681004       -18.5311
  22   2.0000      -0.611534       -16.6407
  23   2.0000      -0.602104       -16.3841
  24   2.0000      -0.597867       -16.2688
  25   2.0000      -0.575481       -15.6596
  26   2.0000      -0.525247       -14.2927
  27   2.0000      -0.510893       -13.9021
  28   2.0000      -0.508631       -13.8405
  29   2.0000      -0.491795       -13.3824
  30   2.0000      -0.477322       -12.9886
  31   2.0000      -0.456748       -12.4287
  32   2.0000      -0.453635       -12.3440
  33   2.0000      -0.435448       -11.8492
  34   2.0000      -0.425284       -11.5726
  35   2.0000      -0.421543       -11.4708
  36   2.0000      -0.411097       -11.1865
  37   2.0000      -0.388792       -10.5796
  38   2.0000      -0.387075       -10.5329
  39   2.0000      -0.369279       -10.0486
  40   2.0000      -0.363094        -9.8803
  41   2.0000      -0.361079        -9.8255
  42   2.0000      -0.348789        -9.4910
  43   2.0000      -0.332057        -9.0357
  44   2.0000      -0.323042        -8.7904
  45   2.0000      -0.307689        -8.3726
  46   2.0000      -0.302242        -8.2244
  47   2.0000      -0.277665        -7.5557
  48   2.0000      -0.264780        -7.2050
  49   2.0000      -0.260188        -7.0801
  50   2.0000      -0.241496        -6.5714
  51   0.0000       0.053755         1.4628
  52   0.0000       0.068104         1.8532
  53   0.0000       0.088123         2.3979
  54   0.0000       0.094210         2.5636
  55   0.0000       0.105045         2.8584

MULLIKEN ATOMIC CHARGES
-----------------------
   0 C :    0.302528
   1 C :   -0.269375
   2 C :   -0.320871
   3 C :   -0.018215
   4 O :   -0.506643
   5 H :    0.171304
   6 H :    0.156245
   7 H :    0.154327
   8 H :    0.149121
   9 H :    0.152895
  10 H :    0.142125
  11 H :    0.153907
  12 C :   -0.014242
  13 H :    0.122912
  14 H :    0.160325
  15 O :   -0.528696
  16 C :    0.067149
  17 C :    0.083440
  18 C :   -0.308316
  19 C :   -0.025347
  20 O :   -0.532109
  21 H :    0.166231
  22 O :   -0.604863
  23 H :    0.192301
  24 H :    0.162308
  25 H :    0.145977
  26 H :    0.138269
  27 H :    0.146034
  28 H :    0.361282
Sum of atomic charges:   -0.0000000

LOEWDIN ATOMIC CHARGES
----------------------
   0 C :    0.175599
   1 C :   -0.226607
   2 C :   -0.224536
   3 C :   -0.035368
   4 O :   -0.322721
   5 H :    0.115281
   6 H :    0.121877
   7 H :    0.122004
   8 H :    0.117780
   9 H :    0.109759
  10 H :    0.097356
  11 H :    0.107711
  12 C :   -0.037963
  13 H :    0.093474
  14 H :    0.115406
  15 O :   -0.322855
  16 C :    0.013891
  17 C :    0.036940
  18 C :   -0.241565
  19 C :   -0.038252
  20 O :   -0.333741
  21 H :    0.117852
  22 O :   -0.415302
  23 H :    0.134720
  24 H :    0.127146
  25 H :    0.109639
  26 H :    0.099914
  27 H :    0.102512
  28 H :    0.280049

  Mayer bond orders larger than 0.100000
B(  0-C ,  1-C ) :   0.9164 B(  0-C ,  4-O ) :   0.8869 B(  0-C ,  5-H ) :   0.9352
B(  0-C , 15-O ) :   0.9037 B(  1-C ,  2-C ) :   0.9547 B(  1-C ,  6-H ) :   0.9351
B(  1-C ,  7-H ) :   0.9379 B(  2-C ,  3-C ) :   0.9475 B(  2-C ,  8-H ) :   0.9437
B(  2-C ,  9-H ) :   0.9400 B(  3-C ,  4-O ) :   0.8478 B(  3-C , 10-H ) :   0.9177
B(  3-C , 11-H ) :   0.9379 B( 12-C , 13-H ) :   0.9167 B( 12-C , 14-H ) :   0.9310
B( 12-C , 15-O ) :   0.8209 B( 12-C , 16-C ) :   0.8927 B( 16-C , 17-C ) :   0.9127
B( 16-C , 20-O ) :   0.8366 B( 16-C , 21-H ) :   0.9261 B( 17-C , 18-C ) :   0.9118
B( 17-C , 22-O ) :   0.8818 B( 17-C , 23-H ) :   0.9129 B( 18-C , 19-C ) :   0.9395
B( 18-C , 24-H ) :   0.9388 B( 18-C , 25-H ) :   0.9213 B( 19-C , 20-O ) :   0.8442
B( 19-C , 26-H ) :   0.9368 B( 19-C , 27-H ) :   0.9384 B( 22-O , 28-H ) :   0.7957

FINAL SINGLE POINT ENERGY      -652.857160391289

DIPOLE MOMENT
-------------
                                X             Y             Z
Electronic contribution:     -5.05377      -4.46559      -0.79510
Nuclear contribution   :      6.17813       5.88867       0.74414
                        -----------------------------------------
Total Dipole Moment    :      1.12436       1.42308      -0.05096
                        -----------------------------------------
Magnitude (a.u.)       :      1.81437
Magnitude (Debye)      :      4.61176

Rotational constants in cm-1:     0.046935     0.016130     0.015874
Rotational constants in MHz :  1407.065400   483.557873   475.888198

                             ****ORCA TERMINATED NORMALLY****
TOTAL RUN TIME: 0 days 0 hours 34 minutes 34 seconds 399 msec
