                         Program Version 4.2.0 -  RELEASE  -
|  1> # Test redundant internal optimization
|  2> #
|  3> ! RKS B3LYP  Opt TightSCF SmallPrint
|  4>
|  5> %basis
|  6>         Basis "6-31G"
|  7> end
|  8>
|  9> %geom
| 10> Constraints
| 11> { D 4  0  15  12  150.0   C } # D for Dihedral angle
| 12> { D 0  15  12  16  60.0   C } # D for Dihedral angle
| 13> { D 0  4  3  2   C } # D for Dihedral angle
| 14> { D 4  3  2  1   C } # D for Dihedral angle
| 15> { D 3  2  1  0   C } # D for Dihedral angle
| 16> { D 2  1  0  4   C } # D for Dihedral angle
| 17> { D 1  0  4  3   C } # D for Dihedral angle
| 18> { D 16  20  19  18   C } # D for Dihedral angle
| 19> { D 20  19  18  17   C } # D for Dihedral angle
| 20> { D 19  18  17  16   C } # D for Dihedral angle
| 21> { D 18  17  16  20   C } # D for Dihedral angle
| 22> { D 17  16  20  19   C } # D for Dihedral angle
| 23> { D 15  12  16  20   C } # D for Dihedral angle
| 24> end
| 25> end
| 26>
| 27>
| 28> #%pal
| 29> #nprocs 8
| 30> #end
| 31>
| 32> * xyz 0 1
| 33> C  -21.048   26.222   46.251
| 34> C  -20.361   27.558   45.944
| 35> C  -20.329   28.222   47.341
| 36> C  -20.110   27.022   48.296
| 37> O  -20.473   25.807   47.535
| 38> H  -20.833   25.428   45.533
| 39> H  -19.344   27.382   45.576
| 40> H  -20.898   28.157   45.201
| 41> H  -19.543   28.978   47.434
| 42> H  -21.289   28.710   47.548
| 43> H  -20.733   27.082   49.195
| 44> H  -19.064   26.913   48.597
| 45> C  -23.210   27.459   45.431
| 46> H  -24.292   27.506   45.605
| 47> H  -22.785   28.450   45.637
| 48> O  -22.586   26.394   46.375
| 49> C  -22.969   27.144   43.929
| 50> C  -23.678   25.851   43.511
| 51> C  -25.136   26.335   43.335
| 52> C  -24.965   27.771   42.778
| 53> O  -23.577   28.178   43.085
| 54> H  -21.896   27.158   43.728
| 55> O  -23.102   25.341   42.161
| 56> H  -23.582   25.049   44.250
| 57> H  -25.718   25.695   42.664
| 58> H  -25.646   26.355   44.305
| 59> H  -25.658   28.484   43.237
| 60> H  -25.082   27.815   41.692
| 61> H  -23.187   26.129   41.403
| 62> *
| 63>
| 64>                          ****END OF INPUT****
 Total Charge           Charge          ....    0
 Multiplicity           Mult            ....    1
 Number of Electrons    NEL             ....  102
FINAL SINGLE POINT ENERGY      -652.829344647983
FINAL SINGLE POINT ENERGY      -652.851898026574
FINAL SINGLE POINT ENERGY      -652.855821179349
FINAL SINGLE POINT ENERGY      -652.856725782807
FINAL SINGLE POINT ENERGY      -652.856841753278
FINAL SINGLE POINT ENERGY      -652.856859881609
                    ***********************HURRAY********************

CARTESIAN COORDINATES (ANGSTROEM)
---------------------------------
  C    -21.076886   26.257844   46.214007
  C    -20.243014   27.507801   45.927948
  C    -20.260790   28.232209   47.301235
  C    -20.239122   27.054895   48.299575
  O    -20.658597   25.860590   47.527501
  H    -20.894874   25.409588   45.550914
  H    -19.225192   27.190608   45.674072
  H    -20.610211   28.133289   45.112302
  H    -19.406426   28.903686   47.428119
  H    -21.177643   28.820920   47.409727
  H    -20.926786   27.188467   49.138417
  H    -19.236607   26.843461   48.682674
  C    -23.167200   27.474555   45.423118
  H    -24.219458   27.435087   45.716126
  H    -22.802882   28.491755   45.619388
  O    -22.522150   26.497304   46.286112
  C    -23.007672   27.182402   43.925860
  C    -23.650301   25.870438   43.452587
  C    -25.139936   26.277873   43.328885
  C    -25.067065   27.748117   42.845248
  O    -23.691754   28.223080   43.148875
  H    -21.955011   27.218128   43.631164
  O    -23.089546   25.447010   42.178928
  H    -23.484666   25.040158   44.138595
  H    -25.662147   25.623083   42.626789
  H    -25.636324   26.201394   44.301717
  H    -25.786626   28.399658   43.349687
  H    -25.207207   27.844237   41.764038
  H    -23.047907   26.217366   41.573394

 Multiplicity           Mult            ....    1
 Number of Electrons    NEL             ....  102
 Basis Dimension        Dim             ....  149

ORBITAL ENERGIES
----------------

  NO   OCC          E(Eh)            E(eV)
   0   2.0000     -19.149819      -521.0931
   1   2.0000     -19.141529      -520.8675
   2   2.0000     -19.140094      -520.8284
   3   2.0000     -19.139990      -520.8256
   4   2.0000     -10.281358      -279.7700
   5   2.0000     -10.240762      -278.6653
   6   2.0000     -10.237500      -278.5765
   7   2.0000     -10.235947      -278.5343
   8   2.0000     -10.233899      -278.4785
   9   2.0000     -10.226391      -278.2742
  10   2.0000     -10.192763      -277.3592
  11   2.0000     -10.191858      -277.3345
  12   2.0000     -10.191250      -277.3180
  13   2.0000      -1.052851       -28.6495
  14   2.0000      -1.040029       -28.3006
  15   2.0000      -1.008899       -27.4536
  16   2.0000      -0.993503       -27.0346
  17   2.0000      -0.789772       -21.4908
  18   2.0000      -0.783412       -21.3177
  19   2.0000      -0.769914       -20.9504
  20   2.0000      -0.737665       -20.0729
  21   2.0000      -0.680751       -18.5242
  22   2.0000      -0.607634       -16.5346
  23   2.0000      -0.605870       -16.4866
  24   2.0000      -0.603260       -16.4155
  25   2.0000      -0.573092       -15.5946
  26   2.0000      -0.530263       -14.4292
  27   2.0000      -0.512131       -13.9358
  28   2.0000      -0.500848       -13.6288
  29   2.0000      -0.492761       -13.4087
  30   2.0000      -0.476638       -12.9700
  31   2.0000      -0.462458       -12.5841
  32   2.0000      -0.451738       -12.2924
  33   2.0000      -0.440980       -11.9997
  34   2.0000      -0.426028       -11.5928
  35   2.0000      -0.415749       -11.3131
  36   2.0000      -0.406777       -11.0690
  37   2.0000      -0.396386       -10.7862
  38   2.0000      -0.382249       -10.4015
  39   2.0000      -0.372279       -10.1302
  40   2.0000      -0.365221        -9.9382
  41   2.0000      -0.359660        -9.7869
  42   2.0000      -0.356902        -9.7118
  43   2.0000      -0.335145        -9.1198
  44   2.0000      -0.316298        -8.6069
  45   2.0000      -0.311092        -8.4653
  46   2.0000      -0.300878        -8.1873
  47   2.0000      -0.272877        -7.4254
  48   2.0000      -0.269746        -7.3402
  49   2.0000      -0.256992        -6.9931
  50   2.0000      -0.242196        -6.5905
  51   0.0000       0.060961         1.6588
  52   0.0000       0.071608         1.9485
  53   0.0000       0.085510         2.3268
  54   0.0000       0.095723         2.6048
  55   0.0000       0.099714         2.7134

MULLIKEN ATOMIC CHARGES
-----------------------
   0 C :    0.310843
   1 C :   -0.303501
   2 C :   -0.301177
   3 C :   -0.000056
   4 O :   -0.498075
   5 H :    0.157109
   6 H :    0.155331
   7 H :    0.152060
   8 H :    0.145954
   9 H :    0.155812
  10 H :    0.153565
  11 H :    0.143764
  12 C :   -0.018267
  13 H :    0.155032
  14 H :    0.139288
  15 O :   -0.520498
  16 C :    0.042438
  17 C :    0.084406
  18 C :   -0.305330
  19 C :   -0.033233
  20 O :   -0.527430
  21 H :    0.159023
  22 O :   -0.601467
  23 H :    0.175829
  24 H :    0.166168
  25 H :    0.153192
  26 H :    0.149559
  27 H :    0.148094
  28 H :    0.361566
Sum of atomic charges:   -0.0000000

LOEWDIN ATOMIC CHARGES
----------------------
   0 C :    0.180832
   1 C :   -0.235312
   2 C :   -0.216800
   3 C :   -0.026114
   4 O :   -0.302988
   5 H :    0.104483
   6 H :    0.121418
   7 H :    0.116797
   8 H :    0.116291
   9 H :    0.113458
  10 H :    0.108969
  11 H :    0.103650
  12 C :   -0.044362
  13 H :    0.114985
  14 H :    0.098325
  15 O :   -0.334693
  16 C :   -0.001270
  17 C :    0.035676
  18 C :   -0.241773
  19 C :   -0.038699
  20 O :   -0.331176
  21 H :    0.109555
  22 O :   -0.414312
  23 H :    0.126572
  24 H :    0.128456
  25 H :    0.117807
  26 H :    0.105669
  27 H :    0.103395
  28 H :    0.281163

  Mayer bond orders larger than 0.100000
B(  0-C ,  1-C ) :   0.9306 B(  0-C ,  4-O ) :   0.9317 B(  0-C ,  5-H ) :   0.9233
B(  0-C , 15-O ) :   0.8321 B(  1-C ,  2-C ) :   0.9474 B(  1-C ,  6-H ) :   0.9340
B(  1-C ,  7-H ) :   0.9238 B(  2-C ,  3-C ) :   0.9534 B(  2-C ,  8-H ) :   0.9451
B(  2-C ,  9-H ) :   0.9436 B(  3-C ,  4-O ) :   0.8368 B(  3-C , 10-H ) :   0.9344
B(  3-C , 11-H ) :   0.9396 B( 12-C , 13-H ) :   0.9379 B( 12-C , 14-H ) :   0.9094
B( 12-C , 15-O ) :   0.8511 B( 12-C , 16-C ) :   0.8743 B( 16-C , 17-C ) :   0.9056
B( 16-C , 20-O ) :   0.8391 B( 16-C , 21-H ) :   0.9198 B( 17-C , 18-C ) :   0.9154
B( 17-C , 22-O ) :   0.8894 B( 17-C , 23-H ) :   0.9241 B( 18-C , 19-C ) :   0.9433
B( 18-C , 24-H ) :   0.9364 B( 18-C , 25-H ) :   0.9326 B( 19-C , 20-O ) :   0.8420
B( 19-C , 26-H ) :   0.9349 B( 19-C , 27-H ) :   0.9379 B( 22-O , 28-H ) :   0.7971

FINAL SINGLE POINT ENERGY      -652.856862745133

DIPOLE MOMENT
-------------
                                X             Y             Z
Electronic contribution:     -0.08303      -3.32823      -1.08850
Nuclear contribution   :     -0.05381       4.45288       0.90692
                        -----------------------------------------
Total Dipole Moment    :     -0.13684       1.12465      -0.18158
                        -----------------------------------------
Magnitude (a.u.)       :      1.14740
Magnitude (Debye)      :      2.91647

Rotational constants in cm-1:     0.060865     0.012921     0.012342
Rotational constants in MHz :  1824.694281   387.373637   370.001679

                             ****ORCA TERMINATED NORMALLY****
TOTAL RUN TIME: 0 days 0 hours 27 minutes 26 seconds 933 msec
