                         Program Version 4.2.1 -  RELEASE  -
|  1> # Test redundant internal optimization
|  2> #
|  3> ! RKS B3LYP  Opt TightSCF SmallPrint
|  4>
|  5> %basis
|  6>         Basis "6-31G"
|  7> end
|  8>
|  9> %geom
| 10> Constraints
| 11> { D 4  0  19  14  180.0   C } # D for Dihedral angle
| 12> { D 0  19  14  12  15.0   C } # D for Dihedral angle
| 13> { D 0  4  3  2   C } # D for Dihedral angle
| 14> { D 4  3  2  1   C } # D for Dihedral angle
| 15> { D 3  2  1  0   C } # D for Dihedral angle
| 16> { D 2  1  0  4   C } # D for Dihedral angle
| 17> { D 1  0  4  3   C } # D for Dihedral angle
| 18> { D 14  15  16  17   C } # D for Dihedral angle
| 19> { D 15  16  17  12   C } # D for Dihedral angle
| 20> { D 16  17  12  14   C } # D for Dihedral angle
| 21> { D 17  12  14  15   C } # D for Dihedral angle
| 22> { D 12  14  15  16   C } # D for Dihedral angle
| 23> end
| 24> end
| 25>
| 26>
| 27> #%pal
| 28> #nprocs 8
| 29> #end
| 30>
| 31> * xyz 0 1
| 32> C  -21.048   26.222   46.251
| 33> C  -20.361   27.558   45.944
| 34> C  -20.329   28.222   47.341
| 35> C  -20.110   27.022   48.296
| 36> O  -20.473   25.807   47.535
| 37> H  -20.833   25.428   45.533
| 38> H  -19.344   27.382   45.576
| 39> H  -20.898   28.157   45.201
| 40> H  -19.543   28.978   47.434
| 41> H  -21.289   28.710   47.548
| 42> H  -20.733   27.082   49.195
| 43> H  -19.064   26.913   48.597
| 44> C  -22.181   26.588   43.958
| 45> H  -22.527   27.148   43.076
| 46> C  -23.122   26.788   45.152
| 47> C  -24.280   25.824   44.802
| 48> C  -23.557   24.642   44.108
| 49> O  -22.227   25.145   43.699
| 50> H  -21.138   26.843   44.157
| 51> O  -22.472   26.381   46.366
| 52> H  -23.454   27.825   45.268
| 53> H  -24.849   25.506   45.682
| 54> H  -24.979   26.309   44.109
| 55> H  -24.093   24.284   43.222
| 56> H  -23.389   23.799   44.785
| 57> *
| 58>
| 59>                          ****END OF INPUT****
 Total Charge           Charge          ....    0
 Multiplicity           Mult            ....    1
 Number of Electrons    NEL             ....   86
FINAL SINGLE POINT ENERGY      -538.407195982378
FINAL SINGLE POINT ENERGY      -538.424260384722
FINAL SINGLE POINT ENERGY      -538.425728764961
FINAL SINGLE POINT ENERGY      -538.425980074209
FINAL SINGLE POINT ENERGY      -538.426043480921
FINAL SINGLE POINT ENERGY      -538.426057277974
FINAL SINGLE POINT ENERGY      -538.426058769423
                    ***********************HURRAY********************

CARTESIAN COORDINATES (ANGSTROEM)
---------------------------------
  C    -20.893683   26.208899   46.248420
  C    -20.133016   27.516119   46.018054
  C    -20.295428   28.235018   47.386690
  C    -20.257975   27.057633   48.383597
  O    -20.538188   25.840666   47.586108
  H    -20.633942   25.381824   45.584087
  H    -19.078538   27.285903   45.822845
  H    -20.509884   28.118839   45.190364
  H    -19.504090   28.967337   47.571522
  H    -21.261475   28.746374   47.425801
  H    -21.009583   27.137559   49.173376
  H    -19.271371   26.915558   48.835227
  C    -22.366682   26.646068   43.723129
  H    -22.924824   27.191790   42.947356
  C    -23.094425   26.794183   45.061171
  C    -24.238295   25.772257   44.904557
  C    -23.592457   24.630255   44.085634
  O    -22.377785   25.204842   43.456656
  H    -21.327937   26.966695   43.696095
  O    -22.343193   26.405072   46.259115
  H    -23.460764   27.815589   45.217239
  H    -24.591054   25.449573   45.885399
  H    -25.074172   26.225848   44.359033
  H    -24.251588   24.249146   43.298615
  H    -23.262650   23.799954   44.714909

 Multiplicity           Mult            ....    1
 Number of Electrons    NEL             ....   86
 Basis Dimension        Dim             ....  127

ORBITAL ENERGIES
----------------

  NO   OCC          E(Eh)            E(eV)
   0   2.0000     -19.136907      -520.7417
   1   2.0000     -19.136095      -520.7196
   2   2.0000     -19.132867      -520.6318
   3   2.0000     -10.275370      -279.6070
   4   2.0000     -10.242409      -278.7101
   5   2.0000     -10.230495      -278.3859
   6   2.0000     -10.222565      -278.1701
   7   2.0000     -10.222418      -278.1661
   8   2.0000     -10.186292      -277.1831
   9   2.0000     -10.186063      -277.1769
  10   2.0000     -10.183609      -277.1101
  11   2.0000      -1.049288       -28.5526
  12   2.0000      -1.018716       -27.7207
  13   2.0000      -0.983531       -26.7632
  14   2.0000      -0.787355       -21.4250
  15   2.0000      -0.779802       -21.2195
  16   2.0000      -0.740034       -20.1373
  17   2.0000      -0.726782       -19.7767
  18   2.0000      -0.618240       -16.8232
  19   2.0000      -0.603377       -16.4187
  20   2.0000      -0.593454       -16.1487
  21   2.0000      -0.564325       -15.3561
  22   2.0000      -0.520757       -14.1705
  23   2.0000      -0.499575       -13.5941
  24   2.0000      -0.489090       -13.3088
  25   2.0000      -0.485444       -13.2096
  26   2.0000      -0.451593       -12.2885
  27   2.0000      -0.449634       -12.2352
  28   2.0000      -0.428548       -11.6614
  29   2.0000      -0.412096       -11.2137
  30   2.0000      -0.408124       -11.1056
  31   2.0000      -0.384192       -10.4544
  32   2.0000      -0.372803       -10.1445
  33   2.0000      -0.367501       -10.0002
  34   2.0000      -0.363693        -9.8966
  35   2.0000      -0.352066        -9.5802
  36   2.0000      -0.349468        -9.5095
  37   2.0000      -0.317649        -8.6437
  38   2.0000      -0.306861        -8.3501
  39   2.0000      -0.291997        -7.9456
  40   2.0000      -0.254983        -6.9384
  41   2.0000      -0.247378        -6.7315
  42   2.0000      -0.242073        -6.5871
  43   0.0000       0.075889         2.0650
  44   0.0000       0.092289         2.5113
  45   0.0000       0.100214         2.7270
  46   0.0000       0.106759         2.9051
  47   0.0000       0.116371         3.1666

MULLIKEN ATOMIC CHARGES
-----------------------
   0 C :    0.303336
   1 C :   -0.281254
   2 C :   -0.299772
   3 C :    0.001042
   4 O :   -0.503497
   5 H :    0.166329
   6 H :    0.148988
   7 H :    0.138253
   8 H :    0.141285
   9 H :    0.155910
  10 H :    0.152568
  11 H :    0.141386
  12 C :   -0.034472
  13 H :    0.135213
  14 C :    0.087001
  15 C :   -0.281481
  16 C :   -0.008649
  17 O :   -0.526668
  18 H :    0.156711
  19 O :   -0.528693
  20 H :    0.132925
  21 H :    0.172313
  22 H :    0.133664
  23 H :    0.139164
  24 H :    0.158399
Sum of atomic charges:   -0.0000000

LOEWDIN ATOMIC CHARGES
----------------------
   0 C :    0.182713
   1 C :   -0.235236
   2 C :   -0.217053
   3 C :   -0.025228
   4 O :   -0.300081
   5 H :    0.109087
   6 H :    0.116531
   7 H :    0.109840
   8 H :    0.113933
   9 H :    0.115446
  10 H :    0.108274
  11 H :    0.101998
  12 C :   -0.055043
  13 H :    0.098898
  14 C :    0.040742
  15 C :   -0.224345
  16 C :   -0.029871
  17 O :   -0.335494
  18 H :    0.113382
  19 O :   -0.340686
  20 H :    0.100320
  21 H :    0.132776
  22 H :    0.108089
  23 H :    0.100550
  24 H :    0.110457

  Mayer bond orders larger than 0.100000
B(  0-C ,  1-C ) :   0.9269 B(  0-C ,  4-O ) :   0.9266 B(  0-C ,  5-H ) :   0.9119
B(  0-C , 19-O ) :   0.8223 B(  1-C ,  2-C ) :   0.9468 B(  1-C ,  6-H ) :   0.9340
B(  1-C ,  7-H ) :   0.9307 B(  2-C ,  3-C ) :   0.9555 B(  2-C ,  8-H ) :   0.9448
B(  2-C ,  9-H ) :   0.9458 B(  3-C ,  4-O ) :   0.8360 B(  3-C , 10-H ) :   0.9350
B(  3-C , 11-H ) :   0.9398 B( 12-C , 13-H ) :   0.9122 B( 12-C , 14-C ) :   0.9217
B( 12-C , 17-O ) :   0.8577 B( 12-C , 18-H ) :   0.9237 B( 14-C , 15-C ) :   0.9390
B( 14-C , 19-O ) :   0.8473 B( 14-C , 20-H ) :   0.9256 B( 15-C , 16-C ) :   0.9476
B( 15-C , 21-H ) :   0.9349 B( 15-C , 22-H ) :   0.9389 B( 16-C , 17-O ) :   0.8448
B( 16-C , 23-H ) :   0.9343 B( 16-C , 24-H ) :   0.9363

FINAL SINGLE POINT ENERGY      -538.426059117831

DIPOLE MOMENT
-------------
                                X             Y             Z
Electronic contribution:      0.28917      -3.39823       0.31861
Nuclear contribution   :     -0.53502       4.61811      -0.54420
                        -----------------------------------------
Total Dipole Moment    :     -0.24585       1.21988      -0.22559
                        -----------------------------------------
Magnitude (a.u.)       :      1.26469
Magnitude (Debye)      :      3.21459

Rotational constants in cm-1:     0.083531     0.021576     0.020757
Rotational constants in MHz :  2504.189364   646.830969   622.265295

                             ****ORCA TERMINATED NORMALLY****
TOTAL RUN TIME: 0 days 0 hours 17 minutes 42 seconds 375 msec
