                         Program Version 4.2.0 -  RELEASE  -
|  1> # Test redundant internal optimization
|  2> #
|  3> ! RKS B3LYP  Opt TightSCF SmallPrint
|  4>
|  5> %basis
|  6>         Basis "6-31G"
|  7> end
|  8>
|  9> %geom
| 10> Constraints
| 11> { D 4  0  15  12  15.0   C } # D for Dihedral angle
| 12> { D 0  15  12  16  285.0   C } # D for Dihedral angle
| 13> { D 0  4  3  2   C } # D for Dihedral angle
| 14> { D 4  3  2  1   C } # D for Dihedral angle
| 15> { D 3  2  1  0   C } # D for Dihedral angle
| 16> { D 2  1  0  4   C } # D for Dihedral angle
| 17> { D 1  0  4  3   C } # D for Dihedral angle
| 18> { D 16  20  19  18   C } # D for Dihedral angle
| 19> { D 20  19  18  17   C } # D for Dihedral angle
| 20> { D 19  18  17  16   C } # D for Dihedral angle
| 21> { D 18  17  16  20   C } # D for Dihedral angle
| 22> { D 17  16  20  19   C } # D for Dihedral angle
| 23> { D 15  12  16  20   C } # D for Dihedral angle
| 24> end
| 25> end
| 26>
| 27>
| 28> #%pal
| 29> #nprocs 8
| 30> #end
| 31>
| 32> * xyz 0 1
| 33> C  -21.048   26.222   46.251
| 34> C  -20.361   27.558   45.944
| 35> C  -20.329   28.222   47.341
| 36> C  -20.110   27.022   48.296
| 37> O  -20.473   25.807   47.535
| 38> H  -20.833   25.428   45.533
| 39> H  -19.344   27.382   45.576
| 40> H  -20.898   28.157   45.201
| 41> H  -19.543   28.978   47.434
| 42> H  -21.289   28.710   47.548
| 43> H  -20.733   27.082   49.195
| 44> H  -19.064   26.913   48.597
| 45> C  -23.128   26.462   47.829
| 46> H  -22.497   27.138   48.419
| 47> H  -24.153   26.854   47.839
| 48> O  -22.586   26.394   46.375
| 49> C  -23.145   25.075   48.529
| 50> C  -23.938   24.049   47.711
| 51> C  -22.912   23.657   46.621
| 52> C  -21.559   23.714   47.374
| 53> O  -21.791   24.517   48.595
| 54> H  -23.491   25.198   49.557
| 55> O  -24.292   22.822   48.596
| 56> H  -24.866   24.454   47.294
| 57> H  -23.107   22.671   46.188
| 58> H  -22.931   24.390   45.806
| 59> H  -20.768   24.183   46.781
| 60> H  -21.220   22.726   47.699
| 61> H  -23.377   22.399   49.024
| 62> *
| 63>
| 64>                          ****END OF INPUT****
 Total Charge           Charge          ....    0
 Multiplicity           Mult            ....    1
 Number of Electrons    NEL             ....  102
FINAL SINGLE POINT ENERGY      -652.776001217383
FINAL SINGLE POINT ENERGY      -652.829749825425
FINAL SINGLE POINT ENERGY      -652.848498989799
FINAL SINGLE POINT ENERGY      -652.852452984845
FINAL SINGLE POINT ENERGY      -652.853048583055
FINAL SINGLE POINT ENERGY      -652.853174920195
FINAL SINGLE POINT ENERGY      -652.853195994837
FINAL SINGLE POINT ENERGY      -652.853200913742
FINAL SINGLE POINT ENERGY      -652.853200569030
                    ***********************HURRAY********************

CARTESIAN COORDINATES (ANGSTROEM)
---------------------------------
  C    -21.004545   26.494556   46.198023
  C    -20.488544   27.917333   45.978128
  C    -20.220588   28.392504   47.430021
  C    -19.732274   27.100258   48.126345
  O    -20.172506   25.983174   47.248323
  H    -20.883298   25.827176   45.343192
  H    -19.555149   27.880026   45.403765
  H    -21.211177   28.537067   45.443585
  H    -19.477567   29.194195   47.479270
  H    -21.145447   28.762358   47.883925
  H    -20.159879   26.939653   49.118625
  H    -18.641642   27.037643   48.186394
  C    -23.102655   26.371244   47.738554
  H    -22.644788   27.057485   48.465859
  H    -24.121696   26.723472   47.547074
  O    -22.444435   26.519659   46.448291
  C    -23.203736   24.988097   48.414460
  C    -23.991782   23.943947   47.612613
  C    -22.885237   23.327412   46.715532
  C    -21.639641   23.355914   47.637366
  O    -21.946145   24.324557   48.717796
  H    -23.703674   25.172985   49.374337
  O    -24.588087   22.953438   48.500712
  H    -24.826504   24.358559   47.046968
  H    -23.159461   22.320304   46.393146
  H    -22.740714   23.961459   45.835791
  H    -20.731931   23.691209   47.135613
  H    -21.454008   22.390930   48.121018
  H    -23.908892   22.657387   49.143272

 Multiplicity           Mult            ....    1
 Number of Electrons    NEL             ....  102
 Basis Dimension        Dim             ....  149

ORBITAL ENERGIES
----------------

  NO   OCC          E(Eh)            E(eV)
   0   2.0000     -19.148632      -521.0608
   1   2.0000     -19.139033      -520.7996
   2   2.0000     -19.132218      -520.6141
   3   2.0000     -19.129763      -520.5473
   4   2.0000     -10.282429      -279.7991
   5   2.0000     -10.234718      -278.5008
   6   2.0000     -10.230686      -278.3911
   7   2.0000     -10.230578      -278.3882
   8   2.0000     -10.229103      -278.3480
   9   2.0000     -10.214154      -277.9413
  10   2.0000     -10.192321      -277.3472
  11   2.0000     -10.186277      -277.1827
  12   2.0000     -10.174740      -276.8688
  13   2.0000      -1.053927       -28.6788
  14   2.0000      -1.027593       -27.9622
  15   2.0000      -0.997498       -27.1433
  16   2.0000      -0.991941       -26.9921
  17   2.0000      -0.790298       -21.5051
  18   2.0000      -0.775161       -21.0932
  19   2.0000      -0.761969       -20.7342
  20   2.0000      -0.733896       -19.9703
  21   2.0000      -0.673072       -18.3152
  22   2.0000      -0.604825       -16.4581
  23   2.0000      -0.603369       -16.4185
  24   2.0000      -0.592341       -16.1184
  25   2.0000      -0.561579       -15.2813
  26   2.0000      -0.523113       -14.2346
  27   2.0000      -0.507692       -13.8150
  28   2.0000      -0.495421       -13.4811
  29   2.0000      -0.479864       -13.0578
  30   2.0000      -0.471636       -12.8339
  31   2.0000      -0.459261       -12.4971
  32   2.0000      -0.444094       -12.0844
  33   2.0000      -0.430687       -11.7196
  34   2.0000      -0.419511       -11.4155
  35   2.0000      -0.414480       -11.2786
  36   2.0000      -0.395524       -10.7628
  37   2.0000      -0.383669       -10.4402
  38   2.0000      -0.377815       -10.2809
  39   2.0000      -0.366163        -9.9638
  40   2.0000      -0.359724        -9.7886
  41   2.0000      -0.357795        -9.7361
  42   2.0000      -0.347292        -9.4503
  43   2.0000      -0.330095        -8.9823
  44   2.0000      -0.318505        -8.6670
  45   2.0000      -0.307003        -8.3540
  46   2.0000      -0.294228        -8.0063
  47   2.0000      -0.268501        -7.3063
  48   2.0000      -0.260118        -7.0782
  49   2.0000      -0.255190        -6.9441
  50   2.0000      -0.226940        -6.1754
  51   0.0000       0.066623         1.8129
  52   0.0000       0.080983         2.2037
  53   0.0000       0.092426         2.5151
  54   0.0000       0.102974         2.8021
  55   0.0000       0.107502         2.9253

MULLIKEN ATOMIC CHARGES
-----------------------
   0 C :    0.310499
   1 C :   -0.256906
   2 C :   -0.317317
   3 C :   -0.012906
   4 O :   -0.502804
   5 H :    0.154227
   6 H :    0.144440
   7 H :    0.156973
   8 H :    0.148276
   9 H :    0.153483
  10 H :    0.160809
  11 H :    0.150596
  12 C :   -0.005486
  13 H :    0.129482
  14 H :    0.152701
  15 O :   -0.549651
  16 C :    0.080608
  17 C :    0.079805
  18 C :   -0.295092
  19 C :   -0.023247
  20 O :   -0.521105
  21 H :    0.148262
  22 O :   -0.607645
  23 H :    0.149075
  24 H :    0.149315
  25 H :    0.160530
  26 H :    0.170346
  27 H :    0.131240
  28 H :    0.361492
Sum of atomic charges:   -0.0000000

LOEWDIN ATOMIC CHARGES
----------------------
   0 C :    0.181457
   1 C :   -0.221089
   2 C :   -0.221334
   3 C :   -0.030917
   4 O :   -0.303992
   5 H :    0.104842
   6 H :    0.113367
   7 H :    0.123367
   8 H :    0.117565
   9 H :    0.112309
  10 H :    0.110743
  11 H :    0.106835
  12 C :   -0.034644
  13 H :    0.093246
  14 H :    0.117307
  15 O :   -0.349292
  16 C :    0.003681
  17 C :    0.036381
  18 C :   -0.240691
  19 C :   -0.037744
  20 O :   -0.323140
  21 H :    0.113951
  22 O :   -0.419910
  23 H :    0.114207
  24 H :    0.120306
  25 H :    0.121604
  26 H :    0.116285
  27 H :    0.094621
  28 H :    0.280679

  Mayer bond orders larger than 0.100000
B(  0-C ,  1-C ) :   0.9308 B(  0-C ,  4-O ) :   0.9198 B(  0-C ,  5-H ) :   0.9313
B(  0-C , 15-O ) :   0.8317 B(  1-C ,  2-C ) :   0.9550 B(  1-C ,  6-H ) :   0.9351
B(  1-C ,  7-H ) :   0.9373 B(  2-C ,  3-C ) :   0.9516 B(  2-C ,  8-H ) :   0.9442
B(  2-C ,  9-H ) :   0.9432 B(  3-C ,  4-O ) :   0.8228 B(  3-C , 10-H ) :   0.9288
B(  3-C , 11-H ) :   0.9397 B( 12-C , 13-H ) :   0.9190 B( 12-C , 14-H ) :   0.9291
B( 12-C , 15-O ) :   0.8602 B( 12-C , 16-C ) :   0.8754 B( 16-C , 17-C ) :   0.9075
B( 16-C , 20-O ) :   0.8828 B( 16-C , 21-H ) :   0.9139 B( 17-C , 18-C ) :   0.9219
B( 17-C , 22-O ) :   0.8880 B( 17-C , 23-H ) :   0.9362 B( 18-C , 19-C ) :   0.9445
B( 18-C , 24-H ) :   0.9381 B( 18-C , 25-H ) :   0.9250 B( 19-C , 20-O ) :   0.8307
B( 19-C , 26-H ) :   0.9184 B( 19-C , 27-H ) :   0.9396 B( 22-O , 28-H ) :   0.7965

FINAL SINGLE POINT ENERGY      -652.853198919930

DIPOLE MOMENT
-------------
                                X             Y             Z
Electronic contribution:     -2.17676      -3.43629       1.17580
Nuclear contribution   :      2.90915       4.37909      -1.35493
                        -----------------------------------------
Total Dipole Moment    :      0.73239       0.94280      -0.17913
                        -----------------------------------------
Magnitude (a.u.)       :      1.20721
Magnitude (Debye)      :      3.06848

Rotational constants in cm-1:     0.058849     0.016261     0.015630
Rotational constants in MHz :  1764.240463   487.479458   468.562117

                             ****ORCA TERMINATED NORMALLY****
TOTAL RUN TIME: 0 days 0 hours 50 minutes 39 seconds 733 msec
