                         Program Version 4.2.0 -  RELEASE  -
|  1> # Test redundant internal optimization
|  2> #
|  3> ! RKS B3LYP  Opt TightSCF SmallPrint
|  4>
|  5> %basis
|  6>         Basis "6-31G"
|  7> end
|  8>
|  9> %geom
| 10> Constraints
| 11> { D 4  0  15  12  240.0   C } # D for Dihedral angle
| 12> { D 0  15  12  16  0.0   C } # D for Dihedral angle
| 13> { D 0  4  3  2   C } # D for Dihedral angle
| 14> { D 4  3  2  1   C } # D for Dihedral angle
| 15> { D 3  2  1  0   C } # D for Dihedral angle
| 16> { D 2  1  0  4   C } # D for Dihedral angle
| 17> { D 1  0  4  3   C } # D for Dihedral angle
| 18> { D 16  20  19  18   C } # D for Dihedral angle
| 19> { D 20  19  18  17   C } # D for Dihedral angle
| 20> { D 19  18  17  16   C } # D for Dihedral angle
| 21> { D 18  17  16  20   C } # D for Dihedral angle
| 22> { D 17  16  20  19   C } # D for Dihedral angle
| 23> { D 15  12  16  20   C } # D for Dihedral angle
| 24> end
| 25> end
| 26>
| 27>
| 28> #%pal
| 29> #nprocs 8
| 30> #end
| 31>
| 32> * xyz 0 1
| 33> C  -21.048   26.222   46.251
| 34> C  -20.361   27.558   45.944
| 35> C  -20.329   28.222   47.341
| 36> C  -20.110   27.022   48.296
| 37> O  -20.473   25.807   47.535
| 38> H  -20.833   25.428   45.533
| 39> H  -19.344   27.382   45.576
| 40> H  -20.898   28.157   45.201
| 41> H  -19.543   28.978   47.434
| 42> H  -21.289   28.710   47.548
| 43> H  -20.733   27.082   49.195
| 44> H  -19.064   26.913   48.597
| 45> C  -23.430   25.483   45.442
| 46> H  -24.087   24.850   46.052
| 47> H  -24.058   26.090   44.778
| 48> O  -22.586   26.394   46.375
| 49> C  -22.553   24.560   44.551
| 50> C  -21.764   23.555   45.397
| 51> C  -22.842   22.490   45.707
| 52> C  -23.696   22.468   44.414
| 53> O  -23.399   23.723   43.692
| 54> H  -21.940   25.177   43.892
| 55> H  -20.951   23.121   44.804
| 56> O  -21.152   24.185   46.679
| 57> H  -22.415   21.510   45.943
| 58> H  -23.448   22.807   46.565
| 59> H  -24.769   22.418   44.621
| 60> H  -23.425   21.642   43.750
| 61> H  -21.949   24.626   47.288
| 62> *
| 63>
| 64>                          ****END OF INPUT****
 Total Charge           Charge          ....    0
 Multiplicity           Mult            ....    1
 Number of Electrons    NEL             ....  102
FINAL SINGLE POINT ENERGY      -652.744400611434
FINAL SINGLE POINT ENERGY      -652.824762498895
FINAL SINGLE POINT ENERGY      -652.846760402023
FINAL SINGLE POINT ENERGY      -652.851815756203
FINAL SINGLE POINT ENERGY      -652.852555318055
FINAL SINGLE POINT ENERGY      -652.852851692468
FINAL SINGLE POINT ENERGY      -652.852938299086
FINAL SINGLE POINT ENERGY      -652.852979162044
FINAL SINGLE POINT ENERGY      -652.852990854360
FINAL SINGLE POINT ENERGY      -652.852993899977
                    ***********************HURRAY********************

CARTESIAN COORDINATES (ANGSTROEM)
---------------------------------
  C    -20.809334   26.303827   46.292081
  C    -20.271675   27.716380   46.052583
  C    -20.572240   28.408211   47.406502
  C    -20.357215   27.266598   48.428125
  O    -20.417401   26.006742   47.650434
  H    -20.389531   25.527712   45.659892
  H    -19.191487   27.669260   45.869370
  H    -20.756424   28.202507   45.203213
  H    -19.920142   29.265267   47.597994
  H    -21.611600   28.747164   47.422184
  H    -21.126768   27.237124   49.204648
  H    -19.369558   27.298010   48.898416
  C    -23.092223   25.494788   45.400944
  H    -23.791097   25.001192   46.087287
  H    -23.680324   26.155378   44.755797
  O    -22.253535   26.354258   46.232625
  C    -22.486796   24.413656   44.475134
  C    -21.761753   23.221468   45.139173
  C    -22.962657   22.377626   45.699121
  C    -24.044794   22.598237   44.619911
  O    -23.649057   23.797274   43.838441
  H    -21.887505   24.863757   43.678837
  H    -21.271624   22.653461   44.343343
  O    -20.707274   23.459801   46.088165
  H    -22.689682   21.327387   45.824207
  H    -23.267372   22.773223   46.675047
  H    -25.042003   22.766562   45.037589
  H    -24.097336   21.766259   43.911114
  H    -21.010592   23.906871   46.908825

 Multiplicity           Mult            ....    1
 Number of Electrons    NEL             ....  102
 Basis Dimension        Dim             ....  149

ORBITAL ENERGIES
----------------

  NO   OCC          E(Eh)            E(eV)
   0   2.0000     -19.147574      -521.0320
   1   2.0000     -19.143182      -520.9125
   2   2.0000     -19.139865      -520.8222
   3   2.0000     -19.136404      -520.7280
   4   2.0000     -10.272377      -279.5256
   5   2.0000     -10.245782      -278.8019
   6   2.0000     -10.240429      -278.6563
   7   2.0000     -10.233782      -278.4754
   8   2.0000     -10.230469      -278.3852
   9   2.0000     -10.224219      -278.2151
  10   2.0000     -10.192615      -277.3551
  11   2.0000     -10.181866      -277.0627
  12   2.0000     -10.180171      -277.0165
  13   2.0000      -1.050476       -28.5849
  14   2.0000      -1.034522       -28.1508
  15   2.0000      -1.017625       -27.6910
  16   2.0000      -0.988643       -26.9024
  17   2.0000      -0.782891       -21.3035
  18   2.0000      -0.779459       -21.2102
  19   2.0000      -0.766372       -20.8540
  20   2.0000      -0.732580       -19.9345
  21   2.0000      -0.679738       -18.4966
  22   2.0000      -0.611356       -16.6358
  23   2.0000      -0.606629       -16.5072
  24   2.0000      -0.595620       -16.2076
  25   2.0000      -0.562775       -15.3139
  26   2.0000      -0.530409       -14.4332
  27   2.0000      -0.522517       -14.2184
  28   2.0000      -0.495108       -13.4726
  29   2.0000      -0.481957       -13.1147
  30   2.0000      -0.461186       -12.5495
  31   2.0000      -0.456768       -12.4293
  32   2.0000      -0.448496       -12.2042
  33   2.0000      -0.433459       -11.7950
  34   2.0000      -0.423754       -11.5309
  35   2.0000      -0.415456       -11.3051
  36   2.0000      -0.409430       -11.1412
  37   2.0000      -0.396912       -10.8005
  38   2.0000      -0.377307       -10.2670
  39   2.0000      -0.371898       -10.1199
  40   2.0000      -0.358728        -9.7615
  41   2.0000      -0.353678        -9.6241
  42   2.0000      -0.347862        -9.4658
  43   2.0000      -0.331776        -9.0281
  44   2.0000      -0.318378        -8.6635
  45   2.0000      -0.315939        -8.5971
  46   2.0000      -0.304135        -8.2759
  47   2.0000      -0.267631        -7.2826
  48   2.0000      -0.259708        -7.0670
  49   2.0000      -0.249760        -6.7963
  50   2.0000      -0.241673        -6.5762
  51   0.0000       0.058304         1.5865
  52   0.0000       0.076395         2.0788
  53   0.0000       0.094442         2.5699
  54   0.0000       0.098679         2.6852
  55   0.0000       0.103401         2.8137

MULLIKEN ATOMIC CHARGES
-----------------------
   0 C :    0.239929
   1 C :   -0.244532
   2 C :   -0.297602
   3 C :    0.001592
   4 O :   -0.525718
   5 H :    0.185229
   6 H :    0.143333
   7 H :    0.143597
   8 H :    0.138116
   9 H :    0.164036
  10 H :    0.149416
  11 H :    0.142939
  12 C :    0.010109
  13 H :    0.138358
  14 H :    0.160545
  15 O :   -0.542279
  16 C :    0.037379
  17 C :    0.102300
  18 C :   -0.319508
  19 C :   -0.016433
  20 O :   -0.518261
  21 H :    0.153788
  22 H :    0.165868
  23 O :   -0.605236
  24 H :    0.159151
  25 H :    0.145283
  26 H :    0.146621
  27 H :    0.153402
  28 H :    0.388578
Sum of atomic charges:    0.0000000

LOEWDIN ATOMIC CHARGES
----------------------
   0 C :    0.156333
   1 C :   -0.218193
   2 C :   -0.215359
   3 C :   -0.025391
   4 O :   -0.328766
   5 H :    0.116097
   6 H :    0.111946
   7 H :    0.117495
   8 H :    0.112296
   9 H :    0.120191
  10 H :    0.106331
  11 H :    0.102515
  12 C :   -0.043418
  13 H :    0.100507
  14 H :    0.114073
  15 O :   -0.343176
  16 C :    0.005483
  17 C :    0.033137
  18 C :   -0.240511
  19 C :   -0.031863
  20 O :   -0.316601
  21 H :    0.111498
  22 H :    0.116910
  23 O :   -0.401591
  24 H :    0.124435
  25 H :    0.110099
  26 H :    0.103979
  27 H :    0.107840
  28 H :    0.293704

  Mayer bond orders larger than 0.100000
B(  0-C ,  1-C ) :   0.9417 B(  0-C ,  4-O ) :   0.8894 B(  0-C ,  5-H ) :   0.8871
B(  0-C , 15-O ) :   0.8410 B(  1-C ,  2-C ) :   0.9558 B(  1-C ,  6-H ) :   0.9377
B(  1-C ,  7-H ) :   0.9409 B(  2-C ,  3-C ) :   0.9551 B(  2-C ,  8-H ) :   0.9460
B(  2-C ,  9-H ) :   0.9429 B(  3-C ,  4-O ) :   0.8283 B(  3-C , 10-H ) :   0.9359
B(  3-C , 11-H ) :   0.9401 B( 12-C , 13-H ) :   0.9288 B( 12-C , 14-H ) :   0.9252
B( 12-C , 15-O ) :   0.8371 B( 12-C , 16-C ) :   0.8935 B( 16-C , 17-C ) :   0.8761
B( 16-C , 20-O ) :   0.8306 B( 16-C , 21-H ) :   0.9286 B( 17-C , 18-C ) :   0.9178
B( 17-C , 22-H ) :   0.9308 B( 17-C , 23-O ) :   0.9205 B( 18-C , 19-C ) :   0.9385
B( 18-C , 24-H ) :   0.9415 B( 18-C , 25-H ) :   0.9414 B( 19-C , 20-O ) :   0.8317
B( 19-C , 26-H ) :   0.9333 B( 19-C , 27-H ) :   0.9379 B( 23-O , 28-H ) :   0.7544

FINAL SINGLE POINT ENERGY      -652.852995613744

DIPOLE MOMENT
-------------
                                X             Y             Z
Electronic contribution:      0.11875      -2.04986      -1.45639
Nuclear contribution   :     -0.32596       2.21571       1.63292
                        -----------------------------------------
Total Dipole Moment    :     -0.20721       0.16584       0.17653
                        -----------------------------------------
Magnitude (a.u.)       :      0.31875
Magnitude (Debye)      :      0.81020

Rotational constants in cm-1:     0.060880     0.014354     0.013042
Rotational constants in MHz :  1825.145858   430.315639   390.995901

                             ****ORCA TERMINATED NORMALLY****
TOTAL RUN TIME: 0 days 0 hours 35 minutes 47 seconds 273 msec
