                         Program Version 4.2.1 -  RELEASE  -
|  1> # Test redundant internal optimization
|  2> #
|  3> ! RKS B3LYP  Opt TightSCF SmallPrint
|  4>
|  5> %basis
|  6>         Basis "6-31G"
|  7> end
|  8>
|  9> %geom
| 10> Constraints
| 11> { D 4  0  19  14  105.0   C } # D for Dihedral angle
| 12> { D 0  19  14  12  135.0   C } # D for Dihedral angle
| 13> { D 0  4  3  2   C } # D for Dihedral angle
| 14> { D 4  3  2  1   C } # D for Dihedral angle
| 15> { D 3  2  1  0   C } # D for Dihedral angle
| 16> { D 2  1  0  4   C } # D for Dihedral angle
| 17> { D 1  0  4  3   C } # D for Dihedral angle
| 18> { D 14  15  16  17   C } # D for Dihedral angle
| 19> { D 15  16  17  12   C } # D for Dihedral angle
| 20> { D 16  17  12  14   C } # D for Dihedral angle
| 21> { D 17  12  14  15   C } # D for Dihedral angle
| 22> { D 12  14  15  16   C } # D for Dihedral angle
| 23> end
| 24> end
| 25>
| 26>
| 27> #%pal
| 28> #nprocs 8
| 29> #end
| 30>
| 31> * xyz 0 1
| 32> C  -21.048   26.222   46.251
| 33> C  -20.361   27.558   45.944
| 34> C  -20.329   28.222   47.341
| 35> C  -20.110   27.022   48.296
| 36> O  -20.473   25.807   47.535
| 37> H  -20.833   25.428   45.533
| 38> H  -19.344   27.382   45.576
| 39> H  -20.898   28.157   45.201
| 40> H  -19.543   28.978   47.434
| 41> H  -21.289   28.710   47.548
| 42> H  -20.733   27.082   49.195
| 43> H  -19.064   26.913   48.597
| 44> C  -24.123   27.936   45.483
| 45> H  -24.300   29.002   45.268
| 46> C  -22.914   27.747   46.406
| 47> C  -23.519   28.085   47.789
| 48> C  -24.966   27.542   47.682
| 49> O  -25.247   27.373   46.239
| 50> H  -24.064   27.386   44.542
| 51> O  -22.472   26.381   46.366
| 52> H  -22.068   28.392   46.144
| 53> H  -22.964   27.635   48.618
| 54> H  -23.526   29.172   47.943
| 55> H  -25.705   28.225   48.114
| 56> H  -25.078   26.558   48.149
| 57> *
| 58>
| 59>                          ****END OF INPUT****
 Total Charge           Charge          ....    0
 Multiplicity           Mult            ....    1
 Number of Electrons    NEL             ....   86
FINAL SINGLE POINT ENERGY      -538.392459314372
FINAL SINGLE POINT ENERGY      -538.420935319871
FINAL SINGLE POINT ENERGY      -538.423077745965
FINAL SINGLE POINT ENERGY      -538.423463611180
FINAL SINGLE POINT ENERGY      -538.423474358201
FINAL SINGLE POINT ENERGY      -538.423475826739
                    ***********************HURRAY********************

CARTESIAN COORDINATES (ANGSTROEM)
---------------------------------
  C    -21.081616   26.341226   46.338347
  C    -20.153886   27.498143   45.942647
  C    -19.917081   28.208003   47.307077
  C    -19.900444   27.018990   48.301538
  O    -20.541454   25.885108   47.600003
  H    -21.014492   25.477020   45.675996
  H    -19.218214   27.071592   45.568008
  H    -20.562447   28.152889   45.167984
  H    -18.978238   28.769950   47.323807
  H    -20.726897   28.905742   47.539238
  H    -20.449299   27.227148   49.225052
  H    -18.884509   26.703520   48.556385
  C    -24.280172   27.955038   45.475136
  H    -24.586675   28.992086   45.269211
  C    -23.101992   27.925180   46.449790
  C    -23.810324   28.138520   47.804255
  C    -25.153983   27.392226   47.621378
  O    -25.338328   27.218525   46.164139
  H    -24.070356   27.435663   44.539277
  O    -22.502528   26.597641   46.405021
  H    -22.370190   28.706472   46.226665
  H    -23.217437   27.740213   48.631275
  H    -23.973217   29.209969   47.972434
  H    -26.004189   27.951521   48.027657
  H    -25.133032   26.392614   48.061679

 Multiplicity           Mult            ....    1
 Number of Electrons    NEL             ....   86
 Basis Dimension        Dim             ....  127

ORBITAL ENERGIES
----------------

  NO   OCC          E(Eh)            E(eV)
   0   2.0000     -19.139475      -520.8116
   1   2.0000     -19.139296      -520.8067
   2   2.0000     -19.124887      -520.4146
   3   2.0000     -10.280998      -279.7602
   4   2.0000     -10.243471      -278.7390
   5   2.0000     -10.230106      -278.3753
   6   2.0000     -10.220606      -278.1168
   7   2.0000     -10.217505      -278.0324
   8   2.0000     -10.197754      -277.4950
   9   2.0000     -10.197621      -277.4914
  10   2.0000     -10.185666      -277.1661
  11   2.0000      -1.051022       -28.5998
  12   2.0000      -1.013370       -27.5752
  13   2.0000      -0.989963       -26.9383
  14   2.0000      -0.793065       -21.5804
  15   2.0000      -0.785934       -21.3863
  16   2.0000      -0.740911       -20.1612
  17   2.0000      -0.724805       -19.7230
  18   2.0000      -0.622779       -16.9467
  19   2.0000      -0.607028       -16.5181
  20   2.0000      -0.596783       -16.2393
  21   2.0000      -0.564702       -15.3663
  22   2.0000      -0.528216       -14.3735
  23   2.0000      -0.507166       -13.8007
  24   2.0000      -0.486622       -13.2416
  25   2.0000      -0.480345       -13.0708
  26   2.0000      -0.451733       -12.2923
  27   2.0000      -0.449287       -12.2257
  28   2.0000      -0.425987       -11.5917
  29   2.0000      -0.423988       -11.5373
  30   2.0000      -0.408008       -11.1024
  31   2.0000      -0.388852       -10.5812
  32   2.0000      -0.375549       -10.2192
  33   2.0000      -0.368457       -10.0262
  34   2.0000      -0.364574        -9.9206
  35   2.0000      -0.363406        -9.8888
  36   2.0000      -0.351317        -9.5598
  37   2.0000      -0.316773        -8.6198
  38   2.0000      -0.302106        -8.2207
  39   2.0000      -0.289195        -7.8694
  40   2.0000      -0.268246        -7.2993
  41   2.0000      -0.252562        -6.8726
  42   2.0000      -0.229748        -6.2518
  43   0.0000       0.065873         1.7925
  44   0.0000       0.089541         2.4365
  45   0.0000       0.092844         2.5264
  46   0.0000       0.109513         2.9800
  47   0.0000       0.115694         3.1482

MULLIKEN ATOMIC CHARGES
-----------------------
   0 C :    0.315164
   1 C :   -0.305201
   2 C :   -0.312651
   3 C :   -0.005776
   4 O :   -0.497251
   5 H :    0.164977
   6 H :    0.160162
   7 H :    0.148930
   8 H :    0.147249
   9 H :    0.151087
  10 H :    0.143626
  11 H :    0.146544
  12 C :    0.016395
  13 H :    0.118024
  14 C :    0.052598
  15 C :   -0.286745
  16 C :    0.005197
  17 O :   -0.516823
  18 H :    0.159356
  19 O :   -0.518260
  20 H :    0.126768
  21 H :    0.159009
  22 H :    0.135598
  23 H :    0.131770
  24 H :    0.160254
Sum of atomic charges:   -0.0000000

LOEWDIN ATOMIC CHARGES
----------------------
   0 C :    0.179420
   1 C :   -0.233426
   2 C :   -0.223804
   3 C :   -0.031808
   4 O :   -0.317933
   5 H :    0.111363
   6 H :    0.125196
   7 H :    0.115465
   8 H :    0.116678
   9 H :    0.108612
  10 H :    0.101910
  11 H :    0.104430
  12 C :   -0.037218
  13 H :    0.088268
  14 C :    0.035094
  15 C :   -0.232344
  16 C :   -0.025957
  17 O :   -0.326944
  18 H :    0.119161
  19 O :   -0.316224
  20 H :    0.097505
  21 H :    0.124553
  22 H :    0.109289
  23 H :    0.096725
  24 H :    0.111990

  Mayer bond orders larger than 0.100000
B(  0-C ,  1-C ) :   0.9268 B(  0-C ,  4-O ) :   0.9041 B(  0-C ,  5-H ) :   0.9338
B(  0-C , 19-O ) :   0.8950 B(  1-C ,  2-C ) :   0.9520 B(  1-C ,  6-H ) :   0.9338
B(  1-C ,  7-H ) :   0.9301 B(  2-C ,  3-C ) :   0.9472 B(  2-C ,  8-H ) :   0.9456
B(  2-C ,  9-H ) :   0.9392 B(  3-C ,  4-O ) :   0.8514 B(  3-C , 10-H ) :   0.9327
B(  3-C , 11-H ) :   0.9389 B( 12-C , 13-H ) :   0.9128 B( 12-C , 14-C ) :   0.9299
B( 12-C , 17-O ) :   0.8769 B( 12-C , 18-H ) :   0.9322 B( 14-C , 15-C ) :   0.9392
B( 14-C , 19-O ) :   0.8304 B( 14-C , 20-H ) :   0.9074 B( 15-C , 16-C ) :   0.9480
B( 15-C , 21-H ) :   0.9387 B( 15-C , 22-H ) :   0.9379 B( 16-C , 17-O ) :   0.8548
B( 16-C , 23-H ) :   0.9335 B( 16-C , 24-H ) :   0.9349

FINAL SINGLE POINT ENERGY      -538.423474819299

DIPOLE MOMENT
-------------
                                X             Y             Z
Electronic contribution:     -2.37162      -4.81135      -1.53801
Nuclear contribution   :      3.52448       6.40284       1.67141
                        -----------------------------------------
Total Dipole Moment    :      1.15286       1.59149       0.13341
                        -----------------------------------------
Magnitude (a.u.)       :      1.96970
Magnitude (Debye)      :      5.00658

Rotational constants in cm-1:     0.078125     0.021749     0.020877
Rotational constants in MHz :  2342.127409   652.030189   625.877460

                             ****ORCA TERMINATED NORMALLY****
TOTAL RUN TIME: 0 days 0 hours 7 minutes 29 seconds 320 msec
