                         Program Version 4.2.0 -  RELEASE  -
|  1> # Test redundant internal optimization
|  2> #
|  3> ! RKS B3LYP  Opt TightSCF SmallPrint
|  4>
|  5> %basis
|  6>         Basis "6-31G"
|  7> end
|  8>
|  9> %geom
| 10> Constraints
| 11> { D 4  0  15  12  45.0   C } # D for Dihedral angle
| 12> { D 0  15  12  16  195.0   C } # D for Dihedral angle
| 13> { D 0  4  3  2   C } # D for Dihedral angle
| 14> { D 4  3  2  1   C } # D for Dihedral angle
| 15> { D 3  2  1  0   C } # D for Dihedral angle
| 16> { D 2  1  0  4   C } # D for Dihedral angle
| 17> { D 1  0  4  3   C } # D for Dihedral angle
| 18> { D 16  20  19  18   C } # D for Dihedral angle
| 19> { D 20  19  18  17   C } # D for Dihedral angle
| 20> { D 19  18  17  16   C } # D for Dihedral angle
| 21> { D 18  17  16  20   C } # D for Dihedral angle
| 22> { D 17  16  20  19   C } # D for Dihedral angle
| 23> { D 15  12  16  20   C } # D for Dihedral angle
| 24> end
| 25> end
| 26>
| 27>
| 28> #%pal
| 29> #nprocs 8
| 30> #end
| 31>
| 32> * xyz 0 1
| 33> C  -21.048   26.222   46.251
| 34> C  -20.361   27.558   45.944
| 35> C  -20.329   28.222   47.341
| 36> C  -20.110   27.022   48.296
| 37> O  -20.473   25.807   47.535
| 38> H  -20.833   25.428   45.533
| 39> H  -19.344   27.382   45.576
| 40> H  -20.898   28.157   45.201
| 41> H  -19.543   28.978   47.434
| 42> H  -21.289   28.710   47.548
| 43> H  -20.733   27.082   49.195
| 44> H  -19.064   26.913   48.597
| 45> C  -23.065   27.161   47.638
| 46> H  -22.516   26.795   48.514
| 47> H  -22.866   28.236   47.533
| 48> O  -22.586   26.394   46.375
| 49> C  -24.586   26.986   47.906
| 50> C  -24.929   25.529   48.234
| 51> C  -24.499   25.431   49.717
| 52> C  -24.841   26.835   50.275
| 53> O  -24.983   27.730   49.106
| 54> H  -25.147   27.406   47.069
| 55> O  -26.457   25.297   48.089
| 56> H  -24.409   24.809   47.592
| 57> H  -25.014   24.631   50.256
| 58> H  -23.421   25.241   49.784
| 59> H  -24.059   27.227   50.934
| 60> H  -25.795   26.850   50.810
| 61> H  -27.000   26.007   48.724
| 62> *
| 63>
| 64>                          ****END OF INPUT****
 Total Charge           Charge          ....    0
 Multiplicity           Mult            ....    1
 Number of Electrons    NEL             ....  102
FINAL SINGLE POINT ENERGY      -652.824961829941
FINAL SINGLE POINT ENERGY      -652.850287903777
FINAL SINGLE POINT ENERGY      -652.859657971958
FINAL SINGLE POINT ENERGY      -652.861589773756
FINAL SINGLE POINT ENERGY      -652.861894460694
FINAL SINGLE POINT ENERGY      -652.861948186011
                    ***********************HURRAY********************

CARTESIAN COORDINATES (ANGSTROEM)
---------------------------------
  C    -21.210238   26.320777   46.437418
  C    -20.435687   27.531179   45.899003
  C    -20.048846   28.275677   47.208567
  C    -19.799816   27.112008   48.199543
  O    -20.459982   25.919692   47.606917
  H    -21.198793   25.468294   45.756590
  H    -19.541740   27.173141   45.376873
  H    -21.030647   28.136108   45.210626
  H    -19.158491   28.900173   47.085204
  H    -20.862792   28.924227   47.544321
  H    -20.216797   27.293447   49.194542
  H    -18.738287   26.866135   48.296951
  C    -23.093478   27.251480   47.830445
  H    -22.550402   26.927778   48.725759
  H    -22.967958   28.333778   47.707735
  O    -22.624721   26.516176   46.665546
  C    -24.585127   26.949079   47.968287
  C    -24.928895   25.478522   48.240949
  C    -24.646044   25.366956   49.760056
  C    -25.070627   26.754722   50.302665
  O    -25.115010   27.669084   49.132905
  H    -25.118581   27.316697   47.087753
  O    -26.325420   25.210017   47.930836
  H    -24.350652   24.786951   47.631764
  H    -25.215363   24.545531   50.201195
  H    -23.581450   25.177989   49.933427
  H    -24.370177   27.156719   51.041443
  H    -26.073241   26.747333   50.741830
  H    -26.878736   25.936328   48.287852

 Multiplicity           Mult            ....    1
 Number of Electrons    NEL             ....  102
 Basis Dimension        Dim             ....  149

ORBITAL ENERGIES
----------------

  NO   OCC          E(Eh)            E(eV)
   0   2.0000     -19.150388      -521.1085
   1   2.0000     -19.147204      -521.0219
   2   2.0000     -19.143617      -520.9243
   3   2.0000     -19.131287      -520.5888
   4   2.0000     -10.282300      -279.7956
   5   2.0000     -10.235561      -278.5238
   6   2.0000     -10.231668      -278.4178
   7   2.0000     -10.231353      -278.4093
   8   2.0000     -10.230741      -278.3926
   9   2.0000     -10.230526      -278.3868
  10   2.0000     -10.196370      -277.4573
  11   2.0000     -10.191616      -277.3280
  12   2.0000     -10.183972      -277.1200
  13   2.0000      -1.058037       -28.7907
  14   2.0000      -1.033735       -28.1294
  15   2.0000      -1.002127       -27.2693
  16   2.0000      -0.998984       -27.1837
  17   2.0000      -0.792845       -21.5744
  18   2.0000      -0.780047       -21.2262
  19   2.0000      -0.769334       -20.9346
  20   2.0000      -0.733997       -19.9731
  21   2.0000      -0.677070       -18.4240
  22   2.0000      -0.607945       -16.5430
  23   2.0000      -0.601871       -16.3777
  24   2.0000      -0.595691       -16.2096
  25   2.0000      -0.576813       -15.6959
  26   2.0000      -0.519601       -14.1391
  27   2.0000      -0.517499       -14.0819
  28   2.0000      -0.505391       -13.7524
  29   2.0000      -0.488606       -13.2957
  30   2.0000      -0.473001       -12.8710
  31   2.0000      -0.462214       -12.5775
  32   2.0000      -0.450794       -12.2667
  33   2.0000      -0.437436       -11.9032
  34   2.0000      -0.420516       -11.4428
  35   2.0000      -0.417209       -11.3528
  36   2.0000      -0.408714       -11.1217
  37   2.0000      -0.389481       -10.5983
  38   2.0000      -0.383115       -10.4251
  39   2.0000      -0.364937        -9.9304
  40   2.0000      -0.364699        -9.9240
  41   2.0000      -0.357500        -9.7281
  42   2.0000      -0.353225        -9.6117
  43   2.0000      -0.328436        -8.9372
  44   2.0000      -0.325805        -8.8656
  45   2.0000      -0.314785        -8.5657
  46   2.0000      -0.303133        -8.2487
  47   2.0000      -0.271324        -7.3831
  48   2.0000      -0.264636        -7.2011
  49   2.0000      -0.256384        -6.9766
  50   2.0000      -0.245237        -6.6732
  51   0.0000       0.066327         1.8049
  52   0.0000       0.066821         1.8183
  53   0.0000       0.090420         2.4604
  54   0.0000       0.096956         2.6383
  55   0.0000       0.100780         2.7424

MULLIKEN ATOMIC CHARGES
-----------------------
   0 C :    0.299407
   1 C :   -0.266637
   2 C :   -0.314822
   3 C :   -0.015805
   4 O :   -0.510265
   5 H :    0.166555
   6 H :    0.152562
   7 H :    0.156030
   8 H :    0.148503
   9 H :    0.152445
  10 H :    0.142102
  11 H :    0.152031
  12 C :   -0.013739
  13 H :    0.143335
  14 H :    0.146848
  15 O :   -0.529568
  16 C :    0.057242
  17 C :    0.091812
  18 C :   -0.298699
  19 C :   -0.035064
  20 O :   -0.530493
  21 H :    0.165685
  22 O :   -0.602682
  23 H :    0.178341
  24 H :    0.160378
  25 H :    0.151454
  26 H :    0.145068
  27 H :    0.146954
  28 H :    0.361021
Sum of atomic charges:   -0.0000000

LOEWDIN ATOMIC CHARGES
----------------------
   0 C :    0.177092
   1 C :   -0.227197
   2 C :   -0.223137
   3 C :   -0.034233
   4 O :   -0.321765
   5 H :    0.113516
   6 H :    0.119569
   7 H :    0.122733
   8 H :    0.117502
   9 H :    0.111637
  10 H :    0.100505
  11 H :    0.106732
  12 C :   -0.044552
  13 H :    0.100752
  14 H :    0.100642
  15 O :   -0.326268
  16 C :    0.019569
  17 C :    0.038928
  18 C :   -0.241152
  19 C :   -0.039649
  20 O :   -0.332849
  21 H :    0.118422
  22 O :   -0.414813
  23 H :    0.129157
  24 H :    0.126235
  25 H :    0.116974
  26 H :    0.102694
  27 H :    0.102624
  28 H :    0.280333

  Mayer bond orders larger than 0.100000
B(  0-C ,  1-C ) :   0.9168 B(  0-C ,  4-O ) :   0.9050 B(  0-C ,  5-H ) :   0.9355
B(  0-C , 15-O ) :   0.8808 B(  1-C ,  2-C ) :   0.9561 B(  1-C ,  6-H ) :   0.9346
B(  1-C ,  7-H ) :   0.9369 B(  2-C ,  3-C ) :   0.9487 B(  2-C ,  8-H ) :   0.9446
B(  2-C ,  9-H ) :   0.9405 B(  3-C ,  4-O ) :   0.8382 B(  3-C , 10-H ) :   0.9323
B(  3-C , 11-H ) :   0.9394 B( 12-C , 13-H ) :   0.9125 B( 12-C , 14-H ) :   0.9096
B( 12-C , 15-O ) :   0.8237 B( 12-C , 16-C ) :   0.9048 B( 16-C , 17-C ) :   0.9131
B( 16-C , 20-O ) :   0.8451 B( 16-C , 21-H ) :   0.9256 B( 17-C , 18-C ) :   0.9136
B( 17-C , 22-O ) :   0.8883 B( 17-C , 23-H ) :   0.9227 B( 18-C , 19-C ) :   0.9416
B( 18-C , 24-H ) :   0.9379 B( 18-C , 25-H ) :   0.9338 B( 19-C , 20-O ) :   0.8427
B( 19-C , 26-H ) :   0.9357 B( 19-C , 27-H ) :   0.9380 B( 22-O , 28-H ) :   0.7969

FINAL SINGLE POINT ENERGY      -652.861942879952

DIPOLE MOMENT
-------------
                                X             Y             Z
Electronic contribution:     -4.34560      -2.46359      -2.05341
Nuclear contribution   :      5.40790       3.30393       2.55158
                        -----------------------------------------
Total Dipole Moment    :      1.06230       0.84033       0.49817
                        -----------------------------------------
Magnitude (a.u.)       :      1.44319
Magnitude (Debye)      :      3.66831

Rotational constants in cm-1:     0.054252     0.013552     0.012945
Rotational constants in MHz :  1626.448576   406.272833   388.076505

                             ****ORCA TERMINATED NORMALLY****
TOTAL RUN TIME: 0 days 1 hours 44 minutes 19 seconds 697 msec
