                         Program Version 4.2.0 -  RELEASE  -
|  1> # Test redundant internal optimization
|  2> #
|  3> ! RKS B3LYP  Opt TightSCF SmallPrint
|  4>
|  5> %basis
|  6>         Basis "6-31G"
|  7> end
|  8>
|  9> %geom
| 10> Constraints
| 11> { D 4  0  15  12  255.0   C } # D for Dihedral angle
| 12> { D 0  15  12  16  45.0   C } # D for Dihedral angle
| 13> { D 0  4  3  2   C } # D for Dihedral angle
| 14> { D 4  3  2  1   C } # D for Dihedral angle
| 15> { D 3  2  1  0   C } # D for Dihedral angle
| 16> { D 2  1  0  4   C } # D for Dihedral angle
| 17> { D 1  0  4  3   C } # D for Dihedral angle
| 18> { D 16  20  19  18   C } # D for Dihedral angle
| 19> { D 20  19  18  17   C } # D for Dihedral angle
| 20> { D 19  18  17  16   C } # D for Dihedral angle
| 21> { D 18  17  16  20   C } # D for Dihedral angle
| 22> { D 17  16  20  19   C } # D for Dihedral angle
| 23> { D 15  12  16  20   C } # D for Dihedral angle
| 24> end
| 25> end
| 26>
| 27>
| 28> #%pal
| 29> #nprocs 8
| 30> #end
| 31>
| 32> * xyz 0 1
| 33> C  -21.048   26.222   46.251
| 34> C  -20.361   27.558   45.944
| 35> C  -20.329   28.222   47.341
| 36> C  -20.110   27.022   48.296
| 37> O  -20.473   25.807   47.535
| 38> H  -20.833   25.428   45.533
| 39> H  -19.344   27.382   45.576
| 40> H  -20.898   28.157   45.201
| 41> H  -19.543   28.978   47.434
| 42> H  -21.289   28.710   47.548
| 43> H  -20.733   27.082   49.195
| 44> H  -19.064   26.913   48.597
| 45> C  -23.431   25.260   45.734
| 46> H  -24.466   25.332   46.092
| 47> H  -23.439   25.358   44.640
| 48> O  -22.586   26.394   46.375
| 49> C  -22.894   23.843   46.077
| 50> C  -23.006   23.554   47.578
| 51> C  -24.503   23.188   47.716
| 52> C  -24.808   22.450   46.388
| 53> O  -23.727   22.812   45.448
| 54> H  -21.887   23.733   45.669
| 55> O  -22.108   22.344   47.956
| 56> H  -22.717   24.405   48.204
| 57> H  -24.709   22.569   48.595
| 58> H  -25.107   24.100   47.800
| 59> H  -25.772   22.743   45.958
| 60> H  -24.788   21.363   46.501
| 61> H  -22.381   21.477   47.342
| 62> *
| 63>
| 64>                          ****END OF INPUT****
 Total Charge           Charge          ....    0
 Multiplicity           Mult            ....    1
 Number of Electrons    NEL             ....  102
FINAL SINGLE POINT ENERGY      -652.835496618937
FINAL SINGLE POINT ENERGY      -652.857974993950
FINAL SINGLE POINT ENERGY      -652.861990310267
FINAL SINGLE POINT ENERGY      -652.862636104705
FINAL SINGLE POINT ENERGY      -652.862739383138
FINAL SINGLE POINT ENERGY      -652.862752523616
                    ***********************HURRAY********************

CARTESIAN COORDINATES (ANGSTROEM)
---------------------------------
  C    -20.978216   26.159760   46.234337
  C    -20.391061   27.540663   45.937081
  C    -20.480163   28.228937   47.320827
  C    -20.209784   27.067870   48.303533
  O    -20.440541   25.819465   47.532718
  H    -20.674709   25.370345   45.543574
  H    -19.346876   27.432031   45.621312
  H    -20.947249   28.063896   45.156743
  H    -19.761092   29.045822   47.433137
  H    -21.487743   28.629354   47.465527
  H    -20.876625   27.074393   49.169320
  H    -19.171773   27.034148   48.647326
  C    -23.260855   25.238563   45.740148
  H    -24.260200   25.462880   46.120177
  H    -23.289698   25.316909   44.644691
  O    -22.416791   26.293081   46.293639
  C    -22.860979   23.798010   46.094491
  C    -22.933136   23.429631   47.583376
  C    -24.454641   23.209188   47.776112
  C    -24.899654   22.588876   46.428087
  O    -23.825745   22.896809   45.447696
  H    -21.879249   23.545487   45.685662
  O    -22.184822   22.208406   47.842630
  H    -22.498058   24.186687   48.232884
  H    -24.642198   22.551429   48.628361
  H    -24.960066   24.162661   47.963652
  H    -25.844188   22.999776   46.060078
  H    -24.987744   21.498735   46.473522
  H    -22.390145   21.552190   47.143360

 Multiplicity           Mult            ....    1
 Number of Electrons    NEL             ....  102
 Basis Dimension        Dim             ....  149

ORBITAL ENERGIES
----------------

  NO   OCC          E(Eh)            E(eV)
   0   2.0000     -19.145700      -520.9810
   1   2.0000     -19.143747      -520.9279
   2   2.0000     -19.139403      -520.8096
   3   2.0000     -19.130424      -520.5653
   4   2.0000     -10.280111      -279.7360
   5   2.0000     -10.233174      -278.4588
   6   2.0000     -10.231763      -278.4204
   7   2.0000     -10.231499      -278.4132
   8   2.0000     -10.231366      -278.4096
   9   2.0000     -10.223926      -278.2072
  10   2.0000     -10.185652      -277.1657
  11   2.0000     -10.184421      -277.1322
  12   2.0000     -10.184165      -277.1252
  13   2.0000      -1.052514       -28.6404
  14   2.0000      -1.034319       -28.1452
  15   2.0000      -1.000883       -27.2354
  16   2.0000      -0.993729       -27.0407
  17   2.0000      -0.787691       -21.4342
  18   2.0000      -0.775297       -21.0969
  19   2.0000      -0.764417       -20.8009
  20   2.0000      -0.733313       -19.9545
  21   2.0000      -0.673891       -18.3375
  22   2.0000      -0.605639       -16.4803
  23   2.0000      -0.600538       -16.3415
  24   2.0000      -0.596742       -16.2382
  25   2.0000      -0.569904       -15.5079
  26   2.0000      -0.522337       -14.2135
  27   2.0000      -0.518999       -14.1227
  28   2.0000      -0.492961       -13.4142
  29   2.0000      -0.484347       -13.1797
  30   2.0000      -0.465397       -12.6641
  31   2.0000      -0.459903       -12.5146
  32   2.0000      -0.451190       -12.2775
  33   2.0000      -0.432762       -11.7761
  34   2.0000      -0.422530       -11.4976
  35   2.0000      -0.412562       -11.2264
  36   2.0000      -0.399908       -10.8820
  37   2.0000      -0.389703       -10.6044
  38   2.0000      -0.373515       -10.1639
  39   2.0000      -0.366041        -9.9605
  40   2.0000      -0.359608        -9.7854
  41   2.0000      -0.355365        -9.6700
  42   2.0000      -0.349083        -9.4990
  43   2.0000      -0.333188        -9.0665
  44   2.0000      -0.319069        -8.6823
  45   2.0000      -0.306979        -8.3533
  46   2.0000      -0.302959        -8.2439
  47   2.0000      -0.268551        -7.3076
  48   2.0000      -0.264406        -7.1949
  49   2.0000      -0.255764        -6.9597
  50   2.0000      -0.238196        -6.4816
  51   0.0000       0.065144         1.7726
  52   0.0000       0.076174         2.0728
  53   0.0000       0.094792         2.5794
  54   0.0000       0.098464         2.6793
  55   0.0000       0.102406         2.7866

MULLIKEN ATOMIC CHARGES
-----------------------
   0 C :    0.276870
   1 C :   -0.251164
   2 C :   -0.299109
   3 C :   -0.002197
   4 O :   -0.503821
   5 H :    0.146864
   6 H :    0.144068
   7 H :    0.150986
   8 H :    0.140754
   9 H :    0.163525
  10 H :    0.148878
  11 H :    0.143481
  12 C :   -0.004421
  13 H :    0.148583
  14 H :    0.148365
  15 O :   -0.525161
  16 C :    0.036306
  17 C :    0.090644
  18 C :   -0.297993
  19 C :   -0.036238
  20 O :   -0.529549
  21 H :    0.162382
  22 O :   -0.601445
  23 H :    0.186760
  24 H :    0.162076
  25 H :    0.145664
  26 H :    0.145358
  27 H :    0.149997
  28 H :    0.359539
Sum of atomic charges:   -0.0000000

LOEWDIN ATOMIC CHARGES
----------------------
   0 C :    0.170458
   1 C :   -0.215950
   2 C :   -0.215997
   3 C :   -0.027014
   4 O :   -0.321432
   5 H :    0.100072
   6 H :    0.112902
   7 H :    0.121088
   8 H :    0.113562
   9 H :    0.119792
  10 H :    0.106276
  11 H :    0.103250
  12 C :   -0.039892
  13 H :    0.112315
  14 H :    0.103150
  15 O :   -0.331083
  16 C :    0.002169
  17 C :    0.037518
  18 C :   -0.241403
  19 C :   -0.039499
  20 O :   -0.330735
  21 H :    0.112852
  22 O :   -0.412782
  23 H :    0.133059
  24 H :    0.126685
  25 H :    0.113928
  26 H :    0.103795
  27 H :    0.103743
  28 H :    0.279177

  Mayer bond orders larger than 0.100000
B(  0-C ,  1-C ) :   0.9450 B(  0-C ,  4-O ) :   0.9121 B(  0-C ,  5-H ) :   0.9168
B(  0-C , 15-O ) :   0.8473 B(  1-C ,  2-C ) :   0.9578 B(  1-C ,  6-H ) :   0.9386
B(  1-C ,  7-H ) :   0.9380 B(  2-C ,  3-C ) :   0.9539 B(  2-C ,  8-H ) :   0.9454
B(  2-C ,  9-H ) :   0.9437 B(  3-C ,  4-O ) :   0.8359 B(  3-C , 10-H ) :   0.9354
B(  3-C , 11-H ) :   0.9399 B( 12-C , 13-H ) :   0.9391 B( 12-C , 14-H ) :   0.9200
B( 12-C , 15-O ) :   0.8413 B( 12-C , 16-C ) :   0.8848 B( 16-C , 17-C ) :   0.9072
B( 16-C , 20-O ) :   0.8273 B( 16-C , 21-H ) :   0.9227 B( 17-C , 18-C ) :   0.9102
B( 17-C , 22-O ) :   0.8864 B( 17-C , 23-H ) :   0.9155 B( 18-C , 19-C ) :   0.9416
B( 18-C , 24-H ) :   0.9378 B( 18-C , 25-H ) :   0.9346 B( 19-C , 20-O ) :   0.8421
B( 19-C , 26-H ) :   0.9361 B( 19-C , 27-H ) :   0.9372 B( 22-O , 28-H ) :   0.7968

FINAL SINGLE POINT ENERGY      -652.862754845609

DIPOLE MOMENT
-------------
                                X             Y             Z
Electronic contribution:      0.45395      -3.99266      -1.13089
Nuclear contribution   :     -0.82972       4.71506       0.91567
                        -----------------------------------------
Total Dipole Moment    :     -0.37578       0.72239      -0.21521
                        -----------------------------------------
Magnitude (a.u.)       :      0.84225
Magnitude (Debye)      :      2.14082

Rotational constants in cm-1:     0.056542     0.014203     0.012843
Rotational constants in MHz :  1695.091231   425.802746   385.030439

                             ****ORCA TERMINATED NORMALLY****
TOTAL RUN TIME: 0 days 1 hours 13 minutes 22 seconds 621 msec
