                         Program Version 4.2.0 -  RELEASE  -
|  1> # Test redundant internal optimization
|  2> #
|  3> ! RKS B3LYP  Opt TightSCF SmallPrint
|  4>
|  5> %basis
|  6>         Basis "6-31G"
|  7> end
|  8>
|  9> %geom
| 10> Constraints
| 11> { D 4  0  15  12  330.0   C } # D for Dihedral angle
| 12> { D 0  15  12  16  285.0   C } # D for Dihedral angle
| 13> { D 0  4  3  2   C } # D for Dihedral angle
| 14> { D 4  3  2  1   C } # D for Dihedral angle
| 15> { D 3  2  1  0   C } # D for Dihedral angle
| 16> { D 2  1  0  4   C } # D for Dihedral angle
| 17> { D 1  0  4  3   C } # D for Dihedral angle
| 18> { D 16  20  19  18   C } # D for Dihedral angle
| 19> { D 20  19  18  17   C } # D for Dihedral angle
| 20> { D 19  18  17  16   C } # D for Dihedral angle
| 21> { D 18  17  16  20   C } # D for Dihedral angle
| 22> { D 17  16  20  19   C } # D for Dihedral angle
| 23> { D 15  12  16  20   C } # D for Dihedral angle
| 24> end
| 25> end
| 26>
| 27>
| 28> #%pal
| 29> #nprocs 8
| 30> #end
| 31>
| 32> * xyz 0 1
| 33> C  -21.048   26.222   46.251
| 34> C  -20.361   27.558   45.944
| 35> C  -20.329   28.222   47.341
| 36> C  -20.110   27.022   48.296
| 37> O  -20.473   25.807   47.535
| 38> H  -20.833   25.428   45.533
| 39> H  -19.344   27.382   45.576
| 40> H  -20.898   28.157   45.201
| 41> H  -19.543   28.978   47.434
| 42> H  -21.289   28.710   47.548
| 43> H  -20.733   27.082   49.195
| 44> H  -19.064   26.913   48.597
| 45> C  -23.271   25.476   47.424
| 46> H  -22.687   25.488   48.353
| 47> H  -24.282   25.838   47.650
| 48> O  -22.586   26.394   46.375
| 49> C  -23.393   24.003   46.944
| 50> C  -22.013   23.359   46.766
| 51> C  -21.637   23.014   48.227
| 52> C  -22.999   22.632   48.859
| 53> O  -24.045   23.182   47.970
| 54> H  -24.027   23.967   46.056
| 55> O  -22.135   22.068   45.911
| 56> H  -21.287   24.023   46.286
| 57> H  -20.904   22.205   48.296
| 58> H  -21.213   23.895   48.724
| 59> H  -23.127   23.049   49.864
| 60> H  -23.150   21.550   48.904
| 61> H  -22.858   21.386   46.374
| 62> *
| 63>
| 64>                          ****END OF INPUT****
 Total Charge           Charge          ....    0
 Multiplicity           Mult            ....    1
 Number of Electrons    NEL             ....  102
FINAL SINGLE POINT ENERGY      -652.831723067560
FINAL SINGLE POINT ENERGY      -652.855634367911
FINAL SINGLE POINT ENERGY      -652.862274485117
FINAL SINGLE POINT ENERGY      -652.864517854753
FINAL SINGLE POINT ENERGY      -652.864818481374
FINAL SINGLE POINT ENERGY      -652.864861321771
FINAL SINGLE POINT ENERGY      -652.864865256031
                    ***********************HURRAY********************

CARTESIAN COORDINATES (ANGSTROEM)
---------------------------------
  C    -20.977906   26.256344   46.260553
  C    -20.456024   27.666704   45.982070
  C    -20.440004   28.281681   47.400087
  C    -20.053461   27.088398   48.300964
  O    -20.319370   25.865715   47.489257
  H    -20.701919   25.508581   45.513281
  H    -19.445193   27.601656   45.563736
  H    -21.098904   28.208057   45.285311
  H    -19.733836   29.112454   47.490604
  H    -21.439062   28.648786   47.651738
  H    -20.641069   27.033501   49.221263
  H    -18.988816   27.067071   48.549652
  C    -23.125090   25.469653   47.322350
  H    -22.647220   25.527979   48.306241
  H    -24.122040   25.908143   47.392169
  O    -22.417973   26.332773   46.380538
  C    -23.276636   23.991384   46.921316
  C    -22.005993   23.140778   46.760082
  C    -21.641244   22.833994   48.238964
  C    -23.027655   22.695216   48.916130
  O    -24.010594   23.336793   48.011959
  H    -23.895562   23.912706   46.022348
  O    -22.311000   21.930484   46.008365
  H    -21.196572   23.617509   46.215755
  H    -21.042951   21.922042   48.307960
  H    -21.064519   23.668307   48.646803
  H    -23.074068   23.183980   49.894148
  H    -23.335514   21.651272   49.035398
  H    -23.148806   21.548038   46.344958

 Multiplicity           Mult            ....    1
 Number of Electrons    NEL             ....  102
 Basis Dimension        Dim             ....  149

ORBITAL ENERGIES
----------------

  NO   OCC          E(Eh)            E(eV)
   0   2.0000     -19.155681      -521.2526
   1   2.0000     -19.143593      -520.9237
   2   2.0000     -19.141106      -520.8560
   3   2.0000     -19.131589      -520.5970
   4   2.0000     -10.283682      -279.8332
   5   2.0000     -10.236092      -278.5382
   6   2.0000     -10.233076      -278.4562
   7   2.0000     -10.228510      -278.3319
   8   2.0000     -10.226664      -278.2817
   9   2.0000     -10.226529      -278.2780
  10   2.0000     -10.191844      -277.3342
  11   2.0000     -10.189142      -277.2607
  12   2.0000     -10.177557      -276.9454
  13   2.0000      -1.060059       -28.8457
  14   2.0000      -1.032671       -28.1004
  15   2.0000      -1.000813       -27.2335
  16   2.0000      -0.995888       -27.0995
  17   2.0000      -0.794862       -21.6293
  18   2.0000      -0.770786       -20.9742
  19   2.0000      -0.764408       -20.8006
  20   2.0000      -0.737059       -20.0564
  21   2.0000      -0.673499       -18.3268
  22   2.0000      -0.607078       -16.5194
  23   2.0000      -0.598449       -16.2846
  24   2.0000      -0.595318       -16.1994
  25   2.0000      -0.574670       -15.6376
  26   2.0000      -0.523861       -14.2550
  27   2.0000      -0.513966       -13.9857
  28   2.0000      -0.504717       -13.7340
  29   2.0000      -0.481178       -13.0935
  30   2.0000      -0.470279       -12.7970
  31   2.0000      -0.457954       -12.4616
  32   2.0000      -0.453667       -12.3449
  33   2.0000      -0.430428       -11.7125
  34   2.0000      -0.418316       -11.3829
  35   2.0000      -0.413834       -11.2610
  36   2.0000      -0.407482       -11.0882
  37   2.0000      -0.386876       -10.5274
  38   2.0000      -0.376815       -10.2536
  39   2.0000      -0.364696        -9.9239
  40   2.0000      -0.361358        -9.8331
  41   2.0000      -0.357105        -9.7173
  42   2.0000      -0.352774        -9.5995
  43   2.0000      -0.336189        -9.1482
  44   2.0000      -0.323619        -8.8061
  45   2.0000      -0.305643        -8.3170
  46   2.0000      -0.301597        -8.2069
  47   2.0000      -0.273565        -7.4441
  48   2.0000      -0.268852        -7.3158
  49   2.0000      -0.261569        -7.1177
  50   2.0000      -0.236490        -6.4352
  51   0.0000       0.069639         1.8950
  52   0.0000       0.071589         1.9480
  53   0.0000       0.093782         2.5519
  54   0.0000       0.097880         2.6635
  55   0.0000       0.107561         2.9269

MULLIKEN ATOMIC CHARGES
-----------------------
   0 C :    0.296785
   1 C :   -0.259994
   2 C :   -0.298995
   3 C :   -0.014748
   4 O :   -0.523202
   5 H :    0.154997
   6 H :    0.145641
   7 H :    0.165033
   8 H :    0.145554
   9 H :    0.161808
  10 H :    0.146629
  11 H :    0.150971
  12 C :   -0.007116
  13 H :    0.137667
  14 H :    0.165838
  15 O :   -0.533342
  16 C :    0.045769
  17 C :    0.088233
  18 C :   -0.304291
  19 C :   -0.032313
  20 O :   -0.528247
  21 H :    0.159627
  22 O :   -0.607059
  23 H :    0.164521
  24 H :    0.155570
  25 H :    0.175029
  26 H :    0.143929
  27 H :    0.143146
  28 H :    0.362561
Sum of atomic charges:   -0.0000000

LOEWDIN ATOMIC CHARGES
----------------------
   0 C :    0.174699
   1 C :   -0.214487
   2 C :   -0.216001
   3 C :   -0.030021
   4 O :   -0.329591
   5 H :    0.097785
   6 H :    0.114054
   7 H :    0.128568
   8 H :    0.116361
   9 H :    0.119108
  10 H :    0.103685
  11 H :    0.106965
  12 C :   -0.040892
  13 H :    0.099428
  14 H :    0.122225
  15 O :   -0.334136
  16 C :    0.007038
  17 C :    0.037996
  18 C :   -0.243963
  19 C :   -0.039588
  20 O :   -0.331432
  21 H :    0.114271
  22 O :   -0.418332
  23 H :    0.120798
  24 H :    0.123621
  25 H :    0.127781
  26 H :    0.102387
  27 H :    0.100453
  28 H :    0.281219

  Mayer bond orders larger than 0.100000
B(  0-C ,  1-C ) :   0.9426 B(  0-C ,  4-O ) :   0.8855 B(  0-C ,  5-H ) :   0.9136
B(  0-C , 15-O ) :   0.8524 B(  1-C ,  2-C ) :   0.9534 B(  1-C ,  6-H ) :   0.9378
B(  1-C ,  7-H ) :   0.9348 B(  2-C ,  3-C ) :   0.9557 B(  2-C ,  8-H ) :   0.9445
B(  2-C ,  9-H ) :   0.9441 B(  3-C ,  4-O ) :   0.8255 B(  3-C , 10-H ) :   0.9341
B(  3-C , 11-H ) :   0.9402 B( 12-C , 13-H ) :   0.9218 B( 12-C , 14-H ) :   0.9345
B( 12-C , 15-O ) :   0.8395 B( 12-C , 16-C ) :   0.8809 B( 16-C , 17-C ) :   0.9155
B( 16-C , 20-O ) :   0.8294 B( 16-C , 21-H ) :   0.9265 B( 17-C , 18-C ) :   0.9152
B( 17-C , 22-O ) :   0.8823 B( 17-C , 23-H ) :   0.9211 B( 18-C , 19-C ) :   0.9409
B( 18-C , 24-H ) :   0.9386 B( 18-C , 25-H ) :   0.9193 B( 19-C , 20-O ) :   0.8376
B( 19-C , 26-H ) :   0.9365 B( 19-C , 27-H ) :   0.9384 B( 22-O , 28-H ) :   0.7958

FINAL SINGLE POINT ENERGY      -652.864865958343

DIPOLE MOMENT
-------------
                                X             Y             Z
Electronic contribution:     -3.30973      -3.53706      -2.78924
Nuclear contribution   :      3.96803       4.41041       3.53634
                        -----------------------------------------
Total Dipole Moment    :      0.65831       0.87335       0.74709
                        -----------------------------------------
Magnitude (a.u.)       :      1.32448
Magnitude (Debye)      :      3.36656

Rotational constants in cm-1:     0.052408     0.015075     0.014855
Rotational constants in MHz :  1571.155655   451.945349   445.336030

                             ****ORCA TERMINATED NORMALLY****
TOTAL RUN TIME: 0 days 0 hours 26 minutes 1 seconds 886 msec
