                         Program Version 4.2.0 -  RELEASE  -
|  1> # Test redundant internal optimization
|  2> #
|  3> ! RKS B3LYP  Opt TightSCF SmallPrint
|  4>
|  5> %basis
|  6>         Basis "6-31G"
|  7> end
|  8>
|  9> %geom
| 10> Constraints
| 11> { D 4  0  15  12  135.0   C } # D for Dihedral angle
| 12> { D 0  15  12  16  165.0   C } # D for Dihedral angle
| 13> { D 0  4  3  2   C } # D for Dihedral angle
| 14> { D 4  3  2  1   C } # D for Dihedral angle
| 15> { D 3  2  1  0   C } # D for Dihedral angle
| 16> { D 2  1  0  4   C } # D for Dihedral angle
| 17> { D 1  0  4  3   C } # D for Dihedral angle
| 18> { D 16  20  19  18   C } # D for Dihedral angle
| 19> { D 20  19  18  17   C } # D for Dihedral angle
| 20> { D 19  18  17  16   C } # D for Dihedral angle
| 21> { D 18  17  16  20   C } # D for Dihedral angle
| 22> { D 17  16  20  19   C } # D for Dihedral angle
| 23> { D 15  12  16  20   C } # D for Dihedral angle
| 24> end
| 25> end
| 26>
| 27>
| 28> #%pal
| 29> #nprocs 8
| 30> #end
| 31>
| 32> * xyz 0 1
| 33> C  -21.048   26.222   46.251
| 34> C  -20.361   27.558   45.944
| 35> C  -20.329   28.222   47.341
| 36> C  -20.110   27.022   48.296
| 37> O  -20.473   25.807   47.535
| 38> H  -20.833   25.428   45.533
| 39> H  -19.344   27.382   45.576
| 40> H  -20.898   28.157   45.201
| 41> H  -19.543   28.978   47.434
| 42> H  -21.289   28.710   47.548
| 43> H  -20.733   27.082   49.195
| 44> H  -19.064   26.913   48.597
| 45> C  -23.162   27.680   45.721
| 46> H  -22.917   28.546   46.348
| 47> H  -22.718   27.838   44.729
| 48> O  -22.586   26.394   46.375
| 49> C  -24.705   27.625   45.544
| 50> C  -25.131   26.384   44.750
| 51> C  -25.061   25.280   45.833
| 52> C  -25.509   26.019   47.118
| 53> O  -25.364   27.466   46.845
| 54> H  -25.050   28.571   45.124
| 55> O  -26.586   26.555   44.236
| 56> H  -24.482   26.179   43.892
| 57> H  -25.696   24.419   45.603
| 58> H  -24.030   24.918   45.935
| 59> H  -24.898   25.755   47.989
| 60> H  -26.561   25.841   47.357
| 61> H  -27.253   26.762   45.080
| 62> *
| 63>
| 64>                          ****END OF INPUT****
 Total Charge           Charge          ....    0
 Multiplicity           Mult            ....    1
 Number of Electrons    NEL             ....  102
FINAL SINGLE POINT ENERGY      -652.827049184753
FINAL SINGLE POINT ENERGY      -652.850065260828
FINAL SINGLE POINT ENERGY      -652.854663504161
FINAL SINGLE POINT ENERGY      -652.856377460160
FINAL SINGLE POINT ENERGY      -652.856530391163
FINAL SINGLE POINT ENERGY      -652.856557504316
                    ***********************HURRAY********************

CARTESIAN COORDINATES (ANGSTROEM)
---------------------------------
  C    -21.132261   26.324538   46.259068
  C    -20.267119   27.545706   45.939557
  C    -20.209576   28.270974   47.311327
  C    -20.190934   27.093975   48.312269
  O    -20.679118   25.913070   47.558925
  H    -20.981882   25.468581   45.597355
  H    -19.271501   27.192991   45.649284
  H    -20.648650   28.175117   45.132553
  H    -19.326805   28.910456   47.405351
  H    -21.096630   28.895694   47.456846
  H    -20.841503   27.253556   49.175707
  H    -19.182628   26.849596   48.658193
  C    -23.177858   27.741236   45.718759
  H    -22.990697   28.628641   46.335797
  H    -22.782196   27.927005   44.708990
  O    -22.571686   26.566337   46.320349
  C    -24.689755   27.545488   45.611715
  C    -25.182046   26.357552   44.771991
  C    -25.110057   25.193377   45.796281
  C    -25.491054   25.880635   47.130637
  O    -25.307484   27.337664   46.919947
  H    -25.106002   28.478561   45.212220
  O    -26.537286   26.598788   44.297379
  H    -24.592369   26.180581   43.871683
  H    -25.798994   24.390635   45.518585
  H    -24.091087   24.808973   45.843702
  H    -24.847401   25.565682   47.955255
  H    -26.539132   25.726708   47.407691
  H    -27.090289   26.890884   45.052583

 Multiplicity           Mult            ....    1
 Number of Electrons    NEL             ....  102
 Basis Dimension        Dim             ....  149

ORBITAL ENERGIES
----------------

  NO   OCC          E(Eh)            E(eV)
   0   2.0000     -19.144870      -520.9584
   1   2.0000     -19.143023      -520.9081
   2   2.0000     -19.134276      -520.6701
   3   2.0000     -19.132228      -520.6144
   4   2.0000     -10.285715      -279.8885
   5   2.0000     -10.237220      -278.5689
   6   2.0000     -10.234213      -278.4871
   7   2.0000     -10.232812      -278.4490
   8   2.0000     -10.229505      -278.3590
   9   2.0000     -10.217196      -278.0240
  10   2.0000     -10.197784      -277.4958
  11   2.0000     -10.195974      -277.4466
  12   2.0000     -10.171340      -276.7762
  13   2.0000      -1.055735       -28.7280
  14   2.0000      -1.029786       -28.0219
  15   2.0000      -1.002271       -27.2732
  16   2.0000      -0.993348       -27.0304
  17   2.0000      -0.793929       -21.6039
  18   2.0000      -0.778008       -21.1707
  19   2.0000      -0.761561       -20.7231
  20   2.0000      -0.735677       -20.0188
  21   2.0000      -0.677767       -18.4430
  22   2.0000      -0.609140       -16.5755
  23   2.0000      -0.600201       -16.3323
  24   2.0000      -0.593162       -16.1408
  25   2.0000      -0.568556       -15.4712
  26   2.0000      -0.526504       -14.3269
  27   2.0000      -0.508671       -13.8417
  28   2.0000      -0.505708       -13.7610
  29   2.0000      -0.483941       -13.1687
  30   2.0000      -0.475086       -12.9277
  31   2.0000      -0.457758       -12.4562
  32   2.0000      -0.448928       -12.2159
  33   2.0000      -0.434035       -11.8107
  34   2.0000      -0.427981       -11.6460
  35   2.0000      -0.414749       -11.2859
  36   2.0000      -0.404374       -11.0036
  37   2.0000      -0.386985       -10.5304
  38   2.0000      -0.382793       -10.4163
  39   2.0000      -0.364512        -9.9189
  40   2.0000      -0.362037        -9.8515
  41   2.0000      -0.358918        -9.7666
  42   2.0000      -0.353185        -9.6106
  43   2.0000      -0.326565        -8.8863
  44   2.0000      -0.316019        -8.5993
  45   2.0000      -0.301880        -8.2146
  46   2.0000      -0.296861        -8.0780
  47   2.0000      -0.270821        -7.3694
  48   2.0000      -0.261912        -7.1270
  49   2.0000      -0.256167        -6.9707
  50   2.0000      -0.238126        -6.4797
  51   0.0000       0.068522         1.8646
  52   0.0000       0.076725         2.0878
  53   0.0000       0.091497         2.4898
  54   0.0000       0.102827         2.7981
  55   0.0000       0.108360         2.9486

MULLIKEN ATOMIC CHARGES
-----------------------
   0 C :    0.318843
   1 C :   -0.297769
   2 C :   -0.307931
   3 C :   -0.001946
   4 O :   -0.496020
   5 H :    0.152675
   6 H :    0.155901
   7 H :    0.146258
   8 H :    0.147408
   9 H :    0.158963
  10 H :    0.155703
  11 H :    0.144867
  12 C :    0.009335
  13 H :    0.141351
  14 H :    0.120289
  15 O :   -0.532345
  16 C :    0.070791
  17 C :    0.076243
  18 C :   -0.284031
  19 C :   -0.017187
  20 O :   -0.529207
  21 H :    0.150573
  22 O :   -0.604163
  23 H :    0.144646
  24 H :    0.145760
  25 H :    0.176012
  26 H :    0.160793
  27 H :    0.131761
  28 H :    0.362425
Sum of atomic charges:    0.0000000

LOEWDIN ATOMIC CHARGES
----------------------
   0 C :    0.183081
   1 C :   -0.232352
   2 C :   -0.218560
   3 C :   -0.027469
   4 O :   -0.308473
   5 H :    0.103289
   6 H :    0.122215
   7 H :    0.115416
   8 H :    0.117066
   9 H :    0.113688
  10 H :    0.109922
  11 H :    0.104220
  12 C :   -0.036169
  13 H :    0.099949
  14 H :    0.091020
  15 O :   -0.335267
  16 C :    0.016065
  17 C :    0.039306
  18 C :   -0.240495
  19 C :   -0.031708
  20 O :   -0.330991
  21 H :    0.113649
  22 O :   -0.417750
  23 H :    0.112713
  24 H :    0.116820
  25 H :    0.131354
  26 H :    0.113130
  27 H :    0.094640
  28 H :    0.281692

  Mayer bond orders larger than 0.100000
B(  0-C ,  1-C ) :   0.9352 B(  0-C ,  4-O ) :   0.9320 B(  0-C ,  5-H ) :   0.9281
B(  0-C , 15-O ) :   0.8422 B(  1-C ,  2-C ) :   0.9500 B(  1-C ,  6-H ) :   0.9338
B(  1-C ,  7-H ) :   0.9279 B(  2-C ,  3-C ) :   0.9520 B(  2-C ,  8-H ) :   0.9452
B(  2-C ,  9-H ) :   0.9401 B(  3-C ,  4-O ) :   0.8380 B(  3-C , 10-H ) :   0.9338
B(  3-C , 11-H ) :   0.9396 B( 12-C , 13-H ) :   0.9079 B( 12-C , 14-H ) :   0.9060
B( 12-C , 15-O ) :   0.8485 B( 12-C , 16-C ) :   0.9019 B( 16-C , 17-C ) :   0.9086
B( 16-C , 20-O ) :   0.8787 B( 16-C , 21-H ) :   0.9227 B( 17-C , 18-C ) :   0.9254
B( 17-C , 22-O ) :   0.8888 B( 17-C , 23-H ) :   0.9370 B( 18-C , 19-C ) :   0.9464
B( 18-C , 24-H ) :   0.9376 B( 18-C , 25-H ) :   0.9182 B( 19-C , 20-O ) :   0.8345
B( 19-C , 26-H ) :   0.9328 B( 19-C , 27-H ) :   0.9383 B( 22-O , 28-H ) :   0.7959

FINAL SINGLE POINT ENERGY      -652.856558266945

DIPOLE MOMENT
-------------
                                X             Y             Z
Electronic contribution:     -3.73710      -1.76390      -0.28514
Nuclear contribution   :      4.84098       2.44938       0.14101
                        -----------------------------------------
Total Dipole Moment    :      1.10388       0.68548      -0.14413
                        -----------------------------------------
Magnitude (a.u.)       :      1.30737
Magnitude (Debye)      :      3.32307

Rotational constants in cm-1:     0.060154     0.013526     0.013012
Rotational constants in MHz :  1803.362947   405.484787   390.082838

                             ****ORCA TERMINATED NORMALLY****
TOTAL RUN TIME: 0 days 0 hours 59 minutes 16 seconds 451 msec
