                         Program Version 4.2.0 -  RELEASE  -
|  1> # Test redundant internal optimization
|  2> #
|  3> ! RKS B3LYP  Opt TightSCF SmallPrint
|  4>
|  5> %basis
|  6>         Basis "6-31G"
|  7> end
|  8>
|  9> %geom
| 10> Constraints
| 11> { D 4  0  15  12  225.0   C } # D for Dihedral angle
| 12> { D 0  15  12  16  345.0   C } # D for Dihedral angle
| 13> { D 0  4  3  2   C } # D for Dihedral angle
| 14> { D 4  3  2  1   C } # D for Dihedral angle
| 15> { D 3  2  1  0   C } # D for Dihedral angle
| 16> { D 2  1  0  4   C } # D for Dihedral angle
| 17> { D 1  0  4  3   C } # D for Dihedral angle
| 18> { D 16  20  19  18   C } # D for Dihedral angle
| 19> { D 20  19  18  17   C } # D for Dihedral angle
| 20> { D 19  18  17  16   C } # D for Dihedral angle
| 21> { D 18  17  16  20   C } # D for Dihedral angle
| 22> { D 17  16  20  19   C } # D for Dihedral angle
| 23> { D 15  12  16  20   C } # D for Dihedral angle
| 24> end
| 25> end
| 26>
| 27>
| 28> #%pal
| 29> #nprocs 8
| 30> #end
| 31>
| 32> * xyz 0 1
| 33> C  -21.048   26.222   46.251
| 34> C  -20.361   27.558   45.944
| 35> C  -20.329   28.222   47.341
| 36> C  -20.110   27.022   48.296
| 37> O  -20.473   25.807   47.535
| 38> H  -20.833   25.428   45.533
| 39> H  -19.344   27.382   45.576
| 40> H  -20.898   28.157   45.201
| 41> H  -19.543   28.978   47.434
| 42> H  -21.289   28.710   47.548
| 43> H  -20.733   27.082   49.195
| 44> H  -19.064   26.913   48.597
| 45> C  -23.415   25.773   45.218
| 46> H  -23.898   24.853   45.572
| 47> H  -24.200   26.468   44.891
| 48> O  -22.586   26.394   46.375
| 49> C  -22.548   25.423   43.977
| 50> C  -21.528   24.326   44.303
| 51> C  -22.406   23.053   44.240
| 52> C  -23.410   23.375   43.104
| 53> O  -23.379   24.841   42.918
| 54> H  -22.112   26.340   43.575
| 55> O  -20.424   24.285   43.212
| 56> H  -21.045   24.461   45.277
| 57> H  -21.826   22.147   44.040
| 58> H  -22.932   22.911   45.192
| 59> H  -24.432   23.066   43.347
| 60> H  -23.121   22.923   42.151
| 61> H  -20.884   24.149   42.226
| 62> *
| 63>
| 64>                          ****END OF INPUT****
 Total Charge           Charge          ....    0
 Multiplicity           Mult            ....    1
 Number of Electrons    NEL             ....  102
FINAL SINGLE POINT ENERGY      -652.775378776181
FINAL SINGLE POINT ENERGY      -652.825662543482
FINAL SINGLE POINT ENERGY      -652.844735528279
FINAL SINGLE POINT ENERGY      -652.847703523380
FINAL SINGLE POINT ENERGY      -652.848180785145
FINAL SINGLE POINT ENERGY      -652.848277684210
FINAL SINGLE POINT ENERGY      -652.848289584621
FINAL SINGLE POINT ENERGY      -652.848298794284
                    ***********************HURRAY********************

CARTESIAN COORDINATES (ANGSTROEM)
---------------------------------
  C    -20.762565   26.286257   46.354039
  C    -20.163420   27.678136   46.150023
  C    -20.494082   28.369935   47.495960
  C    -20.365369   27.216527   48.514486
  O    -20.440382   25.964191   47.721012
  H    -20.322329   25.507636   45.737137
  H    -19.078583   27.593090   46.011598
  H    -20.590239   28.192877   45.285813
  H    -19.819463   29.201866   47.717920
  H    -21.519930   28.747929   47.471063
  H    -21.167544   27.208097   49.257489
  H    -19.397492   27.206061   49.025549
  C    -23.029919   25.783509   45.168001
  H    -23.584827   24.949129   45.616970
  H    -23.756951   26.558783   44.912000
  O    -22.201455   26.358073   46.225093
  C    -22.431961   25.284784   43.833329
  C    -21.465855   24.086534   43.866502
  C    -22.444998   22.891682   44.078319
  C    -23.693817   23.331792   43.272689
  O    -23.580048   24.791824   43.066299
  H    -21.994175   26.111888   43.266122
  O    -20.750547   23.985920   42.604115
  H    -20.691512   24.123078   44.626170
  H    -22.003363   21.963628   43.708888
  H    -22.671661   22.771834   45.142748
  H    -24.632126   23.120291   43.793824
  H    -23.735076   22.869577   42.281612
  H    -21.381310   24.114072   41.864228

 Multiplicity           Mult            ....    1
 Number of Electrons    NEL             ....  102
 Basis Dimension        Dim             ....  149

ORBITAL ENERGIES
----------------

  NO   OCC          E(Eh)            E(eV)
   0   2.0000     -19.153696      -521.1986
   1   2.0000     -19.144833      -520.9574
   2   2.0000     -19.135737      -520.7099
   3   2.0000     -19.135523      -520.7040
   4   2.0000     -10.279632      -279.7230
   5   2.0000     -10.248373      -278.8724
   6   2.0000     -10.244553      -278.7684
   7   2.0000     -10.237767      -278.5838
   8   2.0000     -10.234177      -278.4861
   9   2.0000     -10.221520      -278.1417
  10   2.0000     -10.194418      -277.4042
  11   2.0000     -10.182267      -277.0736
  12   2.0000     -10.182073      -277.0683
  13   2.0000      -1.049360       -28.5545
  14   2.0000      -1.044487       -28.4219
  15   2.0000      -1.014327       -27.6012
  16   2.0000      -0.987486       -26.8708
  17   2.0000      -0.785914       -21.3858
  18   2.0000      -0.782148       -21.2833
  19   2.0000      -0.770645       -20.9703
  20   2.0000      -0.736129       -20.0311
  21   2.0000      -0.678719       -18.4689
  22   2.0000      -0.611240       -16.6327
  23   2.0000      -0.606647       -16.5077
  24   2.0000      -0.595322       -16.1995
  25   2.0000      -0.578181       -15.7331
  26   2.0000      -0.528869       -14.3913
  27   2.0000      -0.519600       -14.1390
  28   2.0000      -0.500746       -13.6260
  29   2.0000      -0.481083       -13.0909
  30   2.0000      -0.476129       -12.9561
  31   2.0000      -0.460637       -12.5346
  32   2.0000      -0.447694       -12.1824
  33   2.0000      -0.435629       -11.8541
  34   2.0000      -0.429038       -11.6747
  35   2.0000      -0.420736       -11.4488
  36   2.0000      -0.400341       -10.8938
  37   2.0000      -0.398693       -10.8490
  38   2.0000      -0.376089       -10.2339
  39   2.0000      -0.375461       -10.2168
  40   2.0000      -0.364072        -9.9069
  41   2.0000      -0.354202        -9.6383
  42   2.0000      -0.349527        -9.5111
  43   2.0000      -0.336436        -9.1549
  44   2.0000      -0.316173        -8.6035
  45   2.0000      -0.310933        -8.4609
  46   2.0000      -0.304903        -8.2968
  47   2.0000      -0.277680        -7.5560
  48   2.0000      -0.261465        -7.1148
  49   2.0000      -0.251785        -6.8514
  50   2.0000      -0.240617        -6.5475
  51   0.0000       0.058988         1.6051
  52   0.0000       0.072563         1.9745
  53   0.0000       0.089039         2.4229
  54   0.0000       0.095094         2.5876
  55   0.0000       0.096575         2.6279

MULLIKEN ATOMIC CHARGES
-----------------------
   0 C :    0.281615
   1 C :   -0.252343
   2 C :   -0.297408
   3 C :   -0.001813
   4 O :   -0.500574
   5 H :    0.138945
   6 H :    0.143859
   7 H :    0.141327
   8 H :    0.138963
   9 H :    0.163519
  10 H :    0.151845
  11 H :    0.140418
  12 C :    0.022816
  13 H :    0.136127
  14 H :    0.164713
  15 O :   -0.539938
  16 C :    0.025746
  17 C :    0.069405
  18 C :   -0.298401
  19 C :   -0.027636
  20 O :   -0.522825
  21 H :    0.159189
  22 O :   -0.600294
  23 H :    0.176295
  24 H :    0.163145
  25 H :    0.158391
  26 H :    0.150095
  27 H :    0.149044
  28 H :    0.365773
Sum of atomic charges:   -0.0000000

LOEWDIN ATOMIC CHARGES
----------------------
   0 C :    0.178578
   1 C :   -0.223588
   2 C :   -0.216298
   3 C :   -0.026583
   4 O :   -0.313591
   5 H :    0.096340
   6 H :    0.112333
   7 H :    0.115110
   8 H :    0.112970
   9 H :    0.119835
  10 H :    0.107700
  11 H :    0.101265
  12 C :   -0.034121
  13 H :    0.099428
  14 H :    0.118883
  15 O :   -0.342866
  16 C :    0.004363
  17 C :    0.030419
  18 C :   -0.239690
  19 C :   -0.037980
  20 O :   -0.323647
  21 H :    0.113055
  22 O :   -0.413537
  23 H :    0.119933
  24 H :    0.127798
  25 H :    0.120238
  26 H :    0.106291
  27 H :    0.103739
  28 H :    0.283623

  Mayer bond orders larger than 0.100000
B(  0-C ,  1-C ) :   0.9359 B(  0-C ,  4-O ) :   0.9362 B(  0-C ,  5-H ) :   0.9003
B(  0-C , 15-O ) :   0.8387 B(  1-C ,  2-C ) :   0.9572 B(  1-C ,  6-H ) :   0.9355
B(  1-C ,  7-H ) :   0.9399 B(  2-C ,  3-C ) :   0.9536 B(  2-C ,  8-H ) :   0.9454
B(  2-C ,  9-H ) :   0.9432 B(  3-C ,  4-O ) :   0.8362 B(  3-C , 10-H ) :   0.9351
B(  3-C , 11-H ) :   0.9398 B( 12-C , 13-H ) :   0.9251 B( 12-C , 14-H ) :   0.9245
B( 12-C , 15-O ) :   0.8406 B( 12-C , 16-C ) :   0.8876 B( 16-C , 17-C ) :   0.9010
B( 16-C , 20-O ) :   0.8268 B( 16-C , 21-H ) :   0.9234 B( 17-C , 18-C ) :   0.9097
B( 17-C , 22-O ) :   0.8925 B( 17-C , 23-H ) :   0.9116 B( 18-C , 19-C ) :   0.9400
B( 18-C , 24-H ) :   0.9378 B( 18-C , 25-H ) :   0.9320 B( 19-C , 20-O ) :   0.8349
B( 19-C , 26-H ) :   0.9357 B( 19-C , 27-H ) :   0.9376 B( 22-O , 28-H ) :   0.7932

FINAL SINGLE POINT ENERGY      -652.848322535988

DIPOLE MOMENT
-------------
                                X             Y             Z
Electronic contribution:     -0.67952      -1.58540      -1.98838
Nuclear contribution   :      0.51927       1.68578       1.79935
                        -----------------------------------------
Total Dipole Moment    :     -0.16025       0.10038      -0.18903
                        -----------------------------------------
Magnitude (a.u.)       :      0.26737
Magnitude (Debye)      :      0.67961

Rotational constants in cm-1:     0.058617     0.012602     0.012215
Rotational constants in MHz :  1757.300404   377.809558   366.206175

                             ****ORCA TERMINATED NORMALLY****
TOTAL RUN TIME: 0 days 0 hours 36 minutes 24 seconds 487 msec
