                         Program Version 4.2.0 -  RELEASE  -
|  1> # Test redundant internal optimization
|  2> #
|  3> ! RKS B3LYP  Opt TightSCF SmallPrint
|  4>
|  5> %basis
|  6>         Basis "6-31G"
|  7> end
|  8>
|  9> %geom
| 10> Constraints
| 11> { D 4  0  15  12  180.0   C } # D for Dihedral angle
| 12> { D 0  15  12  16  150.0   C } # D for Dihedral angle
| 13> { D 0  4  3  2   C } # D for Dihedral angle
| 14> { D 4  3  2  1   C } # D for Dihedral angle
| 15> { D 3  2  1  0   C } # D for Dihedral angle
| 16> { D 2  1  0  4   C } # D for Dihedral angle
| 17> { D 1  0  4  3   C } # D for Dihedral angle
| 18> { D 16  20  19  18   C } # D for Dihedral angle
| 19> { D 20  19  18  17   C } # D for Dihedral angle
| 20> { D 19  18  17  16   C } # D for Dihedral angle
| 21> { D 18  17  16  20   C } # D for Dihedral angle
| 22> { D 17  16  20  19   C } # D for Dihedral angle
| 23> { D 15  12  16  20   C } # D for Dihedral angle
| 24> end
| 25> end
| 26>
| 27>
| 28> #%pal
| 29> #nprocs 8
| 30> #end
| 31>
| 32> * xyz 0 1
| 33> C  -21.048   26.222   46.251
| 34> C  -20.361   27.558   45.944
| 35> C  -20.329   28.222   47.341
| 36> C  -20.110   27.022   48.296
| 37> O  -20.473   25.807   47.535
| 38> H  -20.833   25.428   45.533
| 39> H  -19.344   27.382   45.576
| 40> H  -20.898   28.157   45.201
| 41> H  -19.543   28.978   47.434
| 42> H  -21.289   28.710   47.548
| 43> H  -20.733   27.082   49.195
| 44> H  -19.064   26.913   48.597
| 45> C  -23.309   26.834   45.072
| 46> H  -23.337   27.929   45.026
| 47> H  -22.767   26.467   44.190
| 48> O  -22.586   26.394   46.375
| 49> C  -24.767   26.303   44.986
| 50> C  -25.644   26.904   46.090
| 51> C  -25.956   28.306   45.514
| 52> C  -26.062   28.045   43.991
| 53> O  -25.400   26.747   43.740
| 54> H  -24.750   25.212   44.965
| 55> O  -26.946   26.073   46.247
| 56> H  -25.143   26.946   47.063
| 57> H  -26.871   28.741   45.928
| 58> H  -25.130   28.994   45.732
| 59> H  -25.568   28.821   43.397
| 60> H  -27.098   27.949   43.655
| 61> H  -27.466   26.018   45.283
| 62> *
| 63>
| 64>                          ****END OF INPUT****
 Total Charge           Charge          ....    0
 Multiplicity           Mult            ....    1
 Number of Electrons    NEL             ....  102
FINAL SINGLE POINT ENERGY      -652.834431824805
FINAL SINGLE POINT ENERGY      -652.857615740194
FINAL SINGLE POINT ENERGY      -652.861172856012
FINAL SINGLE POINT ENERGY      -652.861815013511
FINAL SINGLE POINT ENERGY      -652.861910560259
FINAL SINGLE POINT ENERGY      -652.861922239992
                    ***********************HURRAY********************

CARTESIAN COORDINATES (ANGSTROEM)
---------------------------------
  C    -21.149534   26.232823   46.173018
  C    -20.361405   27.514760   45.913699
  C    -20.412851   28.210343   47.296620
  C    -20.353910   27.022078   48.278128
  O    -20.727217   25.824874   47.478392
  H    -20.947129   25.409136   45.480330
  H    -19.331210   27.251324   45.647188
  H    -20.773033   28.129766   45.108426
  H    -19.588153   28.914334   47.442144
  H    -21.355710   28.754857   47.405198
  H    -21.053367   27.113699   49.112402
  H    -19.347568   26.836769   48.664343
  C    -23.219243   26.895340   44.993776
  H    -23.191365   27.989972   44.902709
  H    -22.706453   26.469995   44.119757
  O    -22.589381   26.467912   46.234104
  C    -24.655678   26.377462   45.012474
  C    -25.536209   26.938093   46.138268
  C    -25.935147   28.321339   45.563739
  C    -26.066155   28.050685   44.044589
  O    -25.341120   26.781587   43.779218
  H    -24.644514   25.284584   45.036193
  O    -26.700070   26.091845   46.351257
  H    -25.022040   26.986219   47.096677
  H    -26.866136   28.671882   46.015480
  H    -25.153438   29.060511   45.772471
  H    -25.629598   28.843638   43.429554
  H    -27.104140   27.899209   43.732749
  H    -27.063227   25.818964   45.482096

 Multiplicity           Mult            ....    1
 Number of Electrons    NEL             ....  102
 Basis Dimension        Dim             ....  149

ORBITAL ENERGIES
----------------

  NO   OCC          E(Eh)            E(eV)
   0   2.0000     -19.145625      -520.9789
   1   2.0000     -19.145505      -520.9757
   2   2.0000     -19.143741      -520.9277
   3   2.0000     -19.133241      -520.6420
   4   2.0000     -10.283403      -279.8256
   5   2.0000     -10.234733      -278.5013
   6   2.0000     -10.234635      -278.4986
   7   2.0000     -10.232956      -278.4529
   8   2.0000     -10.232264      -278.4340
   9   2.0000     -10.228146      -278.3220
  10   2.0000     -10.191756      -277.3318
  11   2.0000     -10.191255      -277.3181
  12   2.0000     -10.187575      -277.2180
  13   2.0000      -1.057394       -28.7732
  14   2.0000      -1.035745       -28.1841
  15   2.0000      -1.003347       -27.3025
  16   2.0000      -0.998297       -27.1650
  17   2.0000      -0.791093       -21.5267
  18   2.0000      -0.779951       -21.2236
  19   2.0000      -0.769004       -20.9257
  20   2.0000      -0.732957       -19.9448
  21   2.0000      -0.677653       -18.4399
  22   2.0000      -0.605438       -16.4748
  23   2.0000      -0.603754       -16.4290
  24   2.0000      -0.594037       -16.1646
  25   2.0000      -0.579557       -15.7705
  26   2.0000      -0.523336       -14.2407
  27   2.0000      -0.517671       -14.0865
  28   2.0000      -0.500914       -13.6306
  29   2.0000      -0.492564       -13.4033
  30   2.0000      -0.472971       -12.8702
  31   2.0000      -0.456134       -12.4120
  32   2.0000      -0.454707       -12.3732
  33   2.0000      -0.445036       -12.1101
  34   2.0000      -0.426172       -11.5967
  35   2.0000      -0.414365       -11.2754
  36   2.0000      -0.403190       -10.9713
  37   2.0000      -0.391718       -10.6592
  38   2.0000      -0.379749       -10.3335
  39   2.0000      -0.367736       -10.0066
  40   2.0000      -0.362593        -9.8667
  41   2.0000      -0.359724        -9.7886
  42   2.0000      -0.356073        -9.6892
  43   2.0000      -0.333340        -9.0707
  44   2.0000      -0.317417        -8.6373
  45   2.0000      -0.310166        -8.4400
  46   2.0000      -0.301158        -8.1949
  47   2.0000      -0.272663        -7.4195
  48   2.0000      -0.261401        -7.1131
  49   2.0000      -0.259170        -7.0524
  50   2.0000      -0.245490        -6.6801
  51   0.0000       0.066206         1.8016
  52   0.0000       0.068027         1.8511
  53   0.0000       0.096243         2.6189
  54   0.0000       0.096468         2.6250
  55   0.0000       0.103474         2.8157

MULLIKEN ATOMIC CHARGES
-----------------------
   0 C :    0.307375
   1 C :   -0.281266
   2 C :   -0.297199
   3 C :   -0.001866
   4 O :   -0.501172
   5 H :    0.145350
   6 H :    0.149645
   7 H :    0.144034
   8 H :    0.144239
   9 H :    0.155501
  10 H :    0.156318
  11 H :    0.144123
  12 C :   -0.014231
  13 H :    0.128677
  14 H :    0.140944
  15 O :   -0.516174
  16 C :    0.057236
  17 C :    0.091319
  18 C :   -0.301793
  19 C :   -0.031190
  20 O :   -0.528791
  21 H :    0.169409
  22 O :   -0.602852
  23 H :    0.180242
  24 H :    0.162841
  25 H :    0.143993
  26 H :    0.145750
  27 H :    0.147210
  28 H :    0.362329
Sum of atomic charges:    0.0000000

LOEWDIN ATOMIC CHARGES
----------------------
   0 C :    0.181843
   1 C :   -0.232572
   2 C :   -0.216531
   3 C :   -0.024545
   4 O :   -0.300684
   5 H :    0.099003
   6 H :    0.116996
   7 H :    0.114122
   8 H :    0.115406
   9 H :    0.115408
  10 H :    0.110527
  11 H :    0.103845
  12 C :   -0.044011
  13 H :    0.090841
  14 H :    0.102859
  15 O :   -0.338478
  16 C :    0.017111
  17 C :    0.039549
  18 C :   -0.242648
  19 C :   -0.038573
  20 O :   -0.332724
  21 H :    0.120503
  22 O :   -0.414098
  23 H :    0.129660
  24 H :    0.127201
  25 H :    0.112522
  26 H :    0.103347
  27 H :    0.102961
  28 H :    0.281161

  Mayer bond orders larger than 0.100000
B(  0-C ,  1-C ) :   0.9265 B(  0-C ,  4-O ) :   0.9435 B(  0-C ,  5-H ) :   0.9199
B(  0-C , 15-O ) :   0.8255 B(  1-C ,  2-C ) :   0.9512 B(  1-C ,  6-H ) :   0.9340
B(  1-C ,  7-H ) :   0.9324 B(  2-C ,  3-C ) :   0.9557 B(  2-C ,  8-H ) :   0.9450
B(  2-C ,  9-H ) :   0.9456 B(  3-C ,  4-O ) :   0.8338 B(  3-C , 10-H ) :   0.9343
B(  3-C , 11-H ) :   0.9396 B( 12-C , 13-H ) :   0.9185 B( 12-C , 14-H ) :   0.9155
B( 12-C , 15-O ) :   0.8313 B( 12-C , 16-C ) :   0.8981 B( 16-C , 17-C ) :   0.9159
B( 16-C , 20-O ) :   0.8424 B( 16-C , 21-H ) :   0.9247 B( 17-C , 18-C ) :   0.9117
B( 17-C , 22-O ) :   0.8907 B( 17-C , 23-H ) :   0.9232 B( 18-C , 19-C ) :   0.9402
B( 18-C , 24-H ) :   0.9376 B( 18-C , 25-H ) :   0.9353 B( 19-C , 20-O ) :   0.8437
B( 19-C , 26-H ) :   0.9356 B( 19-C , 27-H ) :   0.9383 B( 22-O , 28-H ) :   0.7957

FINAL SINGLE POINT ENERGY      -652.861924508601

DIPOLE MOMENT
-------------
                                X             Y             Z
Electronic contribution:     -2.69102      -5.99522      -0.02461
Nuclear contribution   :      3.39138       7.49856      -0.56898
                        -----------------------------------------
Total Dipole Moment    :      0.70035       1.50334      -0.59359
                        -----------------------------------------
Magnitude (a.u.)       :      1.76150
Magnitude (Debye)      :      4.47737

Rotational constants in cm-1:     0.055941     0.012239     0.011757
Rotational constants in MHz :  1677.077802   366.923704   352.452490

                             ****ORCA TERMINATED NORMALLY****
TOTAL RUN TIME: 0 days 0 hours 40 minutes 30 seconds 820 msec
