                         Program Version 4.2.0 -  RELEASE  -
|  1> # Test redundant internal optimization
|  2> #
|  3> ! RKS B3LYP  Opt TightSCF SmallPrint
|  4>
|  5> %basis
|  6>         Basis "6-31G"
|  7> end
|  8>
|  9> %geom
| 10> Constraints
| 11> { D 4  0  15  12  75.0   C } # D for Dihedral angle
| 12> { D 0  15  12  16  195.0   C } # D for Dihedral angle
| 13> { D 0  4  3  2   C } # D for Dihedral angle
| 14> { D 4  3  2  1   C } # D for Dihedral angle
| 15> { D 3  2  1  0   C } # D for Dihedral angle
| 16> { D 2  1  0  4   C } # D for Dihedral angle
| 17> { D 1  0  4  3   C } # D for Dihedral angle
| 18> { D 16  20  19  18   C } # D for Dihedral angle
| 19> { D 20  19  18  17   C } # D for Dihedral angle
| 20> { D 19  18  17  16   C } # D for Dihedral angle
| 21> { D 18  17  16  20   C } # D for Dihedral angle
| 22> { D 17  16  20  19   C } # D for Dihedral angle
| 23> { D 15  12  16  20   C } # D for Dihedral angle
| 24> end
| 25> end
| 26>
| 27>
| 28> #%pal
| 29> #nprocs 8
| 30> #end
| 31>
| 32> * xyz 0 1
| 33> C  -21.048   26.222   46.251
| 34> C  -20.361   27.558   45.944
| 35> C  -20.329   28.222   47.341
| 36> C  -20.110   27.022   48.296
| 37> O  -20.473   25.807   47.535
| 38> H  -20.833   25.428   45.533
| 39> H  -19.344   27.382   45.576
| 40> H  -20.898   28.157   45.201
| 41> H  -19.543   28.978   47.434
| 42> H  -21.289   28.710   47.548
| 43> H  -20.733   27.082   49.195
| 44> H  -19.064   26.913   48.597
| 45> C  -23.049   27.675   47.122
| 46> H  -22.442   27.806   48.026
| 47> H  -22.914   28.560   46.487
| 48> O  -22.586   26.394   46.375
| 49> C  -24.544   27.618   47.541
| 50> C  -24.997   28.940   48.171
| 51> C  -25.222   29.822   46.920
| 52> C  -25.762   28.816   45.873
| 53> O  -25.402   27.468   46.361
| 54> H  -24.707   26.739   48.169
| 55> H  -25.936   28.796   48.716
| 56> O  -23.950   29.539   49.149
| 57> H  -25.917   30.648   47.102
| 58> H  -24.270   30.253   46.586
| 59> H  -25.322   28.967   44.880
| 60> H  -26.852   28.848   45.787
| 61> H  -23.000   29.694   48.626
| 62> *
| 63>
| 64>                          ****END OF INPUT****
 Total Charge           Charge          ....    0
 Multiplicity           Mult            ....    1
 Number of Electrons    NEL             ....  102
FINAL SINGLE POINT ENERGY      -652.801975830548
FINAL SINGLE POINT ENERGY      -652.831391923514
FINAL SINGLE POINT ENERGY      -652.847222182444
FINAL SINGLE POINT ENERGY      -652.849927531792
FINAL SINGLE POINT ENERGY      -652.850415049227
FINAL SINGLE POINT ENERGY      -652.850537471610
FINAL SINGLE POINT ENERGY      -652.850555984508
FINAL SINGLE POINT ENERGY      -652.850559376854
                    ***********************HURRAY********************

CARTESIAN COORDINATES (ANGSTROEM)
---------------------------------
  C    -21.186779   26.336858   46.391745
  C    -20.231260   27.446576   45.927724
  C    -19.854674   28.135288   47.272480
  C    -19.825016   26.941760   48.262899
  O    -20.577485   25.844323   47.609721
  H    -21.210661   25.482868   45.713637
  H    -19.350878   26.982272   45.472362
  H    -20.686225   28.124037   45.199857
  H    -18.886062   28.642577   47.221321
  H    -20.601597   28.879986   47.558042
  H    -20.289941   27.169383   49.227090
  H    -18.809455   26.573964   48.436454
  C    -23.037489   27.847666   47.188896
  H    -22.539406   27.963977   48.160201
  H    -22.838186   28.734846   46.569353
  O    -22.586009   26.650283   46.505876
  C    -24.532909   27.676037   47.451609
  C    -25.186679   28.885047   48.142618
  C    -25.478848   29.824990   46.934317
  C    -25.833810   28.829446   45.808403
  O    -25.313071   27.504774   46.231363
  H    -24.662617   26.751113   48.019768
  H    -26.117853   28.569807   48.617581
  O    -24.414984   29.487046   49.212045
  H    -26.282450   30.534883   47.147903
  H    -24.574807   30.400589   46.692097
  H    -25.388803   29.097777   44.845376
  H    -26.914673   28.720832   45.677614
  H    -23.684375   30.024992   48.843648

 Multiplicity           Mult            ....    1
 Number of Electrons    NEL             ....  102
 Basis Dimension        Dim             ....  149

ORBITAL ENERGIES
----------------

  NO   OCC          E(Eh)            E(eV)
   0   2.0000     -19.152855      -521.1757
   1   2.0000     -19.142193      -520.8855
   2   2.0000     -19.139434      -520.8105
   3   2.0000     -19.136048      -520.7183
   4   2.0000     -10.275912      -279.6218
   5   2.0000     -10.246669      -278.8261
   6   2.0000     -10.233351      -278.4636
   7   2.0000     -10.230390      -278.3831
   8   2.0000     -10.230245      -278.3791
   9   2.0000     -10.229384      -278.3557
  10   2.0000     -10.197841      -277.4974
  11   2.0000     -10.195570      -277.4356
  12   2.0000     -10.192326      -277.3473
  13   2.0000      -1.051399       -28.6100
  14   2.0000      -1.035154       -28.1680
  15   2.0000      -1.016308       -27.6552
  16   2.0000      -0.995002       -27.0754
  17   2.0000      -0.789720       -21.4894
  18   2.0000      -0.784581       -21.3495
  19   2.0000      -0.773335       -21.0435
  20   2.0000      -0.732629       -19.9359
  21   2.0000      -0.684907       -18.6373
  22   2.0000      -0.613079       -16.6827
  23   2.0000      -0.605388       -16.4734
  24   2.0000      -0.598270       -16.2798
  25   2.0000      -0.572629       -15.5820
  26   2.0000      -0.526895       -14.3375
  27   2.0000      -0.511942       -13.9306
  28   2.0000      -0.502000       -13.6601
  29   2.0000      -0.495146       -13.4736
  30   2.0000      -0.474482       -12.9113
  31   2.0000      -0.462135       -12.5753
  32   2.0000      -0.443759       -12.0753
  33   2.0000      -0.434849       -11.8328
  34   2.0000      -0.424337       -11.5468
  35   2.0000      -0.422496       -11.4967
  36   2.0000      -0.414033       -11.2664
  37   2.0000      -0.403234       -10.9726
  38   2.0000      -0.384043       -10.4503
  39   2.0000      -0.378409       -10.2970
  40   2.0000      -0.362147        -9.8545
  41   2.0000      -0.356118        -9.6904
  42   2.0000      -0.350475        -9.5369
  43   2.0000      -0.331256        -9.0139
  44   2.0000      -0.317438        -8.6379
  45   2.0000      -0.314444        -8.5565
  46   2.0000      -0.299316        -8.1448
  47   2.0000      -0.272666        -7.4196
  48   2.0000      -0.267056        -7.2670
  49   2.0000      -0.250950        -6.8287
  50   2.0000      -0.241235        -6.5643
  51   0.0000       0.040731         1.1083
  52   0.0000       0.069700         1.8966
  53   0.0000       0.083054         2.2600
  54   0.0000       0.090967         2.4753
  55   0.0000       0.099657         2.7118

MULLIKEN ATOMIC CHARGES
-----------------------
   0 C :    0.299510
   1 C :   -0.282660
   2 C :   -0.311442
   3 C :   -0.010354
   4 O :   -0.501571
   5 H :    0.169408
   6 H :    0.157222
   7 H :    0.148599
   8 H :    0.145259
   9 H :    0.135879
  10 H :    0.146495
  11 H :    0.147092
  12 C :   -0.016850
  13 H :    0.141238
  14 H :    0.114480
  15 O :   -0.502991
  16 C :    0.098825
  17 C :    0.075288
  18 C :   -0.324472
  19 C :   -0.009610
  20 O :   -0.501712
  21 H :    0.171686
  22 H :    0.171529
  23 O :   -0.597056
  24 H :    0.159484
  25 H :    0.129523
  26 H :    0.143114
  27 H :    0.151291
  28 H :    0.352796
Sum of atomic charges:   -0.0000000

LOEWDIN ATOMIC CHARGES
----------------------
   0 C :    0.172873
   1 C :   -0.229861
   2 C :   -0.224104
   3 C :   -0.034309
   4 O :   -0.321030
   5 H :    0.115275
   6 H :    0.122905
   7 H :    0.117641
   8 H :    0.115439
   9 H :    0.103864
  10 H :    0.102586
  11 H :    0.104531
  12 C :   -0.053980
  13 H :    0.101347
  14 H :    0.084418
  15 O :   -0.301221
  16 C :    0.023845
  17 C :    0.033513
  18 C :   -0.242320
  19 C :   -0.030409
  20 O :   -0.309971
  21 H :    0.124440
  22 H :    0.121417
  23 O :   -0.407157
  24 H :    0.123135
  25 H :    0.101906
  26 H :    0.102739
  27 H :    0.106815
  28 H :    0.275674

  Mayer bond orders larger than 0.100000
B(  0-C ,  1-C ) :   0.9177 B(  0-C ,  4-O ) :   0.8973 B(  0-C ,  5-H ) :   0.9355
B(  0-C , 15-O ) :   0.9106 B(  1-C ,  2-C ) :   0.9545 B(  1-C ,  6-H ) :   0.9358
B(  1-C ,  7-H ) :   0.9366 B(  2-C ,  3-C ) :   0.9471 B(  2-C ,  8-H ) :   0.9455
B(  2-C ,  9-H ) :   0.9427 B(  3-C ,  4-O ) :   0.8499 B(  3-C , 10-H ) :   0.9324
B(  3-C , 11-H ) :   0.9383 B( 12-C , 13-H ) :   0.8945 B( 12-C , 14-H ) :   0.9133
B( 12-C , 15-O ) :   0.8496 B( 12-C , 16-C ) :   0.9047 B( 16-C , 17-C ) :   0.8717
B( 16-C , 20-O ) :   0.8729 B( 16-C , 21-H ) :   0.9274 B( 17-C , 18-C ) :   0.9261
B( 17-C , 22-H ) :   0.9328 B( 17-C , 23-O ) :   0.8936 B( 18-C , 19-C ) :   0.9392
B( 18-C , 24-H ) :   0.9411 B( 18-C , 25-H ) :   0.9404 B( 19-C , 20-O ) :   0.8541
B( 19-C , 26-H ) :   0.9316 B( 19-C , 27-H ) :   0.9371 B( 23-O , 28-H ) :   0.7996

FINAL SINGLE POINT ENERGY      -652.850558881525

DIPOLE MOMENT
-------------
                                X             Y             Z
Electronic contribution:     -3.08477      -5.38224       0.74704
Nuclear contribution   :      3.79285       7.24659      -1.13761
                        -----------------------------------------
Total Dipole Moment    :      0.70808       1.86434      -0.39057
                        -----------------------------------------
Magnitude (a.u.)       :      2.03217
Magnitude (Debye)      :      5.16535

Rotational constants in cm-1:     0.049061     0.014065     0.012742
Rotational constants in MHz :  1470.806606   421.646210   382.005289

                             ****ORCA TERMINATED NORMALLY****
TOTAL RUN TIME: 0 days 0 hours 26 minutes 54 seconds 323 msec
