                         Program Version 4.2.0 -  RELEASE  -
|  1> # Test redundant internal optimization
|  2> #
|  3> ! RKS B3LYP  Opt TightSCF SmallPrint
|  4>
|  5> %basis
|  6>         Basis "6-31G"
|  7> end
|  8>
|  9> %geom
| 10> Constraints
| 11> { D 4  0  15  12  90.0   C } # D for Dihedral angle
| 12> { D 0  15  12  16  60.0   C } # D for Dihedral angle
| 13> { D 0  4  3  2   C } # D for Dihedral angle
| 14> { D 4  3  2  1   C } # D for Dihedral angle
| 15> { D 3  2  1  0   C } # D for Dihedral angle
| 16> { D 2  1  0  4   C } # D for Dihedral angle
| 17> { D 1  0  4  3   C } # D for Dihedral angle
| 18> { D 16  20  19  18   C } # D for Dihedral angle
| 19> { D 20  19  18  17   C } # D for Dihedral angle
| 20> { D 19  18  17  16   C } # D for Dihedral angle
| 21> { D 18  17  16  20   C } # D for Dihedral angle
| 22> { D 17  16  20  19   C } # D for Dihedral angle
| 23> { D 15  12  16  20   C } # D for Dihedral angle
| 24> end
| 25> end
| 26>
| 27>
| 28> #%pal
| 29> #nprocs 8
| 30> #end
| 31>
| 32> * xyz 0 1
| 33> C  -21.048   26.222   46.251
| 34> C  -20.361   27.558   45.944
| 35> C  -20.329   28.222   47.341
| 36> C  -20.110   27.022   48.296
| 37> O  -20.473   25.807   47.535
| 38> H  -20.833   25.428   45.533
| 39> H  -19.344   27.382   45.576
| 40> H  -20.898   28.157   45.201
| 41> H  -19.543   28.978   47.434
| 42> H  -21.289   28.710   47.548
| 43> H  -20.733   27.082   49.195
| 44> H  -19.064   26.913   48.597
| 45> C  -23.061   27.816   46.783
| 46> H  -24.156   27.826   46.851
| 47> H  -22.654   28.089   47.765
| 48> O  -22.586   26.394   46.375
| 49> C  -22.623   28.909   45.770
| 50> C  -23.287   28.699   44.404
| 51> C  -24.702   29.276   44.651
| 52> C  -24.436   30.456   45.619
| 53> O  -23.097   30.228   46.203
| 54> H  -21.533   28.954   45.741
| 55> O  -22.541   29.522   43.318
| 56> H  -23.304   27.650   44.090
| 57> H  -25.196   29.596   43.728
| 58> H  -25.337   28.520   45.127
| 59> H  -25.174   30.511   46.425
| 60> H  -24.403   31.419   45.103
| 61> H  -22.512   30.578   43.611
| 62> *
| 63>
| 64>                          ****END OF INPUT****
 Total Charge           Charge          ....    0
 Multiplicity           Mult            ....    1
 Number of Electrons    NEL             ....  102
FINAL SINGLE POINT ENERGY      -652.764168643919
FINAL SINGLE POINT ENERGY      -652.824498366580
FINAL SINGLE POINT ENERGY      -652.846034797688
FINAL SINGLE POINT ENERGY      -652.850946770163
FINAL SINGLE POINT ENERGY      -652.851588294429
FINAL SINGLE POINT ENERGY      -652.851696749598
FINAL SINGLE POINT ENERGY      -652.851709399551
FINAL SINGLE POINT ENERGY      -652.851710511258
                    ***********************HURRAY********************

CARTESIAN COORDINATES (ANGSTROEM)
---------------------------------
  C    -21.167479   26.298519   46.428565
  C    -20.135946   27.334589   45.959006
  C    -19.819278   28.102297   47.276891
  C    -19.908502   26.979565   48.341807
  O    -20.661671   25.872338   47.713638
  H    -21.181714   25.400330   45.810347
  H    -19.247984   26.784735   45.628014
  H    -20.467256   27.963087   45.131420
  H    -18.831182   28.571456   47.255753
  H    -20.554457   28.889896   47.470879
  H    -20.426837   27.293415   49.252710
  H    -18.924583   26.584310   48.611094
  C    -23.185943   27.922281   46.770395
  H    -24.257092   27.707984   46.725345
  H    -22.956472   28.240427   47.796633
  O    -22.576466   26.629748   46.481468
  C    -22.839567   29.085088   45.832345
  C    -23.286573   28.909854   44.373959
  C    -24.790294   29.271039   44.463511
  C    -24.827167   30.386228   45.538442
  O    -23.548160   30.287648   46.290119
  H    -21.781882   29.336119   45.883167
  O    -22.546821   29.801151   43.494647
  H    -23.108937   27.905315   43.990374
  H    -25.166514   29.603735   43.492890
  H    -25.371493   28.396352   44.773056
  H    -25.660528   30.277037   46.238760
  H    -24.865788   31.389405   45.103241
  H    -22.530413   30.700054   43.886524

 Multiplicity           Mult            ....    1
 Number of Electrons    NEL             ....  102
 Basis Dimension        Dim             ....  149

ORBITAL ENERGIES
----------------

  NO   OCC          E(Eh)            E(eV)
   0   2.0000     -19.151547      -521.1401
   1   2.0000     -19.144258      -520.9417
   2   2.0000     -19.142798      -520.9020
   3   2.0000     -19.137961      -520.7704
   4   2.0000     -10.280262      -279.7401
   5   2.0000     -10.243885      -278.7503
   6   2.0000     -10.237661      -278.5809
   7   2.0000     -10.236976      -278.5623
   8   2.0000     -10.234828      -278.5038
   9   2.0000     -10.227323      -278.2996
  10   2.0000     -10.194118      -277.3961
  11   2.0000     -10.193418      -277.3770
  12   2.0000     -10.193126      -277.3690
  13   2.0000      -1.049102       -28.5475
  14   2.0000      -1.041624       -28.3440
  15   2.0000      -1.012044       -27.5391
  16   2.0000      -0.993368       -27.0309
  17   2.0000      -0.789752       -21.4902
  18   2.0000      -0.786666       -21.4063
  19   2.0000      -0.773917       -21.0594
  20   2.0000      -0.738005       -20.0821
  21   2.0000      -0.682148       -18.5622
  22   2.0000      -0.611392       -16.6368
  23   2.0000      -0.607644       -16.5348
  24   2.0000      -0.603223       -16.4145
  25   2.0000      -0.576011       -15.6741
  26   2.0000      -0.532728       -14.4963
  27   2.0000      -0.506815       -13.7911
  28   2.0000      -0.503694       -13.7062
  29   2.0000      -0.490567       -13.3490
  30   2.0000      -0.476757       -12.9732
  31   2.0000      -0.464418       -12.6374
  32   2.0000      -0.449338       -12.2271
  33   2.0000      -0.438836       -11.9413
  34   2.0000      -0.429385       -11.6842
  35   2.0000      -0.417841       -11.3700
  36   2.0000      -0.410803       -11.1785
  37   2.0000      -0.399431       -10.8691
  38   2.0000      -0.387031       -10.5316
  39   2.0000      -0.373639       -10.1672
  40   2.0000      -0.363180        -9.8826
  41   2.0000      -0.359803        -9.7907
  42   2.0000      -0.350375        -9.5342
  43   2.0000      -0.338135        -9.2011
  44   2.0000      -0.315375        -8.5818
  45   2.0000      -0.313705        -8.5363
  46   2.0000      -0.297102        -8.0846
  47   2.0000      -0.277351        -7.5471
  48   2.0000      -0.274115        -7.4590
  49   2.0000      -0.254347        -6.9211
  50   2.0000      -0.244246        -6.6463
  51   0.0000       0.057868         1.5747
  52   0.0000       0.067522         1.8374
  53   0.0000       0.082488         2.2446
  54   0.0000       0.093192         2.5359
  55   0.0000       0.100327         2.7300

MULLIKEN ATOMIC CHARGES
-----------------------
   0 C :    0.310439
   1 C :   -0.305670
   2 C :   -0.320037
   3 C :   -0.007004
   4 O :   -0.499276
   5 H :    0.166524
   6 H :    0.158649
   7 H :    0.166113
   8 H :    0.148267
   9 H :    0.156823
  10 H :    0.146333
  11 H :    0.145925
  12 C :   -0.005620
  13 H :    0.155710
  14 H :    0.145762
  15 O :   -0.529668
  16 C :    0.035358
  17 C :    0.090967
  18 C :   -0.306438
  19 C :   -0.028088
  20 O :   -0.528791
  21 H :    0.162994
  22 O :   -0.606820
  23 H :    0.168135
  24 H :    0.164118
  25 H :    0.156248
  26 H :    0.150097
  27 H :    0.145842
  28 H :    0.363110
Sum of atomic charges:   -0.0000000

LOEWDIN ATOMIC CHARGES
----------------------
   0 C :    0.179083
   1 C :   -0.235854
   2 C :   -0.225040
   3 C :   -0.031459
   4 O :   -0.317725
   5 H :    0.113264
   6 H :    0.124912
   7 H :    0.122956
   8 H :    0.117743
   9 H :    0.110819
  10 H :    0.103556
  11 H :    0.103567
  12 C :   -0.037994
  13 H :    0.115203
  14 H :    0.102972
  15 O :   -0.327814
  16 C :   -0.003382
  17 C :    0.035135
  18 C :   -0.240864
  19 C :   -0.037346
  20 O :   -0.329246
  21 H :    0.112400
  22 O :   -0.415522
  23 H :    0.122676
  24 H :    0.127798
  25 H :    0.119100
  26 H :    0.106066
  27 H :    0.102673
  28 H :    0.282323

  Mayer bond orders larger than 0.100000
B(  0-C ,  1-C ) :   0.9202 B(  0-C ,  4-O ) :   0.9054 B(  0-C ,  5-H ) :   0.9350
B(  0-C , 15-O ) :   0.8893 B(  1-C ,  2-C ) :   0.9520 B(  1-C ,  6-H ) :   0.9307
B(  1-C ,  7-H ) :   0.9207 B(  2-C ,  3-C ) :   0.9432 B(  2-C ,  8-H ) :   0.9454
B(  2-C ,  9-H ) :   0.9331 B(  3-C ,  4-O ) :   0.8483 B(  3-C , 10-H ) :   0.9345
B(  3-C , 11-H ) :   0.9385 B( 12-C , 13-H ) :   0.9389 B( 12-C , 14-H ) :   0.9148
B( 12-C , 15-O ) :   0.8460 B( 12-C , 16-C ) :   0.8732 B( 16-C , 17-C ) :   0.9019
B( 16-C , 20-O ) :   0.8311 B( 16-C , 21-H ) :   0.9115 B( 17-C , 18-C ) :   0.9166
B( 17-C , 22-O ) :   0.8826 B( 17-C , 23-H ) :   0.9267 B( 18-C , 19-C ) :   0.9398
B( 18-C , 24-H ) :   0.9371 B( 18-C , 25-H ) :   0.9324 B( 19-C , 20-O ) :   0.8431
B( 19-C , 26-H ) :   0.9351 B( 19-C , 27-H ) :   0.9384 B( 22-O , 28-H ) :   0.7967

FINAL SINGLE POINT ENERGY      -652.851709136127

DIPOLE MOMENT
-------------
                                X             Y             Z
Electronic contribution:     -0.76200      -2.18519      -0.12083
Nuclear contribution   :      0.71544       3.08991      -0.02115
                        -----------------------------------------
Total Dipole Moment    :     -0.04656       0.90472      -0.14198
                        -----------------------------------------
Magnitude (a.u.)       :      0.91698
Magnitude (Debye)      :      2.33077

Rotational constants in cm-1:     0.053101     0.014574     0.014188
Rotational constants in MHz :  1591.925727   436.919289   425.330882

                             ****ORCA TERMINATED NORMALLY****
TOTAL RUN TIME: 0 days 0 hours 28 minutes 31 seconds 110 msec
