                         Program Version 4.2.0 -  RELEASE  -
|  1> # Test redundant internal optimization
|  2> #
|  3> ! RKS B3LYP  Opt TightSCF SmallPrint
|  4>
|  5> %basis
|  6>         Basis "6-31G"
|  7> end
|  8>
|  9> %geom
| 10> Constraints
| 11> { D 4  0  15  12  270.0   C } # D for Dihedral angle
| 12> { D 0  15  12  16  165.0   C } # D for Dihedral angle
| 13> { D 0  4  3  2   C } # D for Dihedral angle
| 14> { D 4  3  2  1   C } # D for Dihedral angle
| 15> { D 3  2  1  0   C } # D for Dihedral angle
| 16> { D 2  1  0  4   C } # D for Dihedral angle
| 17> { D 1  0  4  3   C } # D for Dihedral angle
| 18> { D 16  20  19  18   C } # D for Dihedral angle
| 19> { D 20  19  18  17   C } # D for Dihedral angle
| 20> { D 19  18  17  16   C } # D for Dihedral angle
| 21> { D 18  17  16  20   C } # D for Dihedral angle
| 22> { D 17  16  20  19   C } # D for Dihedral angle
| 23> { D 15  12  16  20   C } # D for Dihedral angle
| 24> end
| 25> end
| 26>
| 27>
| 28> #%pal
| 29> #nprocs 8
| 30> #end
| 31>
| 32> * xyz 0 1
| 33> C  -21.048   26.222   46.251
| 34> C  -20.361   27.558   45.944
| 35> C  -20.329   28.222   47.341
| 36> C  -20.110   27.022   48.296
| 37> O  -20.473   25.807   47.535
| 38> H  -20.833   25.428   45.533
| 39> H  -19.344   27.382   45.576
| 40> H  -20.898   28.157   45.201
| 41> H  -19.543   28.978   47.434
| 42> H  -21.289   28.710   47.548
| 43> H  -20.733   27.082   49.195
| 44> H  -19.064   26.913   48.597
| 45> C  -23.420   25.119   46.072
| 46> H  -23.429   24.941   44.990
| 47> H  -22.972   24.243   46.560
| 48> O  -22.586   26.394   46.375
| 49> C  -24.890   25.232   46.562
| 50> C  -25.650   23.918   46.352
| 51> C  -25.153   23.074   47.550
| 52> C  -24.988   24.126   48.676
| 53> O  -24.932   25.446   48.012
| 54> H  -25.356   26.103   46.096
| 55> O  -27.180   24.164   46.451
| 56> H  -25.437   23.448   45.385
| 57> H  -25.850   22.276   47.825
| 58> H  -24.190   22.610   47.310
| 59> H  -24.070   23.978   49.256
| 60> H  -25.841   24.144   49.360
| 61> H  -27.415   24.634   47.412
| 62> *
| 63>
| 64>                          ****END OF INPUT****
 Total Charge           Charge          ....    0
 Multiplicity           Mult            ....    1
 Number of Electrons    NEL             ....  102
FINAL SINGLE POINT ENERGY      -652.834402923393
FINAL SINGLE POINT ENERGY      -652.858769374108
FINAL SINGLE POINT ENERGY      -652.862939607992
FINAL SINGLE POINT ENERGY      -652.863713969508
FINAL SINGLE POINT ENERGY      -652.863821525225
FINAL SINGLE POINT ENERGY      -652.863832249611
                    ***********************HURRAY********************

CARTESIAN COORDINATES (ANGSTROEM)
---------------------------------
  C    -21.082209   26.144574   46.199950
  C    -20.545693   27.555130   45.955410
  C    -20.570561   28.155599   47.380436
  C    -20.217072   26.946035   48.273908
  O    -20.462693   25.740672   47.442948
  H    -20.812611   25.391663   45.453073
  H    -19.519927   27.492662   45.573478
  H    -21.159189   28.109050   45.242121
  H    -19.864981   28.983148   47.501157
  H    -21.577063   28.518164   47.607103
  H    -20.836063   26.884508   49.172035
  H    -19.160322   26.919757   48.557084
  C    -23.266246   25.043518   46.044505
  H    -23.306680   24.872013   44.957777
  H    -22.777352   24.182676   46.519786
  O    -22.515956   26.252213   46.332112
  C    -24.679694   25.226925   46.587697
  C    -25.583113   24.000504   46.396021
  C    -25.177898   23.118020   47.606792
  C    -24.893696   24.160198   48.717535
  O    -24.693383   25.460517   48.033046
  H    -25.118147   26.119417   46.130913
  O    -26.986252   24.377448   46.449002
  H    -25.457093   23.499272   45.435072
  H    -25.982740   22.424968   47.864410
  H    -24.282311   22.533315   47.369945
  H    -23.999029   23.924144   49.301742
  H    -25.737498   24.283296   49.404290
  H    -27.118530   25.011595   47.185654

 Multiplicity           Mult            ....    1
 Number of Electrons    NEL             ....  102
 Basis Dimension        Dim             ....  149

ORBITAL ENERGIES
----------------

  NO   OCC          E(Eh)            E(eV)
   0   2.0000     -19.140394      -520.8366
   1   2.0000     -19.139118      -520.8019
   2   2.0000     -19.138650      -520.7891
   3   2.0000     -19.134030      -520.6634
   4   2.0000     -10.275764      -279.6177
   5   2.0000     -10.243220      -278.7322
   6   2.0000     -10.233674      -278.4724
   7   2.0000     -10.231837      -278.4224
   8   2.0000     -10.228562      -278.3333
   9   2.0000     -10.219301      -278.0813
  10   2.0000     -10.189204      -277.2623
  11   2.0000     -10.181044      -277.0403
  12   2.0000     -10.179427      -276.9963
  13   2.0000      -1.051165       -28.6037
  14   2.0000      -1.034890       -28.1608
  15   2.0000      -1.005430       -27.3591
  16   2.0000      -0.990534       -26.9538
  17   2.0000      -0.788407       -21.4536
  18   2.0000      -0.779298       -21.2058
  19   2.0000      -0.765555       -20.8318
  20   2.0000      -0.726742       -19.7756
  21   2.0000      -0.672024       -18.2867
  22   2.0000      -0.603866       -16.4320
  23   2.0000      -0.593890       -16.1606
  24   2.0000      -0.588369       -16.0103
  25   2.0000      -0.584117       -15.8946
  26   2.0000      -0.526590       -14.3292
  27   2.0000      -0.510044       -13.8790
  28   2.0000      -0.489855       -13.3296
  29   2.0000      -0.484287       -13.1781
  30   2.0000      -0.477463       -12.9924
  31   2.0000      -0.457347       -12.4451
  32   2.0000      -0.450416       -12.2564
  33   2.0000      -0.435433       -11.8487
  34   2.0000      -0.425762       -11.5856
  35   2.0000      -0.402247       -10.9457
  36   2.0000      -0.398580       -10.8459
  37   2.0000      -0.393187       -10.6992
  38   2.0000      -0.374082       -10.1793
  39   2.0000      -0.371215       -10.1013
  40   2.0000      -0.356741        -9.7074
  41   2.0000      -0.351134        -9.5548
  42   2.0000      -0.344175        -9.3655
  43   2.0000      -0.329536        -8.9671
  44   2.0000      -0.320938        -8.7332
  45   2.0000      -0.306414        -8.3379
  46   2.0000      -0.298698        -8.1280
  47   2.0000      -0.270942        -7.3727
  48   2.0000      -0.264448        -7.1960
  49   2.0000      -0.246038        -6.6950
  50   2.0000      -0.243117        -6.6155
  51   0.0000       0.067165         1.8277
  52   0.0000       0.084862         2.3092
  53   0.0000       0.090682         2.4676
  54   0.0000       0.100482         2.7342
  55   0.0000       0.107070         2.9135

MULLIKEN ATOMIC CHARGES
-----------------------
   0 C :    0.282647
   1 C :   -0.256626
   2 C :   -0.299186
   3 C :    0.000131
   4 O :   -0.509970
   5 H :    0.136532
   6 H :    0.141630
   7 H :    0.152397
   8 H :    0.137743
   9 H :    0.170155
  10 H :    0.153287
  11 H :    0.138191
  12 C :    0.001944
  13 H :    0.126349
  14 H :    0.142409
  15 O :   -0.509918
  16 C :    0.062706
  17 C :    0.077226
  18 C :   -0.298311
  19 C :   -0.030697
  20 O :   -0.508417
  21 H :    0.169196
  22 O :   -0.601627
  23 H :    0.149385
  24 H :    0.162860
  25 H :    0.146523
  26 H :    0.153603
  27 H :    0.144606
  28 H :    0.365232
Sum of atomic charges:   -0.0000000

LOEWDIN ATOMIC CHARGES
----------------------
   0 C :    0.172482
   1 C :   -0.216228
   2 C :   -0.215700
   3 C :   -0.026163
   4 O :   -0.328607
   5 H :    0.095950
   6 H :    0.111902
   7 H :    0.121802
   8 H :    0.111982
   9 H :    0.123117
  10 H :    0.108840
  11 H :    0.100389
  12 C :   -0.042338
  13 H :    0.094057
  14 H :    0.101138
  15 O :   -0.320194
  16 C :    0.018064
  17 C :    0.035686
  18 C :   -0.241894
  19 C :   -0.039114
  20 O :   -0.319413
  21 H :    0.120287
  22 O :   -0.414046
  23 H :    0.114246
  24 H :    0.126563
  25 H :    0.113825
  26 H :    0.107968
  27 H :    0.101655
  28 H :    0.283746

  Mayer bond orders larger than 0.100000
B(  0-C ,  1-C ) :   0.9483 B(  0-C ,  4-O ) :   0.9157 B(  0-C ,  5-H ) :   0.9197
B(  0-C , 15-O ) :   0.8601 B(  1-C ,  2-C ) :   0.9578 B(  1-C ,  6-H ) :   0.9403
B(  1-C ,  7-H ) :   0.9372 B(  2-C ,  3-C ) :   0.9557 B(  2-C ,  8-H ) :   0.9454
B(  2-C ,  9-H ) :   0.9423 B(  3-C ,  4-O ) :   0.8357 B(  3-C , 10-H ) :   0.9348
B(  3-C , 11-H ) :   0.9403 B( 12-C , 13-H ) :   0.9121 B( 12-C , 14-H ) :   0.9139
B( 12-C , 15-O ) :   0.8411 B( 12-C , 16-C ) :   0.9022 B( 16-C , 17-C ) :   0.9010
B( 16-C , 20-O ) :   0.8707 B( 16-C , 21-H ) :   0.9233 B( 17-C , 18-C ) :   0.9108
B( 17-C , 22-O ) :   0.8941 B( 17-C , 23-H ) :   0.9337 B( 18-C , 19-C ) :   0.9416
B( 18-C , 24-H ) :   0.9373 B( 18-C , 25-H ) :   0.9332 B( 19-C , 20-O ) :   0.8503
B( 19-C , 26-H ) :   0.9330 B( 19-C , 27-H ) :   0.9375 B( 22-O , 28-H ) :   0.7938

FINAL SINGLE POINT ENERGY      -652.863834413203

DIPOLE MOMENT
-------------
                                X             Y             Z
Electronic contribution:     -2.98183      -0.51378      -0.70424
Nuclear contribution   :      3.52626       0.38207       0.61225
                        -----------------------------------------
Total Dipole Moment    :      0.54443      -0.13170      -0.09199
                        -----------------------------------------
Magnitude (a.u.)       :      0.56763
Magnitude (Debye)      :      1.44281

Rotational constants in cm-1:     0.062224     0.012297     0.011659
Rotational constants in MHz :  1865.430219   368.640060   349.532841

                             ****ORCA TERMINATED NORMALLY****
TOTAL RUN TIME: 0 days 0 hours 58 minutes 0 seconds 821 msec
