                         Program Version 4.2.0 -  RELEASE  -
|  1> # Test redundant internal optimization
|  2> #
|  3> ! RKS B3LYP  Opt TightSCF SmallPrint
|  4>
|  5> %basis
|  6>         Basis "6-31G"
|  7> end
|  8>
|  9> %geom
| 10> Constraints
| 11> { D 4  0  15  12  0.0   C } # D for Dihedral angle
| 12> { D 0  15  12  16  120.0   C } # D for Dihedral angle
| 13> { D 0  4  3  2   C } # D for Dihedral angle
| 14> { D 4  3  2  1   C } # D for Dihedral angle
| 15> { D 3  2  1  0   C } # D for Dihedral angle
| 16> { D 2  1  0  4   C } # D for Dihedral angle
| 17> { D 1  0  4  3   C } # D for Dihedral angle
| 18> { D 16  20  19  18   C } # D for Dihedral angle
| 19> { D 20  19  18  17   C } # D for Dihedral angle
| 20> { D 19  18  17  16   C } # D for Dihedral angle
| 21> { D 18  17  16  20   C } # D for Dihedral angle
| 22> { D 17  16  20  19   C } # D for Dihedral angle
| 23> { D 15  12  16  20   C } # D for Dihedral angle
| 24> end
| 25> end
| 26>
| 27>
| 28> #%pal
| 29> #nprocs 8
| 30> #end
| 31>
| 32> * xyz 0 1
| 33> C  -21.048   26.222   46.251
| 34> C  -20.361   27.558   45.944
| 35> C  -20.329   28.222   47.341
| 36> C  -20.110   27.022   48.296
| 37> O  -20.473   25.807   47.535
| 38> H  -20.833   25.428   45.533
| 39> H  -19.344   27.382   45.576
| 40> H  -20.898   28.157   45.201
| 41> H  -19.543   28.978   47.434
| 42> H  -21.289   28.710   47.548
| 43> H  -20.733   27.082   49.195
| 44> H  -19.064   26.913   48.597
| 45> C  -23.172   26.101   47.783
| 46> H  -23.891   25.276   47.711
| 47> H  -22.375   25.801   48.476
| 48> O  -22.586   26.394   46.375
| 49> C  -23.897   27.329   48.400
| 50> C  -24.360   27.041   49.832
| 51> C  -23.047   27.222   50.629
| 52> C  -22.333   28.370   49.873
| 53> O  -22.968   28.455   48.541
| 54> H  -24.692   27.652   47.724
| 55> H  -25.107   27.780   50.143
| 56> O  -24.976   25.625   50.001
| 57> H  -23.219   27.461   51.683
| 58> H  -22.451   26.303   50.587
| 59> H  -21.260   28.186   49.747
| 60> H  -22.472   29.340   50.359
| 61> H  -24.247   24.866   49.697
| 62> *
| 63>
| 64>                          ****END OF INPUT****
 Total Charge           Charge          ....    0
 Multiplicity           Mult            ....    1
 Number of Electrons    NEL             ....  102
FINAL SINGLE POINT ENERGY      -652.805204767025
FINAL SINGLE POINT ENERGY      -652.833143158128
FINAL SINGLE POINT ENERGY      -652.851668466094
FINAL SINGLE POINT ENERGY      -652.854813130117
FINAL SINGLE POINT ENERGY      -652.855281212447
FINAL SINGLE POINT ENERGY      -652.855396429717
FINAL SINGLE POINT ENERGY      -652.855406340114
FINAL SINGLE POINT ENERGY      -652.855406840721
                    ***********************HURRAY********************

CARTESIAN COORDINATES (ANGSTROEM)
---------------------------------
  C    -21.071392   26.258604   46.268953
  C    -20.433736   27.588468   45.862780
  C    -20.098615   28.213393   47.238789
  C    -19.715356   26.988228   48.096089
  O    -20.267429   25.803806   47.377130
  H    -20.980033   25.481484   45.504365
  H    -19.528313   27.381740   45.280209
  H    -21.112909   28.203295   45.268124
  H    -19.283903   28.942330   47.179220
  H    -20.990847   28.699538   47.637798
  H    -20.134201   27.009438   49.105585
  H    -18.634660   26.828834   48.161910
  C    -23.092389   26.058751   47.809190
  H    -23.844121   25.278021   47.641588
  H    -22.314983   25.658543   48.474008
  O    -22.500923   26.376113   46.524627
  C    -23.807169   27.267075   48.422810
  C    -24.475058   26.987850   49.781566
  C    -23.303643   27.255249   50.774687
  C    -22.542562   28.416158   50.100954
  O    -22.969814   28.437285   48.674501
  H    -24.541274   27.609240   47.685655
  H    -25.281409   27.706148   49.942911
  O    -25.109974   25.695310   49.917323
  H    -23.658157   27.503120   51.777991
  H    -22.677065   26.355763   50.847493
  H    -21.455321   28.305732   50.151516
  H    -22.814200   29.388089   50.523779
  H    -24.438539   24.985394   49.980451

 Multiplicity           Mult            ....    1
 Number of Electrons    NEL             ....  102
 Basis Dimension        Dim             ....  149

ORBITAL ENERGIES
----------------

  NO   OCC          E(Eh)            E(eV)
   0   2.0000     -19.151982      -521.1519
   1   2.0000     -19.147993      -521.0434
   2   2.0000     -19.147888      -521.0405
   3   2.0000     -19.132269      -520.6155
   4   2.0000     -10.274625      -279.5868
   5   2.0000     -10.248141      -278.8661
   6   2.0000     -10.237894      -278.5873
   7   2.0000     -10.231192      -278.4049
   8   2.0000     -10.228052      -278.3194
   9   2.0000     -10.227845      -278.3138
  10   2.0000     -10.199521      -277.5431
  11   2.0000     -10.177639      -276.9476
  12   2.0000     -10.174710      -276.8679
  13   2.0000      -1.049897       -28.5692
  14   2.0000      -1.037346       -28.2276
  15   2.0000      -1.021030       -27.7836
  16   2.0000      -0.989068       -26.9139
  17   2.0000      -0.787922       -21.4405
  18   2.0000      -0.781961       -21.2782
  19   2.0000      -0.767971       -20.8976
  20   2.0000      -0.733645       -19.9635
  21   2.0000      -0.679594       -18.4927
  22   2.0000      -0.616329       -16.7712
  23   2.0000      -0.600217       -16.3327
  24   2.0000      -0.589941       -16.0531
  25   2.0000      -0.569109       -15.4863
  26   2.0000      -0.528287       -14.3754
  27   2.0000      -0.515085       -14.0162
  28   2.0000      -0.495614       -13.4863
  29   2.0000      -0.488140       -13.2830
  30   2.0000      -0.473639       -12.8884
  31   2.0000      -0.462428       -12.5833
  32   2.0000      -0.443436       -12.0665
  33   2.0000      -0.436019       -11.8647
  34   2.0000      -0.429731       -11.6936
  35   2.0000      -0.416203       -11.3255
  36   2.0000      -0.406999       -11.0750
  37   2.0000      -0.394309       -10.7297
  38   2.0000      -0.384289       -10.4570
  39   2.0000      -0.366627        -9.9764
  40   2.0000      -0.358037        -9.7427
  41   2.0000      -0.351192        -9.5564
  42   2.0000      -0.346138        -9.4189
  43   2.0000      -0.332371        -9.0443
  44   2.0000      -0.328318        -8.9340
  45   2.0000      -0.315390        -8.5822
  46   2.0000      -0.298148        -8.1130
  47   2.0000      -0.274008        -7.4561
  48   2.0000      -0.266208        -7.2439
  49   2.0000      -0.258428        -7.0322
  50   2.0000      -0.233471        -6.3531
  51   0.0000       0.048628         1.3232
  52   0.0000       0.060696         1.6516
  53   0.0000       0.087807         2.3894
  54   0.0000       0.094502         2.5715
  55   0.0000       0.100438         2.7331

MULLIKEN ATOMIC CHARGES
-----------------------
   0 C :    0.311586
   1 C :   -0.260568
   2 C :   -0.330335
   3 C :   -0.025135
   4 O :   -0.517521
   5 H :    0.152896
   6 H :    0.140512
   7 H :    0.160589
   8 H :    0.135632
   9 H :    0.207897
  10 H :    0.134643
  11 H :    0.148948
  12 C :   -0.031723
  13 H :    0.149117
  14 H :    0.143102
  15 O :   -0.537976
  16 C :    0.101811
  17 C :    0.082107
  18 C :   -0.319133
  19 C :   -0.020709
  20 O :   -0.513794
  21 H :    0.166063
  22 H :    0.169404
  23 O :   -0.596126
  24 H :    0.159956
  25 H :    0.136308
  26 H :    0.142651
  27 H :    0.152212
  28 H :    0.357585
Sum of atomic charges:   -0.0000000

LOEWDIN ATOMIC CHARGES
----------------------
   0 C :    0.187468
   1 C :   -0.218676
   2 C :   -0.233016
   3 C :   -0.032441
   4 O :   -0.321507
   5 H :    0.100825
   6 H :    0.111371
   7 H :    0.126447
   8 H :    0.111739
   9 H :    0.137199
  10 H :    0.094355
  11 H :    0.104707
  12 C :   -0.051577
  13 H :    0.109327
  14 H :    0.101509
  15 O :   -0.336968
  16 C :    0.012620
  17 C :    0.035852
  18 C :   -0.239482
  19 C :   -0.033761
  20 O :   -0.315291
  21 H :    0.118772
  22 H :    0.119975
  23 O :   -0.403868
  24 H :    0.124248
  25 H :    0.105535
  26 H :    0.098478
  27 H :    0.107081
  28 H :    0.279083

  Mayer bond orders larger than 0.100000
B(  0-C ,  1-C ) :   0.9288 B(  0-C ,  4-O ) :   0.9097 B(  0-C ,  5-H ) :   0.9318
B(  0-C , 15-O ) :   0.8467 B(  1-C ,  2-C ) :   0.9569 B(  1-C ,  6-H ) :   0.9364
B(  1-C ,  7-H ) :   0.9359 B(  2-C ,  3-C ) :   0.9565 B(  2-C ,  8-H ) :   0.9441
B(  2-C ,  9-H ) :   0.9045 B(  3-C ,  4-O ) :   0.8252 B(  3-C , 10-H ) :   0.9262
B(  3-C , 11-H ) :   0.9403 B( 12-C , 13-H ) :   0.9136 B( 12-C , 14-H ) :   0.9104
B( 12-C , 15-O ) :   0.8517 B( 12-C , 16-C ) :   0.8982 B( 16-C , 17-C ) :   0.8671
B( 16-C , 20-O ) :   0.8499 B( 16-C , 21-H ) :   0.9296 B( 17-C , 18-C ) :   0.9198
B( 17-C , 22-H ) :   0.9327 B( 17-C , 23-O ) :   0.9041 B( 18-C , 19-C ) :   0.9435
B( 18-C , 24-H ) :   0.9418 B( 18-C , 25-H ) :   0.9407 B( 19-C , 20-O ) :   0.8400
B( 19-C , 26-H ) :   0.9190 B( 19-C , 27-H ) :   0.9378 B( 23-O , 28-H ) :   0.7968

FINAL SINGLE POINT ENERGY      -652.855405768289

DIPOLE MOMENT
-------------
                                X             Y             Z
Electronic contribution:     -3.64096      -2.72800      -2.33041
Nuclear contribution   :      4.39130       3.04197       3.25129
                        -----------------------------------------
Total Dipole Moment    :      0.75034       0.31397       0.92088
                        -----------------------------------------
Magnitude (a.u.)       :      1.22866
Magnitude (Debye)      :      3.12302

Rotational constants in cm-1:     0.046507     0.017712     0.015632
Rotational constants in MHz :  1394.239989   530.985875   468.634819

                             ****ORCA TERMINATED NORMALLY****
TOTAL RUN TIME: 0 days 0 hours 29 minutes 16 seconds 388 msec
