                         Program Version 4.2.0 -  RELEASE  -
|  1> # Test redundant internal optimization
|  2> #
|  3> ! RKS B3LYP  Opt TightSCF SmallPrint
|  4>
|  5> %basis
|  6>         Basis "6-31G"
|  7> end
|  8>
|  9> %geom
| 10> Constraints
| 11> { D 4  0  15  12  240.0   C } # D for Dihedral angle
| 12> { D 0  15  12  16  165.0   C } # D for Dihedral angle
| 13> { D 0  4  3  2   C } # D for Dihedral angle
| 14> { D 4  3  2  1   C } # D for Dihedral angle
| 15> { D 3  2  1  0   C } # D for Dihedral angle
| 16> { D 2  1  0  4   C } # D for Dihedral angle
| 17> { D 1  0  4  3   C } # D for Dihedral angle
| 18> { D 16  20  19  18   C } # D for Dihedral angle
| 19> { D 20  19  18  17   C } # D for Dihedral angle
| 20> { D 19  18  17  16   C } # D for Dihedral angle
| 21> { D 18  17  16  20   C } # D for Dihedral angle
| 22> { D 17  16  20  19   C } # D for Dihedral angle
| 23> { D 15  12  16  20   C } # D for Dihedral angle
| 24> end
| 25> end
| 26>
| 27>
| 28> #%pal
| 29> #nprocs 8
| 30> #end
| 31>
| 32> * xyz 0 1
| 33> C  -21.048   26.222   46.251
| 34> C  -20.361   27.558   45.944
| 35> C  -20.329   28.222   47.341
| 36> C  -20.110   27.022   48.296
| 37> O  -20.473   25.807   47.535
| 38> H  -20.833   25.428   45.533
| 39> H  -19.344   27.382   45.576
| 40> H  -20.898   28.157   45.201
| 41> H  -19.543   28.978   47.434
| 42> H  -21.289   28.710   47.548
| 43> H  -20.733   27.082   49.195
| 44> H  -19.064   26.913   48.597
| 45> C  -23.430   25.483   45.442
| 46> H  -23.372   25.864   44.415
| 47> H  -23.038   24.457   45.450
| 48> O  -22.586   26.394   46.375
| 49> C  -24.926   25.420   45.857
| 50> C  -25.703   24.424   44.988
| 51> C  -25.308   23.073   45.630
| 52> C  -25.191   23.420   47.136
| 53> O  -25.058   24.891   47.219
| 54> H  -25.338   26.431   45.865
| 55> O  -27.230   24.673   45.128
| 56> H  -25.439   24.483   43.927
| 57> H  -26.042   22.283   45.441
| 58> H  -24.343   22.736   45.235
| 59> H  -24.317   22.955   47.606
| 60> H  -26.086   23.144   47.699
| 61> H  -27.516   24.618   46.184
| 62> *
| 63>
| 64>                          ****END OF INPUT****
 Total Charge           Charge          ....    0
 Multiplicity           Mult            ....    1
 Number of Electrons    NEL             ....  102
FINAL SINGLE POINT ENERGY      -652.831296989263
FINAL SINGLE POINT ENERGY      -652.854691105418
FINAL SINGLE POINT ENERGY      -652.858532383222
FINAL SINGLE POINT ENERGY      -652.859261689062
FINAL SINGLE POINT ENERGY      -652.859356157428
FINAL SINGLE POINT ENERGY      -652.859364743959
                    ***********************HURRAY********************

CARTESIAN COORDINATES (ANGSTROEM)
---------------------------------
  C    -21.060052   26.166266   46.171047
  C    -20.483457   27.561815   45.935882
  C    -20.556044   28.180330   47.352399
  C    -20.267226   26.972919   48.271360
  O    -20.504710   25.766180   47.439157
  H    -20.772572   25.403681   45.440755
  H    -19.442710   27.477098   45.600498
  H    -21.050701   28.124052   45.190384
  H    -19.840132   28.995280   47.494045
  H    -21.563982   28.565842   47.531969
  H    -20.924684   26.930232   49.142801
  H    -19.224119   26.927065   48.599003
  C    -23.273779   25.410457   45.378468
  H    -23.257371   25.798366   44.347459
  H    -22.847747   24.396147   45.372404
  O    -22.504574   26.264620   46.258540
  C    -24.715428   25.388472   45.880057
  C    -25.641462   24.478371   45.060660
  C    -25.354491   23.088468   45.687050
  C    -25.117376   23.422599   47.181136
  O    -24.825850   24.875085   47.245478
  H    -25.089859   26.416454   45.908986
  O    -27.031986   24.867439   45.230389
  H    -25.463134   24.513087   43.984683
  H    -26.198259   22.412176   45.527191
  H    -24.463923   22.641462   45.231145
  H    -24.275215   22.872206   47.610873
  H    -26.003676   23.243081   47.797966
  H    -27.193483   25.070751   46.176216

 Multiplicity           Mult            ....    1
 Number of Electrons    NEL             ....  102
 Basis Dimension        Dim             ....  149

ORBITAL ENERGIES
----------------

  NO   OCC          E(Eh)            E(eV)
   0   2.0000     -19.139361      -520.8085
   1   2.0000     -19.138968      -520.7978
   2   2.0000     -19.138331      -520.7805
   3   2.0000     -19.133910      -520.6602
   4   2.0000     -10.276973      -279.6506
   5   2.0000     -10.243661      -278.7442
   6   2.0000     -10.235241      -278.5151
   7   2.0000     -10.234380      -278.4916
   8   2.0000     -10.228408      -278.3291
   9   2.0000     -10.219494      -278.0866
  10   2.0000     -10.189840      -277.2797
  11   2.0000     -10.182351      -277.0758
  12   2.0000     -10.181173      -277.0438
  13   2.0000      -1.049888       -28.5689
  14   2.0000      -1.035290       -28.1717
  15   2.0000      -1.005853       -27.3707
  16   2.0000      -0.991236       -26.9729
  17   2.0000      -0.788088       -21.4450
  18   2.0000      -0.780137       -21.2286
  19   2.0000      -0.766693       -20.8628
  20   2.0000      -0.727711       -19.8020
  21   2.0000      -0.673389       -18.3239
  22   2.0000      -0.604218       -16.4416
  23   2.0000      -0.594304       -16.1718
  24   2.0000      -0.589767       -16.0484
  25   2.0000      -0.585932       -15.9440
  26   2.0000      -0.526234       -14.3196
  27   2.0000      -0.510906       -13.9025
  28   2.0000      -0.491897       -13.3852
  29   2.0000      -0.485062       -13.1992
  30   2.0000      -0.476633       -12.9699
  31   2.0000      -0.458319       -12.4715
  32   2.0000      -0.451835       -12.2950
  33   2.0000      -0.434794       -11.8313
  34   2.0000      -0.429581       -11.6895
  35   2.0000      -0.404451       -11.0057
  36   2.0000      -0.399284       -10.8651
  37   2.0000      -0.393298       -10.7022
  38   2.0000      -0.373764       -10.1706
  39   2.0000      -0.371746       -10.1157
  40   2.0000      -0.355834        -9.6827
  41   2.0000      -0.352791        -9.5999
  42   2.0000      -0.347780        -9.4636
  43   2.0000      -0.331021        -9.0075
  44   2.0000      -0.313226        -8.5233
  45   2.0000      -0.307100        -8.3566
  46   2.0000      -0.302442        -8.2299
  47   2.0000      -0.271446        -7.3864
  48   2.0000      -0.261825        -7.1246
  49   2.0000      -0.244289        -6.6474
  50   2.0000      -0.242757        -6.6058
  51   0.0000       0.066575         1.8116
  52   0.0000       0.082561         2.2466
  53   0.0000       0.088094         2.3972
  54   0.0000       0.100439         2.7331
  55   0.0000       0.105522         2.8714

MULLIKEN ATOMIC CHARGES
-----------------------
   0 C :    0.284937
   1 C :   -0.252367
   2 C :   -0.300163
   3 C :    0.000021
   4 O :   -0.501435
   5 H :    0.136187
   6 H :    0.140601
   7 H :    0.144459
   8 H :    0.139016
   9 H :    0.165759
  10 H :    0.156007
  11 H :    0.138126
  12 C :    0.002466
  13 H :    0.124780
  14 H :    0.133123
  15 O :   -0.508620
  16 C :    0.065491
  17 C :    0.075350
  18 C :   -0.300096
  19 C :   -0.029349
  20 O :   -0.505903
  21 H :    0.169377
  22 O :   -0.602654
  23 H :    0.150776
  24 H :    0.164528
  25 H :    0.142554
  26 H :    0.154527
  27 H :    0.145950
  28 H :    0.366552
Sum of atomic charges:   -0.0000000

LOEWDIN ATOMIC CHARGES
----------------------
   0 C :    0.176080
   1 C :   -0.220941
   2 C :   -0.216320
   3 C :   -0.025891
   4 O :   -0.315753
   5 H :    0.097014
   6 H :    0.111148
   7 H :    0.117390
   8 H :    0.112821
   9 H :    0.121011
  10 H :    0.110203
  11 H :    0.100465
  12 C :   -0.040034
  13 H :    0.091908
  14 H :    0.095318
  15 O :   -0.324038
  16 C :    0.017890
  17 C :    0.034755
  18 C :   -0.242442
  19 C :   -0.038214
  20 O :   -0.317139
  21 H :    0.120751
  22 O :   -0.414617
  23 H :    0.114493
  24 H :    0.127120
  25 H :    0.111912
  26 H :    0.108367
  27 H :    0.102322
  28 H :    0.284421

  Mayer bond orders larger than 0.100000
B(  0-C ,  1-C ) :   0.9429 B(  0-C ,  4-O ) :   0.9308 B(  0-C ,  5-H ) :   0.9197
B(  0-C , 15-O ) :   0.8439 B(  1-C ,  2-C ) :   0.9578 B(  1-C ,  6-H ) :   0.9372
B(  1-C ,  7-H ) :   0.9387 B(  2-C ,  3-C ) :   0.9547 B(  2-C ,  8-H ) :   0.9453
B(  2-C ,  9-H ) :   0.9429 B(  3-C ,  4-O ) :   0.8374 B(  3-C , 10-H ) :   0.9340
B(  3-C , 11-H ) :   0.9399 B( 12-C , 13-H ) :   0.9105 B( 12-C , 14-H ) :   0.9131
B( 12-C , 15-O ) :   0.8468 B( 12-C , 16-C ) :   0.9015 B( 16-C , 17-C ) :   0.9010
B( 16-C , 20-O ) :   0.8725 B( 16-C , 21-H ) :   0.9234 B( 17-C , 18-C ) :   0.9104
B( 17-C , 22-O ) :   0.8952 B( 17-C , 23-H ) :   0.9324 B( 18-C , 19-C ) :   0.9404
B( 18-C , 24-H ) :   0.9370 B( 18-C , 25-H ) :   0.9340 B( 19-C , 20-O ) :   0.8506
B( 19-C , 26-H ) :   0.9330 B( 19-C , 27-H ) :   0.9374 B( 22-O , 28-H ) :   0.7929

FINAL SINGLE POINT ENERGY      -652.859366824657

DIPOLE MOMENT
-------------
                                X             Y             Z
Electronic contribution:     -2.89880      -0.74054       0.77659
Nuclear contribution   :      3.45297       0.69445      -1.30830
                        -----------------------------------------
Total Dipole Moment    :      0.55418      -0.04609      -0.53171
                        -----------------------------------------
Magnitude (a.u.)       :      0.76938
Magnitude (Debye)      :      1.95562

Rotational constants in cm-1:     0.064787     0.011567     0.011007
Rotational constants in MHz :  1942.277300   346.774590   329.974385

                             ****ORCA TERMINATED NORMALLY****
TOTAL RUN TIME: 0 days 0 hours 21 minutes 18 seconds 696 msec
