                         Program Version 4.2.0 -  RELEASE  -
|  1> # Test redundant internal optimization
|  2> #
|  3> ! RKS B3LYP  Opt TightSCF SmallPrint
|  4>
|  5> %basis
|  6>         Basis "6-31G"
|  7> end
|  8>
|  9> %geom
| 10> Constraints
| 11> { D 4  0  15  12  270.0   C } # D for Dihedral angle
| 12> { D 0  15  12  16  120.0   C } # D for Dihedral angle
| 13> { D 0  4  3  2   C } # D for Dihedral angle
| 14> { D 4  3  2  1   C } # D for Dihedral angle
| 15> { D 3  2  1  0   C } # D for Dihedral angle
| 16> { D 2  1  0  4   C } # D for Dihedral angle
| 17> { D 1  0  4  3   C } # D for Dihedral angle
| 18> { D 16  20  19  18   C } # D for Dihedral angle
| 19> { D 20  19  18  17   C } # D for Dihedral angle
| 20> { D 19  18  17  16   C } # D for Dihedral angle
| 21> { D 18  17  16  20   C } # D for Dihedral angle
| 22> { D 17  16  20  19   C } # D for Dihedral angle
| 23> { D 15  12  16  20   C } # D for Dihedral angle
| 24> end
| 25> end
| 26>
| 27>
| 28> #%pal
| 29> #nprocs 8
| 30> #end
| 31>
| 32> * xyz 0 1
| 33> C  -21.048   26.222   46.251
| 34> C  -20.361   27.558   45.944
| 35> C  -20.329   28.222   47.341
| 36> C  -20.110   27.022   48.296
| 37> O  -20.473   25.807   47.535
| 38> H  -20.833   25.428   45.533
| 39> H  -19.344   27.382   45.576
| 40> H  -20.898   28.157   45.201
| 41> H  -19.543   28.978   47.434
| 42> H  -21.289   28.710   47.548
| 43> H  -20.733   27.082   49.195
| 44> H  -19.064   26.913   48.597
| 45> C  -23.420   25.119   46.072
| 46> H  -24.087   25.316   45.224
| 47> H  -22.760   24.284   45.803
| 48> O  -22.586   26.394   46.375
| 49> C  -24.285   24.666   47.281
| 50> C  -25.003   23.344   46.987
| 51> C  -23.871   22.315   47.215
| 52> C  -23.061   22.936   48.381
| 53> O  -23.434   24.366   48.437
| 54> H  -24.946   25.485   47.574
| 55> O  -26.156   23.126   48.005
| 56> H  -25.422   23.298   45.976
| 57> H  -24.248   21.315   47.455
| 58> H  -23.250   22.232   46.315
| 59> H  -21.979   22.854   48.230
| 60> H  -23.318   22.497   49.349
| 61> H  -25.759   23.169   49.025
| 62> *
| 63>
| 64>                          ****END OF INPUT****
 Total Charge           Charge          ....    0
 Multiplicity           Mult            ....    1
 Number of Electrons    NEL             ....  102
FINAL SINGLE POINT ENERGY      -652.834399117548
FINAL SINGLE POINT ENERGY      -652.857955473546
FINAL SINGLE POINT ENERGY      -652.861994420949
FINAL SINGLE POINT ENERGY      -652.862697027267
FINAL SINGLE POINT ENERGY      -652.862780406776
FINAL SINGLE POINT ENERGY      -652.862791275365
FINAL SINGLE POINT ENERGY      -652.862793754475
                    ***********************HURRAY********************

CARTESIAN COORDINATES (ANGSTROEM)
---------------------------------
  C    -21.049594   26.153026   46.202560
  C    -20.506401   27.563617   45.976714
  C    -20.518780   28.144507   47.410901
  C    -20.166657   26.917358   48.282164
  O    -20.425848   25.729961   47.432326
  H    -20.790462   25.406557   45.445173
  H    -19.482195   27.500666   45.590226
  H    -21.118568   28.131818   45.273759
  H    -19.807063   28.965673   47.538896
  H    -21.521412   28.510516   47.649262
  H    -20.782253   26.838745   49.180751
  H    -19.108189   26.880973   48.558069
  C    -23.286827   25.103865   46.020955
  H    -23.968018   25.361444   45.199154
  H    -22.640818   24.278095   45.694158
  O    -22.486000   26.276120   46.320793
  C    -24.107710   24.698505   47.248090
  C    -24.936394   23.424727   47.028095
  C    -23.883421   22.313026   47.281554
  C    -23.002559   22.920564   48.402923
  O    -23.261688   24.379471   48.396711
  H    -24.735378   25.542256   47.548534
  O    -26.034149   23.349331   47.979867
  H    -25.403947   23.361843   46.044169
  H    -24.371857   21.381536   47.576414
  H    -23.299986   22.123866   46.373309
  H    -21.933080   22.758070   48.243055
  H    -23.271973   22.547198   49.396073
  H    -25.708771   23.633663   48.860346

 Multiplicity           Mult            ....    1
 Number of Electrons    NEL             ....  102
 Basis Dimension        Dim             ....  149

ORBITAL ENERGIES
----------------

  NO   OCC          E(Eh)            E(eV)
   0   2.0000     -19.139674      -520.8170
   1   2.0000     -19.136820      -520.7394
   2   2.0000     -19.136269      -520.7244
   3   2.0000     -19.130901      -520.5783
   4   2.0000     -10.275455      -279.6094
   5   2.0000     -10.241011      -278.6721
   6   2.0000     -10.232205      -278.4324
   7   2.0000     -10.230425      -278.3840
   8   2.0000     -10.225159      -278.2407
   9   2.0000     -10.216484      -278.0047
  10   2.0000     -10.187439      -277.2143
  11   2.0000     -10.179789      -277.0062
  12   2.0000     -10.178646      -276.9750
  13   2.0000      -1.048612       -28.5342
  14   2.0000      -1.032728       -28.1020
  15   2.0000      -1.003209       -27.2987
  16   2.0000      -0.989326       -26.9209
  17   2.0000      -0.786544       -21.4029
  18   2.0000      -0.777591       -21.1593
  19   2.0000      -0.762920       -20.7601
  20   2.0000      -0.725932       -19.7536
  21   2.0000      -0.670890       -18.2559
  22   2.0000      -0.601220       -16.3600
  23   2.0000      -0.591806       -16.1038
  24   2.0000      -0.589355       -16.0372
  25   2.0000      -0.583078       -15.8664
  26   2.0000      -0.523442       -14.2436
  27   2.0000      -0.509605       -13.8671
  28   2.0000      -0.489454       -13.3187
  29   2.0000      -0.482313       -13.1244
  30   2.0000      -0.473953       -12.8969
  31   2.0000      -0.455111       -12.3842
  32   2.0000      -0.449665       -12.2360
  33   2.0000      -0.431618       -11.7449
  34   2.0000      -0.425381       -11.5752
  35   2.0000      -0.404560       -11.0086
  36   2.0000      -0.395468       -10.7612
  37   2.0000      -0.390362       -10.6223
  38   2.0000      -0.372412       -10.1338
  39   2.0000      -0.369531       -10.0555
  40   2.0000      -0.351816        -9.5734
  41   2.0000      -0.349322        -9.5055
  42   2.0000      -0.342846        -9.3293
  43   2.0000      -0.330765        -9.0006
  44   2.0000      -0.317957        -8.6520
  45   2.0000      -0.302579        -8.2336
  46   2.0000      -0.298489        -8.1223
  47   2.0000      -0.269628        -7.3369
  48   2.0000      -0.265159        -7.2153
  49   2.0000      -0.247925        -6.7464
  50   2.0000      -0.233698        -6.3593
  51   0.0000       0.069039         1.8787
  52   0.0000       0.085631         2.3302
  53   0.0000       0.090129         2.4525
  54   0.0000       0.103457         2.8152
  55   0.0000       0.110633         3.0105

MULLIKEN ATOMIC CHARGES
-----------------------
   0 C :    0.286861
   1 C :   -0.258399
   2 C :   -0.298640
   3 C :    0.000702
   4 O :   -0.502219
   5 H :    0.135224
   6 H :    0.140911
   7 H :    0.151167
   8 H :    0.137242
   9 H :    0.164166
  10 H :    0.158697
  11 H :    0.136096
  12 C :   -0.002865
  13 H :    0.138085
  14 H :    0.126240
  15 O :   -0.512645
  16 C :    0.074938
  17 C :    0.077409
  18 C :   -0.294746
  19 C :   -0.029391
  20 O :   -0.506532
  21 H :    0.164573
  22 O :   -0.604342
  23 H :    0.147346
  24 H :    0.161593
  25 H :    0.139954
  26 H :    0.161829
  27 H :    0.140932
  28 H :    0.365815
Sum of atomic charges:   -0.0000000

LOEWDIN ATOMIC CHARGES
----------------------
   0 C :    0.174491
   1 C :   -0.217331
   2 C :   -0.215749
   3 C :   -0.025982
   4 O :   -0.321213
   5 H :    0.093947
   6 H :    0.111477
   7 H :    0.120903
   8 H :    0.111513
   9 H :    0.120125
  10 H :    0.111713
  11 H :    0.099483
  12 C :   -0.039504
  13 H :    0.103506
  14 H :    0.096058
  15 O :   -0.322004
  16 C :    0.013016
  17 C :    0.033865
  18 C :   -0.241032
  19 C :   -0.037839
  20 O :   -0.317972
  21 H :    0.118590
  22 O :   -0.415929
  23 H :    0.113058
  24 H :    0.126433
  25 H :    0.110411
  26 H :    0.111826
  27 H :    0.100463
  28 H :    0.283678

  Mayer bond orders larger than 0.100000
B(  0-C ,  1-C ) :   0.9482 B(  0-C ,  4-O ) :   0.9245 B(  0-C ,  5-H ) :   0.9196
B(  0-C , 15-O ) :   0.8565 B(  1-C ,  2-C ) :   0.9590 B(  1-C ,  6-H ) :   0.9403
B(  1-C ,  7-H ) :   0.9374 B(  2-C ,  3-C ) :   0.9551 B(  2-C ,  8-H ) :   0.9455
B(  2-C ,  9-H ) :   0.9437 B(  3-C ,  4-O ) :   0.8364 B(  3-C , 10-H ) :   0.9330
B(  3-C , 11-H ) :   0.9403 B( 12-C , 13-H ) :   0.9230 B( 12-C , 14-H ) :   0.9200
B( 12-C , 15-O ) :   0.8514 B( 12-C , 16-C ) :   0.8901 B( 16-C , 17-C ) :   0.8980
B( 16-C , 20-O ) :   0.8731 B( 16-C , 21-H ) :   0.9258 B( 17-C , 18-C ) :   0.9102
B( 17-C , 22-O ) :   0.8903 B( 17-C , 23-H ) :   0.9334 B( 18-C , 19-C ) :   0.9391
B( 18-C , 24-H ) :   0.9379 B( 18-C , 25-H ) :   0.9340 B( 19-C , 20-O ) :   0.8479
B( 19-C , 26-H ) :   0.9305 B( 19-C , 27-H ) :   0.9386 B( 22-O , 28-H ) :   0.7934

FINAL SINGLE POINT ENERGY      -652.862793959402

DIPOLE MOMENT
-------------
                                X             Y             Z
Electronic contribution:     -2.95090      -0.97063       1.11155
Nuclear contribution   :      3.55656       0.94591      -1.65588
                        -----------------------------------------
Total Dipole Moment    :      0.60566      -0.02472      -0.54433
                        -----------------------------------------
Magnitude (a.u.)       :      0.81470
Magnitude (Debye)      :      2.07080

Rotational constants in cm-1:     0.061436     0.013553     0.012741
Rotational constants in MHz :  1841.804966   406.298313   381.975243

                             ****ORCA TERMINATED NORMALLY****
TOTAL RUN TIME: 0 days 1 hours 5 minutes 10 seconds 88 msec
