                         Program Version 4.2.0 -  RELEASE  -
|  1> # Test redundant internal optimization
|  2> #
|  3> ! RKS B3LYP  Opt TightSCF SmallPrint
|  4>
|  5> %basis
|  6>         Basis "6-31G"
|  7> end
|  8>
|  9> %geom
| 10> Constraints
| 11> { D 4  0  15  12  285.0   C } # D for Dihedral angle
| 12> { D 0  15  12  16  210.0   C } # D for Dihedral angle
| 13> { D 0  4  3  2   C } # D for Dihedral angle
| 14> { D 4  3  2  1   C } # D for Dihedral angle
| 15> { D 3  2  1  0   C } # D for Dihedral angle
| 16> { D 2  1  0  4   C } # D for Dihedral angle
| 17> { D 1  0  4  3   C } # D for Dihedral angle
| 18> { D 16  20  19  18   C } # D for Dihedral angle
| 19> { D 20  19  18  17   C } # D for Dihedral angle
| 20> { D 19  18  17  16   C } # D for Dihedral angle
| 21> { D 18  17  16  20   C } # D for Dihedral angle
| 22> { D 17  16  20  19   C } # D for Dihedral angle
| 23> { D 15  12  16  20   C } # D for Dihedral angle
| 24> end
| 25> end
| 26>
| 27>
| 28> #%pal
| 29> #nprocs 8
| 30> #end
| 31>
| 32> * xyz 0 1
| 33> C  -21.048   26.222   46.251
| 34> C  -20.361   27.558   45.944
| 35> C  -20.329   28.222   47.341
| 36> C  -20.110   27.022   48.296
| 37> O  -20.473   25.807   47.535
| 38> H  -20.833   25.428   45.533
| 39> H  -19.344   27.382   45.576
| 40> H  -20.898   28.157   45.201
| 41> H  -19.543   28.978   47.434
| 42> H  -21.289   28.710   47.548
| 43> H  -20.733   27.082   49.195
| 44> H  -19.064   26.913   48.597
| 45> C  -23.396   25.070   46.435
| 46> H  -22.860   24.292   45.878
| 47> H  -23.505   24.734   47.474
| 48> O  -22.586   26.394   46.375
| 49> C  -24.821   25.209   45.831
| 50> C  -25.630   23.921   46.012
| 51> C  -26.078   24.035   47.488
| 52> C  -26.305   25.557   47.670
| 53> O  -25.590   26.224   46.560
| 54> H  -24.739   25.551   44.797
| 55> O  -26.861   23.927   45.064
| 56> H  -25.047   23.015   45.814
| 57> H  -26.977   23.450   47.706
| 58> H  -25.279   23.682   48.152
| 59> H  -25.913   25.929   48.623
| 60> H  -27.359   25.835   47.587
| 61> H  -27.460   24.826   45.245
| 62> *
| 63>
| 64>                          ****END OF INPUT****
 Total Charge           Charge          ....    0
 Multiplicity           Mult            ....    1
 Number of Electrons    NEL             ....  102
FINAL SINGLE POINT ENERGY      -652.835610306339
FINAL SINGLE POINT ENERGY      -652.860023086873
FINAL SINGLE POINT ENERGY      -652.864288258711
FINAL SINGLE POINT ENERGY      -652.865048497074
FINAL SINGLE POINT ENERGY      -652.865144832206
FINAL SINGLE POINT ENERGY      -652.865156926006
FINAL SINGLE POINT ENERGY      -652.865159312504
                    ***********************HURRAY********************

CARTESIAN COORDINATES (ANGSTROEM)
---------------------------------
  C    -21.115051   26.132174   46.238777
  C    -20.568040   27.524600   45.922598
  C    -20.526253   28.173298   47.324936
  C    -20.154625   26.990945   48.247739
  O    -20.450851   25.759578   47.471888
  H    -20.878486   25.343993   45.515207
  H    -19.561036   27.428892   45.500669
  H    -21.203276   28.063100   45.216659
  H    -19.803540   28.992658   47.388988
  H    -21.517025   28.561964   47.576261
  H    -20.734482   26.973012   49.174038
  H    -19.087811   26.958540   48.489390
  C    -23.277779   25.011460   46.506309
  H    -22.770137   24.223068   45.928803
  H    -23.312451   24.694885   47.555560
  O    -22.538813   26.258779   46.400486
  C    -24.676233   25.227937   45.935015
  C    -25.582285   23.992804   46.032462
  C    -26.105050   24.096394   47.490019
  C    -26.236192   25.624882   47.704494
  O    -25.414215   26.271281   46.653125
  H    -24.584090   25.574920   44.901937
  O    -26.664884   24.069850   45.064985
  H    -25.074933   23.050172   45.822022
  H    -27.053611   23.564889   47.596619
  H    -25.381698   23.655936   48.185358
  H    -25.875903   25.946915   48.685974
  H    -27.263398   25.980636   47.576360
  H    -27.018853   24.984440   45.055321

 Multiplicity           Mult            ....    1
 Number of Electrons    NEL             ....  102
 Basis Dimension        Dim             ....  149

ORBITAL ENERGIES
----------------

  NO   OCC          E(Eh)            E(eV)
   0   2.0000     -19.143067      -520.9093
   1   2.0000     -19.139983      -520.8254
   2   2.0000     -19.139149      -520.8027
   3   2.0000     -19.136528      -520.7314
   4   2.0000     -10.276719      -279.6437
   5   2.0000     -10.243463      -278.7388
   6   2.0000     -10.233905      -278.4787
   7   2.0000     -10.231547      -278.4146
   8   2.0000     -10.229390      -278.3559
   9   2.0000     -10.222121      -278.1580
  10   2.0000     -10.189612      -277.2734
  11   2.0000     -10.181921      -277.0642
  12   2.0000     -10.181040      -277.0402
  13   2.0000      -1.053457       -28.6660
  14   2.0000      -1.035692       -28.1826
  15   2.0000      -1.006044       -27.3758
  16   2.0000      -0.992045       -26.9949
  17   2.0000      -0.789557       -21.4849
  18   2.0000      -0.780421       -21.2363
  19   2.0000      -0.766416       -20.8552
  20   2.0000      -0.728349       -19.8194
  21   2.0000      -0.672778       -18.3072
  22   2.0000      -0.604940       -16.4613
  23   2.0000      -0.597030       -16.2460
  24   2.0000      -0.590331       -16.0637
  25   2.0000      -0.581509       -15.8237
  26   2.0000      -0.528324       -14.3764
  27   2.0000      -0.509526       -13.8649
  28   2.0000      -0.493399       -13.4261
  29   2.0000      -0.488044       -13.2803
  30   2.0000      -0.473718       -12.8905
  31   2.0000      -0.457808       -12.4576
  32   2.0000      -0.448913       -12.2155
  33   2.0000      -0.442497       -12.0409
  34   2.0000      -0.420652       -11.4465
  35   2.0000      -0.408993       -11.1293
  36   2.0000      -0.398362       -10.8400
  37   2.0000      -0.393447       -10.7062
  38   2.0000      -0.372787       -10.1441
  39   2.0000      -0.366858        -9.9827
  40   2.0000      -0.361559        -9.8385
  41   2.0000      -0.353169        -9.6102
  42   2.0000      -0.345091        -9.3904
  43   2.0000      -0.332939        -9.0597
  44   2.0000      -0.322823        -8.7845
  45   2.0000      -0.307750        -8.3743
  46   2.0000      -0.297435        -8.0936
  47   2.0000      -0.271585        -7.3902
  48   2.0000      -0.268554        -7.3077
  49   2.0000      -0.252817        -6.8795
  50   2.0000      -0.240491        -6.5441
  51   0.0000       0.065908         1.7935
  52   0.0000       0.085252         2.3198
  53   0.0000       0.090037         2.4500
  54   0.0000       0.100130         2.7247
  55   0.0000       0.104586         2.8459

MULLIKEN ATOMIC CHARGES
-----------------------
   0 C :    0.282299
   1 C :   -0.260890
   2 C :   -0.299324
   3 C :   -0.002720
   4 O :   -0.515192
   5 H :    0.138393
   6 H :    0.143459
   7 H :    0.159203
   8 H :    0.139131
   9 H :    0.169077
  10 H :    0.145564
  11 H :    0.141228
  12 C :    0.009573
  13 H :    0.126420
  14 H :    0.144354
  15 O :   -0.507713
  16 C :    0.064176
  17 C :    0.079440
  18 C :   -0.296842
  19 C :   -0.023905
  20 O :   -0.510672
  21 H :    0.162914
  22 O :   -0.603449
  23 H :    0.150234
  24 H :    0.162012
  25 H :    0.146657
  26 H :    0.147046
  27 H :    0.143596
  28 H :    0.365930
Sum of atomic charges:   -0.0000000

LOEWDIN ATOMIC CHARGES
----------------------
   0 C :    0.170548
   1 C :   -0.215255
   2 C :   -0.216085
   3 C :   -0.027747
   4 O :   -0.333518
   5 H :    0.093495
   6 H :    0.113264
   7 H :    0.125304
   8 H :    0.112517
   9 H :    0.122522
  10 H :    0.104665
  11 H :    0.101699
  12 C :   -0.039127
  13 H :    0.097619
  14 H :    0.102592
  15 O :   -0.313987
  16 C :    0.016020
  17 C :    0.035748
  18 C :   -0.241364
  19 C :   -0.036786
  20 O :   -0.321227
  21 H :    0.118341
  22 O :   -0.414697
  23 H :    0.114621
  24 H :    0.126550
  25 H :    0.113800
  26 H :    0.105171
  27 H :    0.101400
  28 H :    0.283919

  Mayer bond orders larger than 0.100000
B(  0-C ,  1-C ) :   0.9506 B(  0-C ,  4-O ) :   0.9023 B(  0-C ,  5-H ) :   0.9170
B(  0-C , 15-O ) :   0.8703 B(  1-C ,  2-C ) :   0.9574 B(  1-C ,  6-H ) :   0.9403
B(  1-C ,  7-H ) :   0.9356 B(  2-C ,  3-C ) :   0.9554 B(  2-C ,  8-H ) :   0.9452
B(  2-C ,  9-H ) :   0.9429 B(  3-C ,  4-O ) :   0.8384 B(  3-C , 10-H ) :   0.9362
B(  3-C , 11-H ) :   0.9404 B( 12-C , 13-H ) :   0.9106 B( 12-C , 14-H ) :   0.9213
B( 12-C , 15-O ) :   0.8329 B( 12-C , 16-C ) :   0.8999 B( 16-C , 17-C ) :   0.8988
B( 16-C , 20-O ) :   0.8656 B( 16-C , 21-H ) :   0.9249 B( 17-C , 18-C ) :   0.9116
B( 17-C , 22-O ) :   0.8928 B( 17-C , 23-H ) :   0.9338 B( 18-C , 19-C ) :   0.9381
B( 18-C , 24-H ) :   0.9377 B( 18-C , 25-H ) :   0.9334 B( 19-C , 20-O ) :   0.8507
B( 19-C , 26-H ) :   0.9348 B( 19-C , 27-H ) :   0.9383 B( 22-O , 28-H ) :   0.7931

FINAL SINGLE POINT ENERGY      -652.865159280509

DIPOLE MOMENT
-------------
                                X             Y             Z
Electronic contribution:     -2.12617      -1.40598      -2.59763
Nuclear contribution   :      2.40352       1.53903       3.01734
                        -----------------------------------------
Total Dipole Moment    :      0.27735       0.13304       0.41971
                        -----------------------------------------
Magnitude (a.u.)       :      0.52036
Magnitude (Debye)      :      1.32265

Rotational constants in cm-1:     0.064012     0.011370     0.011115
Rotational constants in MHz :  1919.023727   340.850769   333.231194

                             ****ORCA TERMINATED NORMALLY****
TOTAL RUN TIME: 0 days 0 hours 32 minutes 46 seconds 232 msec
