                         Program Version 4.2.1 -  RELEASE  -
|  1> # Test redundant internal optimization
|  2> #
|  3> ! RKS B3LYP  Opt TightSCF SmallPrint
|  4>
|  5> %basis
|  6>         Basis "6-31G"
|  7> end
|  8>
|  9> %geom
| 10> Constraints
| 11> { D 4  0  19  14  30.0   C } # D for Dihedral angle
| 12> { D 0  19  14  12  120.0   C } # D for Dihedral angle
| 13> { D 0  4  3  2   C } # D for Dihedral angle
| 14> { D 4  3  2  1   C } # D for Dihedral angle
| 15> { D 3  2  1  0   C } # D for Dihedral angle
| 16> { D 2  1  0  4   C } # D for Dihedral angle
| 17> { D 1  0  4  3   C } # D for Dihedral angle
| 18> { D 14  15  16  17   C } # D for Dihedral angle
| 19> { D 15  16  17  12   C } # D for Dihedral angle
| 20> { D 16  17  12  14   C } # D for Dihedral angle
| 21> { D 17  12  14  15   C } # D for Dihedral angle
| 22> { D 12  14  15  16   C } # D for Dihedral angle
| 23> end
| 24> end
| 25>
| 26>
| 27> #%pal
| 28> #nprocs 8
| 29> #end
| 30>
| 31> * xyz 0 1
| 32> C  -21.048   26.222   46.251
| 33> C  -20.361   27.558   45.944
| 34> C  -20.329   28.222   47.341
| 35> C  -20.110   27.022   48.296
| 36> O  -20.473   25.807   47.535
| 37> H  -20.833   25.428   45.533
| 38> H  -19.344   27.382   45.576
| 39> H  -20.898   28.157   45.201
| 40> H  -19.543   28.978   47.434
| 41> H  -21.289   28.710   47.548
| 42> H  -20.733   27.082   49.195
| 43> H  -19.064   26.913   48.597
| 44> C  -23.658   28.120   47.588
| 45> H  -23.755   28.586   48.581
| 46> C  -22.920   26.779   47.672
| 47> C  -24.037   25.836   48.177
| 48> C  -25.308   26.395   47.488
| 49> O  -24.980   27.772   47.055
| 50> H  -23.215   28.838   46.897
| 51> O  -22.472   26.381   46.366
| 52> H  -22.053   26.806   48.341
| 53> H  -23.854   24.787   47.925
| 54> H  -24.127   25.908   49.268
| 55> H  -26.171   26.427   48.161
| 56> H  -25.579   25.832   46.590
| 57> *
| 58>
| 59>                          ****END OF INPUT****
 Total Charge           Charge          ....    0
 Multiplicity           Mult            ....    1
 Number of Electrons    NEL             ....   86
FINAL SINGLE POINT ENERGY      -538.409522232141
FINAL SINGLE POINT ENERGY      -538.425900235601
FINAL SINGLE POINT ENERGY      -538.427782424302
FINAL SINGLE POINT ENERGY      -538.428062068465
FINAL SINGLE POINT ENERGY      -538.428092987667
FINAL SINGLE POINT ENERGY      -538.428098855336
                    ***********************HURRAY********************

CARTESIAN COORDINATES (ANGSTROEM)
---------------------------------
  C    -21.064594   26.275213   46.388461
  C    -20.343429   27.549168   45.933407
  C    -20.057849   28.256762   47.285623
  C    -19.780400   27.071179   48.241340
  O    -20.342234   25.867655   47.573152
  H    -20.976754   25.453346   45.675744
  H    -19.408088   27.271194   45.434875
  H    -20.951258   28.143842   45.248262
  H    -19.210130   28.946306   47.230550
  H    -20.933068   28.830531   47.608699
  H    -20.244975   27.185287   49.225703
  H    -18.711039   26.882966   48.375411
  C    -23.866161   28.118760   47.682049
  H    -24.099463   28.548850   48.668529
  C    -23.083829   26.814115   47.834342
  C    -24.207729   25.813057   48.168085
  C    -25.403286   26.327929   47.333666
  O    -25.086510   27.730348   46.975719
  H    -23.357161   28.863164   47.067244
  O    -22.496879   26.423339   46.555911
  H    -22.323262   26.843261   48.617114
  H    -23.908413   24.795468   47.909230
  H    -24.428977   25.851309   49.241654
  H    -26.347340   26.305733   47.889215
  H    -25.521173   25.779219   46.396014

 Multiplicity           Mult            ....    1
 Number of Electrons    NEL             ....   86
 Basis Dimension        Dim             ....  127

ORBITAL ENERGIES
----------------

  NO   OCC          E(Eh)            E(eV)
   0   2.0000     -19.151232      -521.1315
   1   2.0000     -19.137197      -520.7496
   2   2.0000     -19.124845      -520.4135
   3   2.0000     -10.280202      -279.7385
   4   2.0000     -10.238527      -278.6045
   5   2.0000     -10.236219      -278.5417
   6   2.0000     -10.220559      -278.1155
   7   2.0000     -10.215641      -277.9817
   8   2.0000     -10.196218      -277.4532
   9   2.0000     -10.188047      -277.2308
  10   2.0000     -10.179987      -277.0115
  11   2.0000      -1.055439       -28.7200
  12   2.0000      -1.012801       -27.5597
  13   2.0000      -0.989059       -26.9137
  14   2.0000      -0.793223       -21.5847
  15   2.0000      -0.781931       -21.2774
  16   2.0000      -0.739877       -20.1331
  17   2.0000      -0.722799       -19.6684
  18   2.0000      -0.617935       -16.8149
  19   2.0000      -0.606090       -16.4926
  20   2.0000      -0.595115       -16.1939
  21   2.0000      -0.565954       -15.4004
  22   2.0000      -0.524440       -14.2707
  23   2.0000      -0.503729       -13.7072
  24   2.0000      -0.488735       -13.2992
  25   2.0000      -0.482042       -13.1170
  26   2.0000      -0.452671       -12.3178
  27   2.0000      -0.439320       -11.9545
  28   2.0000      -0.430924       -11.7260
  29   2.0000      -0.418242       -11.3809
  30   2.0000      -0.411125       -11.1873
  31   2.0000      -0.384753       -10.4696
  32   2.0000      -0.371076       -10.0975
  33   2.0000      -0.364829        -9.9275
  34   2.0000      -0.362711        -9.8699
  35   2.0000      -0.359280        -9.7765
  36   2.0000      -0.344917        -9.3857
  37   2.0000      -0.326502        -8.8846
  38   2.0000      -0.309648        -8.4259
  39   2.0000      -0.298167        -8.1135
  40   2.0000      -0.266838        -7.2610
  41   2.0000      -0.251369        -6.8401
  42   2.0000      -0.228524        -6.2185
  43   0.0000       0.067096         1.8258
  44   0.0000       0.089537         2.4364
  45   0.0000       0.095002         2.5851
  46   0.0000       0.103506         2.8165
  47   0.0000       0.113264         3.0821

MULLIKEN ATOMIC CHARGES
-----------------------
   0 C :    0.298646
   1 C :   -0.260165
   2 C :   -0.315662
   3 C :   -0.022644
   4 O :   -0.509326
   5 H :    0.162926
   6 H :    0.147918
   7 H :    0.160358
   8 H :    0.150331
   9 H :    0.149743
  10 H :    0.142840
  11 H :    0.152858
  12 C :    0.008220
  13 H :    0.119287
  14 C :    0.053533
  15 C :   -0.280330
  16 C :    0.002417
  17 O :   -0.521962
  18 H :    0.153713
  19 O :   -0.524673
  20 H :    0.145060
  21 H :    0.163015
  22 H :    0.137082
  23 H :    0.131169
  24 H :    0.155645
Sum of atomic charges:   -0.0000000

LOEWDIN ATOMIC CHARGES
----------------------
   0 C :    0.181477
   1 C :   -0.226150
   2 C :   -0.223448
   3 C :   -0.036336
   4 O :   -0.320050
   5 H :    0.110770
   6 H :    0.116522
   7 H :    0.124804
   8 H :    0.118899
   9 H :    0.110099
  10 H :    0.099105
  11 H :    0.107377
  12 C :   -0.043855
  13 H :    0.088817
  14 C :    0.035680
  15 C :   -0.225494
  16 C :   -0.027539
  17 O :   -0.330543
  18 H :    0.113241
  19 O :   -0.325145
  20 H :    0.107482
  21 H :    0.128463
  22 H :    0.109938
  23 H :    0.096542
  24 H :    0.109346

  Mayer bond orders larger than 0.100000
B(  0-C ,  1-C ) :   0.9165 B(  0-C ,  4-O ) :   0.9034 B(  0-C ,  5-H ) :   0.9346
B(  0-C , 19-O ) :   0.8821 B(  1-C ,  2-C ) :   0.9542 B(  1-C ,  6-H ) :   0.9345
B(  1-C ,  7-H ) :   0.9359 B(  2-C ,  3-C ) :   0.9493 B(  2-C ,  8-H ) :   0.9446
B(  2-C ,  9-H ) :   0.9410 B(  3-C ,  4-O ) :   0.8364 B(  3-C , 10-H ) :   0.9290
B(  3-C , 11-H ) :   0.9393 B( 12-C , 13-H ) :   0.9118 B( 12-C , 14-C ) :   0.9214
B( 12-C , 17-O ) :   0.8734 B( 12-C , 18-H ) :   0.9308 B( 14-C , 15-C ) :   0.9478
B( 14-C , 19-O ) :   0.8207 B( 14-C , 20-H ) :   0.9100 B( 15-C , 16-C ) :   0.9480
B( 15-C , 21-H ) :   0.9389 B( 15-C , 22-H ) :   0.9405 B( 16-C , 17-O ) :   0.8527
B( 16-C , 23-H ) :   0.9340 B( 16-C , 24-H ) :   0.9362

FINAL SINGLE POINT ENERGY      -538.428098883394

DIPOLE MOMENT
-------------
                                X             Y             Z
Electronic contribution:     -1.38253      -2.15766      -1.94012
Nuclear contribution   :      2.27827       2.51614       2.62092
                        -----------------------------------------
Total Dipole Moment    :      0.89575       0.35847       0.68080
                        -----------------------------------------
Magnitude (a.u.)       :      1.18083
Magnitude (Debye)      :      3.00143

Rotational constants in cm-1:     0.078097     0.022383     0.021248
Rotational constants in MHz :  2341.286011   671.014600   637.012050

                             ****ORCA TERMINATED NORMALLY****
TOTAL RUN TIME: 0 days 0 hours 7 minutes 31 seconds 122 msec
