                         Program Version 4.2.0 -  RELEASE  -
|  1> # Test redundant internal optimization
|  2> #
|  3> ! RKS B3LYP  Opt TightSCF SmallPrint
|  4>
|  5> %basis
|  6>         Basis "6-31G"
|  7> end
|  8>
|  9> %geom
| 10> Constraints
| 11> { D 4  0  15  12  30.0   C } # D for Dihedral angle
| 12> { D 0  15  12  16  195.0   C } # D for Dihedral angle
| 13> { D 0  4  3  2   C } # D for Dihedral angle
| 14> { D 4  3  2  1   C } # D for Dihedral angle
| 15> { D 3  2  1  0   C } # D for Dihedral angle
| 16> { D 2  1  0  4   C } # D for Dihedral angle
| 17> { D 1  0  4  3   C } # D for Dihedral angle
| 18> { D 16  20  19  18   C } # D for Dihedral angle
| 19> { D 20  19  18  17   C } # D for Dihedral angle
| 20> { D 19  18  17  16   C } # D for Dihedral angle
| 21> { D 18  17  16  20   C } # D for Dihedral angle
| 22> { D 17  16  20  19   C } # D for Dihedral angle
| 23> { D 15  12  16  20   C } # D for Dihedral angle
| 24> end
| 25> end
| 26>
| 27>
| 28> #%pal
| 29> #nprocs 8
| 30> #end
| 31>
| 32> * xyz 0 1
| 33> C  -21.048   26.222   46.251
| 34> C  -20.361   27.558   45.944
| 35> C  -20.329   28.222   47.341
| 36> C  -20.110   27.022   48.296
| 37> O  -20.473   25.807   47.535
| 38> H  -20.833   25.428   45.533
| 39> H  -19.344   27.382   45.576
| 40> H  -20.898   28.157   45.201
| 41> H  -19.543   28.978   47.434
| 42> H  -21.289   28.710   47.548
| 43> H  -20.733   27.082   49.195
| 44> H  -19.064   26.913   48.597
| 45> C  -23.091   26.824   47.779
| 46> H  -22.576   26.232   48.546
| 47> H  -22.871   27.884   47.959
| 48> O  -22.586   26.394   46.375
| 49> C  -24.622   26.623   47.954
| 50> C  -25.000   25.139   47.888
| 51> C  -24.618   24.655   49.307
| 52> C  -24.955   25.877   50.198
| 53> O  -25.044   27.044   49.295
| 54> H  -25.150   27.257   47.239
| 55> O  -26.527   24.989   47.649
| 56> H  -24.473   24.595   47.097
| 57> H  -25.164   23.755   49.609
| 58> H  -23.547   24.427   49.351
| 59> H  -24.187   26.067   50.955
| 60> H  -25.924   25.778   50.694
| 61> H  -27.077   25.526   48.431
| 62> *
| 63>
| 64>                          ****END OF INPUT****
 Total Charge           Charge          ....    0
 Multiplicity           Mult            ....    1
 Number of Electrons    NEL             ....  102
FINAL SINGLE POINT ENERGY      -652.831363417123
FINAL SINGLE POINT ENERGY      -652.855380120920
FINAL SINGLE POINT ENERGY      -652.859785503647
FINAL SINGLE POINT ENERGY      -652.862150631817
FINAL SINGLE POINT ENERGY      -652.862319365471
FINAL SINGLE POINT ENERGY      -652.862361256958
                    ***********************HURRAY********************

CARTESIAN COORDINATES (ANGSTROEM)
---------------------------------
  C    -21.190956   26.281198   46.425279
  C    -20.483803   27.544580   45.922379
  C    -20.156247   28.278984   47.250351
  C    -19.849898   27.114196   48.221046
  O    -20.433542   25.896851   47.594059
  H    -21.137770   25.444167   45.727138
  H    -19.565442   27.253961   45.399762
  H    -21.111166   28.127640   45.244589
  H    -19.306171   28.961326   47.152382
  H    -21.016106   28.865648   47.587469
  H    -20.291867   27.248211   49.212416
  H    -18.777907   26.925422   48.328014
  C    -23.096483   26.866602   47.965423
  H    -22.573095   26.314771   48.752956
  H    -22.946354   27.941028   48.126471
  O    -22.615583   26.442149   46.657857
  C    -24.596117   26.575995   47.998366
  C    -24.972888   25.092476   47.882555
  C    -24.719647   24.592180   49.326849
  C    -25.129015   25.804510   50.199601
  O    -25.133639   26.987102   49.301656
  H    -25.106007   27.168414   47.234422
  O    -26.368397   24.943961   47.496610
  H    -24.396905   24.565707   47.124622
  H    -25.312093   23.698289   49.536414
  H    -23.661987   24.341020   49.461088
  H    -24.435316   25.988371   51.025866
  H    -26.139707   25.707589   50.607932
  H    -26.912892   25.574653   48.013429

 Multiplicity           Mult            ....    1
 Number of Electrons    NEL             ....  102
 Basis Dimension        Dim             ....  149

ORBITAL ENERGIES
----------------

  NO   OCC          E(Eh)            E(eV)
   0   2.0000     -19.152750      -521.1728
   1   2.0000     -19.144670      -520.9529
   2   2.0000     -19.142583      -520.8962
   3   2.0000     -19.131086      -520.5833
   4   2.0000     -10.282437      -279.7993
   5   2.0000     -10.236032      -278.5366
   6   2.0000     -10.231157      -278.4039
   7   2.0000     -10.229798      -278.3670
   8   2.0000     -10.229493      -278.3587
   9   2.0000     -10.229141      -278.3491
  10   2.0000     -10.195794      -277.4417
  11   2.0000     -10.189971      -277.2832
  12   2.0000     -10.183604      -277.1100
  13   2.0000      -1.058295       -28.7977
  14   2.0000      -1.033060       -28.1110
  15   2.0000      -1.001199       -27.2440
  16   2.0000      -0.997339       -27.1390
  17   2.0000      -0.793354       -21.5883
  18   2.0000      -0.778685       -21.1891
  19   2.0000      -0.768425       -20.9099
  20   2.0000      -0.733847       -19.9690
  21   2.0000      -0.674869       -18.3641
  22   2.0000      -0.607789       -16.5388
  23   2.0000      -0.600987       -16.3537
  24   2.0000      -0.594452       -16.1759
  25   2.0000      -0.576078       -15.6759
  26   2.0000      -0.518928       -14.1208
  27   2.0000      -0.517895       -14.0926
  28   2.0000      -0.504411       -13.7257
  29   2.0000      -0.488489       -13.2925
  30   2.0000      -0.472675       -12.8621
  31   2.0000      -0.460565       -12.5326
  32   2.0000      -0.449990       -12.2449
  33   2.0000      -0.436707       -11.8834
  34   2.0000      -0.420194       -11.4341
  35   2.0000      -0.416130       -11.3235
  36   2.0000      -0.407204       -11.0806
  37   2.0000      -0.388854       -10.5813
  38   2.0000      -0.380935       -10.3658
  39   2.0000      -0.364591        -9.9210
  40   2.0000      -0.364411        -9.9161
  41   2.0000      -0.357866        -9.7380
  42   2.0000      -0.352113        -9.5815
  43   2.0000      -0.331755        -9.0275
  44   2.0000      -0.326900        -8.8954
  45   2.0000      -0.313822        -8.5395
  46   2.0000      -0.302416        -8.2291
  47   2.0000      -0.270397        -7.3579
  48   2.0000      -0.264493        -7.1972
  49   2.0000      -0.254563        -6.9270
  50   2.0000      -0.244107        -6.6425
  51   0.0000       0.067451         1.8354
  52   0.0000       0.069542         1.8923
  53   0.0000       0.092500         2.5170
  54   0.0000       0.096315         2.6209
  55   0.0000       0.101479         2.7614

MULLIKEN ATOMIC CHARGES
-----------------------
   0 C :    0.299227
   1 C :   -0.259398
   2 C :   -0.317401
   3 C :   -0.017129
   4 O :   -0.511820
   5 H :    0.164281
   6 H :    0.149076
   7 H :    0.158565
   8 H :    0.149258
   9 H :    0.156695
  10 H :    0.144629
  11 H :    0.153303
  12 C :   -0.008196
  13 H :    0.150679
  14 H :    0.138878
  15 O :   -0.536894
  16 C :    0.054937
  17 C :    0.091226
  18 C :   -0.302086
  19 C :   -0.032007
  20 O :   -0.529838
  21 H :    0.166202
  22 O :   -0.602999
  23 H :    0.176262
  24 H :    0.160278
  25 H :    0.152315
  26 H :    0.145106
  27 H :    0.145938
  28 H :    0.360910
Sum of atomic charges:    0.0000000

LOEWDIN ATOMIC CHARGES
----------------------
   0 C :    0.179655
   1 C :   -0.225196
   2 C :   -0.222421
   3 C :   -0.033846
   4 O :   -0.320298
   5 H :    0.111637
   6 H :    0.117164
   7 H :    0.124209
   8 H :    0.118037
   9 H :    0.113078
  10 H :    0.102470
  11 H :    0.107934
  12 C :   -0.043204
  13 H :    0.104082
  14 H :    0.097409
  15 O :   -0.334949
  16 C :    0.018933
  17 C :    0.039312
  18 C :   -0.242096
  19 C :   -0.038779
  20 O :   -0.332770
  21 H :    0.118307
  22 O :   -0.415212
  23 H :    0.127913
  24 H :    0.125929
  25 H :    0.117184
  26 H :    0.102937
  27 H :    0.102279
  28 H :    0.280300

  Mayer bond orders larger than 0.100000
B(  0-C ,  1-C ) :   0.9192 B(  0-C ,  4-O ) :   0.9095 B(  0-C ,  5-H ) :   0.9344
B(  0-C , 15-O ) :   0.8638 B(  1-C ,  2-C ) :   0.9538 B(  1-C ,  6-H ) :   0.9344
B(  1-C ,  7-H ) :   0.9367 B(  2-C ,  3-C ) :   0.9502 B(  2-C ,  8-H ) :   0.9443
B(  2-C ,  9-H ) :   0.9412 B(  3-C ,  4-O ) :   0.8331 B(  3-C , 10-H ) :   0.9327
B(  3-C , 11-H ) :   0.9399 B( 12-C , 13-H ) :   0.9112 B( 12-C , 14-H ) :   0.9093
B( 12-C , 15-O ) :   0.8233 B( 12-C , 16-C ) :   0.9065 B( 16-C , 17-C ) :   0.9130
B( 16-C , 20-O ) :   0.8442 B( 16-C , 21-H ) :   0.9251 B( 17-C , 18-C ) :   0.9122
B( 17-C , 22-O ) :   0.8892 B( 17-C , 23-H ) :   0.9233 B( 18-C , 19-C ) :   0.9419
B( 18-C , 24-H ) :   0.9385 B( 18-C , 25-H ) :   0.9337 B( 19-C , 20-O ) :   0.8422
B( 19-C , 26-H ) :   0.9359 B( 19-C , 27-H ) :   0.9383 B( 22-O , 28-H ) :   0.7967

FINAL SINGLE POINT ENERGY      -652.862365672879

DIPOLE MOMENT
-------------
                                X             Y             Z
Electronic contribution:     -4.04770      -1.99125      -1.90477
Nuclear contribution   :      5.08530       2.63449       2.43851
                        -----------------------------------------
Total Dipole Moment    :      1.03759       0.64325       0.53373
                        -----------------------------------------
Magnitude (a.u.)       :      1.33238
Magnitude (Debye)      :      3.38664

Rotational constants in cm-1:     0.055694     0.013355     0.012672
Rotational constants in MHz :  1669.668618   400.370086   379.911039

                             ****ORCA TERMINATED NORMALLY****
TOTAL RUN TIME: 0 days 0 hours 24 minutes 14 seconds 7 msec
