                         Program Version 4.2.0 -  RELEASE  -
|  1> # Test redundant internal optimization
|  2> #
|  3> ! RKS B3LYP  Opt TightSCF SmallPrint
|  4>
|  5> %basis
|  6>         Basis "6-31G"
|  7> end
|  8>
|  9> %geom
| 10> Constraints
| 11> { D 4  0  15  12  105.0   C } # D for Dihedral angle
| 12> { D 0  15  12  16  135.0   C } # D for Dihedral angle
| 13> { D 0  4  3  2   C } # D for Dihedral angle
| 14> { D 4  3  2  1   C } # D for Dihedral angle
| 15> { D 3  2  1  0   C } # D for Dihedral angle
| 16> { D 2  1  0  4   C } # D for Dihedral angle
| 17> { D 1  0  4  3   C } # D for Dihedral angle
| 18> { D 16  20  19  18   C } # D for Dihedral angle
| 19> { D 20  19  18  17   C } # D for Dihedral angle
| 20> { D 19  18  17  16   C } # D for Dihedral angle
| 21> { D 18  17  16  20   C } # D for Dihedral angle
| 22> { D 17  16  20  19   C } # D for Dihedral angle
| 23> { D 15  12  16  20   C } # D for Dihedral angle
| 24> end
| 25> end
| 26>
| 27>
| 28> #%pal
| 29> #nprocs 8
| 30> #end
| 31>
| 32> * xyz 0 1
| 33> C  -21.048   26.222   46.251
| 34> C  -20.361   27.558   45.944
| 35> C  -20.329   28.222   47.341
| 36> C  -20.110   27.022   48.296
| 37> O  -20.473   25.807   47.535
| 38> H  -20.833   25.428   45.533
| 39> H  -19.344   27.382   45.576
| 40> H  -20.898   28.157   45.201
| 41> H  -19.543   28.978   47.434
| 42> H  -21.289   28.710   47.548
| 43> H  -20.733   27.082   49.195
| 44> H  -19.064   26.913   48.597
| 45> C  -23.085   27.864   46.420
| 46> H  -23.365   28.120   47.450
| 47> H  -22.289   28.550   46.102
| 48> O  -22.586   26.394   46.375
| 49> C  -24.315   28.110   45.503
| 50> C  -24.707   29.591   45.483
| 51> C  -23.665   30.179   44.502
| 52> C  -23.470   29.039   43.472
| 53> O  -23.982   27.806   44.107
| 54> H  -25.120   27.433   45.796
| 55> O  -26.145   29.755   44.918
| 56> H  -24.670   30.060   46.473
| 57> H  -23.999   31.111   44.035
| 58> H  -22.726   30.386   45.030
| 59> H  -22.418   28.892   43.201
| 60> H  -24.052   29.197   42.559
| 61> H  -26.205   29.293   43.926
| 62> *
| 63>
| 64>                          ****END OF INPUT****
 Total Charge           Charge          ....    0
 Multiplicity           Mult            ....    1
 Number of Electrons    NEL             ....  102
FINAL SINGLE POINT ENERGY      -652.812446044541
FINAL SINGLE POINT ENERGY      -652.838221398461
FINAL SINGLE POINT ENERGY      -652.849441182244
FINAL SINGLE POINT ENERGY      -652.851669495034
FINAL SINGLE POINT ENERGY      -652.852050692634
FINAL SINGLE POINT ENERGY      -652.852101329280
FINAL SINGLE POINT ENERGY      -652.852107418383
                    ***********************HURRAY********************

CARTESIAN COORDINATES (ANGSTROEM)
---------------------------------
  C    -21.194256   26.353818   46.330298
  C    -20.191225   27.468615   46.006691
  C    -19.959079   28.113873   47.402868
  C    -20.041175   26.891390   48.352033
  O    -20.722009   25.822385   47.588859
  H    -21.163702   25.514397   45.635079
  H    -19.269501   27.002582   45.644268
  H    -20.539387   28.169219   45.243206
  H    -18.991838   28.621524   47.469780
  H    -20.736777   28.847474   47.636365
  H    -20.607585   27.096150   49.265462
  H    -19.052962   26.509416   48.624509
  C    -23.111524   28.048573   46.448366
  H    -23.488186   28.241385   47.463072
  H    -22.341196   28.792136   46.217693
  O    -22.595940   26.698063   46.371620
  C    -24.255786   28.161222   45.441362
  C    -24.901654   29.551285   45.356056
  C    -23.927320   30.294597   44.405382
  C    -23.481391   29.184372   43.421874
  O    -23.802319   27.890349   44.073085
  H    -24.996702   27.390738   45.672581
  O    -26.240819   29.469268   44.796711
  H    -25.022006   30.044946   46.321524
  H    -24.432630   31.128053   43.911190
  H    -23.077387   30.694540   44.969919
  H    -22.409755   29.218090   43.201303
  H    -24.030668   29.215512   42.476352
  H    -26.239220   28.827029   44.055494

 Multiplicity           Mult            ....    1
 Number of Electrons    NEL             ....  102
 Basis Dimension        Dim             ....  149

ORBITAL ENERGIES
----------------

  NO   OCC          E(Eh)            E(eV)
   0   2.0000     -19.144585      -520.9506
   1   2.0000     -19.141022      -520.8537
   2   2.0000     -19.138997      -520.7986
   3   2.0000     -19.136579      -520.7328
   4   2.0000     -10.278015      -279.6790
   5   2.0000     -10.246259      -278.8149
   6   2.0000     -10.237244      -278.5696
   7   2.0000     -10.234797      -278.5030
   8   2.0000     -10.234402      -278.4922
   9   2.0000     -10.227575      -278.3065
  10   2.0000     -10.195820      -277.4424
  11   2.0000     -10.194890      -277.4171
  12   2.0000     -10.194214      -277.3987
  13   2.0000      -1.050064       -28.5737
  14   2.0000      -1.038073       -28.2474
  15   2.0000      -1.009037       -27.4573
  16   2.0000      -0.993006       -27.0211
  17   2.0000      -0.790922       -21.5221
  18   2.0000      -0.788648       -21.4602
  19   2.0000      -0.773468       -21.0471
  20   2.0000      -0.734107       -19.9761
  21   2.0000      -0.682742       -18.5784
  22   2.0000      -0.608649       -16.5622
  23   2.0000      -0.605105       -16.4657
  24   2.0000      -0.600621       -16.3437
  25   2.0000      -0.577531       -15.7154
  26   2.0000      -0.529907       -14.4195
  27   2.0000      -0.507423       -13.8077
  28   2.0000      -0.505927       -13.7670
  29   2.0000      -0.492385       -13.3985
  30   2.0000      -0.481863       -13.1122
  31   2.0000      -0.462244       -12.5783
  32   2.0000      -0.455135       -12.3848
  33   2.0000      -0.437863       -11.9149
  34   2.0000      -0.432708       -11.7746
  35   2.0000      -0.412934       -11.2365
  36   2.0000      -0.404988       -11.0203
  37   2.0000      -0.397533       -10.8174
  38   2.0000      -0.385050       -10.4778
  39   2.0000      -0.375959       -10.2304
  40   2.0000      -0.364275        -9.9124
  41   2.0000      -0.361696        -9.8422
  42   2.0000      -0.355767        -9.6809
  43   2.0000      -0.333789        -9.0829
  44   2.0000      -0.314603        -8.5608
  45   2.0000      -0.309683        -8.4269
  46   2.0000      -0.292802        -7.9676
  47   2.0000      -0.273881        -7.4527
  48   2.0000      -0.266187        -7.2433
  49   2.0000      -0.256336        -6.9753
  50   2.0000      -0.241786        -6.5793
  51   0.0000       0.052011         1.4153
  52   0.0000       0.075812         2.0630
  53   0.0000       0.080334         2.1860
  54   0.0000       0.098718         2.6863
  55   0.0000       0.101242         2.7549

MULLIKEN ATOMIC CHARGES
-----------------------
   0 C :    0.317795
   1 C :   -0.305965
   2 C :   -0.312411
   3 C :   -0.004558
   4 O :   -0.496762
   5 H :    0.169232
   6 H :    0.159419
   7 H :    0.151939
   8 H :    0.145411
   9 H :    0.146645
  10 H :    0.145840
  11 H :    0.145451
  12 C :    0.000228
  13 H :    0.136510
  14 H :    0.124148
  15 O :   -0.517124
  16 C :    0.069969
  17 C :    0.074002
  18 C :   -0.291464
  19 C :   -0.033059
  20 O :   -0.512028
  21 H :    0.174452
  22 O :   -0.598721
  23 H :    0.151017
  24 H :    0.163891
  25 H :    0.137257
  26 H :    0.142929
  27 H :    0.149395
  28 H :    0.366564
Sum of atomic charges:   -0.0000000

LOEWDIN ATOMIC CHARGES
----------------------
   0 C :    0.182025
   1 C :   -0.232916
   2 C :   -0.224127
   3 C :   -0.031120
   4 O :   -0.317578
   5 H :    0.114115
   6 H :    0.125031
   7 H :    0.116086
   8 H :    0.115786
   9 H :    0.107207
  10 H :    0.103700
  11 H :    0.103715
  12 C :   -0.039538
  13 H :    0.101290
  14 H :    0.092946
  15 O :   -0.314620
  16 C :    0.014918
  17 C :    0.034516
  18 C :   -0.240908
  19 C :   -0.040330
  20 O :   -0.322555
  21 H :    0.123203
  22 O :   -0.412582
  23 H :    0.114967
  24 H :    0.127535
  25 H :    0.109302
  26 H :    0.101124
  27 H :    0.104363
  28 H :    0.284445

  Mayer bond orders larger than 0.100000
B(  0-C ,  1-C ) :   0.9293 B(  0-C ,  4-O ) :   0.9046 B(  0-C ,  5-H ) :   0.9325
B(  0-C , 15-O ) :   0.8848 B(  1-C ,  2-C ) :   0.9508 B(  1-C ,  6-H ) :   0.9343
B(  1-C ,  7-H ) :   0.9285 B(  2-C ,  3-C ) :   0.9469 B(  2-C ,  8-H ) :   0.9458
B(  2-C ,  9-H ) :   0.9405 B(  3-C ,  4-O ) :   0.8515 B(  3-C , 10-H ) :   0.9343
B(  3-C , 11-H ) :   0.9391 B( 12-C , 13-H ) :   0.9167 B( 12-C , 14-H ) :   0.9056
B( 12-C , 15-O ) :   0.8533 B( 12-C , 16-C ) :   0.8908 B( 16-C , 17-C ) :   0.8982
B( 16-C , 20-O ) :   0.8626 B( 16-C , 21-H ) :   0.9228 B( 17-C , 18-C ) :   0.9086
B( 17-C , 22-O ) :   0.8975 B( 17-C , 23-H ) :   0.9330 B( 18-C , 19-C ) :   0.9403
B( 18-C , 24-H ) :   0.9375 B( 18-C , 25-H ) :   0.9350 B( 19-C , 20-O ) :   0.8551
B( 19-C , 26-H ) :   0.9331 B( 19-C , 27-H ) :   0.9371 B( 22-O , 28-H ) :   0.7929

FINAL SINGLE POINT ENERGY      -652.852106750137

DIPOLE MOMENT
-------------
                                X             Y             Z
Electronic contribution:     -4.82260      -5.44749      -0.59874
Nuclear contribution   :      5.96151       6.96658       0.40436
                        -----------------------------------------
Total Dipole Moment    :      1.13890       1.51909      -0.19438
                        -----------------------------------------
Magnitude (a.u.)       :      1.90853
Magnitude (Debye)      :      4.85111

Rotational constants in cm-1:     0.060827     0.012697     0.012384
Rotational constants in MHz :  1823.550757   380.648794   371.248773

                             ****ORCA TERMINATED NORMALLY****
TOTAL RUN TIME: 0 days 0 hours 28 minutes 57 seconds 314 msec
