                         Program Version 4.2.0 -  RELEASE  -
|  1> # Test redundant internal optimization
|  2> #
|  3> ! RKS B3LYP  Opt TightSCF SmallPrint
|  4>
|  5> %basis
|  6>         Basis "6-31G"
|  7> end
|  8>
|  9> %geom
| 10> Constraints
| 11> { D 4  0  15  12  0.0   C } # D for Dihedral angle
| 12> { D 0  15  12  16  240.0   C } # D for Dihedral angle
| 13> { D 0  4  3  2   C } # D for Dihedral angle
| 14> { D 4  3  2  1   C } # D for Dihedral angle
| 15> { D 3  2  1  0   C } # D for Dihedral angle
| 16> { D 2  1  0  4   C } # D for Dihedral angle
| 17> { D 1  0  4  3   C } # D for Dihedral angle
| 18> { D 16  20  19  18   C } # D for Dihedral angle
| 19> { D 20  19  18  17   C } # D for Dihedral angle
| 20> { D 19  18  17  16   C } # D for Dihedral angle
| 21> { D 18  17  16  20   C } # D for Dihedral angle
| 22> { D 17  16  20  19   C } # D for Dihedral angle
| 23> { D 15  12  16  20   C } # D for Dihedral angle
| 24> end
| 25> end
| 26>
| 27>
| 28> #%pal
| 29> #nprocs 8
| 30> #end
| 31>
| 32> * xyz 0 1
| 33> C  -21.048   26.222   46.251
| 34> C  -20.361   27.558   45.944
| 35> C  -20.329   28.222   47.341
| 36> C  -20.110   27.022   48.296
| 37> O  -20.473   25.807   47.535
| 38> H  -20.833   25.428   45.533
| 39> H  -19.344   27.382   45.576
| 40> H  -20.898   28.157   45.201
| 41> H  -19.543   28.978   47.434
| 42> H  -21.289   28.710   47.548
| 43> H  -20.733   27.082   49.195
| 44> H  -19.064   26.913   48.597
| 45> C  -23.172   26.101   47.783
| 46> H  -22.357   25.822   48.464
| 47> H  -23.666   26.994   48.187
| 48> O  -22.586   26.394   46.375
| 49> C  -24.214   24.948   47.772
| 50> C  -23.566   23.616   47.380
| 51> C  -22.887   23.196   48.706
| 52> C  -23.874   23.709   49.784
| 53> O  -24.733   24.714   49.124
| 54> H  -25.062   25.239   47.150
| 55> O  -24.660   22.590   46.976
| 56> H  -22.857   23.708   46.550
| 57> H  -22.719   22.116   48.773
| 58> H  -21.914   23.693   48.804
| 59> H  -23.363   24.176   50.633
| 60> H  -24.530   22.919   50.159
| 61> H  -25.382   22.480   47.793
| 62> *
| 63>
| 64>                          ****END OF INPUT****
 Total Charge           Charge          ....    0
 Multiplicity           Mult            ....    1
 Number of Electrons    NEL             ....  102
FINAL SINGLE POINT ENERGY      -652.836533172506
FINAL SINGLE POINT ENERGY      -652.858483605618
FINAL SINGLE POINT ENERGY      -652.862080070049
FINAL SINGLE POINT ENERGY      -652.862766640293
FINAL SINGLE POINT ENERGY      -652.862859608834
FINAL SINGLE POINT ENERGY      -652.862873442431
                    ***********************HURRAY********************

CARTESIAN COORDINATES (ANGSTROEM)
---------------------------------
  C    -21.085300   26.198722   46.369929
  C    -20.489703   27.543386   45.950054
  C    -20.327038   28.256533   47.313191
  C    -19.958165   27.104517   48.273209
  O    -20.368177   25.851009   47.573729
  H    -20.915518   25.383224   45.663366
  H    -19.517015   27.375760   45.473140
  H    -21.141748   28.078519   45.256931
  H    -19.560057   29.036681   47.291604
  H    -21.274092   28.720773   47.606674
  H    -20.476809   27.156350   49.234166
  H    -18.882067   27.019864   48.447180
  C    -23.142672   26.090056   47.842540
  H    -22.375544   25.868080   48.588076
  H    -23.675150   27.000725   48.136328
  O    -22.532273   26.317107   46.538108
  C    -24.139593   24.932244   47.752837
  C    -23.525918   23.571803   47.393939
  C    -22.934477   23.126933   48.756421
  C    -23.953400   23.680891   49.783102
  O    -24.739304   24.723537   49.077553
  H    -24.950971   25.186374   47.065426
  O    -24.550247   22.651579   46.920237
  H    -22.790405   23.625873   46.592997
  H    -22.837314   22.038990   48.798304
  H    -21.941534   23.568265   48.893336
  H    -23.474444   24.128626   50.659574
  H    -24.662788   22.920508   50.124676
  H    -25.345278   22.739070   47.487376

 Multiplicity           Mult            ....    1
 Number of Electrons    NEL             ....  102
 Basis Dimension        Dim             ....  149

ORBITAL ENERGIES
----------------

  NO   OCC          E(Eh)            E(eV)
   0   2.0000     -19.159322      -521.3516
   1   2.0000     -19.140829      -520.8484
   2   2.0000     -19.140354      -520.8355
   3   2.0000     -19.130275      -520.5612
   4   2.0000     -10.284721      -279.8615
   5   2.0000     -10.238761      -278.6109
   6   2.0000     -10.231574      -278.4153
   7   2.0000     -10.227273      -278.2983
   8   2.0000     -10.226206      -278.2692
   9   2.0000     -10.225231      -278.2427
  10   2.0000     -10.195492      -277.4334
  11   2.0000     -10.189608      -277.2733
  12   2.0000     -10.180498      -277.0254
  13   2.0000      -1.060177       -28.8489
  14   2.0000      -1.031140       -28.0587
  15   2.0000      -0.999771       -27.2052
  16   2.0000      -0.995218       -27.0813
  17   2.0000      -0.795921       -21.6581
  18   2.0000      -0.774884       -21.0857
  19   2.0000      -0.765528       -20.8311
  20   2.0000      -0.735420       -20.0118
  21   2.0000      -0.672599       -18.3024
  22   2.0000      -0.608879       -16.5684
  23   2.0000      -0.597353       -16.2548
  24   2.0000      -0.595213       -16.1966
  25   2.0000      -0.574708       -15.6386
  26   2.0000      -0.523100       -14.2343
  27   2.0000      -0.514728       -14.0065
  28   2.0000      -0.504522       -13.7287
  29   2.0000      -0.486631       -13.2419
  30   2.0000      -0.472773       -12.8648
  31   2.0000      -0.458684       -12.4814
  32   2.0000      -0.452114       -12.3026
  33   2.0000      -0.433221       -11.7886
  34   2.0000      -0.420079       -11.4309
  35   2.0000      -0.412028       -11.2119
  36   2.0000      -0.406961       -11.0740
  37   2.0000      -0.387085       -10.5331
  38   2.0000      -0.378530       -10.3003
  39   2.0000      -0.366149        -9.9634
  40   2.0000      -0.361965        -9.8496
  41   2.0000      -0.358303        -9.7499
  42   2.0000      -0.353476        -9.6186
  43   2.0000      -0.334657        -9.1065
  44   2.0000      -0.325654        -8.8615
  45   2.0000      -0.308412        -8.3923
  46   2.0000      -0.301675        -8.2090
  47   2.0000      -0.274157        -7.4602
  48   2.0000      -0.267723        -7.2851
  49   2.0000      -0.257886        -7.0174
  50   2.0000      -0.235409        -6.4058
  51   0.0000       0.069173         1.8823
  52   0.0000       0.070022         1.9054
  53   0.0000       0.092780         2.5247
  54   0.0000       0.097029         2.6403
  55   0.0000       0.105328         2.8661

MULLIKEN ATOMIC CHARGES
-----------------------
   0 C :    0.300076
   1 C :   -0.255946
   2 C :   -0.308542
   3 C :   -0.020513
   4 O :   -0.516384
   5 H :    0.158600
   6 H :    0.145217
   7 H :    0.164271
   8 H :    0.149847
   9 H :    0.159487
  10 H :    0.146543
  11 H :    0.154709
  12 C :   -0.019198
  13 H :    0.155569
  14 H :    0.147226
  15 O :   -0.541439
  16 C :    0.059654
  17 C :    0.088351
  18 C :   -0.310472
  19 C :   -0.027764
  20 O :   -0.529154
  21 H :    0.164357
  22 O :   -0.603789
  23 H :    0.166340
  24 H :    0.160776
  25 H :    0.163614
  26 H :    0.141873
  27 H :    0.144780
  28 H :    0.361909
Sum of atomic charges:   -0.0000000

LOEWDIN ATOMIC CHARGES
----------------------
   0 C :    0.181692
   1 C :   -0.219829
   2 C :   -0.219054
   3 C :   -0.032570
   4 O :   -0.321712
   5 H :    0.104417
   6 H :    0.114149
   7 H :    0.127654
   8 H :    0.118779
   9 H :    0.116866
  10 H :    0.103344
  11 H :    0.109011
  12 C :   -0.044276
  13 H :    0.108459
  14 H :    0.107068
  15 O :   -0.343419
  16 C :    0.013083
  17 C :    0.038483
  18 C :   -0.245824
  19 C :   -0.038157
  20 O :   -0.333426
  21 H :    0.116612
  22 O :   -0.416285
  23 H :    0.122108
  24 H :    0.125811
  25 H :    0.122457
  26 H :    0.101809
  27 H :    0.101726
  28 H :    0.281022

  Mayer bond orders larger than 0.100000
B(  0-C ,  1-C ) :   0.9314 B(  0-C ,  4-O ) :   0.9081 B(  0-C ,  5-H ) :   0.9267
B(  0-C , 15-O ) :   0.8435 B(  1-C ,  2-C ) :   0.9530 B(  1-C ,  6-H ) :   0.9349
B(  1-C ,  7-H ) :   0.9355 B(  2-C ,  3-C ) :   0.9534 B(  2-C ,  8-H ) :   0.9444
B(  2-C ,  9-H ) :   0.9448 B(  3-C ,  4-O ) :   0.8243 B(  3-C , 10-H ) :   0.9328
B(  3-C , 11-H ) :   0.9404 B( 12-C , 13-H ) :   0.9090 B( 12-C , 14-H ) :   0.9287
B( 12-C , 15-O ) :   0.8284 B( 12-C , 16-C ) :   0.8944 B( 16-C , 17-C ) :   0.9134
B( 16-C , 20-O ) :   0.8384 B( 16-C , 21-H ) :   0.9276 B( 17-C , 18-C ) :   0.9128
B( 17-C , 22-O ) :   0.8912 B( 17-C , 23-H ) :   0.9275 B( 18-C , 19-C ) :   0.9422
B( 18-C , 24-H ) :   0.9379 B( 18-C , 25-H ) :   0.9269 B( 19-C , 20-O ) :   0.8424
B( 19-C , 26-H ) :   0.9362 B( 19-C , 27-H ) :   0.9385 B( 22-O , 28-H ) :   0.7960

FINAL SINGLE POINT ENERGY      -652.862875564919

DIPOLE MOMENT
-------------
                                X             Y             Z
Electronic contribution:     -4.19329      -2.88553      -1.95693
Nuclear contribution   :      5.24059       3.72846       2.56120
                        -----------------------------------------
Total Dipole Moment    :      1.04730       0.84293       0.60427
                        -----------------------------------------
Magnitude (a.u.)       :      1.47394
Magnitude (Debye)      :      3.74646

Rotational constants in cm-1:     0.054363     0.014295     0.013666
Rotational constants in MHz :  1629.776184   428.563778   409.694740

                             ****ORCA TERMINATED NORMALLY****
TOTAL RUN TIME: 0 days 0 hours 32 minutes 8 seconds 128 msec
