                         Program Version 4.2.0 -  RELEASE  -
|  1> # Test redundant internal optimization
|  2> #
|  3> ! RKS B3LYP  Opt TightSCF SmallPrint
|  4>
|  5> %basis
|  6>         Basis "6-31G"
|  7> end
|  8>
|  9> %geom
| 10> Constraints
| 11> { D 4  0  15  12  60.0   C } # D for Dihedral angle
| 12> { D 0  15  12  16  135.0   C } # D for Dihedral angle
| 13> { D 0  4  3  2   C } # D for Dihedral angle
| 14> { D 4  3  2  1   C } # D for Dihedral angle
| 15> { D 3  2  1  0   C } # D for Dihedral angle
| 16> { D 2  1  0  4   C } # D for Dihedral angle
| 17> { D 1  0  4  3   C } # D for Dihedral angle
| 18> { D 16  20  19  18   C } # D for Dihedral angle
| 19> { D 20  19  18  17   C } # D for Dihedral angle
| 20> { D 19  18  17  16   C } # D for Dihedral angle
| 21> { D 18  17  16  20   C } # D for Dihedral angle
| 22> { D 17  16  20  19   C } # D for Dihedral angle
| 23> { D 15  12  16  20   C } # D for Dihedral angle
| 24> end
| 25> end
| 26>
| 27>
| 28> #%pal
| 29> #nprocs 8
| 30> #end
| 31>
| 32> * xyz 0 1
| 33> C  -21.048   26.222   46.251
| 34> C  -20.361   27.558   45.944
| 35> C  -20.329   28.222   47.341
| 36> C  -20.110   27.022   48.296
| 37> O  -20.473   25.807   47.535
| 38> H  -20.833   25.428   45.533
| 39> H  -19.344   27.382   45.576
| 40> H  -20.898   28.157   45.201
| 41> H  -19.543   28.978   47.434
| 42> H  -21.289   28.710   47.548
| 43> H  -20.733   27.082   49.195
| 44> H  -19.064   26.913   48.597
| 45> C  -23.051   27.452   47.413
| 46> H  -23.428   26.940   48.307
| 47> H  -22.210   28.091   47.713
| 48> O  -22.586   26.394   46.375
| 49> C  -24.175   28.375   46.868
| 50> C  -25.456   27.583   46.581
| 51> C  -26.055   27.432   48.000
| 52> C  -25.671   28.766   48.687
| 53> O  -24.575   29.352   47.887
| 54> H  -23.792   28.940   46.016
| 55> H  -26.124   28.168   45.939
| 56> O  -25.187   26.217   45.892
| 57> H  -27.137   27.265   47.987
| 58> H  -25.591   26.583   48.516
| 59> H  -25.327   28.624   49.717
| 60> H  -26.493   29.488   48.686
| 61> H  -24.520   25.614   46.517
| 62> *
| 63>
| 64>                          ****END OF INPUT****
 Total Charge           Charge          ....    0
 Multiplicity           Mult            ....    1
 Number of Electrons    NEL             ....  102
FINAL SINGLE POINT ENERGY      -652.792682849488
FINAL SINGLE POINT ENERGY      -652.831007794735
FINAL SINGLE POINT ENERGY      -652.850998639739
FINAL SINGLE POINT ENERGY      -652.856386981941
FINAL SINGLE POINT ENERGY      -652.858254397586
FINAL SINGLE POINT ENERGY      -652.859402152859
FINAL SINGLE POINT ENERGY      -652.859941962488
FINAL SINGLE POINT ENERGY      -652.860094911244
FINAL SINGLE POINT ENERGY      -652.860118392151
FINAL SINGLE POINT ENERGY      -652.860119618027
FINAL SINGLE POINT ENERGY      -652.860120711170
                    ***********************HURRAY********************

CARTESIAN COORDINATES (ANGSTROEM)
---------------------------------
  C    -21.213914   26.347775   46.465383
  C    -20.358773   27.503623   45.928013
  C    -19.902731   28.208935   47.240016
  C    -19.728998   27.019774   48.216792
  O    -20.483145   25.886033   47.618576
  H    -21.258548   25.502425   45.776942
  H    -19.500398   27.078842   45.397582
  H    -20.907420   28.158240   45.245969
  H    -18.964831   28.757487   47.106542
  H    -20.649561   28.926846   47.586274
  H    -20.122248   27.216889   49.218256
  H    -18.687838   26.695770   48.297917
  C    -23.149412   27.555319   47.672126
  H    -23.520106   26.992385   48.535339
  H    -22.389170   28.253415   48.020532
  O    -22.622273   26.590527   46.698803
  C    -24.274497   28.343077   46.991795
  C    -25.491357   27.500769   46.571458
  C    -26.246100   27.342012   47.923655
  C    -25.989568   28.689379   48.629211
  O    -24.817237   29.311811   47.941747
  H    -23.860173   28.913640   46.155056
  H    -26.103616   28.093192   45.881626
  O    -25.202967   26.251714   45.917328
  H    -27.309135   27.136875   47.773269
  H    -25.814378   26.497587   48.471544
  H    -25.756060   28.586383   49.693754
  H    -26.822317   29.390056   48.516646
  H    -24.256228   26.014221   46.059849

 Multiplicity           Mult            ....    1
 Number of Electrons    NEL             ....  102
 Basis Dimension        Dim             ....  149

ORBITAL ENERGIES
----------------

  NO   OCC          E(Eh)            E(eV)
   0   2.0000     -19.164032      -521.4798
   1   2.0000     -19.153707      -521.1989
   2   2.0000     -19.141410      -520.8642
   3   2.0000     -19.111961      -520.0629
   4   2.0000     -10.292859      -280.0829
   5   2.0000     -10.239418      -278.6287
   6   2.0000     -10.239015      -278.6178
   7   2.0000     -10.234969      -278.5077
   8   2.0000     -10.230096      -278.3751
   9   2.0000     -10.227465      -278.3035
  10   2.0000     -10.201953      -277.6092
  11   2.0000     -10.200483      -277.5692
  12   2.0000     -10.178630      -276.9746
  13   2.0000      -1.064627       -28.9700
  14   2.0000      -1.026454       -27.9312
  15   2.0000      -1.009322       -27.4650
  16   2.0000      -0.991553       -26.9815
  17   2.0000      -0.798300       -21.7228
  18   2.0000      -0.780221       -21.2309
  19   2.0000      -0.768660       -20.9163
  20   2.0000      -0.738925       -20.1072
  21   2.0000      -0.684251       -18.6194
  22   2.0000      -0.614527       -16.7221
  23   2.0000      -0.602623       -16.3982
  24   2.0000      -0.596280       -16.2256
  25   2.0000      -0.578013       -15.7285
  26   2.0000      -0.536794       -14.6069
  27   2.0000      -0.511987       -13.9319
  28   2.0000      -0.509879       -13.8745
  29   2.0000      -0.488536       -13.2937
  30   2.0000      -0.476133       -12.9562
  31   2.0000      -0.461640       -12.5619
  32   2.0000      -0.444469       -12.0946
  33   2.0000      -0.435222       -11.8430
  34   2.0000      -0.426658       -11.6100
  35   2.0000      -0.425309       -11.5732
  36   2.0000      -0.411379       -11.1942
  37   2.0000      -0.392648       -10.6845
  38   2.0000      -0.388636       -10.5753
  39   2.0000      -0.371276       -10.1029
  40   2.0000      -0.368815       -10.0360
  41   2.0000      -0.357458        -9.7269
  42   2.0000      -0.350360        -9.5338
  43   2.0000      -0.340800        -9.2736
  44   2.0000      -0.327268        -8.9054
  45   2.0000      -0.320034        -8.7086
  46   2.0000      -0.289801        -7.8859
  47   2.0000      -0.274867        -7.4795
  48   2.0000      -0.270776        -7.3682
  49   2.0000      -0.248700        -6.7675
  50   2.0000      -0.240388        -6.5413
  51   0.0000       0.054357         1.4791
  52   0.0000       0.069154         1.8818
  53   0.0000       0.089604         2.4383
  54   0.0000       0.095291         2.5930
  55   0.0000       0.103993         2.8298

MULLIKEN ATOMIC CHARGES
-----------------------
   0 C :    0.312469
   1 C :   -0.274364
   2 C :   -0.323254
   3 C :   -0.015377
   4 O :   -0.501034
   5 H :    0.171052
   6 H :    0.161070
   7 H :    0.154493
   8 H :    0.150876
   9 H :    0.160278
  10 H :    0.150489
  11 H :    0.154571
  12 C :   -0.022156
  13 H :    0.158011
  14 H :    0.151386
  15 O :   -0.567163
  16 C :    0.061284
  17 C :    0.121891
  18 C :   -0.303806
  19 C :   -0.028662
  20 O :   -0.523533
  21 H :    0.149790
  22 H :    0.146115
  23 O :   -0.640014
  24 H :    0.153212
  25 H :    0.148141
  26 H :    0.145083
  27 H :    0.152172
  28 H :    0.396979
Sum of atomic charges:   -0.0000000

LOEWDIN ATOMIC CHARGES
----------------------
   0 C :    0.179854
   1 C :   -0.226516
   2 C :   -0.224569
   3 C :   -0.033547
   4 O :   -0.315946
   5 H :    0.115995
   6 H :    0.124619
   7 H :    0.121480
   8 H :    0.118684
   9 H :    0.112513
  10 H :    0.105872
  11 H :    0.108734
  12 C :   -0.044923
  13 H :    0.109061
  14 H :    0.109796
  15 O :   -0.334802
  16 C :    0.016009
  17 C :    0.042679
  18 C :   -0.238031
  19 C :   -0.034359
  20 O :   -0.327213
  21 H :    0.110281
  22 H :    0.104717
  23 O :   -0.433719
  24 H :    0.122298
  25 H :    0.112625
  26 H :    0.102706
  27 H :    0.106852
  28 H :    0.288848

  Mayer bond orders larger than 0.100000
B(  0-C ,  1-C ) :   0.9218 B(  0-C ,  4-O ) :   0.9232 B(  0-C ,  5-H ) :   0.9350
B(  0-C , 15-O ) :   0.8476 B(  1-C ,  2-C ) :   0.9534 B(  1-C ,  6-H ) :   0.9336
B(  1-C ,  7-H ) :   0.9359 B(  2-C ,  3-C ) :   0.9465 B(  2-C ,  8-H ) :   0.9433
B(  2-C ,  9-H ) :   0.9356 B(  3-C ,  4-O ) :   0.8380 B(  3-C , 10-H ) :   0.9336
B(  3-C , 11-H ) :   0.9381 B( 12-C , 13-H ) :   0.9285 B( 12-C , 14-H ) :   0.9125
B( 12-C , 15-O ) :   0.7749 B( 12-C , 16-C ) :   0.8971 B( 16-C , 17-C ) :   0.9139
B( 16-C , 20-O ) :   0.8563 B( 16-C , 21-H ) :   0.9307 B( 17-C , 18-C ) :   0.9017
B( 17-C , 22-H ) :   0.9311 B( 17-C , 23-O ) :   0.9371 B( 18-C , 19-C ) :   0.9395
B( 18-C , 24-H ) :   0.9439 B( 18-C , 25-H ) :   0.9424 B( 19-C , 20-O ) :   0.8292
B( 19-C , 26-H ) :   0.9335 B( 19-C , 27-H ) :   0.9381 B( 23-O , 28-H ) :   0.7230

FINAL SINGLE POINT ENERGY      -652.860120934687

DIPOLE MOMENT
-------------
                                X             Y             Z
Electronic contribution:     -1.54143      -2.62775      -1.76880
Nuclear contribution   :      2.58709       3.40832       2.15870
                        -----------------------------------------
Total Dipole Moment    :      1.04567       0.78057       0.38990
                        -----------------------------------------
Magnitude (a.u.)       :      1.36189
Magnitude (Debye)      :      3.46164

Rotational constants in cm-1:     0.052364     0.014198     0.012849
Rotational constants in MHz :  1569.839103   425.644099   385.208060

                             ****ORCA TERMINATED NORMALLY****
TOTAL RUN TIME: 0 days 0 hours 30 minutes 31 seconds 16 msec
