                         Program Version 4.2.0 -  RELEASE  -
|  1> # Test redundant internal optimization
|  2> #
|  3> ! RKS B3LYP  Opt TightSCF SmallPrint
|  4>
|  5> %basis
|  6>         Basis "6-31G"
|  7> end
|  8>
|  9> %geom
| 10> Constraints
| 11> { D 4  0  15  12  300.0   C } # D for Dihedral angle
| 12> { D 0  15  12  16  120.0   C } # D for Dihedral angle
| 13> { D 0  4  3  2   C } # D for Dihedral angle
| 14> { D 4  3  2  1   C } # D for Dihedral angle
| 15> { D 3  2  1  0   C } # D for Dihedral angle
| 16> { D 2  1  0  4   C } # D for Dihedral angle
| 17> { D 1  0  4  3   C } # D for Dihedral angle
| 18> { D 16  20  19  18   C } # D for Dihedral angle
| 19> { D 20  19  18  17   C } # D for Dihedral angle
| 20> { D 19  18  17  16   C } # D for Dihedral angle
| 21> { D 18  17  16  20   C } # D for Dihedral angle
| 22> { D 17  16  20  19   C } # D for Dihedral angle
| 23> { D 15  12  16  20   C } # D for Dihedral angle
| 24> end
| 25> end
| 26>
| 27>
| 28> #%pal
| 29> #nprocs 8
| 30> #end
| 31>
| 32> * xyz 0 1
| 33> C  -21.048   26.222   46.251
| 34> C  -20.361   27.558   45.944
| 35> C  -20.329   28.222   47.341
| 36> C  -20.110   27.022   48.296
| 37> O  -20.473   25.807   47.535
| 38> H  -20.833   25.428   45.533
| 39> H  -19.344   27.382   45.576
| 40> H  -20.898   28.157   45.201
| 41> H  -19.543   28.978   47.434
| 42> H  -21.289   28.710   47.548
| 43> H  -20.733   27.082   49.195
| 44> H  -19.064   26.913   48.597
| 45> C  -23.362   25.116   46.798
| 46> H  -24.076   24.849   46.009
| 47> H  -22.670   24.275   46.933
| 48> O  -22.586   26.394   46.375
| 49> C  -24.146   25.302   48.126
| 50> C  -25.256   26.348   47.975
| 51> C  -26.359   25.535   47.258
| 52> C  -26.204   24.119   47.867
| 53> O  -24.858   24.068   48.477
| 54> H  -23.440   25.504   48.933
| 55> H  -25.599   26.677   48.963
| 56> O  -24.809   27.600   47.170
| 57> H  -27.360   25.949   47.413
| 58> H  -26.169   25.514   46.178
| 59> H  -26.287   23.327   47.115
| 60> H  -26.927   23.926   48.664
| 61> H  -24.462   27.294   46.178
| 62> *
| 63>
| 64>                          ****END OF INPUT****
 Total Charge           Charge          ....    0
 Multiplicity           Mult            ....    1
 Number of Electrons    NEL             ....  102
FINAL SINGLE POINT ENERGY      -652.836783045141
FINAL SINGLE POINT ENERGY      -652.861747224828
FINAL SINGLE POINT ENERGY      -652.868010214262
FINAL SINGLE POINT ENERGY      -652.870195188442
FINAL SINGLE POINT ENERGY      -652.871380535996
FINAL SINGLE POINT ENERGY      -652.871943179669
FINAL SINGLE POINT ENERGY      -652.872109596404
FINAL SINGLE POINT ENERGY      -652.872150397728
FINAL SINGLE POINT ENERGY      -652.872152802745
                    ***********************HURRAY********************

CARTESIAN COORDINATES (ANGSTROEM)
---------------------------------
  C    -21.077156   26.122212   46.246334
  C    -20.545908   27.527069   45.965425
  C    -20.607219   28.173402   47.367421
  C    -20.265851   27.002429   48.313122
  O    -20.485613   25.762769   47.512942
  H    -20.796718   25.337787   45.538689
  H    -19.513134   27.452890   45.607292
  H    -21.142218   28.055434   45.218586
  H    -19.910718   29.010086   47.474038
  H    -21.619889   28.540921   47.560976
  H    -20.901097   26.964471   49.200933
  H    -19.215974   26.988380   48.618048
  C    -23.257623   25.009819   46.731665
  H    -23.925133   24.740276   45.906583
  H    -22.564799   24.186406   46.924208
  O    -22.520027   26.218081   46.329213
  C    -24.034477   25.322543   48.014880
  C    -25.109101   26.413668   47.877633
  C    -26.282428   25.622119   47.233763
  C    -26.160723   24.226096   47.878581
  O    -24.776852   24.135806   48.436157
  H    -23.317352   25.544322   48.809779
  H    -25.403451   26.742679   48.880270
  O    -24.718850   27.593849   47.145694
  H    -27.247859   26.097313   47.428536
  H    -26.138340   25.589865   46.147929
  H    -26.306944   23.405514   47.169246
  H    -26.844422   24.089772   48.721354
  H    -23.905122   27.402021   46.623701

 Multiplicity           Mult            ....    1
 Number of Electrons    NEL             ....  102
 Basis Dimension        Dim             ....  149

ORBITAL ENERGIES
----------------

  NO   OCC          E(Eh)            E(eV)
   0   2.0000     -19.163733      -521.4717
   1   2.0000     -19.151684      -521.1438
   2   2.0000     -19.138238      -520.7779
   3   2.0000     -19.115258      -520.1526
   4   2.0000     -10.291793      -280.0539
   5   2.0000     -10.234837      -278.5041
   6   2.0000     -10.232999      -278.4541
   7   2.0000     -10.230686      -278.3911
   8   2.0000     -10.229668      -278.3634
   9   2.0000     -10.225394      -278.2471
  10   2.0000     -10.194337      -277.4020
  11   2.0000     -10.191804      -277.3331
  12   2.0000     -10.178855      -276.9807
  13   2.0000      -1.067281       -29.0422
  14   2.0000      -1.023397       -27.8481
  15   2.0000      -1.005912       -27.3723
  16   2.0000      -0.992674       -27.0120
  17   2.0000      -0.797755       -21.7080
  18   2.0000      -0.771934       -21.0054
  19   2.0000      -0.766827       -20.8664
  20   2.0000      -0.735025       -20.0011
  21   2.0000      -0.678009       -18.4496
  22   2.0000      -0.606641       -16.5075
  23   2.0000      -0.598951       -16.2983
  24   2.0000      -0.594232       -16.1699
  25   2.0000      -0.581985       -15.8366
  26   2.0000      -0.528311       -14.3761
  27   2.0000      -0.519657       -14.1406
  28   2.0000      -0.499974       -13.6050
  29   2.0000      -0.485544       -13.2123
  30   2.0000      -0.474444       -12.9103
  31   2.0000      -0.460560       -12.5325
  32   2.0000      -0.441959       -12.0263
  33   2.0000      -0.431255       -11.7351
  34   2.0000      -0.424158       -11.5419
  35   2.0000      -0.417152       -11.3513
  36   2.0000      -0.408339       -11.1115
  37   2.0000      -0.388299       -10.5662
  38   2.0000      -0.381473       -10.3804
  39   2.0000      -0.366811        -9.9814
  40   2.0000      -0.364925        -9.9301
  41   2.0000      -0.356519        -9.7014
  42   2.0000      -0.349990        -9.5237
  43   2.0000      -0.345595        -9.4041
  44   2.0000      -0.327981        -8.9248
  45   2.0000      -0.312309        -8.4983
  46   2.0000      -0.290632        -7.9085
  47   2.0000      -0.282750        -7.6940
  48   2.0000      -0.265230        -7.2173
  49   2.0000      -0.249207        -6.7813
  50   2.0000      -0.240145        -6.5347
  51   0.0000       0.058074         1.5803
  52   0.0000       0.080205         2.1825
  53   0.0000       0.092749         2.5238
  54   0.0000       0.097413         2.6508
  55   0.0000       0.106901         2.9089

MULLIKEN ATOMIC CHARGES
-----------------------
   0 C :    0.294993
   1 C :   -0.266588
   2 C :   -0.304663
   3 C :   -0.011252
   4 O :   -0.509509
   5 H :    0.155392
   6 H :    0.151702
   7 H :    0.160328
   8 H :    0.147009
   9 H :    0.168587
  10 H :    0.153953
  11 H :    0.149600
  12 C :   -0.026106
  13 H :    0.147508
  14 H :    0.176186
  15 O :   -0.564638
  16 C :    0.055165
  17 C :    0.122131
  18 C :   -0.306388
  19 C :   -0.021051
  20 O :   -0.520277
  21 H :    0.161077
  22 H :    0.145741
  23 O :   -0.645429
  24 H :    0.149931
  25 H :    0.147362
  26 H :    0.141416
  27 H :    0.150150
  28 H :    0.397672
Sum of atomic charges:   -0.0000000

LOEWDIN ATOMIC CHARGES
----------------------
   0 C :    0.177212
   1 C :   -0.215014
   2 C :   -0.217274
   3 C :   -0.028540
   4 O :   -0.326289
   5 H :    0.103207
   6 H :    0.117811
   7 H :    0.125253
   8 H :    0.117195
   9 H :    0.121232
  10 H :    0.107698
  11 H :    0.106675
  12 C :   -0.046155
  13 H :    0.105304
  14 H :    0.124145
  15 O :   -0.342310
  16 C :    0.014109
  17 C :    0.041776
  18 C :   -0.237957
  19 C :   -0.032700
  20 O :   -0.324408
  21 H :    0.115461
  22 H :    0.104980
  23 O :   -0.436896
  24 H :    0.120482
  25 H :    0.111583
  26 H :    0.101655
  27 H :    0.106202
  28 H :    0.285561

  Mayer bond orders larger than 0.100000
B(  0-C ,  1-C ) :   0.9516 B(  0-C ,  4-O ) :   0.9175 B(  0-C ,  5-H ) :   0.9220
B(  0-C , 15-O ) :   0.8217 B(  1-C ,  2-C ) :   0.9531 B(  1-C ,  6-H ) :   0.9391
B(  1-C ,  7-H ) :   0.9353 B(  2-C ,  3-C ) :   0.9539 B(  2-C ,  8-H ) :   0.9443
B(  2-C ,  9-H ) :   0.9393 B(  3-C ,  4-O ) :   0.8276 B(  3-C , 10-H ) :   0.9335
B(  3-C , 11-H ) :   0.9402 B( 12-C , 13-H ) :   0.9319 B( 12-C , 14-H ) :   0.9224
B( 12-C , 15-O ) :   0.7771 B( 12-C , 16-C ) :   0.9012 B( 16-C , 17-C ) :   0.9130
B( 16-C , 20-O ) :   0.8535 B( 16-C , 21-H ) :   0.9275 B( 17-C , 18-C ) :   0.9014
B( 17-C , 22-H ) :   0.9321 B( 17-C , 23-O ) :   0.9310 B( 18-C , 19-C ) :   0.9388
B( 18-C , 24-H ) :   0.9454 B( 18-C , 25-H ) :   0.9433 B( 19-C , 20-O ) :   0.8350
B( 19-C , 26-H ) :   0.9341 B( 19-C , 27-H ) :   0.9384 B( 23-O , 28-H ) :   0.7205

FINAL SINGLE POINT ENERGY      -652.872153730519

DIPOLE MOMENT
-------------
                                X             Y             Z
Electronic contribution:      0.21299      -2.37819       0.51789
Nuclear contribution   :      0.31639       2.55852      -1.04678
                        -----------------------------------------
Total Dipole Moment    :      0.52938       0.18034      -0.52889
                        -----------------------------------------
Magnitude (a.u.)       :      0.76974
Magnitude (Debye)      :      1.95651

Rotational constants in cm-1:     0.055154     0.014903     0.013780
Rotational constants in MHz :  1653.470686   446.779772   413.113688

                             ****ORCA TERMINATED NORMALLY****
TOTAL RUN TIME: 0 days 1 hours 25 minutes 35 seconds 32 msec
