                         Program Version 4.2.0 -  RELEASE  -
|  1> # Test redundant internal optimization
|  2> #
|  3> ! RKS B3LYP  Opt TightSCF SmallPrint
|  4>
|  5> %basis
|  6>         Basis "6-31G"
|  7> end
|  8>
|  9> %geom
| 10> Constraints
| 11> { D 4  0  15  12  345.0   C } # D for Dihedral angle
| 12> { D 0  15  12  16  285.0   C } # D for Dihedral angle
| 13> { D 0  4  3  2   C } # D for Dihedral angle
| 14> { D 4  3  2  1   C } # D for Dihedral angle
| 15> { D 3  2  1  0   C } # D for Dihedral angle
| 16> { D 2  1  0  4   C } # D for Dihedral angle
| 17> { D 1  0  4  3   C } # D for Dihedral angle
| 18> { D 16  20  19  18   C } # D for Dihedral angle
| 19> { D 20  19  18  17   C } # D for Dihedral angle
| 20> { D 19  18  17  16   C } # D for Dihedral angle
| 21> { D 18  17  16  20   C } # D for Dihedral angle
| 22> { D 17  16  20  19   C } # D for Dihedral angle
| 23> { D 15  12  16  20   C } # D for Dihedral angle
| 24> end
| 25> end
| 26>
| 27>
| 28> #%pal
| 29> #nprocs 8
| 30> #end
| 31>
| 32> * xyz 0 1
| 33> C  -21.048   26.222   46.251
| 34> C  -20.361   27.558   45.944
| 35> C  -20.329   28.222   47.341
| 36> C  -20.110   27.022   48.296
| 37> O  -20.473   25.807   47.535
| 38> H  -20.833   25.428   45.533
| 39> H  -19.344   27.382   45.576
| 40> H  -20.898   28.157   45.201
| 41> H  -19.543   28.978   47.434
| 42> H  -21.289   28.710   47.548
| 43> H  -20.733   27.082   49.195
| 44> H  -19.064   26.913   48.597
| 45> C  -23.221   25.764   47.645
| 46> H  -22.613   26.025   48.521
| 47> H  -24.234   26.155   47.802
| 48> O  -22.586   26.394   46.375
| 49> C  -23.319   24.216   47.563
| 50> C  -24.053   23.639   48.778
| 51> C  -25.532   23.907   48.408
| 52> C  -25.550   23.715   46.871
| 53> O  -24.146   23.815   46.419
| 54> H  -22.322   23.802   47.398
| 55> H  -23.864   22.563   48.857
| 56> O  -23.637   24.309   50.116
| 57> H  -26.227   23.234   48.921
| 58> H  -25.805   24.936   48.672
| 59> H  -26.146   24.479   46.360
| 60> H  -25.914   22.726   46.578
| 61> H  -23.819   25.388   50.062
| 62> *
| 63>
| 64>                          ****END OF INPUT****
 Total Charge           Charge          ....    0
 Multiplicity           Mult            ....    1
 Number of Electrons    NEL             ....  102
FINAL SINGLE POINT ENERGY      -652.827860116150
FINAL SINGLE POINT ENERGY      -652.850907103985
FINAL SINGLE POINT ENERGY      -652.855698015731
FINAL SINGLE POINT ENERGY      -652.856538011070
FINAL SINGLE POINT ENERGY      -652.856696460827
FINAL SINGLE POINT ENERGY      -652.856724288219
FINAL SINGLE POINT ENERGY      -652.856727270447
                    ***********************HURRAY********************

CARTESIAN COORDINATES (ANGSTROEM)
---------------------------------
  C    -21.069100   26.198104   46.306201
  C    -20.445862   27.550029   45.958255
  C    -20.328244   28.210798   47.350486
  C    -20.006448   27.020524   48.281385
  O    -20.400290   25.798756   47.524097
  H    -20.884604   25.400404   45.582631
  H    -19.458386   27.388220   45.511018
  H    -21.065946   28.118226   45.261935
  H    -19.554822   28.984234   47.386538
  H    -21.283787   28.670260   47.622699
  H    -20.559502   27.043467   49.224608
  H    -18.938350   26.921312   48.494240
  C    -23.167179   25.812033   47.620042
  H    -22.622699   26.081941   48.531788
  H    -24.144207   26.304886   47.620020
  O    -22.510517   26.361333   46.445102
  C    -23.317420   24.288613   47.575800
  C    -24.063120   23.712404   48.791628
  C    -25.554270   23.925166   48.384856
  C    -25.522492   23.698388   46.857096
  O    -24.107528   23.835456   46.433701
  H    -22.326800   23.841756   47.460792
  H    -23.840837   22.647165   48.882719
  O    -23.699946   24.270084   50.078749
  H    -26.227249   23.239206   48.905424
  H    -25.857693   24.950764   48.633602
  H    -26.132282   24.420516   46.305031
  H    -25.842158   22.688193   46.583924
  H    -24.081262   25.165761   50.182633

 Multiplicity           Mult            ....    1
 Number of Electrons    NEL             ....  102
 Basis Dimension        Dim             ....  149

ORBITAL ENERGIES
----------------

  NO   OCC          E(Eh)            E(eV)
   0   2.0000     -19.147691      -521.0352
   1   2.0000     -19.146790      -521.0106
   2   2.0000     -19.134328      -520.6715
   3   2.0000     -19.131658      -520.5989
   4   2.0000     -10.274355      -279.5794
   5   2.0000     -10.240891      -278.6688
   6   2.0000     -10.230203      -278.3780
   7   2.0000     -10.226215      -278.2695
   8   2.0000     -10.225041      -278.2375
   9   2.0000     -10.222018      -278.1552
  10   2.0000     -10.192367      -277.3484
  11   2.0000     -10.188425      -277.2411
  12   2.0000     -10.183193      -277.0988
  13   2.0000      -1.052299       -28.6345
  14   2.0000      -1.029643       -28.0180
  15   2.0000      -1.011118       -27.5139
  16   2.0000      -0.987994       -26.8847
  17   2.0000      -0.789285       -21.4775
  18   2.0000      -0.778125       -21.1739
  19   2.0000      -0.762448       -20.7473
  20   2.0000      -0.732307       -19.9271
  21   2.0000      -0.675694       -18.3866
  22   2.0000      -0.607775       -16.5384
  23   2.0000      -0.601287       -16.3619
  24   2.0000      -0.597613       -16.2619
  25   2.0000      -0.561110       -15.2686
  26   2.0000      -0.523378       -14.2418
  27   2.0000      -0.510219       -13.8838
  28   2.0000      -0.498424       -13.5628
  29   2.0000      -0.491917       -13.3857
  30   2.0000      -0.466165       -12.6850
  31   2.0000      -0.456401       -12.4193
  32   2.0000      -0.436786       -11.8855
  33   2.0000      -0.430617       -11.7177
  34   2.0000      -0.423369       -11.5204
  35   2.0000      -0.414899       -11.2900
  36   2.0000      -0.407772       -11.0961
  37   2.0000      -0.396030       -10.7765
  38   2.0000      -0.375850       -10.2274
  39   2.0000      -0.368986       -10.0406
  40   2.0000      -0.358570        -9.7572
  41   2.0000      -0.353062        -9.6073
  42   2.0000      -0.347595        -9.4585
  43   2.0000      -0.328601        -8.9417
  44   2.0000      -0.326580        -8.8867
  45   2.0000      -0.311254        -8.4696
  46   2.0000      -0.300143        -8.1673
  47   2.0000      -0.267563        -7.2807
  48   2.0000      -0.261059        -7.1038
  49   2.0000      -0.258074        -7.0225
  50   2.0000      -0.227753        -6.1975
  51   0.0000       0.053153         1.4464
  52   0.0000       0.076719         2.0876
  53   0.0000       0.087779         2.3886
  54   0.0000       0.093009         2.5309
  55   0.0000       0.106372         2.8945

MULLIKEN ATOMIC CHARGES
-----------------------
   0 C :    0.293326
   1 C :   -0.256036
   2 C :   -0.303522
   3 C :   -0.015989
   4 O :   -0.515612
   5 H :    0.161677
   6 H :    0.143719
   7 H :    0.162124
   8 H :    0.145594
   9 H :    0.154014
  10 H :    0.145014
  11 H :    0.150742
  12 C :   -0.016461
  13 H :    0.136649
  14 H :    0.137742
  15 O :   -0.524728
  16 C :    0.082731
  17 C :    0.082663
  18 C :   -0.321871
  19 C :   -0.005443
  20 O :   -0.509759
  21 H :    0.175987
  22 H :    0.167613
  23 O :   -0.598457
  24 H :    0.157315
  25 H :    0.127337
  26 H :    0.145800
  27 H :    0.144718
  28 H :    0.353114
Sum of atomic charges:   -0.0000000

LOEWDIN ATOMIC CHARGES
----------------------
   0 C :    0.178994
   1 C :   -0.216265
   2 C :   -0.218793
   3 C :   -0.031747
   4 O :   -0.322858
   5 H :    0.105432
   6 H :    0.113291
   7 H :    0.126716
   8 H :    0.116271
   9 H :    0.114655
  10 H :    0.101706
  11 H :    0.106983
  12 C :   -0.049679
  13 H :    0.100447
  14 H :    0.105166
  15 O :   -0.327468
  16 C :    0.008505
  17 C :    0.035072
  18 C :   -0.240947
  19 C :   -0.029581
  20 O :   -0.318136
  21 H :    0.123213
  22 H :    0.119347
  23 O :   -0.407314
  24 H :    0.122345
  25 H :    0.101462
  26 H :    0.103442
  27 H :    0.104138
  28 H :    0.275601

  Mayer bond orders larger than 0.100000
B(  0-C ,  1-C ) :   0.9391 B(  0-C ,  4-O ) :   0.8967 B(  0-C ,  5-H ) :   0.9244
B(  0-C , 15-O ) :   0.8458 B(  1-C ,  2-C ) :   0.9524 B(  1-C ,  6-H ) :   0.9368
B(  1-C ,  7-H ) :   0.9358 B(  2-C ,  3-C ) :   0.9534 B(  2-C ,  8-H ) :   0.9450
B(  2-C ,  9-H ) :   0.9458 B(  3-C ,  4-O ) :   0.8307 B(  3-C , 10-H ) :   0.9316
B(  3-C , 11-H ) :   0.9406 B( 12-C , 13-H ) :   0.8995 B( 12-C , 14-H ) :   0.9394
B( 12-C , 15-O ) :   0.8628 B( 12-C , 16-C ) :   0.8844 B( 16-C , 17-C ) :   0.8732
B( 16-C , 20-O ) :   0.8612 B( 16-C , 21-H ) :   0.9242 B( 17-C , 18-C ) :   0.9224
B( 17-C , 22-H ) :   0.9329 B( 17-C , 23-O ) :   0.8959 B( 18-C , 19-C ) :   0.9395
B( 18-C , 24-H ) :   0.9417 B( 18-C , 25-H ) :   0.9427 B( 19-C , 20-O ) :   0.8517
B( 19-C , 26-H ) :   0.9313 B( 19-C , 27-H ) :   0.9385 B( 23-O , 28-H ) :   0.7991

FINAL SINGLE POINT ENERGY      -652.856727631757

DIPOLE MOMENT
-------------
                                X             Y             Z
Electronic contribution:      0.20457      -3.65110      -1.15655
Nuclear contribution   :     -0.57233       4.63031       1.62758
                        -----------------------------------------
Total Dipole Moment    :     -0.36776       0.97922       0.47103
                        -----------------------------------------
Magnitude (a.u.)       :      1.14716
Magnitude (Debye)      :      2.91586

Rotational constants in cm-1:     0.054295     0.014422     0.012643
Rotational constants in MHz :  1627.733206   432.373900   379.041996

                             ****ORCA TERMINATED NORMALLY****
TOTAL RUN TIME: 0 days 0 hours 17 minutes 18 seconds 716 msec
