                         Program Version 4.2.0 -  RELEASE  -
|  1> # Test redundant internal optimization
|  2> #
|  3> ! RKS B3LYP  Opt TightSCF SmallPrint
|  4>
|  5> %basis
|  6>         Basis "6-31G"
|  7> end
|  8>
|  9> %geom
| 10> Constraints
| 11> { D 4  0  15  12  315.0   C } # D for Dihedral angle
| 12> { D 0  15  12  16  165.0   C } # D for Dihedral angle
| 13> { D 0  4  3  2   C } # D for Dihedral angle
| 14> { D 4  3  2  1   C } # D for Dihedral angle
| 15> { D 3  2  1  0   C } # D for Dihedral angle
| 16> { D 2  1  0  4   C } # D for Dihedral angle
| 17> { D 1  0  4  3   C } # D for Dihedral angle
| 18> { D 16  20  19  18   C } # D for Dihedral angle
| 19> { D 20  19  18  17   C } # D for Dihedral angle
| 20> { D 19  18  17  16   C } # D for Dihedral angle
| 21> { D 18  17  16  20   C } # D for Dihedral angle
| 22> { D 17  16  20  19   C } # D for Dihedral angle
| 23> { D 15  12  16  20   C } # D for Dihedral angle
| 24> end
| 25> end
| 26>
| 27>
| 28> #%pal
| 29> #nprocs 8
| 30> #end
| 31>
| 32> * xyz 0 1
| 33> C  -21.048   26.222   46.251
| 34> C  -20.361   27.558   45.944
| 35> C  -20.329   28.222   47.341
| 36> C  -20.110   27.022   48.296
| 37> O  -20.473   25.807   47.535
| 38> H  -20.833   25.428   45.533
| 39> H  -19.344   27.382   45.576
| 40> H  -20.898   28.157   45.201
| 41> H  -19.543   28.978   47.434
| 42> H  -21.289   28.710   47.548
| 43> H  -20.733   27.082   49.195
| 44> H  -19.064   26.913   48.597
| 45> C  -23.319   25.255   47.135
| 46> H  -23.372   24.367   46.492
| 47> H  -22.769   24.986   48.046
| 48> O  -22.586   26.394   46.375
| 49> C  -24.764   25.644   47.552
| 50> C  -25.655   25.873   46.325
| 51> C  -25.999   24.422   45.913
| 52> C  -26.100   23.684   47.272
| 53> O  -25.408   24.535   48.264
| 54> H  -24.722   26.487   48.244
| 55> H  -26.560   26.418   46.615
| 56> O  -24.945   26.669   45.196
| 57> H  -26.924   24.354   45.332
| 58> H  -25.190   24.002   45.304
| 59> H  -25.624   22.699   47.250
| 60> H  -27.134   23.570   47.609
| 61> H  -24.035   26.141   44.890
| 62> *
| 63>
| 64>                          ****END OF INPUT****
 Total Charge           Charge          ....    0
 Multiplicity           Mult            ....    1
 Number of Electrons    NEL             ....  102
FINAL SINGLE POINT ENERGY      -652.835616294982
FINAL SINGLE POINT ENERGY      -652.860586495829
FINAL SINGLE POINT ENERGY      -652.867045628738
FINAL SINGLE POINT ENERGY      -652.869415436318
FINAL SINGLE POINT ENERGY      -652.870729100482
FINAL SINGLE POINT ENERGY      -652.871436964228
FINAL SINGLE POINT ENERGY      -652.871657123572
FINAL SINGLE POINT ENERGY      -652.871702431986
FINAL SINGLE POINT ENERGY      -652.871705894464
                    ***********************HURRAY********************

CARTESIAN COORDINATES (ANGSTROEM)
---------------------------------
  C    -21.073396   26.112394   46.279582
  C    -20.525938   27.497626   45.942027
  C    -20.523654   28.181237   47.326755
  C    -20.170990   27.030327   48.291703
  O    -20.444515   25.774039   47.531606
  H    -20.822385   25.306632   45.582970
  H    -19.509416   27.392036   45.547227
  H    -21.139130   28.021101   45.204994
  H    -19.806113   29.005082   47.385755
  H    -21.520295   28.576441   47.542777
  H    -20.773681   27.025991   49.202822
  H    -19.110999   27.001397   48.557551
  C    -23.196469   25.151890   47.151425
  H    -23.216485   24.233098   46.549113
  H    -22.648322   24.950415   48.073830
  O    -22.520932   26.218238   46.396185
  C    -24.611343   25.642335   47.471419
  C    -25.512306   25.895215   46.249669
  C    -25.960774   24.449805   45.883935
  C    -26.082257   23.763229   47.259584
  O    -25.309989   24.602703   48.223046
  H    -24.547586   26.519297   48.122038
  H    -26.384981   26.473037   46.575386
  O    -24.910511   26.610337   45.153419
  H    -26.898669   24.446096   45.322323
  H    -25.190874   23.987065   45.256502
  H    -25.674577   22.747754   47.275713
  H    -27.111928   23.735526   47.628135
  H    -23.932483   26.630658   45.277512

 Multiplicity           Mult            ....    1
 Number of Electrons    NEL             ....  102
 Basis Dimension        Dim             ....  149

ORBITAL ENERGIES
----------------

  NO   OCC          E(Eh)            E(eV)
   0   2.0000     -19.164447      -521.4911
   1   2.0000     -19.156804      -521.2831
   2   2.0000     -19.137882      -520.7682
   3   2.0000     -19.112100      -520.0667
   4   2.0000     -10.292525      -280.0738
   5   2.0000     -10.236563      -278.5511
   6   2.0000     -10.232200      -278.4323
   7   2.0000     -10.231854      -278.4229
   8   2.0000     -10.228490      -278.3314
   9   2.0000     -10.224632      -278.2264
  10   2.0000     -10.196188      -277.4524
  11   2.0000     -10.194747      -277.4132
  12   2.0000     -10.177437      -276.9421
  13   2.0000      -1.068874       -29.0855
  14   2.0000      -1.024048       -27.8658
  15   2.0000      -1.007108       -27.4048
  16   2.0000      -0.991144       -26.9704
  17   2.0000      -0.799873       -21.7657
  18   2.0000      -0.772138       -21.0109
  19   2.0000      -0.766266       -20.8511
  20   2.0000      -0.736103       -20.0304
  21   2.0000      -0.676183       -18.3999
  22   2.0000      -0.610152       -16.6031
  23   2.0000      -0.598592       -16.2885
  24   2.0000      -0.592179       -16.1140
  25   2.0000      -0.578120       -15.7315
  26   2.0000      -0.532291       -14.4844
  27   2.0000      -0.516704       -14.0602
  28   2.0000      -0.504687       -13.7332
  29   2.0000      -0.485109       -13.2005
  30   2.0000      -0.476196       -12.9579
  31   2.0000      -0.459931       -12.5154
  32   2.0000      -0.441002       -12.0003
  33   2.0000      -0.426645       -11.6096
  34   2.0000      -0.425634       -11.5821
  35   2.0000      -0.419643       -11.4191
  36   2.0000      -0.410592       -11.1728
  37   2.0000      -0.385992       -10.5034
  38   2.0000      -0.382536       -10.4093
  39   2.0000      -0.368885       -10.0379
  40   2.0000      -0.365285        -9.9399
  41   2.0000      -0.360687        -9.8148
  42   2.0000      -0.354722        -9.6525
  43   2.0000      -0.342541        -9.3210
  44   2.0000      -0.327299        -8.9062
  45   2.0000      -0.312917        -8.5149
  46   2.0000      -0.288843        -7.8598
  47   2.0000      -0.277130        -7.5411
  48   2.0000      -0.270065        -7.3489
  49   2.0000      -0.248834        -6.7711
  50   2.0000      -0.240341        -6.5400
  51   0.0000       0.061356         1.6696
  52   0.0000       0.079988         2.1766
  53   0.0000       0.091735         2.4962
  54   0.0000       0.097911         2.6643
  55   0.0000       0.104836         2.8527

MULLIKEN ATOMIC CHARGES
-----------------------
   0 C :    0.305741
   1 C :   -0.267328
   2 C :   -0.299147
   3 C :   -0.012973
   4 O :   -0.510315
   5 H :    0.154809
   6 H :    0.151988
   7 H :    0.162538
   8 H :    0.148150
   9 H :    0.163297
  10 H :    0.153359
  11 H :    0.151959
  12 C :   -0.015898
  13 H :    0.135087
  14 H :    0.183536
  15 O :   -0.568501
  16 C :    0.051906
  17 C :    0.114663
  18 C :   -0.302503
  19 C :   -0.021216
  20 O :   -0.520856
  21 H :    0.155789
  22 H :    0.146046
  23 O :   -0.638345
  24 H :    0.151616
  25 H :    0.145437
  26 H :    0.142957
  27 H :    0.148745
  28 H :    0.389462
Sum of atomic charges:    0.0000000

LOEWDIN ATOMIC CHARGES
----------------------
   0 C :    0.178890
   1 C :   -0.214530
   2 C :   -0.215786
   3 C :   -0.028483
   4 O :   -0.319247
   5 H :    0.101804
   6 H :    0.117997
   7 H :    0.126332
   8 H :    0.117621
   9 H :    0.119649
  10 H :    0.108416
  11 H :    0.107900
  12 C :   -0.047604
  13 H :    0.096539
  14 H :    0.123816
  15 O :   -0.344952
  16 C :    0.018532
  17 C :    0.040624
  18 C :   -0.237931
  19 C :   -0.032401
  20 O :   -0.323536
  21 H :    0.113416
  22 H :    0.104573
  23 O :   -0.435477
  24 H :    0.121130
  25 H :    0.110946
  26 H :    0.102110
  27 H :    0.105571
  28 H :    0.284082

  Mayer bond orders larger than 0.100000
B(  0-C ,  1-C ) :   0.9505 B(  0-C ,  4-O ) :   0.9177 B(  0-C ,  5-H ) :   0.9221
B(  0-C , 15-O ) :   0.8053 B(  1-C ,  2-C ) :   0.9530 B(  1-C ,  6-H ) :   0.9376
B(  1-C ,  7-H ) :   0.9349 B(  2-C ,  3-C ) :   0.9553 B(  2-C ,  8-H ) :   0.9441
B(  2-C ,  9-H ) :   0.9440 B(  3-C ,  4-O ) :   0.8246 B(  3-C , 10-H ) :   0.9350
B(  3-C , 11-H ) :   0.9400 B( 12-C , 13-H ) :   0.9231 B( 12-C , 14-H ) :   0.9131
B( 12-C , 15-O ) :   0.7767 B( 12-C , 16-C ) :   0.9083 B( 16-C , 17-C ) :   0.9110
B( 16-C , 20-O ) :   0.8572 B( 16-C , 21-H ) :   0.9297 B( 17-C , 18-C ) :   0.9029
B( 17-C , 22-H ) :   0.9297 B( 17-C , 23-O ) :   0.9363 B( 18-C , 19-C ) :   0.9388
B( 18-C , 24-H ) :   0.9446 B( 18-C , 25-H ) :   0.9427 B( 19-C , 20-O ) :   0.8315
B( 19-C , 26-H ) :   0.9340 B( 19-C , 27-H ) :   0.9385 B( 23-O , 28-H ) :   0.7252

FINAL SINGLE POINT ENERGY      -652.871707184608

DIPOLE MOMENT
-------------
                                X             Y             Z
Electronic contribution:     -0.97101      -1.12342       0.50908
Nuclear contribution   :      1.88665       1.31583      -0.50172
                        -----------------------------------------
Total Dipole Moment    :      0.91564       0.19241       0.00736
                        -----------------------------------------
Magnitude (a.u.)       :      0.93567
Magnitude (Debye)      :      2.37828

Rotational constants in cm-1:     0.056758     0.013775     0.012409
Rotational constants in MHz :  1701.556521   412.964660   372.019821

                             ****ORCA TERMINATED NORMALLY****
TOTAL RUN TIME: 0 days 0 hours 46 minutes 11 seconds 580 msec
