                         Program Version 4.2.0 -  RELEASE  -
|  1> # Test redundant internal optimization
|  2> #
|  3> ! RKS B3LYP  Opt TightSCF SmallPrint
|  4>
|  5> %basis
|  6>         Basis "6-31G"
|  7> end
|  8>
|  9> %geom
| 10> Constraints
| 11> { D 4  0  15  12  180.0   C } # D for Dihedral angle
| 12> { D 0  15  12  16  270.0   C } # D for Dihedral angle
| 13> { D 0  4  3  2   C } # D for Dihedral angle
| 14> { D 4  3  2  1   C } # D for Dihedral angle
| 15> { D 3  2  1  0   C } # D for Dihedral angle
| 16> { D 2  1  0  4   C } # D for Dihedral angle
| 17> { D 1  0  4  3   C } # D for Dihedral angle
| 18> { D 16  20  19  18   C } # D for Dihedral angle
| 19> { D 20  19  18  17   C } # D for Dihedral angle
| 20> { D 19  18  17  16   C } # D for Dihedral angle
| 21> { D 18  17  16  20   C } # D for Dihedral angle
| 22> { D 17  16  20  19   C } # D for Dihedral angle
| 23> { D 15  12  16  20   C } # D for Dihedral angle
| 24> end
| 25> end
| 26>
| 27>
| 28> #%pal
| 29> #nprocs 8
| 30> #end
| 31>
| 32> * xyz 0 1
| 33> C  -21.048   26.222   46.251
| 34> C  -20.361   27.558   45.944
| 35> C  -20.329   28.222   47.341
| 36> C  -20.110   27.022   48.296
| 37> O  -20.473   25.807   47.535
| 38> H  -20.833   25.428   45.533
| 39> H  -19.344   27.382   45.576
| 40> H  -20.898   28.157   45.201
| 41> H  -19.543   28.978   47.434
| 42> H  -21.289   28.710   47.548
| 43> H  -20.733   27.082   49.195
| 44> H  -19.064   26.913   48.597
| 45> C  -23.309   26.834   45.072
| 46> H  -22.762   26.441   44.205
| 47> H  -24.330   26.431   45.045
| 48> O  -22.586   26.394   46.375
| 49> C  -23.405   28.378   44.931
| 50> C  -24.223   28.774   43.696
| 51> C  -25.671   28.575   44.203
| 52> C  -25.583   28.993   45.692
| 53> O  -24.151   28.950   46.057
| 54> H  -22.400   28.804   44.963
| 55> H  -24.042   29.825   43.445
| 56> O  -23.898   27.910   42.447
| 57> H  -26.401   29.170   43.645
| 58> H  -25.960   27.521   44.114
| 59> H  -26.141   28.318   46.351
| 60> H  -25.929   30.017   45.859
| 61> H  -24.073   26.853   42.673
| 62> *
| 63>
| 64>                          ****END OF INPUT****
 Total Charge           Charge          ....    0
 Multiplicity           Mult            ....    1
 Number of Electrons    NEL             ....  102
FINAL SINGLE POINT ENERGY      -652.819572249494
FINAL SINGLE POINT ENERGY      -652.843555697120
FINAL SINGLE POINT ENERGY      -652.848575265951
FINAL SINGLE POINT ENERGY      -652.850240949588
FINAL SINGLE POINT ENERGY      -652.850514103407
FINAL SINGLE POINT ENERGY      -652.850579917793
FINAL SINGLE POINT ENERGY      -652.850586040311
FINAL SINGLE POINT ENERGY      -652.850587790923
                    ***********************HURRAY********************

CARTESIAN COORDINATES (ANGSTROEM)
---------------------------------
  C    -21.014952   26.256443   46.185548
  C    -20.242898   27.552003   45.942863
  C    -20.328758   28.244216   47.327187
  C    -20.267290   27.052965   48.304256
  O    -20.607160   25.853397   47.497505
  H    -20.776865   25.442846   45.491008
  H    -19.203424   27.288896   45.709642
  H    -20.621329   28.159714   45.120361
  H    -19.517104   28.960132   47.487350
  H    -21.283949   28.770288   47.419878
  H    -20.984081   27.132490   49.125001
  H    -19.264942   26.883303   48.708802
  C    -23.215292   26.820751   45.087743
  H    -22.748768   26.416969   44.174511
  H    -24.192954   26.344540   45.213430
  O    -22.466609   26.413101   46.262170
  C    -23.389109   28.335704   44.918522
  C    -24.250907   28.706544   43.697211
  C    -25.696084   28.528525   44.258231
  C    -25.545791   28.985042   45.727251
  O    -24.096239   28.940474   46.043240
  H    -22.418598   28.830418   44.880705
  H    -24.072982   29.752086   43.435359
  O    -23.964272   27.973548   42.481998
  H    -26.429575   29.117699   43.702406
  H    -25.989391   27.472470   44.192376
  H    -26.083298   28.343089   46.431534
  H    -25.872619   30.018868   45.873153
  H    -24.343761   27.072480   42.524760

 Multiplicity           Mult            ....    1
 Number of Electrons    NEL             ....  102
 Basis Dimension        Dim             ....  149

ORBITAL ENERGIES
----------------

  NO   OCC          E(Eh)            E(eV)
   0   2.0000     -19.154331      -521.2159
   1   2.0000     -19.140641      -520.8433
   2   2.0000     -19.134680      -520.6811
   3   2.0000     -19.134171      -520.6673
   4   2.0000     -10.276219      -279.6301
   5   2.0000     -10.249767      -278.9103
   6   2.0000     -10.233555      -278.4692
   7   2.0000     -10.233448      -278.4663
   8   2.0000     -10.232154      -278.4311
   9   2.0000     -10.218931      -278.0713
  10   2.0000     -10.199652      -277.5466
  11   2.0000     -10.184278      -277.1283
  12   2.0000     -10.180128      -277.0154
  13   2.0000      -1.048482       -28.5306
  14   2.0000      -1.037643       -28.2357
  15   2.0000      -1.019469       -27.7411
  16   2.0000      -0.986966       -26.8567
  17   2.0000      -0.786493       -21.4016
  18   2.0000      -0.781385       -21.2626
  19   2.0000      -0.768702       -20.9174
  20   2.0000      -0.731792       -19.9131
  21   2.0000      -0.682398       -18.5690
  22   2.0000      -0.615693       -16.7539
  23   2.0000      -0.597481       -16.2583
  24   2.0000      -0.593516       -16.1504
  25   2.0000      -0.575581       -15.6624
  26   2.0000      -0.526647       -14.3308
  27   2.0000      -0.511897       -13.9294
  28   2.0000      -0.498340       -13.5605
  29   2.0000      -0.493937       -13.4407
  30   2.0000      -0.465553       -12.6683
  31   2.0000      -0.453680       -12.3452
  32   2.0000      -0.444864       -12.1054
  33   2.0000      -0.439432       -11.9576
  34   2.0000      -0.430836       -11.7236
  35   2.0000      -0.421326       -11.4649
  36   2.0000      -0.409095       -11.1320
  37   2.0000      -0.401956       -10.9378
  38   2.0000      -0.378667       -10.3041
  39   2.0000      -0.374638       -10.1944
  40   2.0000      -0.358201        -9.7471
  41   2.0000      -0.352773        -9.5994
  42   2.0000      -0.347606        -9.4588
  43   2.0000      -0.332652        -9.0519
  44   2.0000      -0.320404        -8.7186
  45   2.0000      -0.305649        -8.3171
  46   2.0000      -0.292565        -7.9611
  47   2.0000      -0.275713        -7.5025
  48   2.0000      -0.262991        -7.1563
  49   2.0000      -0.252841        -6.8802
  50   2.0000      -0.234599        -6.3838
  51   0.0000       0.049075         1.3354
  52   0.0000       0.077124         2.0987
  53   0.0000       0.080276         2.1844
  54   0.0000       0.092428         2.5151
  55   0.0000       0.100012         2.7215

MULLIKEN ATOMIC CHARGES
-----------------------
   0 C :    0.304390
   1 C :   -0.284100
   2 C :   -0.307956
   3 C :    0.000720
   4 O :   -0.500158
   5 H :    0.138272
   6 H :    0.146199
   7 H :    0.140528
   8 H :    0.139251
   9 H :    0.182096
  10 H :    0.157111
  11 H :    0.138969
  12 C :   -0.023460
  13 H :    0.120117
  14 H :    0.146033
  15 O :   -0.499832
  16 C :    0.085856
  17 C :    0.083911
  18 C :   -0.326737
  19 C :   -0.007849
  20 O :   -0.510350
  21 H :    0.157155
  22 H :    0.167676
  23 O :   -0.600527
  24 H :    0.160142
  25 H :    0.134756
  26 H :    0.152090
  27 H :    0.148182
  28 H :    0.357516
Sum of atomic charges:    0.0000000

LOEWDIN ATOMIC CHARGES
----------------------
   0 C :    0.184056
   1 C :   -0.233712
   2 C :   -0.219683
   3 C :   -0.023866
   4 O :   -0.301635
   5 H :    0.094938
   6 H :    0.115519
   7 H :    0.110950
   8 H :    0.113216
   9 H :    0.127006
  10 H :    0.111031
  11 H :    0.100739
  12 C :   -0.051048
  13 H :    0.092983
  14 H :    0.108961
  15 O :   -0.324556
  16 C :    0.007336
  17 C :    0.034183
  18 C :   -0.241569
  19 C :   -0.028562
  20 O :   -0.318164
  21 H :    0.111176
  22 H :    0.118855
  23 O :   -0.407707
  24 H :    0.123806
  25 H :    0.104633
  26 H :    0.106779
  27 H :    0.105801
  28 H :    0.278535

  Mayer bond orders larger than 0.100000
B(  0-C ,  1-C ) :   0.9269 B(  0-C ,  4-O ) :   0.9409 B(  0-C ,  5-H ) :   0.9202
B(  0-C , 15-O ) :   0.8399 B(  1-C ,  2-C ) :   0.9512 B(  1-C ,  6-H ) :   0.9321
B(  1-C ,  7-H ) :   0.9238 B(  2-C ,  3-C ) :   0.9547 B(  2-C ,  8-H ) :   0.9450
B(  2-C ,  9-H ) :   0.9353 B(  3-C ,  4-O ) :   0.8325 B(  3-C , 10-H ) :   0.9344
B(  3-C , 11-H ) :   0.9402 B( 12-C , 13-H ) :   0.9049 B( 12-C , 14-H ) :   0.9369
B( 12-C , 15-O ) :   0.8755 B( 12-C , 16-C ) :   0.8795 B( 16-C , 17-C ) :   0.8687
B( 16-C , 20-O ) :   0.8630 B( 16-C , 21-H ) :   0.9199 B( 17-C , 18-C ) :   0.9231
B( 17-C , 22-H ) :   0.9328 B( 17-C , 23-O ) :   0.8964 B( 18-C , 19-C ) :   0.9395
B( 18-C , 24-H ) :   0.9412 B( 18-C , 25-H ) :   0.9410 B( 19-C , 20-O ) :   0.8450
B( 19-C , 26-H ) :   0.9307 B( 19-C , 27-H ) :   0.9382 B( 23-O , 28-H ) :   0.7975

FINAL SINGLE POINT ENERGY      -652.850587889741

DIPOLE MOMENT
-------------
                                X             Y             Z
Electronic contribution:     -0.06893      -2.79282       0.23586
Nuclear contribution   :     -0.42989       3.31997      -0.95696
                        -----------------------------------------
Total Dipole Moment    :     -0.49882       0.52715      -0.72110
                        -----------------------------------------
Magnitude (a.u.)       :      1.02308
Magnitude (Debye)      :      2.60047

Rotational constants in cm-1:     0.053300     0.013901     0.012918
Rotational constants in MHz :  1597.890689   416.731828   387.281345

                             ****ORCA TERMINATED NORMALLY****
TOTAL RUN TIME: 0 days 1 hours 6 minutes 58 seconds 323 msec
