                         Program Version 4.2.0 -  RELEASE  -
|  1> # Test redundant internal optimization
|  2> #
|  3> ! RKS B3LYP  Opt TightSCF SmallPrint
|  4>
|  5> %basis
|  6>         Basis "6-31G"
|  7> end
|  8>
|  9> %geom
| 10> Constraints
| 11> { D 4  0  15  12  150.0   C } # D for Dihedral angle
| 12> { D 0  15  12  16  225.0   C } # D for Dihedral angle
| 13> { D 0  4  3  2   C } # D for Dihedral angle
| 14> { D 4  3  2  1   C } # D for Dihedral angle
| 15> { D 3  2  1  0   C } # D for Dihedral angle
| 16> { D 2  1  0  4   C } # D for Dihedral angle
| 17> { D 1  0  4  3   C } # D for Dihedral angle
| 18> { D 16  20  19  18   C } # D for Dihedral angle
| 19> { D 20  19  18  17   C } # D for Dihedral angle
| 20> { D 19  18  17  16   C } # D for Dihedral angle
| 21> { D 18  17  16  20   C } # D for Dihedral angle
| 22> { D 17  16  20  19   C } # D for Dihedral angle
| 23> { D 15  12  16  20   C } # D for Dihedral angle
| 24> end
| 25> end
| 26>
| 27>
| 28> #%pal
| 29> #nprocs 8
| 30> #end
| 31>
| 32> * xyz 0 1
| 33> C  -21.048   26.222   46.251
| 34> C  -20.361   27.558   45.944
| 35> C  -20.329   28.222   47.341
| 36> C  -20.110   27.022   48.296
| 37> O  -20.473   25.807   47.535
| 38> H  -20.833   25.428   45.533
| 39> H  -19.344   27.382   45.576
| 40> H  -20.898   28.157   45.201
| 41> H  -19.543   28.978   47.434
| 42> H  -21.289   28.710   47.548
| 43> H  -20.733   27.082   49.195
| 44> H  -19.064   26.913   48.597
| 45> C  -23.210   27.459   45.431
| 46> H  -22.412   28.089   45.019
| 47> H  -23.730   26.973   44.596
| 48> O  -22.586   26.394   46.375
| 49> C  -24.232   28.378   46.156
| 50> C  -25.334   27.557   46.837
| 51> C  -24.618   27.080   48.124
| 52> C  -23.703   28.277   48.482
| 53> O  -23.584   29.098   47.257
| 54> H  -24.598   29.129   45.453
| 55> H  -26.184   28.202   47.084
| 56> O  -25.848   26.381   45.963
| 57> H  -25.315   26.832   48.930
| 58> H  -24.019   26.186   47.912
| 59> H  -22.704   27.962   48.801
| 60> H  -24.136   28.917   49.257
| 61> H  -25.012   25.722   45.704
| 62> *
| 63>
| 64>                          ****END OF INPUT****
 Total Charge           Charge          ....    0
 Multiplicity           Mult            ....    1
 Number of Electrons    NEL             ....  102
FINAL SINGLE POINT ENERGY      -652.823014437453
FINAL SINGLE POINT ENERGY      -652.847629425928
FINAL SINGLE POINT ENERGY      -652.855564988596
FINAL SINGLE POINT ENERGY      -652.857864530871
FINAL SINGLE POINT ENERGY      -652.858269207221
FINAL SINGLE POINT ENERGY      -652.858352969844
FINAL SINGLE POINT ENERGY      -652.858364010190
                    ***********************HURRAY********************

CARTESIAN COORDINATES (ANGSTROEM)
---------------------------------
  C    -21.045796   26.313868   46.158333
  C    -20.195940   27.557730   45.895331
  C    -20.189732   28.246088   47.286253
  C    -20.176344   27.045963   48.255950
  O    -20.622269   25.875805   47.456368
  H    -20.856529   25.482956   45.473315
  H    -19.189836   27.217990   45.624139
  H    -20.549060   28.209284   45.093677
  H    -19.321818   28.898177   47.422089
  H    -21.098754   28.843896   47.405913
  H    -20.849220   27.166585   49.108567
  H    -19.174010   26.806007   48.622463
  C    -23.182966   27.503033   45.396765
  H    -22.476223   28.205822   44.946267
  H    -23.714795   26.991040   44.583875
  O    -22.496866   26.517081   46.218110
  C    -24.200132   28.306597   46.204748
  C    -25.332717   27.478493   46.838920
  C    -24.689673   27.041584   48.191361
  C    -23.826486   28.261283   48.568859
  O    -23.643564   29.057810   47.322019
  H    -24.611894   29.055341   45.515536
  H    -26.210729   28.107905   46.999349
  O    -25.799881   26.381324   46.018515
  H    -25.442858   26.806199   48.948719
  H    -24.059874   26.165337   48.016701
  H    -22.845738   27.981493   48.956345
  H    -24.321868   28.922129   49.287241
  H    -25.124429   25.670177   46.016272

 Multiplicity           Mult            ....    1
 Number of Electrons    NEL             ....  102
 Basis Dimension        Dim             ....  149

ORBITAL ENERGIES
----------------

  NO   OCC          E(Eh)            E(eV)
   0   2.0000     -19.145422      -520.9734
   1   2.0000     -19.144192      -520.9400
   2   2.0000     -19.141279      -520.8607
   3   2.0000     -19.138143      -520.7754
   4   2.0000     -10.285638      -279.8864
   5   2.0000     -10.236170      -278.5404
   6   2.0000     -10.233410      -278.4652
   7   2.0000     -10.231741      -278.4198
   8   2.0000     -10.228154      -278.3222
   9   2.0000     -10.224657      -278.2271
  10   2.0000     -10.193366      -277.3756
  11   2.0000     -10.185973      -277.1744
  12   2.0000     -10.178108      -276.9604
  13   2.0000      -1.055133       -28.7116
  14   2.0000      -1.028484       -27.9865
  15   2.0000      -1.010262       -27.4906
  16   2.0000      -0.994743       -27.0683
  17   2.0000      -0.789053       -21.4712
  18   2.0000      -0.774525       -21.0759
  19   2.0000      -0.767003       -20.8712
  20   2.0000      -0.736262       -20.0347
  21   2.0000      -0.681613       -18.5476
  22   2.0000      -0.605043       -16.4641
  23   2.0000      -0.602632       -16.3984
  24   2.0000      -0.597342       -16.2545
  25   2.0000      -0.564508       -15.3610
  26   2.0000      -0.530628       -14.4391
  27   2.0000      -0.507821       -13.8185
  28   2.0000      -0.497815       -13.5462
  29   2.0000      -0.495099       -13.4723
  30   2.0000      -0.469389       -12.7727
  31   2.0000      -0.459942       -12.5156
  32   2.0000      -0.446686       -12.1549
  33   2.0000      -0.435466       -11.8496
  34   2.0000      -0.423237       -11.5169
  35   2.0000      -0.413084       -11.2406
  36   2.0000      -0.405577       -11.0363
  37   2.0000      -0.398217       -10.8360
  38   2.0000      -0.382065       -10.3965
  39   2.0000      -0.370144       -10.0721
  40   2.0000      -0.358000        -9.7417
  41   2.0000      -0.353182        -9.6106
  42   2.0000      -0.351614        -9.5679
  43   2.0000      -0.326598        -8.8872
  44   2.0000      -0.317332        -8.6350
  45   2.0000      -0.310031        -8.4364
  46   2.0000      -0.298488        -8.1223
  47   2.0000      -0.271941        -7.3999
  48   2.0000      -0.262169        -7.1340
  49   2.0000      -0.258376        -7.0308
  50   2.0000      -0.240401        -6.5417
  51   0.0000       0.067512         1.8371
  52   0.0000       0.078469         2.1352
  53   0.0000       0.093440         2.5426
  54   0.0000       0.098663         2.6848
  55   0.0000       0.100584         2.7370

MULLIKEN ATOMIC CHARGES
-----------------------
   0 C :    0.325068
   1 C :   -0.301194
   2 C :   -0.318809
   3 C :   -0.008586
   4 O :   -0.501040
   5 H :    0.149607
   6 H :    0.153684
   7 H :    0.148720
   8 H :    0.142036
   9 H :    0.191186
  10 H :    0.149233
  11 H :    0.144038
  12 C :   -0.025720
  13 H :    0.138209
  14 H :    0.144646
  15 O :   -0.546468
  16 C :    0.101392
  17 C :    0.082193
  18 C :   -0.311954
  19 C :   -0.019105
  20 O :   -0.524600
  21 H :    0.147794
  22 H :    0.161291
  23 O :   -0.605806
  24 H :    0.144710
  25 H :    0.180106
  26 H :    0.147759
  27 H :    0.143830
  28 H :    0.367780
Sum of atomic charges:   -0.0000000

LOEWDIN ATOMIC CHARGES
----------------------
   0 C :    0.187647
   1 C :   -0.231448
   2 C :   -0.225097
   3 C :   -0.027832
   4 O :   -0.306921
   5 H :    0.100116
   6 H :    0.120297
   7 H :    0.115738
   8 H :    0.115046
   9 H :    0.129781
  10 H :    0.101846
  11 H :    0.103618
  12 C :   -0.049037
  13 H :    0.102580
  14 H :    0.104444
  15 O :   -0.349892
  16 C :    0.015137
  17 C :    0.037119
  18 C :   -0.242311
  19 C :   -0.026872
  20 O :   -0.326042
  21 H :    0.113139
  22 H :    0.115212
  23 O :   -0.410389
  24 H :    0.115881
  25 H :    0.129327
  26 H :    0.102313
  27 H :    0.101507
  28 H :    0.285093

  Mayer bond orders larger than 0.100000
B(  0-C ,  1-C ) :   0.9344 B(  0-C ,  4-O ) :   0.9354 B(  0-C ,  5-H ) :   0.9273
B(  0-C , 15-O ) :   0.8267 B(  1-C ,  2-C ) :   0.9493 B(  1-C ,  6-H ) :   0.9328
B(  1-C ,  7-H ) :   0.9241 B(  2-C ,  3-C ) :   0.9549 B(  2-C ,  8-H ) :   0.9449
B(  2-C ,  9-H ) :   0.9181 B(  3-C ,  4-O ) :   0.8340 B(  3-C , 10-H ) :   0.9250
B(  3-C , 11-H ) :   0.9389 B( 12-C , 13-H ) :   0.9122 B( 12-C , 14-H ) :   0.9087
B( 12-C , 15-O ) :   0.8408 B( 12-C , 16-C ) :   0.9040 B( 16-C , 17-C ) :   0.8865
B( 16-C , 20-O ) :   0.8734 B( 16-C , 21-H ) :   0.9263 B( 17-C , 18-C ) :   0.9349
B( 17-C , 22-H ) :   0.9365 B( 17-C , 23-O ) :   0.9055 B( 18-C , 19-C ) :   0.9468
B( 18-C , 24-H ) :   0.9405 B( 18-C , 25-H ) :   0.9229 B( 19-C , 20-O ) :   0.8311
B( 19-C , 26-H ) :   0.9200 B( 19-C , 27-H ) :   0.9385 B( 23-O , 28-H ) :   0.7901

FINAL SINGLE POINT ENERGY      -652.858364198055

DIPOLE MOMENT
-------------
                                X             Y             Z
Electronic contribution:     -2.87606      -2.48816      -1.55184
Nuclear contribution   :      3.70205       2.95489       1.46038
                        -----------------------------------------
Total Dipole Moment    :      0.82599       0.46674      -0.09146
                        -----------------------------------------
Magnitude (a.u.)       :      0.95313
Magnitude (Debye)      :      2.42267

Rotational constants in cm-1:     0.045621     0.018472     0.017082
Rotational constants in MHz :  1367.676972   553.772988   512.106603

                             ****ORCA TERMINATED NORMALLY****
TOTAL RUN TIME: 0 days 0 hours 21 minutes 18 seconds 382 msec
