                         Program Version 4.2.0 -  RELEASE  -
|  1> # Test redundant internal optimization
|  2> #
|  3> ! RKS B3LYP  Opt TightSCF SmallPrint
|  4>
|  5> %basis
|  6>         Basis "6-31G"
|  7> end
|  8>
|  9> %geom
| 10> Constraints
| 11> { D 4  0  15  12  255.0   C } # D for Dihedral angle
| 12> { D 0  15  12  16  150.0   C } # D for Dihedral angle
| 13> { D 0  4  3  2   C } # D for Dihedral angle
| 14> { D 4  3  2  1   C } # D for Dihedral angle
| 15> { D 3  2  1  0   C } # D for Dihedral angle
| 16> { D 2  1  0  4   C } # D for Dihedral angle
| 17> { D 1  0  4  3   C } # D for Dihedral angle
| 18> { D 16  20  19  18   C } # D for Dihedral angle
| 19> { D 20  19  18  17   C } # D for Dihedral angle
| 20> { D 19  18  17  16   C } # D for Dihedral angle
| 21> { D 18  17  16  20   C } # D for Dihedral angle
| 22> { D 17  16  20  19   C } # D for Dihedral angle
| 23> { D 15  12  16  20   C } # D for Dihedral angle
| 24> end
| 25> end
| 26>
| 27>
| 28> #%pal
| 29> #nprocs 8
| 30> #end
| 31>
| 32> * xyz 0 1
| 33> C  -21.048   26.222   46.251
| 34> C  -20.361   27.558   45.944
| 35> C  -20.329   28.222   47.341
| 36> C  -20.110   27.022   48.296
| 37> O  -20.473   25.807   47.535
| 38> H  -20.833   25.428   45.533
| 39> H  -19.344   27.382   45.576
| 40> H  -20.898   28.157   45.201
| 41> H  -19.543   28.978   47.434
| 42> H  -21.289   28.710   47.548
| 43> H  -20.733   27.082   49.195
| 44> H  -19.064   26.913   48.597
| 45> C  -23.431   25.260   45.734
| 46> H  -23.635   25.509   44.685
| 47> H  -22.882   24.310   45.760
| 48> O  -22.586   26.394   46.375
| 49> C  -24.789   25.040   46.456
| 50> C  -24.587   24.775   47.953
| 51> C  -24.354   26.205   48.496
| 52> C  -25.279   27.074   47.608
| 53> O  -25.597   26.264   46.412
| 54> H  -25.352   24.266   45.932
| 55> H  -25.496   24.342   48.384
| 56> O  -23.400   23.818   48.249
| 57> H  -24.589   26.299   49.561
| 58> H  -23.305   26.494   48.358
| 59> H  -24.802   28.008   47.292
| 60> H  -26.228   27.310   48.098
| 61> H  -22.479   24.233   47.826
| 62> *
| 63>
| 64>                          ****END OF INPUT****
 Total Charge           Charge          ....    0
 Multiplicity           Mult            ....    1
 Number of Electrons    NEL             ....  102
FINAL SINGLE POINT ENERGY      -652.837345800823
FINAL SINGLE POINT ENERGY      -652.860731220646
FINAL SINGLE POINT ENERGY      -652.865286297110
FINAL SINGLE POINT ENERGY      -652.867827731790
FINAL SINGLE POINT ENERGY      -652.868054344665
FINAL SINGLE POINT ENERGY      -652.868103543714
FINAL SINGLE POINT ENERGY      -652.868106175896
                    ***********************HURRAY********************

CARTESIAN COORDINATES (ANGSTROEM)
---------------------------------
  C    -21.072533   26.169191   46.187797
  C    -20.399498   27.514589   45.904243
  C    -20.429015   28.181973   47.299554
  C    -20.224100   26.991210   48.264406
  O    -20.542991   25.768903   47.479754
  H    -20.829908   25.366367   45.486651
  H    -19.369651   27.342065   45.571867
  H    -20.932041   28.084726   45.140548
  H    -19.655599   28.946676   47.418019
  H    -21.404481   28.649912   47.462843
  H    -20.879449   27.029685   49.138629
  H    -19.187289   26.886046   48.596013
  C    -23.319364   25.293857   45.693175
  H    -23.508019   25.540777   44.641191
  H    -22.800371   24.328256   45.751380
  O    -22.498416   26.349398   46.285439
  C    -24.644798   25.158284   46.428704
  C    -24.503740   24.803619   47.920897
  C    -24.336839   26.212656   48.573241
  C    -25.245435   27.099669   47.694950
  O    -25.480139   26.351012   46.431135
  H    -25.219395   24.390904   45.894792
  H    -25.408597   24.305500   48.275496
  O    -23.418473   23.889811   48.212961
  H    -24.638848   26.212559   49.624900
  H    -23.292694   26.516398   48.493167
  H    -24.788138   28.062180   47.448554
  H    -26.228022   27.271694   48.144619
  H    -22.558156   24.364083   48.165072

 Multiplicity           Mult            ....    1
 Number of Electrons    NEL             ....  102
 Basis Dimension        Dim             ....  149

ORBITAL ENERGIES
----------------

  NO   OCC          E(Eh)            E(eV)
   0   2.0000     -19.153836      -521.2024
   1   2.0000     -19.152936      -521.1779
   2   2.0000     -19.130671      -520.5720
   3   2.0000     -19.128130      -520.5029
   4   2.0000     -10.289589      -279.9940
   5   2.0000     -10.235475      -278.5214
   6   2.0000     -10.231729      -278.4195
   7   2.0000     -10.230932      -278.3978
   8   2.0000     -10.227196      -278.2961
   9   2.0000     -10.218689      -278.0647
  10   2.0000     -10.194202      -277.3983
  11   2.0000     -10.193723      -277.3853
  12   2.0000     -10.175525      -276.8901
  13   2.0000      -1.064726       -28.9727
  14   2.0000      -1.021261       -27.7899
  15   2.0000      -1.002771       -27.2868
  16   2.0000      -0.999505       -27.1979
  17   2.0000      -0.796143       -21.6642
  18   2.0000      -0.771656       -20.9978
  19   2.0000      -0.762427       -20.7467
  20   2.0000      -0.735659       -20.0183
  21   2.0000      -0.676422       -18.4064
  22   2.0000      -0.607652       -16.5351
  23   2.0000      -0.601840       -16.3769
  24   2.0000      -0.595759       -16.2114
  25   2.0000      -0.573691       -15.6109
  26   2.0000      -0.526720       -14.3328
  27   2.0000      -0.507379       -13.8065
  28   2.0000      -0.502437       -13.6720
  29   2.0000      -0.487251       -13.2588
  30   2.0000      -0.474773       -12.9192
  31   2.0000      -0.460041       -12.5184
  32   2.0000      -0.442532       -12.0419
  33   2.0000      -0.433008       -11.7827
  34   2.0000      -0.420725       -11.4485
  35   2.0000      -0.413022       -11.2389
  36   2.0000      -0.403484       -10.9794
  37   2.0000      -0.399348       -10.8668
  38   2.0000      -0.375099       -10.2070
  39   2.0000      -0.369234       -10.0474
  40   2.0000      -0.365188        -9.9373
  41   2.0000      -0.356264        -9.6944
  42   2.0000      -0.347549        -9.4573
  43   2.0000      -0.333532        -9.0759
  44   2.0000      -0.318771        -8.6742
  45   2.0000      -0.313306        -8.5255
  46   2.0000      -0.302283        -8.2255
  47   2.0000      -0.279472        -7.6048
  48   2.0000      -0.258288        -7.0284
  49   2.0000      -0.255813        -6.9610
  50   2.0000      -0.234747        -6.3878
  51   0.0000       0.064631         1.7587
  52   0.0000       0.081830         2.2267
  53   0.0000       0.087969         2.3937
  54   0.0000       0.096065         2.6141
  55   0.0000       0.105828         2.8797

MULLIKEN ATOMIC CHARGES
-----------------------
   0 C :    0.274431
   1 C :   -0.250926
   2 C :   -0.303620
   3 C :   -0.007589
   4 O :   -0.515276
   5 H :    0.150442
   6 H :    0.147896
   7 H :    0.158435
   8 H :    0.146774
   9 H :    0.164803
  10 H :    0.148243
  11 H :    0.148897
  12 C :   -0.023041
  13 H :    0.150249
  14 H :    0.148980
  15 O :   -0.524833
  16 C :    0.088191
  17 C :    0.092627
  18 C :   -0.318933
  19 C :   -0.001874
  20 O :   -0.521489
  21 H :    0.148466
  22 H :    0.155884
  23 O :   -0.621882
  24 H :    0.140640
  25 H :    0.169791
  26 H :    0.142348
  27 H :    0.139444
  28 H :    0.372922
Sum of atomic charges:    0.0000000

LOEWDIN ATOMIC CHARGES
----------------------
   0 C :    0.170918
   1 C :   -0.216136
   2 C :   -0.216113
   3 C :   -0.029703
   4 O :   -0.331389
   5 H :    0.102865
   6 H :    0.115645
   7 H :    0.125340
   8 H :    0.116579
   9 H :    0.119450
  10 H :    0.104323
  11 H :    0.106230
  12 C :   -0.046515
  13 H :    0.106640
  14 H :    0.108478
  15 O :   -0.330390
  16 C :    0.016705
  17 C :    0.040418
  18 C :   -0.243716
  19 C :   -0.024456
  20 O :   -0.323966
  21 H :    0.114161
  22 H :    0.113442
  23 O :   -0.420524
  24 H :    0.113366
  25 H :    0.120855
  26 H :    0.103022
  27 H :    0.100303
  28 H :    0.284169

  Mayer bond orders larger than 0.100000
B(  0-C ,  1-C ) :   0.9464 B(  0-C ,  4-O ) :   0.8934 B(  0-C ,  5-H ) :   0.9176
B(  0-C , 15-O ) :   0.8611 B(  1-C ,  2-C ) :   0.9546 B(  1-C ,  6-H ) :   0.9371
B(  1-C ,  7-H ) :   0.9367 B(  2-C ,  3-C ) :   0.9542 B(  2-C ,  8-H ) :   0.9448
B(  2-C ,  9-H ) :   0.9430 B(  3-C ,  4-O ) :   0.8295 B(  3-C , 10-H ) :   0.9323
B(  3-C , 11-H ) :   0.9398 B( 12-C , 13-H ) :   0.9245 B( 12-C , 14-H ) :   0.9000
B( 12-C , 15-O ) :   0.8218 B( 12-C , 16-C ) :   0.9186 B( 16-C , 17-C ) :   0.8848
B( 16-C , 20-O ) :   0.8833 B( 16-C , 21-H ) :   0.9269 B( 17-C , 18-C ) :   0.9321
B( 17-C , 22-H ) :   0.9380 B( 17-C , 23-O ) :   0.9099 B( 18-C , 19-C ) :   0.9458
B( 18-C , 24-H ) :   0.9420 B( 18-C , 25-H ) :   0.9228 B( 19-C , 20-O ) :   0.8371
B( 19-C , 26-H ) :   0.9331 B( 19-C , 27-H ) :   0.9386 B( 23-O , 28-H ) :   0.7664

FINAL SINGLE POINT ENERGY      -652.868094167070

DIPOLE MOMENT
-------------
                                X             Y             Z
Electronic contribution:     -2.51892      -4.06837      -1.46786
Nuclear contribution   :      3.46666       5.04158       1.34187
                        -----------------------------------------
Total Dipole Moment    :      0.94774       0.97321      -0.12599
                        -----------------------------------------
Magnitude (a.u.)       :      1.36426
Magnitude (Debye)      :      3.46768

Rotational constants in cm-1:     0.043713     0.017700     0.017047
Rotational constants in MHz :  1310.482504   530.637086   511.049264

                             ****ORCA TERMINATED NORMALLY****
TOTAL RUN TIME: 0 days 0 hours 43 minutes 9 seconds 683 msec
