                         Program Version 4.2.0 -  RELEASE  -
|  1> # Test redundant internal optimization
|  2> #
|  3> ! RKS B3LYP  Opt TightSCF SmallPrint
|  4>
|  5> %basis
|  6>         Basis "6-31G"
|  7> end
|  8>
|  9> %geom
| 10> Constraints
| 11> { D 4  0  15  12  315.0   C } # D for Dihedral angle
| 12> { D 0  15  12  16  75.0   C } # D for Dihedral angle
| 13> { D 0  4  3  2   C } # D for Dihedral angle
| 14> { D 4  3  2  1   C } # D for Dihedral angle
| 15> { D 3  2  1  0   C } # D for Dihedral angle
| 16> { D 2  1  0  4   C } # D for Dihedral angle
| 17> { D 1  0  4  3   C } # D for Dihedral angle
| 18> { D 16  20  19  18   C } # D for Dihedral angle
| 19> { D 20  19  18  17   C } # D for Dihedral angle
| 20> { D 19  18  17  16   C } # D for Dihedral angle
| 21> { D 18  17  16  20   C } # D for Dihedral angle
| 22> { D 17  16  20  19   C } # D for Dihedral angle
| 23> { D 15  12  16  20   C } # D for Dihedral angle
| 24> end
| 25> end
| 26>
| 27>
| 28> #%pal
| 29> #nprocs 8
| 30> #end
| 31>
| 32> * xyz 0 1
| 33> C  -21.048   26.222   46.251
| 34> C  -20.361   27.558   45.944
| 35> C  -20.329   28.222   47.341
| 36> C  -20.110   27.022   48.296
| 37> O  -20.473   25.807   47.535
| 38> H  -20.833   25.428   45.533
| 39> H  -19.344   27.382   45.576
| 40> H  -20.898   28.157   45.201
| 41> H  -19.543   28.978   47.434
| 42> H  -21.289   28.710   47.548
| 43> H  -20.733   27.082   49.195
| 44> H  -19.064   26.913   48.597
| 45> C  -23.319   25.255   47.135
| 46> H  -24.395   25.319   46.933
| 47> H  -22.963   24.274   46.793
| 48> O  -22.586   26.394   46.375
| 49> C  -23.106   25.324   48.673
| 50> C  -23.729   26.594   49.263
| 51> C  -25.226   26.206   49.333
| 52> C  -25.181   24.694   49.672
| 53> O  -23.818   24.229   49.339
| 54> H  -22.045   25.197   48.893
| 55> O  -23.163   26.853   50.686
| 56> H  -23.550   27.486   48.654
| 57> H  -25.780   26.784   50.078
| 58> H  -25.702   26.370   48.359
| 59> H  -25.909   24.114   49.097
| 60> H  -25.337   24.501   50.737
| 61> H  -23.332   25.971   51.316
| 62> *
| 63>
| 64>                          ****END OF INPUT****
 Total Charge           Charge          ....    0
 Multiplicity           Mult            ....    1
 Number of Electrons    NEL             ....  102
FINAL SINGLE POINT ENERGY      -652.842381769468
FINAL SINGLE POINT ENERGY      -652.864699518994
FINAL SINGLE POINT ENERGY      -652.868575832468
FINAL SINGLE POINT ENERGY      -652.869337062317
FINAL SINGLE POINT ENERGY      -652.869447557054
FINAL SINGLE POINT ENERGY      -652.869469964176
FINAL SINGLE POINT ENERGY      -652.869473470817
                    ***********************HURRAY********************

CARTESIAN COORDINATES (ANGSTROEM)
---------------------------------
  C    -21.052706   26.158811   46.334440
  C    -20.493105   27.539597   45.988278
  C    -20.441489   28.214126   47.377860
  C    -20.078992   27.052387   48.328852
  O    -20.392457   25.800551   47.570446
  H    -20.801057   25.355925   45.632259
  H    -19.488948   27.422011   45.566316
  H    -21.123572   28.070466   45.272180
  H    -19.708990   29.026095   47.423141
  H    -21.423393   28.626967   47.626184
  H    -20.657688   27.056684   49.256008
  H    -19.011707   27.007483   48.561662
  C    -23.233057   25.225406   47.133125
  H    -24.268721   25.359657   46.808205
  H    -22.897212   24.229282   46.814010
  O    -22.494296   26.266967   46.422980
  C    -23.114502   25.306616   48.658337
  C    -23.680264   26.585938   49.289149
  C    -25.196508   26.270772   49.328099
  C    -25.236100   24.747223   49.610935
  O    -23.888650   24.222461   49.274737
  H    -22.075665   25.142295   48.941755
  O    -23.118315   26.807259   50.614845
  H    -23.447683   27.483893   48.718313
  H    -25.698134   26.860559   50.099679
  H    -25.654276   26.510262   48.362498
  H    -25.985064   24.222162   49.010524
  H    -25.415411   24.521178   50.666622
  H    -23.088037   25.952969   51.095561

 Multiplicity           Mult            ....    1
 Number of Electrons    NEL             ....  102
 Basis Dimension        Dim             ....  149

ORBITAL ENERGIES
----------------

  NO   OCC          E(Eh)            E(eV)
   0   2.0000     -19.146748      -521.0095
   1   2.0000     -19.146034      -520.9901
   2   2.0000     -19.141756      -520.8737
   3   2.0000     -19.139678      -520.8171
   4   2.0000     -10.279845      -279.7288
   5   2.0000     -10.236532      -278.5502
   6   2.0000     -10.229384      -278.3557
   7   2.0000     -10.228443      -278.3301
   8   2.0000     -10.224827      -278.2317
   9   2.0000     -10.223571      -278.1975
  10   2.0000     -10.187196      -277.2077
  11   2.0000     -10.186260      -277.1822
  12   2.0000     -10.186131      -277.1787
  13   2.0000      -1.054550       -28.6958
  14   2.0000      -1.033812       -28.1314
  15   2.0000      -1.004944       -27.3459
  16   2.0000      -0.995080       -27.0775
  17   2.0000      -0.791014       -21.5246
  18   2.0000      -0.778225       -21.1766
  19   2.0000      -0.763993       -20.7893
  20   2.0000      -0.729930       -19.8624
  21   2.0000      -0.673565       -18.3286
  22   2.0000      -0.602157       -16.3855
  23   2.0000      -0.599542       -16.3144
  24   2.0000      -0.597550       -16.2601
  25   2.0000      -0.574847       -15.6424
  26   2.0000      -0.522779       -14.2256
  27   2.0000      -0.513747       -13.9798
  28   2.0000      -0.491217       -13.3667
  29   2.0000      -0.488300       -13.2873
  30   2.0000      -0.472032       -12.8446
  31   2.0000      -0.459647       -12.5076
  32   2.0000      -0.447466       -12.1762
  33   2.0000      -0.435824       -11.8594
  34   2.0000      -0.414949       -11.2913
  35   2.0000      -0.411426       -11.1955
  36   2.0000      -0.404547       -11.0083
  37   2.0000      -0.392470       -10.6797
  38   2.0000      -0.373023       -10.1505
  39   2.0000      -0.367104        -9.9894
  40   2.0000      -0.358008        -9.7419
  41   2.0000      -0.357193        -9.7197
  42   2.0000      -0.348861        -9.4930
  43   2.0000      -0.333970        -9.0878
  44   2.0000      -0.328313        -8.9339
  45   2.0000      -0.306491        -8.3400
  46   2.0000      -0.303294        -8.2530
  47   2.0000      -0.273200        -7.4342
  48   2.0000      -0.267782        -7.2867
  49   2.0000      -0.260922        -7.1000
  50   2.0000      -0.238793        -6.4979
  51   0.0000       0.064709         1.7608
  52   0.0000       0.080118         2.1801
  53   0.0000       0.095419         2.5965
  54   0.0000       0.098304         2.6750
  55   0.0000       0.101337         2.7575

MULLIKEN ATOMIC CHARGES
-----------------------
   0 C :    0.295938
   1 C :   -0.263492
   2 C :   -0.303296
   3 C :   -0.030782
   4 O :   -0.514409
   5 H :    0.148161
   6 H :    0.147171
   7 H :    0.160716
   8 H :    0.144898
   9 H :    0.162224
  10 H :    0.169244
  11 H :    0.147648
  12 C :   -0.013600
  13 H :    0.144377
  14 H :    0.146155
  15 O :   -0.531165
  16 C :    0.043370
  17 C :    0.086467
  18 C :   -0.301863
  19 C :   -0.028290
  20 O :   -0.528945
  21 H :    0.197543
  22 O :   -0.609095
  23 H :    0.166471
  24 H :    0.161965
  25 H :    0.147452
  26 H :    0.146016
  27 H :    0.143655
  28 H :    0.365466
Sum of atomic charges:    0.0000000

LOEWDIN ATOMIC CHARGES
----------------------
   0 C :    0.175160
   1 C :   -0.214430
   2 C :   -0.215567
   3 C :   -0.037018
   4 O :   -0.327341
   5 H :    0.096929
   6 H :    0.115396
   7 H :    0.126123
   8 H :    0.115804
   9 H :    0.116518
  10 H :    0.114073
  11 H :    0.105951
  12 C :   -0.036935
  13 H :    0.108431
  14 H :    0.106482
  15 O :   -0.333986
  16 C :   -0.002082
  17 C :    0.033883
  18 C :   -0.240411
  19 C :   -0.038854
  20 O :   -0.329768
  21 H :    0.129943
  22 O :   -0.417904
  23 H :    0.119171
  24 H :    0.126423
  25 H :    0.115214
  26 H :    0.103681
  27 H :    0.101690
  28 H :    0.283425

  Mayer bond orders larger than 0.100000
B(  0-C ,  1-C ) :   0.9462 B(  0-C ,  4-O ) :   0.9024 B(  0-C ,  5-H ) :   0.9221
B(  0-C , 15-O ) :   0.8533 B(  1-C ,  2-C ) :   0.9551 B(  1-C ,  6-H ) :   0.9389
B(  1-C ,  7-H ) :   0.9359 B(  2-C ,  3-C ) :   0.9563 B(  2-C ,  8-H ) :   0.9446
B(  2-C ,  9-H ) :   0.9417 B(  3-C ,  4-O ) :   0.8212 B(  3-C , 10-H ) :   0.9172
B(  3-C , 11-H ) :   0.9409 B( 12-C , 13-H ) :   0.9430 B( 12-C , 14-H ) :   0.9210
B( 12-C , 15-O ) :   0.8370 B( 12-C , 16-C ) :   0.8819 B( 16-C , 17-C ) :   0.9099
B( 16-C , 20-O ) :   0.8249 B( 16-C , 21-H ) :   0.9048 B( 17-C , 18-C ) :   0.9145
B( 17-C , 22-O ) :   0.8736 B( 17-C , 23-H ) :   0.9240 B( 18-C , 19-C ) :   0.9432
B( 18-C , 24-H ) :   0.9372 B( 18-C , 25-H ) :   0.9349 B( 19-C , 20-O ) :   0.8489
B( 19-C , 26-H ) :   0.9350 B( 19-C , 27-H ) :   0.9386 B( 22-O , 28-H ) :   0.7951

FINAL SINGLE POINT ENERGY      -652.869473881159

DIPOLE MOMENT
-------------
                                X             Y             Z
Electronic contribution:      0.48559      -3.56728       0.54957
Nuclear contribution   :     -0.74816       4.03294      -0.84085
                        -----------------------------------------
Total Dipole Moment    :     -0.26257       0.46565      -0.29128
                        -----------------------------------------
Magnitude (a.u.)       :      0.60879
Magnitude (Debye)      :      1.54741

Rotational constants in cm-1:     0.049760     0.016932     0.015209
Rotational constants in MHz :  1491.761153   507.594467   455.942553

                             ****ORCA TERMINATED NORMALLY****
TOTAL RUN TIME: 0 days 0 hours 28 minutes 59 seconds 429 msec
