                         Program Version 4.2.0 -  RELEASE  -
|  1> # Test redundant internal optimization
|  2> #
|  3> ! RKS B3LYP  Opt TightSCF SmallPrint
|  4>
|  5> %basis
|  6>         Basis "6-31G"
|  7> end
|  8>
|  9> %geom
| 10> Constraints
| 11> { D 4  0  15  12  120.0   C } # D for Dihedral angle
| 12> { D 0  15  12  16  165.0   C } # D for Dihedral angle
| 13> { D 0  4  3  2   C } # D for Dihedral angle
| 14> { D 4  3  2  1   C } # D for Dihedral angle
| 15> { D 3  2  1  0   C } # D for Dihedral angle
| 16> { D 2  1  0  4   C } # D for Dihedral angle
| 17> { D 1  0  4  3   C } # D for Dihedral angle
| 18> { D 16  20  19  18   C } # D for Dihedral angle
| 19> { D 20  19  18  17   C } # D for Dihedral angle
| 20> { D 19  18  17  16   C } # D for Dihedral angle
| 21> { D 18  17  16  20   C } # D for Dihedral angle
| 22> { D 17  16  20  19   C } # D for Dihedral angle
| 23> { D 15  12  16  20   C } # D for Dihedral angle
| 24> end
| 25> end
| 26>
| 27>
| 28> #%pal
| 29> #nprocs 8
| 30> #end
| 31>
| 32> * xyz 0 1
| 33> C  -21.048   26.222   46.251
| 34> C  -20.361   27.558   45.944
| 35> C  -20.329   28.222   47.341
| 36> C  -20.110   27.022   48.296
| 37> O  -20.473   25.807   47.535
| 38> H  -20.833   25.428   45.533
| 39> H  -19.344   27.382   45.576
| 40> H  -20.898   28.157   45.201
| 41> H  -19.543   28.978   47.434
| 42> H  -21.289   28.710   47.548
| 43> H  -20.733   27.082   49.195
| 44> H  -19.064   26.913   48.597
| 45> C  -23.119   27.818   46.058
| 46> H  -22.879   28.489   46.892
| 47> H  -22.642   28.214   45.152
| 48> O  -22.586   26.394   46.375
| 49> C  -24.656   27.848   45.833
| 50> C  -25.078   26.863   44.737
| 51> C  -25.061   25.517   45.501
| 52> C  -25.536   25.913   46.921
| 53> O  -25.358   27.377   47.032
| 54> H  -24.973   28.878   45.661
| 55> H  -26.091   27.098   44.391
| 56> O  -24.126   26.871   43.510
| 57> H  -25.704   24.760   45.041
| 58> H  -24.041   25.116   45.533
| 59> H  -24.958   25.420   47.710
| 60> H  -26.599   25.705   47.079
| 61> H  -23.106   26.638   43.834
| 62> *
| 63>
| 64>                          ****END OF INPUT****
 Total Charge           Charge          ....    0
 Multiplicity           Mult            ....    1
 Number of Electrons    NEL             ....  102
FINAL SINGLE POINT ENERGY      -652.818513327970
FINAL SINGLE POINT ENERGY      -652.843321455328
FINAL SINGLE POINT ENERGY      -652.851571176050
FINAL SINGLE POINT ENERGY      -652.853823521301
FINAL SINGLE POINT ENERGY      -652.854209146401
FINAL SINGLE POINT ENERGY      -652.854280408454
FINAL SINGLE POINT ENERGY      -652.854283203251
                    ***********************HURRAY********************

CARTESIAN COORDINATES (ANGSTROEM)
---------------------------------
  C    -21.140864   26.363522   46.329939
  C    -20.234665   27.544183   45.968370
  C    -20.087300   28.270644   47.333540
  C    -20.080135   27.095986   48.340002
  O    -20.651957   25.935265   47.614545
  H    -21.033040   25.495986   45.675610
  H    -19.269620   27.142825   45.641522
  H    -20.619110   28.186839   45.172509
  H    -19.171371   28.866656   47.387330
  H    -20.933476   28.940390   47.512547
  H    -20.684298   27.288644   49.230327
  H    -19.069682   26.809392   48.644539
  C    -23.166821   27.915404   46.096140
  H    -23.005571   28.606220   46.932513
  H    -22.741909   28.355360   45.184377
  O    -22.575034   26.617308   46.390130
  C    -24.672496   27.768316   45.883911
  C    -25.096562   26.843659   44.730193
  C    -25.089385   25.443624   45.418372
  C    -25.567405   25.770081   46.849853
  O    -25.377952   27.232609   47.037179
  H    -25.059360   28.784315   45.733187
  H    -26.098520   27.113373   44.389705
  O    -24.258830   26.939675   43.549972
  H    -25.743105   24.731377   44.906347
  H    -24.068028   25.057859   45.433055
  H    -24.989869   25.245423   47.614539
  H    -26.633429   25.569738   46.993148
  H    -23.418206   26.465328   43.717600

 Multiplicity           Mult            ....    1
 Number of Electrons    NEL             ....  102
 Basis Dimension        Dim             ....  149

ORBITAL ENERGIES
----------------

  NO   OCC          E(Eh)            E(eV)
   0   2.0000     -19.148353      -521.0532
   1   2.0000     -19.143489      -520.9208
   2   2.0000     -19.141023      -520.8537
   3   2.0000     -19.130213      -520.5596
   4   2.0000     -10.287706      -279.9427
   5   2.0000     -10.235664      -278.5266
   6   2.0000     -10.234395      -278.4920
   7   2.0000     -10.230727      -278.3922
   8   2.0000     -10.230012      -278.3728
   9   2.0000     -10.217016      -278.0191
  10   2.0000     -10.200442      -277.5681
  11   2.0000     -10.197781      -277.4957
  12   2.0000     -10.176920      -276.9281
  13   2.0000      -1.055797       -28.7297
  14   2.0000      -1.026396       -27.9297
  15   2.0000      -1.008741       -27.4493
  16   2.0000      -0.996763       -27.1233
  17   2.0000      -0.795512       -21.6470
  18   2.0000      -0.775154       -21.0930
  19   2.0000      -0.764762       -20.8102
  20   2.0000      -0.736249       -20.0343
  21   2.0000      -0.681686       -18.5496
  22   2.0000      -0.610388       -16.6095
  23   2.0000      -0.601569       -16.3695
  24   2.0000      -0.599615       -16.3164
  25   2.0000      -0.561784       -15.2869
  26   2.0000      -0.527783       -14.3617
  27   2.0000      -0.510834       -13.9005
  28   2.0000      -0.508314       -13.8319
  29   2.0000      -0.488257       -13.2861
  30   2.0000      -0.472844       -12.8667
  31   2.0000      -0.458365       -12.4727
  32   2.0000      -0.444441       -12.0938
  33   2.0000      -0.429762       -11.6944
  34   2.0000      -0.423634       -11.5277
  35   2.0000      -0.417216       -11.3530
  36   2.0000      -0.406709       -11.0671
  37   2.0000      -0.399241       -10.8639
  38   2.0000      -0.388780       -10.5792
  39   2.0000      -0.369089       -10.0434
  40   2.0000      -0.365474        -9.9451
  41   2.0000      -0.359190        -9.7741
  42   2.0000      -0.347853        -9.4656
  43   2.0000      -0.324899        -8.8410
  44   2.0000      -0.316591        -8.6149
  45   2.0000      -0.307662        -8.3719
  46   2.0000      -0.299024        -8.1369
  47   2.0000      -0.273403        -7.4397
  48   2.0000      -0.261197        -7.1075
  49   2.0000      -0.257374        -7.0035
  50   2.0000      -0.235667        -6.4128
  51   0.0000       0.055645         1.5142
  52   0.0000       0.079713         2.1691
  53   0.0000       0.086903         2.3648
  54   0.0000       0.094831         2.5805
  55   0.0000       0.100064         2.7229

MULLIKEN ATOMIC CHARGES
-----------------------
   0 C :    0.315429
   1 C :   -0.300965
   2 C :   -0.307913
   3 C :   -0.004796
   4 O :   -0.494203
   5 H :    0.151290
   6 H :    0.158540
   7 H :    0.148020
   8 H :    0.148469
   9 H :    0.154494
  10 H :    0.154839
  11 H :    0.146122
  12 C :   -0.013863
  13 H :    0.149915
  14 H :    0.131438
  15 O :   -0.540318
  16 C :    0.093809
  17 C :    0.085571
  18 C :   -0.315644
  19 C :    0.000763
  20 O :   -0.521149
  21 H :    0.145986
  22 H :    0.159720
  23 O :   -0.606974
  24 H :    0.143353
  25 H :    0.165764
  26 H :    0.157517
  27 H :    0.137559
  28 H :    0.357227
Sum of atomic charges:   -0.0000000

LOEWDIN ATOMIC CHARGES
----------------------
   0 C :    0.177990
   1 C :   -0.232131
   2 C :   -0.219379
   3 C :   -0.029090
   4 O :   -0.311591
   5 H :    0.102636
   6 H :    0.123880
   7 H :    0.116133
   8 H :    0.117654
   9 H :    0.112093
  10 H :    0.109238
  11 H :    0.104748
  12 C :   -0.046136
  13 H :    0.103144
  14 H :    0.096676
  15 O :   -0.336105
  16 C :    0.020419
  17 C :    0.037709
  18 C :   -0.242853
  19 C :   -0.022853
  20 O :   -0.322337
  21 H :    0.112791
  22 H :    0.115361
  23 O :   -0.413085
  24 H :    0.114125
  25 H :    0.122125
  26 H :    0.111286
  27 H :    0.099581
  28 H :    0.277971

  Mayer bond orders larger than 0.100000
B(  0-C ,  1-C ) :   0.9340 B(  0-C ,  4-O ) :   0.9262 B(  0-C ,  5-H ) :   0.9324
B(  0-C , 15-O ) :   0.8598 B(  1-C ,  2-C ) :   0.9507 B(  1-C ,  6-H ) :   0.9334
B(  1-C ,  7-H ) :   0.9282 B(  2-C ,  3-C ) :   0.9507 B(  2-C ,  8-H ) :   0.9451
B(  2-C ,  9-H ) :   0.9399 B(  3-C ,  4-O ) :   0.8411 B(  3-C , 10-H ) :   0.9336
B(  3-C , 11-H ) :   0.9393 B( 12-C , 13-H ) :   0.9124 B( 12-C , 14-H ) :   0.8966
B( 12-C , 15-O ) :   0.8324 B( 12-C , 16-C ) :   0.9091 B( 16-C , 17-C ) :   0.8848
B( 16-C , 20-O ) :   0.8869 B( 16-C , 21-H ) :   0.9281 B( 17-C , 18-C ) :   0.9366
B( 17-C , 22-H ) :   0.9366 B( 17-C , 23-O ) :   0.8942 B( 18-C , 19-C ) :   0.9482
B( 18-C , 24-H ) :   0.9406 B( 18-C , 25-H ) :   0.9258 B( 19-C , 20-O ) :   0.8338
B( 19-C , 26-H ) :   0.9309 B( 19-C , 27-H ) :   0.9383 B( 23-O , 28-H ) :   0.7965

FINAL SINGLE POINT ENERGY      -652.854282196966

DIPOLE MOMENT
-------------
                                X             Y             Z
Electronic contribution:     -2.93760      -1.72864      -0.22595
Nuclear contribution   :      3.98380       2.16540      -0.01186
                        -----------------------------------------
Total Dipole Moment    :      1.04620       0.43676      -0.23781
                        -----------------------------------------
Magnitude (a.u.)       :      1.15838
Magnitude (Debye)      :      2.94437

Rotational constants in cm-1:     0.049325     0.015327     0.014213
Rotational constants in MHz :  1478.714243   459.503926   426.093473

                             ****ORCA TERMINATED NORMALLY****
TOTAL RUN TIME: 0 days 0 hours 32 minutes 36 seconds 363 msec
