                         Program Version 4.2.0 -  RELEASE  -
|  1> # Test redundant internal optimization
|  2> #
|  3> ! RKS B3LYP  Opt TightSCF SmallPrint
|  4>
|  5> %basis
|  6>         Basis "6-31G"
|  7> end
|  8>
|  9> %geom
| 10> Constraints
| 11> { D 4  0  15  12  330.0   C } # D for Dihedral angle
| 12> { D 0  15  12  16  135.0   C } # D for Dihedral angle
| 13> { D 0  4  3  2   C } # D for Dihedral angle
| 14> { D 4  3  2  1   C } # D for Dihedral angle
| 15> { D 3  2  1  0   C } # D for Dihedral angle
| 16> { D 2  1  0  4   C } # D for Dihedral angle
| 17> { D 1  0  4  3   C } # D for Dihedral angle
| 18> { D 16  20  19  18   C } # D for Dihedral angle
| 19> { D 20  19  18  17   C } # D for Dihedral angle
| 20> { D 19  18  17  16   C } # D for Dihedral angle
| 21> { D 18  17  16  20   C } # D for Dihedral angle
| 22> { D 17  16  20  19   C } # D for Dihedral angle
| 23> { D 15  12  16  20   C } # D for Dihedral angle
| 24> end
| 25> end
| 26>
| 27>
| 28> #%pal
| 29> #nprocs 8
| 30> #end
| 31>
| 32> * xyz 0 1
| 33> C  -21.048   26.222   46.251
| 34> C  -20.361   27.558   45.944
| 35> C  -20.329   28.222   47.341
| 36> C  -20.110   27.022   48.296
| 37> O  -20.473   25.807   47.535
| 38> H  -20.833   25.428   45.533
| 39> H  -19.344   27.382   45.576
| 40> H  -20.898   28.157   45.201
| 41> H  -19.543   28.978   47.434
| 42> H  -21.289   28.710   47.548
| 43> H  -20.733   27.082   49.195
| 44> H  -19.064   26.913   48.597
| 45> C  -23.271   25.476   47.424
| 46> H  -23.796   24.663   46.906
| 47> H  -22.522   25.030   48.091
| 48> O  -22.586   26.394   46.375
| 49> C  -24.298   26.236   48.308
| 50> C  -23.654   27.445   48.996
| 51> C  -23.638   28.485   47.851
| 52> C  -24.944   28.177   47.077
| 53> O  -25.359   26.815   47.478
| 54> H  -24.775   25.529   48.990
| 55> H  -24.287   27.789   49.821
| 56> O  -22.237   27.145   49.557
| 57> H  -23.602   29.517   48.214
| 58> H  -22.763   28.326   47.209
| 59> H  -24.806   28.206   45.991
| 60> H  -25.760   28.854   47.348
| 61> H  -21.586   26.799   48.746
| 62> *
| 63>
| 64>                          ****END OF INPUT****
 Total Charge           Charge          ....    0
 Multiplicity           Mult            ....    1
 Number of Electrons    NEL             ....  102
FINAL SINGLE POINT ENERGY      -652.757252747718
FINAL SINGLE POINT ENERGY      -652.826838943716
FINAL SINGLE POINT ENERGY      -652.848215052819
FINAL SINGLE POINT ENERGY      -652.853556197932
FINAL SINGLE POINT ENERGY      -652.854919947381
FINAL SINGLE POINT ENERGY      -652.855543701687
FINAL SINGLE POINT ENERGY      -652.855641820456
FINAL SINGLE POINT ENERGY      -652.855685597498
FINAL SINGLE POINT ENERGY      -652.855689526163
FINAL SINGLE POINT ENERGY      -652.855685101009
                    ***********************HURRAY********************

CARTESIAN COORDINATES (ANGSTROEM)
---------------------------------
  C    -21.029723   26.193864   46.349998
  C    -20.309353   27.451223   45.852118
  C    -20.076691   28.222739   47.174621
  C    -19.815503   27.104536   48.205577
  O    -20.346824   25.845687   47.577311
  H    -20.833004   25.330911   45.700336
  H    -19.361710   27.147050   45.397515
  H    -20.899719   28.007810   45.121124
  H    -19.231980   28.915998   47.108651
  H    -20.961895   28.803110   47.445321
  H    -20.302120   27.286690   49.163766
  H    -18.750827   26.921742   48.371869
  C    -23.210834   25.505851   47.374676
  H    -23.717657   24.714950   46.808664
  H    -22.502981   25.022431   48.059665
  O    -22.477364   26.323794   46.401912
  C    -24.292549   26.245814   48.165400
  C    -23.860414   27.423996   49.050030
  C    -23.853204   28.600473   48.033148
  C    -25.031720   28.252613   47.099259
  O    -25.320048   26.809781   47.303123
  H    -24.789485   25.471412   48.764991
  H    -24.623980   27.598720   49.812805
  O    -22.629590   27.212711   49.784199
  H    -23.969179   29.570695   48.523948
  H    -22.915123   28.585986   47.479480
  H    -24.795879   28.415192   46.044273
  H    -25.947480   28.795685   47.353263
  H    -22.052166   26.585537   49.305957

 Multiplicity           Mult            ....    1
 Number of Electrons    NEL             ....  102
 Basis Dimension        Dim             ....  149

ORBITAL ENERGIES
----------------

  NO   OCC          E(Eh)            E(eV)
   0   2.0000     -19.163326      -521.4606
   1   2.0000     -19.151361      -521.1350
   2   2.0000     -19.142759      -520.9010
   3   2.0000     -19.133909      -520.6601
   4   2.0000     -10.286756      -279.9169
   5   2.0000     -10.238164      -278.5946
   6   2.0000     -10.236756      -278.5563
   7   2.0000     -10.235422      -278.5200
   8   2.0000     -10.233201      -278.4596
   9   2.0000     -10.220935      -278.1258
  10   2.0000     -10.195715      -277.4395
  11   2.0000     -10.195525      -277.4343
  12   2.0000     -10.177410      -276.9414
  13   2.0000      -1.061034       -28.8722
  14   2.0000      -1.029291       -28.0084
  15   2.0000      -1.012771       -27.5589
  16   2.0000      -1.000762       -27.2321
  17   2.0000      -0.798578       -21.7304
  18   2.0000      -0.774505       -21.0753
  19   2.0000      -0.768738       -20.9184
  20   2.0000      -0.740085       -20.1387
  21   2.0000      -0.680968       -18.5301
  22   2.0000      -0.612224       -16.6595
  23   2.0000      -0.602084       -16.3835
  24   2.0000      -0.597467       -16.2579
  25   2.0000      -0.571755       -15.5583
  26   2.0000      -0.523772       -14.2526
  27   2.0000      -0.517659       -14.0862
  28   2.0000      -0.510611       -13.8944
  29   2.0000      -0.494291       -13.4503
  30   2.0000      -0.475136       -12.9291
  31   2.0000      -0.461597       -12.5607
  32   2.0000      -0.439117       -11.9490
  33   2.0000      -0.434288       -11.8176
  34   2.0000      -0.420432       -11.4405
  35   2.0000      -0.416561       -11.3352
  36   2.0000      -0.408894       -11.1266
  37   2.0000      -0.396017       -10.7762
  38   2.0000      -0.381287       -10.3754
  39   2.0000      -0.375162       -10.2087
  40   2.0000      -0.367242        -9.9932
  41   2.0000      -0.357505        -9.7282
  42   2.0000      -0.348951        -9.4954
  43   2.0000      -0.344714        -9.3801
  44   2.0000      -0.334034        -9.0895
  45   2.0000      -0.309977        -8.4349
  46   2.0000      -0.297778        -8.1030
  47   2.0000      -0.278545        -7.5796
  48   2.0000      -0.265806        -7.2330
  49   2.0000      -0.261372        -7.1123
  50   2.0000      -0.238227        -6.4825
  51   0.0000       0.060683         1.6513
  52   0.0000       0.079030         2.1505
  53   0.0000       0.088555         2.4097
  54   0.0000       0.098154         2.6709
  55   0.0000       0.098489         2.6800

MULLIKEN ATOMIC CHARGES
-----------------------
   0 C :    0.303948
   1 C :   -0.267710
   2 C :   -0.310306
   3 C :   -0.047845
   4 O :   -0.522728
   5 H :    0.152088
   6 H :    0.154394
   7 H :    0.162857
   8 H :    0.149637
   9 H :    0.165973
  10 H :    0.161248
  11 H :    0.155620
  12 C :   -0.031061
  13 H :    0.161274
  14 H :    0.151800
  15 O :   -0.531589
  16 C :    0.065550
  17 C :    0.092951
  18 C :   -0.303918
  19 C :   -0.006103
  20 O :   -0.518087
  21 H :    0.152818
  22 H :    0.159062
  23 O :   -0.627276
  24 H :    0.138376
  25 H :    0.165396
  26 H :    0.151508
  27 H :    0.140683
  28 H :    0.381438
Sum of atomic charges:   -0.0000000

LOEWDIN ATOMIC CHARGES
----------------------
   0 C :    0.175675
   1 C :   -0.213214
   2 C :   -0.219592
   3 C :   -0.041703
   4 O :   -0.329499
   5 H :    0.094212
   6 H :    0.120220
   7 H :    0.127762
   8 H :    0.118944
   9 H :    0.116960
  10 H :    0.110595
  11 H :    0.109290
  12 C :   -0.054056
  13 H :    0.115497
  14 H :    0.108426
  15 O :   -0.337999
  16 C :    0.012801
  17 C :    0.039619
  18 C :   -0.238511
  19 C :   -0.024585
  20 O :   -0.321267
  21 H :    0.115618
  22 H :    0.113118
  23 O :   -0.417248
  24 H :    0.114116
  25 H :    0.116300
  26 H :    0.107725
  27 H :    0.100505
  28 H :    0.280292

  Mayer bond orders larger than 0.100000
B(  0-C ,  1-C ) :   0.9358 B(  0-C ,  4-O ) :   0.8898 B(  0-C ,  5-H ) :   0.9269
B(  0-C , 15-O ) :   0.8617 B(  1-C ,  2-C ) :   0.9565 B(  1-C ,  6-H ) :   0.9373
B(  1-C ,  7-H ) :   0.9351 B(  2-C ,  3-C ) :   0.9558 B(  2-C ,  8-H ) :   0.9430
B(  2-C ,  9-H ) :   0.9261 B(  3-C ,  4-O ) :   0.8169 B(  3-C , 10-H ) :   0.9124
B(  3-C , 11-H ) :   0.9401 B( 12-C , 13-H ) :   0.9244 B( 12-C , 14-H ) :   0.8931
B( 12-C , 15-O ) :   0.8348 B( 12-C , 16-C ) :   0.9084 B( 16-C , 17-C ) :   0.9056
B( 16-C , 20-O ) :   0.8778 B( 16-C , 21-H ) :   0.9208 B( 17-C , 18-C ) :   0.9158
B( 17-C , 22-H ) :   0.9326 B( 17-C , 23-O ) :   0.8975 B( 18-C , 19-C ) :   0.9399
B( 18-C , 24-H ) :   0.9450 B( 18-C , 25-H ) :   0.9140 B( 19-C , 20-O ) :   0.8349
B( 19-C , 26-H ) :   0.9322 B( 19-C , 27-H ) :   0.9376 B( 23-O , 28-H ) :   0.7495

FINAL SINGLE POINT ENERGY      -652.855683700786

DIPOLE MOMENT
-------------
                                X             Y             Z
Electronic contribution:     -2.87584      -4.27317       0.47377
Nuclear contribution   :      3.72445       4.80137      -0.76690
                        -----------------------------------------
Total Dipole Moment    :      0.84860       0.52820      -0.29312
                        -----------------------------------------
Magnitude (a.u.)       :      1.04166
Magnitude (Debye)      :      2.64768

Rotational constants in cm-1:     0.043274     0.019193     0.018196
Rotational constants in MHz :  1297.328686   575.404454   545.492197

                             ****ORCA TERMINATED NORMALLY****
TOTAL RUN TIME: 0 days 0 hours 40 minutes 24 seconds 163 msec
