                         Program Version 4.2.0 -  RELEASE  -
|  1> # Test redundant internal optimization
|  2> #
|  3> ! RKS B3LYP  Opt TightSCF SmallPrint
|  4>
|  5> %basis
|  6>         Basis "6-31G"
|  7> end
|  8>
|  9> %geom
| 10> Constraints
| 11> { D 4  0  15  12  0.0   C } # D for Dihedral angle
| 12> { D 0  15  12  16  180.0   C } # D for Dihedral angle
| 13> { D 0  4  3  2   C } # D for Dihedral angle
| 14> { D 4  3  2  1   C } # D for Dihedral angle
| 15> { D 3  2  1  0   C } # D for Dihedral angle
| 16> { D 2  1  0  4   C } # D for Dihedral angle
| 17> { D 1  0  4  3   C } # D for Dihedral angle
| 18> { D 16  20  19  18   C } # D for Dihedral angle
| 19> { D 20  19  18  17   C } # D for Dihedral angle
| 20> { D 19  18  17  16   C } # D for Dihedral angle
| 21> { D 18  17  16  20   C } # D for Dihedral angle
| 22> { D 17  16  20  19   C } # D for Dihedral angle
| 23> { D 15  12  16  20   C } # D for Dihedral angle
| 24> end
| 25> end
| 26>
| 27>
| 28> #%pal
| 29> #nprocs 8
| 30> #end
| 31>
| 32> * xyz 0 1
| 33> C  -21.048   26.222   46.251
| 34> C  -20.361   27.558   45.944
| 35> C  -20.329   28.222   47.341
| 36> C  -20.110   27.022   48.296
| 37> O  -20.473   25.807   47.535
| 38> H  -20.833   25.428   45.533
| 39> H  -19.344   27.382   45.576
| 40> H  -20.898   28.157   45.201
| 41> H  -19.543   28.978   47.434
| 42> H  -21.289   28.710   47.548
| 43> H  -20.733   27.082   49.195
| 44> H  -19.064   26.913   48.597
| 45> C  -23.172   26.101   47.783
| 46> H  -22.940   25.066   48.063
| 47> H  -22.724   26.767   48.532
| 48> O  -22.586   26.394   46.375
| 49> C  -24.713   26.290   47.844
| 50> C  -25.241   26.106   49.271
| 51> C  -24.893   27.470   49.912
| 52> C  -25.093   28.468   48.745
| 53> O  -25.074   27.669   47.501
| 54> H  -25.183   25.642   47.101
| 55> O  -26.778   25.887   49.247
| 56> H  -24.780   25.261   49.794
| 57> H  -25.523   27.706   50.776
| 58> H  -23.849   27.473   50.249
| 59> H  -24.300   29.223   48.698
| 60> H  -26.062   28.974   48.789
| 61> H  -27.261   26.722   48.728
| 62> *
| 63>
| 64>                          ****END OF INPUT****
 Total Charge           Charge          ....    0
 Multiplicity           Mult            ....    1
 Number of Electrons    NEL             ....  102
FINAL SINGLE POINT ENERGY      -652.830011758641
FINAL SINGLE POINT ENERGY      -652.853093692344
FINAL SINGLE POINT ENERGY      -652.857441052762
FINAL SINGLE POINT ENERGY      -652.858143205331
FINAL SINGLE POINT ENERGY      -652.858245881647
FINAL SINGLE POINT ENERGY      -652.858260134988
                    ***********************HURRAY********************

CARTESIAN COORDINATES (ANGSTROEM)
---------------------------------
  C    -21.158533   26.223941   46.343205
  C    -20.537295   27.565853   45.953365
  C    -20.269223   28.203490   47.336287
  C    -19.889747   26.991242   48.216174
  O    -20.385162   25.791131   47.486245
  H    -21.059157   25.437375   45.591289
  H    -19.601231   27.388415   45.410747
  H    -21.208930   28.158411   45.328935
  H    -19.476689   28.957562   47.307779
  H    -21.182044   28.684157   47.704071
  H    -20.346077   27.013080   49.210123
  H    -18.808216   26.864996   48.322881
  C    -23.093556   26.100532   47.930173
  H    -22.899333   25.058845   48.217567
  H    -22.620434   26.751093   48.678005
  O    -22.582955   26.379660   46.602497
  C    -24.597640   26.351711   47.884172
  C    -25.307830   26.142747   49.229972
  C    -25.059138   27.503726   49.932539
  C    -25.114281   28.515547   48.761174
  O    -24.924354   27.732908   47.517234
  H    -25.031668   25.720156   47.103221
  O    -26.726478   25.891803   49.033740
  H    -24.939062   25.288375   49.799687
  H    -25.819976   27.688477   50.695130
  H    -24.076772   27.505813   50.417947
  H    -24.334014   29.281109   48.825655
  H    -26.084793   29.016002   48.684842
  H    -27.062413   26.491843   48.334344

 Multiplicity           Mult            ....    1
 Number of Electrons    NEL             ....  102
 Basis Dimension        Dim             ....  149

ORBITAL ENERGIES
----------------

  NO   OCC          E(Eh)            E(eV)
   0   2.0000     -19.150335      -521.1071
   1   2.0000     -19.139423      -520.8102
   2   2.0000     -19.138074      -520.7735
   3   2.0000     -19.135619      -520.7067
   4   2.0000     -10.277793      -279.6730
   5   2.0000     -10.242739      -278.7191
   6   2.0000     -10.233647      -278.4717
   7   2.0000     -10.232300      -278.4350
   8   2.0000     -10.230424      -278.3840
   9   2.0000     -10.230391      -278.3831
  10   2.0000     -10.191228      -277.3174
  11   2.0000     -10.190218      -277.2899
  12   2.0000     -10.184115      -277.1239
  13   2.0000      -1.054894       -28.7051
  14   2.0000      -1.035385       -28.1743
  15   2.0000      -1.005693       -27.3663
  16   2.0000      -0.990966       -26.9656
  17   2.0000      -0.791855       -21.5475
  18   2.0000      -0.783140       -21.3103
  19   2.0000      -0.769183       -20.9305
  20   2.0000      -0.733642       -19.9634
  21   2.0000      -0.672864       -18.3096
  22   2.0000      -0.605142       -16.4667
  23   2.0000      -0.603730       -16.4283
  24   2.0000      -0.593377       -16.1466
  25   2.0000      -0.577736       -15.7210
  26   2.0000      -0.527691       -14.3592
  27   2.0000      -0.507558       -13.8113
  28   2.0000      -0.497317       -13.5327
  29   2.0000      -0.492843       -13.4109
  30   2.0000      -0.476874       -12.9764
  31   2.0000      -0.460572       -12.5328
  32   2.0000      -0.453149       -12.3308
  33   2.0000      -0.439835       -11.9685
  34   2.0000      -0.416468       -11.3327
  35   2.0000      -0.413125       -11.2417
  36   2.0000      -0.403846       -10.9892
  37   2.0000      -0.393780       -10.7153
  38   2.0000      -0.373988       -10.1767
  39   2.0000      -0.371008       -10.0956
  40   2.0000      -0.360898        -9.8205
  41   2.0000      -0.358440        -9.7537
  42   2.0000      -0.350364        -9.5339
  43   2.0000      -0.340540        -9.2666
  44   2.0000      -0.324486        -8.8297
  45   2.0000      -0.309194        -8.4136
  46   2.0000      -0.303944        -8.2707
  47   2.0000      -0.270986        -7.3739
  48   2.0000      -0.263019        -7.1571
  49   2.0000      -0.247219        -6.7272
  50   2.0000      -0.243023        -6.6130
  51   0.0000       0.054857         1.4927
  52   0.0000       0.076491         2.0814
  53   0.0000       0.092680         2.5219
  54   0.0000       0.097473         2.6524
  55   0.0000       0.102394         2.7863

MULLIKEN ATOMIC CHARGES
-----------------------
   0 C :    0.298661
   1 C :   -0.253862
   2 C :   -0.311618
   3 C :   -0.017181
   4 O :   -0.512569
   5 H :    0.156941
   6 H :    0.142907
   7 H :    0.167510
   8 H :    0.147545
   9 H :    0.158184
  10 H :    0.139790
  11 H :    0.152001
  12 C :    0.024077
  13 H :    0.140707
  14 H :    0.118189
  15 O :   -0.532814
  16 C :    0.056690
  17 C :    0.076553
  18 C :   -0.296915
  19 C :   -0.029502
  20 O :   -0.508916
  21 H :    0.172739
  22 O :   -0.601397
  23 H :    0.152996
  24 H :    0.164176
  25 H :    0.139993
  26 H :    0.144011
  27 H :    0.145423
  28 H :    0.365681
Sum of atomic charges:    0.0000000

LOEWDIN ATOMIC CHARGES
----------------------
   0 C :    0.182506
   1 C :   -0.219548
   2 C :   -0.220342
   3 C :   -0.033795
   4 O :   -0.320736
   5 H :    0.105299
   6 H :    0.112894
   7 H :    0.129355
   8 H :    0.117500
   9 H :    0.115343
  10 H :    0.098901
  11 H :    0.107183
  12 C :   -0.033523
  13 H :    0.103365
  14 H :    0.087524
  15 O :   -0.332250
  16 C :    0.017128
  17 C :    0.035513
  18 C :   -0.242066
  19 C :   -0.039438
  20 O :   -0.320552
  21 H :    0.122158
  22 O :   -0.413708
  23 H :    0.115629
  24 H :    0.126888
  25 H :    0.110570
  26 H :    0.102164
  27 H :    0.102235
  28 H :    0.283803

  Mayer bond orders larger than 0.100000
B(  0-C ,  1-C ) :   0.9312 B(  0-C ,  4-O ) :   0.9069 B(  0-C ,  5-H ) :   0.9293
B(  0-C , 15-O ) :   0.8462 B(  1-C ,  2-C ) :   0.9520 B(  1-C ,  6-H ) :   0.9356
B(  1-C ,  7-H ) :   0.9346 B(  2-C ,  3-C ) :   0.9531 B(  2-C ,  8-H ) :   0.9445
B(  2-C ,  9-H ) :   0.9439 B(  3-C ,  4-O ) :   0.8319 B(  3-C , 10-H ) :   0.9313
B(  3-C , 11-H ) :   0.9396 B( 12-C , 13-H ) :   0.9123 B( 12-C , 14-H ) :   0.9130
B( 12-C , 15-O ) :   0.8314 B( 12-C , 16-C ) :   0.9000 B( 16-C , 17-C ) :   0.9010
B( 16-C , 20-O ) :   0.8616 B( 16-C , 21-H ) :   0.9217 B( 17-C , 18-C ) :   0.9103
B( 17-C , 22-O ) :   0.8947 B( 17-C , 23-H ) :   0.9331 B( 18-C , 19-C ) :   0.9396
B( 18-C , 24-H ) :   0.9373 B( 18-C , 25-H ) :   0.9344 B( 19-C , 20-O ) :   0.8555
B( 19-C , 26-H ) :   0.9340 B( 19-C , 27-H ) :   0.9378 B( 22-O , 28-H ) :   0.7935

FINAL SINGLE POINT ENERGY      -652.858262241176

DIPOLE MOMENT
-------------
                                X             Y             Z
Electronic contribution:     -3.54666      -4.12058      -2.92028
Nuclear contribution   :      4.37649       5.04998       3.51903
                        -----------------------------------------
Total Dipole Moment    :      0.82983       0.92940       0.59875
                        -----------------------------------------
Magnitude (a.u.)       :      1.38235
Magnitude (Debye)      :      3.51365

Rotational constants in cm-1:     0.055867     0.013313     0.012931
Rotational constants in MHz :  1674.838432   399.105494   387.672824

                             ****ORCA TERMINATED NORMALLY****
TOTAL RUN TIME: 0 days 0 hours 38 minutes 39 seconds 296 msec
