                         Program Version 4.2.1 -  RELEASE  -
|  1> # Test redundant internal optimization
|  2> #
|  3> ! RKS B3LYP  Opt TightSCF SmallPrint
|  4>
|  5> %basis
|  6>         Basis "6-31G"
|  7> end
|  8>
|  9> %geom
| 10> Constraints
| 11> { D 4  0  19  14  195.0   C } # D for Dihedral angle
| 12> { D 0  19  14  12  30.0   C } # D for Dihedral angle
| 13> { D 0  4  3  2   C } # D for Dihedral angle
| 14> { D 4  3  2  1   C } # D for Dihedral angle
| 15> { D 3  2  1  0   C } # D for Dihedral angle
| 16> { D 2  1  0  4   C } # D for Dihedral angle
| 17> { D 1  0  4  3   C } # D for Dihedral angle
| 18> { D 14  15  16  17   C } # D for Dihedral angle
| 19> { D 15  16  17  12   C } # D for Dihedral angle
| 20> { D 16  17  12  14   C } # D for Dihedral angle
| 21> { D 17  12  14  15   C } # D for Dihedral angle
| 22> { D 12  14  15  16   C } # D for Dihedral angle
| 23> end
| 24> end
| 25>
| 26>
| 27> #%pal
| 28> #nprocs 8
| 29> #end
| 30>
| 31> * xyz 0 1
| 32> C  -21.048   26.222   46.251
| 33> C  -20.361   27.558   45.944
| 34> C  -20.329   28.222   47.341
| 35> C  -20.110   27.022   48.296
| 36> O  -20.473   25.807   47.535
| 37> H  -20.833   25.428   45.533
| 38> H  -19.344   27.382   45.576
| 39> H  -20.898   28.157   45.201
| 40> H  -19.543   28.978   47.434
| 41> H  -21.289   28.710   47.548
| 42> H  -20.733   27.082   49.195
| 43> H  -19.064   26.913   48.597
| 44> C  -22.412   25.637   44.049
| 45> H  -22.742   25.901   43.032
| 46> C  -23.163   26.451   45.109
| 47> C  -24.512   25.699   45.184
| 48> C  -24.104   24.221   44.962
| 49> O  -22.756   24.244   44.353
| 50> H  -21.325   25.717   44.104
| 51> O  -22.472   26.381   46.366
| 52> H  -23.280   27.506   44.837
| 53> H  -25.031   25.850   46.136
| 54> H  -25.180   26.039   44.382
| 55> H  -24.791   23.690   44.294
| 56> H  -24.023   23.664   45.901
| 57> *
| 58>
| 59>                          ****END OF INPUT****
 Total Charge           Charge          ....    0
 Multiplicity           Mult            ....    1
 Number of Electrons    NEL             ....   86
FINAL SINGLE POINT ENERGY      -538.413919877217
FINAL SINGLE POINT ENERGY      -538.426502261382
FINAL SINGLE POINT ENERGY      -538.428102573294
FINAL SINGLE POINT ENERGY      -538.428471083209
FINAL SINGLE POINT ENERGY      -538.428525742128
FINAL SINGLE POINT ENERGY      -538.428538789984
FINAL SINGLE POINT ENERGY      -538.428540357385
                    ***********************HURRAY********************

CARTESIAN COORDINATES (ANGSTROEM)
---------------------------------
  C    -20.935331   26.208145   46.239183
  C    -20.202341   27.525231   45.990917
  C    -20.339491   28.231741   47.361380
  C    -20.258055   27.059595   48.361766
  O    -20.540783   25.834367   47.569229
  H    -20.666981   25.374847   45.587565
  H    -19.150247   27.318118   45.760858
  H    -20.627560   28.106345   45.166965
  H    -19.558829   28.979905   47.528611
  H    -21.313429   28.725645   47.426060
  H    -20.991076   27.130782   49.169499
  H    -19.258466   26.932343   48.788236
  C    -22.561816   25.654692   43.839989
  H    -23.082004   25.943211   42.914338
  C    -23.142299   26.451753   45.008181
  C    -24.445539   25.681351   45.291354
  C    -24.065802   24.211291   45.000184
  O    -22.829978   24.258067   44.181287
  H    -21.488021   25.756339   43.678387
  O    -22.379526   26.388559   46.258584
  H    -23.311875   27.503881   44.746230
  H    -24.762830   25.844548   46.323181
  H    -25.239709   26.027011   44.618724
  H    -24.841145   23.677569   44.440411
  H    -23.822867   23.655663   45.908881

 Multiplicity           Mult            ....    1
 Number of Electrons    NEL             ....   86
 Basis Dimension        Dim             ....  127

ORBITAL ENERGIES
----------------

  NO   OCC          E(Eh)            E(eV)
   0   2.0000     -19.135917      -520.7148
   1   2.0000     -19.135454      -520.7022
   2   2.0000     -19.133905      -520.6600
   3   2.0000     -10.274221      -279.5758
   4   2.0000     -10.242681      -278.7175
   5   2.0000     -10.229936      -278.3707
   6   2.0000     -10.221801      -278.1494
   7   2.0000     -10.220703      -278.1195
   8   2.0000     -10.185455      -277.1603
   9   2.0000     -10.184795      -277.1424
  10   2.0000     -10.184216      -277.1266
  11   2.0000      -1.049219       -28.5507
  12   2.0000      -1.017365       -27.6839
  13   2.0000      -0.985132       -26.8068
  14   2.0000      -0.788339       -21.4518
  15   2.0000      -0.778890       -21.1947
  16   2.0000      -0.739034       -20.1101
  17   2.0000      -0.725146       -19.7322
  18   2.0000      -0.619248       -16.8506
  19   2.0000      -0.600704       -16.3460
  20   2.0000      -0.592109       -16.1121
  21   2.0000      -0.563232       -15.3263
  22   2.0000      -0.525785       -14.3073
  23   2.0000      -0.499118       -13.5817
  24   2.0000      -0.488383       -13.2896
  25   2.0000      -0.481277       -13.0962
  26   2.0000      -0.452182       -12.3045
  27   2.0000      -0.449539       -12.2326
  28   2.0000      -0.426012       -11.5924
  29   2.0000      -0.416865       -11.3435
  30   2.0000      -0.399972       -10.8838
  31   2.0000      -0.381235       -10.3739
  32   2.0000      -0.372155       -10.1269
  33   2.0000      -0.365589        -9.9482
  34   2.0000      -0.363362        -9.8876
  35   2.0000      -0.355073        -9.6620
  36   2.0000      -0.348935        -9.4950
  37   2.0000      -0.315735        -8.5916
  38   2.0000      -0.307590        -8.3699
  39   2.0000      -0.294493        -8.0136
  40   2.0000      -0.255266        -6.9461
  41   2.0000      -0.247822        -6.7436
  42   2.0000      -0.240313        -6.5392
  43   0.0000       0.075271         2.0482
  44   0.0000       0.096510         2.6262
  45   0.0000       0.103060         2.8044
  46   0.0000       0.106790         2.9059
  47   0.0000       0.112020         3.0482

MULLIKEN ATOMIC CHARGES
-----------------------
   0 C :    0.290774
   1 C :   -0.269338
   2 C :   -0.297605
   3 C :   -0.001367
   4 O :   -0.504700
   5 H :    0.165447
   6 H :    0.145343
   7 H :    0.136816
   8 H :    0.140757
   9 H :    0.157882
  10 H :    0.152069
  11 H :    0.140832
  12 C :   -0.027970
  13 H :    0.131075
  14 C :    0.080579
  15 C :   -0.280922
  16 C :   -0.008947
  17 O :   -0.521621
  18 H :    0.152870
  19 O :   -0.520055
  20 H :    0.129669
  21 H :    0.169529
  22 H :    0.134152
  23 H :    0.138821
  24 H :    0.165909
Sum of atomic charges:   -0.0000000

LOEWDIN ATOMIC CHARGES
----------------------
   0 C :    0.177106
   1 C :   -0.231836
   2 C :   -0.216509
   3 C :   -0.025866
   4 O :   -0.303246
   5 H :    0.107924
   6 H :    0.114205
   7 H :    0.110889
   8 H :    0.113572
   9 H :    0.116933
  10 H :    0.108059
  11 H :    0.101788
  12 C :   -0.052631
  13 H :    0.096995
  14 C :    0.039166
  15 C :   -0.221993
  16 C :   -0.028653
  17 O :   -0.333079
  18 H :    0.111009
  19 O :   -0.334296
  20 H :    0.096821
  21 H :    0.131637
  22 H :    0.107880
  23 H :    0.099996
  24 H :    0.114127

  Mayer bond orders larger than 0.100000
B(  0-C ,  1-C ) :   0.9253 B(  0-C ,  4-O ) :   0.9254 B(  0-C ,  5-H ) :   0.9112
B(  0-C , 19-O ) :   0.8292 B(  1-C ,  2-C ) :   0.9517 B(  1-C ,  6-H ) :   0.9345
B(  1-C ,  7-H ) :   0.9378 B(  2-C ,  3-C ) :   0.9555 B(  2-C ,  8-H ) :   0.9451
B(  2-C ,  9-H ) :   0.9450 B(  3-C ,  4-O ) :   0.8392 B(  3-C , 10-H ) :   0.9347
B(  3-C , 11-H ) :   0.9397 B( 12-C , 13-H ) :   0.9122 B( 12-C , 14-C ) :   0.9160
B( 12-C , 17-O ) :   0.8679 B( 12-C , 18-H ) :   0.9271 B( 14-C , 15-C ) :   0.9486
B( 14-C , 19-O ) :   0.8428 B( 14-C , 20-H ) :   0.9208 B( 15-C , 16-C ) :   0.9463
B( 15-C , 21-H ) :   0.9354 B( 15-C , 22-H ) :   0.9404 B( 16-C , 17-O ) :   0.8447
B( 16-C , 23-H ) :   0.9338 B( 16-C , 24-H ) :   0.9347

FINAL SINGLE POINT ENERGY      -538.428540659297

DIPOLE MOMENT
-------------
                                X             Y             Z
Electronic contribution:      0.27986      -3.61462       0.36237
Nuclear contribution   :     -0.47675       4.93560      -0.76332
                        -----------------------------------------
Total Dipole Moment    :     -0.19690       1.32098      -0.40095
                        -----------------------------------------
Magnitude (a.u.)       :      1.39446
Magnitude (Debye)      :      3.54444

Rotational constants in cm-1:     0.083404     0.020888     0.020424
Rotational constants in MHz :  2500.374695   626.196824   612.281628

                             ****ORCA TERMINATED NORMALLY****
TOTAL RUN TIME: 0 days 0 hours 8 minutes 6 seconds 180 msec
