                         Program Version 4.2.0 -  RELEASE  -
|  1> # Test redundant internal optimization
|  2> #
|  3> ! RKS B3LYP  Opt TightSCF SmallPrint
|  4>
|  5> %basis
|  6>         Basis "6-31G"
|  7> end
|  8>
|  9> %geom
| 10> Constraints
| 11> { D 4  0  15  12  165.0   C } # D for Dihedral angle
| 12> { D 0  15  12  16  210.0   C } # D for Dihedral angle
| 13> { D 0  4  3  2   C } # D for Dihedral angle
| 14> { D 4  3  2  1   C } # D for Dihedral angle
| 15> { D 3  2  1  0   C } # D for Dihedral angle
| 16> { D 2  1  0  4   C } # D for Dihedral angle
| 17> { D 1  0  4  3   C } # D for Dihedral angle
| 18> { D 16  20  19  18   C } # D for Dihedral angle
| 19> { D 20  19  18  17   C } # D for Dihedral angle
| 20> { D 19  18  17  16   C } # D for Dihedral angle
| 21> { D 18  17  16  20   C } # D for Dihedral angle
| 22> { D 17  16  20  19   C } # D for Dihedral angle
| 23> { D 15  12  16  20   C } # D for Dihedral angle
| 24> end
| 25> end
| 26>
| 27>
| 28> #%pal
| 29> #nprocs 8
| 30> #end
| 31>
| 32> * xyz 0 1
| 33> C  -21.048   26.222   46.251
| 34> C  -20.361   27.558   45.944
| 35> C  -20.329   28.222   47.341
| 36> C  -20.110   27.022   48.296
| 37> O  -20.473   25.807   47.535
| 38> H  -20.833   25.428   45.533
| 39> H  -19.344   27.382   45.576
| 40> H  -20.898   28.157   45.201
| 41> H  -19.543   28.978   47.434
| 42> H  -21.289   28.710   47.548
| 43> H  -20.733   27.082   49.195
| 44> H  -19.064   26.913   48.597
| 45> C  -23.260   27.170   45.210
| 46> H  -22.545   27.890   44.794
| 47> H  -23.557   26.480   44.410
| 48> O  -22.586   26.394   46.375
| 49> C  -24.528   27.946   45.660
| 50> C  -24.177   29.054   46.660
| 51> C  -23.643   30.164   45.723
| 52> C  -24.522   30.009   44.457
| 53> O  -25.123   28.659   44.525
| 54> H  -25.275   27.235   46.018
| 55> O  -25.458   29.530   47.399
| 56> H  -23.444   28.741   47.410
| 57> H  -23.718   31.163   46.163
| 58> H  -22.588   29.980   45.486
| 59> H  -23.944   30.098   43.531
| 60> H  -25.346   30.727   44.430
| 61> H  -26.209   29.850   46.666
| 62> *
| 63>
| 64>                          ****END OF INPUT****
 Total Charge           Charge          ....    0
 Multiplicity           Mult            ....    1
 Number of Electrons    NEL             ....  102
FINAL SINGLE POINT ENERGY      -652.827655119192
FINAL SINGLE POINT ENERGY      -652.851026512508
FINAL SINGLE POINT ENERGY      -652.855250137363
FINAL SINGLE POINT ENERGY      -652.856280358316
FINAL SINGLE POINT ENERGY      -652.856425854685
FINAL SINGLE POINT ENERGY      -652.856456387317
FINAL SINGLE POINT ENERGY      -652.856459455645
                    ***********************HURRAY********************

CARTESIAN COORDINATES (ANGSTROEM)
---------------------------------
  C    -21.122666   26.257851   46.228519
  C    -20.249929   27.472565   45.910862
  C    -20.283501   28.257176   47.250313
  C    -20.317706   27.125079   48.299139
  O    -20.749022   25.909032   47.566209
  H    -20.922950   25.383292   45.601655
  H    -19.236122   27.115107   45.699177
  H    -20.575703   28.066722   45.053652
  H    -19.412985   28.909091   47.370778
  H    -21.181776   28.877449   47.310008
  H    -21.022385   27.310735   49.113555
  H    -19.330875   26.904993   48.716272
  C    -23.210490   27.187154   45.133949
  H    -22.528625   27.887013   44.634844
  H    -23.550543   26.462202   44.383755
  O    -22.564103   26.503842   46.243305
  C    -24.422950   27.948384   45.676837
  C    -24.121864   29.060970   46.691545
  C    -23.674446   30.219600   45.763235
  C    -24.566112   30.031400   44.510083
  O    -25.082553   28.642071   44.564818
  H    -25.143644   27.238007   46.090816
  O    -25.317555   29.411824   47.441255
  H    -23.384757   28.769349   47.436212
  H    -23.825520   31.185534   46.252055
  H    -22.611986   30.125319   45.512781
  H    -24.018109   30.171097   43.573190
  H    -25.434364   30.697343   44.508222
  H    -26.084760   29.440800   46.830962

 Multiplicity           Mult            ....    1
 Number of Electrons    NEL             ....  102
 Basis Dimension        Dim             ....  149

ORBITAL ENERGIES
----------------

  NO   OCC          E(Eh)            E(eV)
   0   2.0000     -19.147922      -521.0414
   1   2.0000     -19.143930      -520.9328
   2   2.0000     -19.143857      -520.9308
   3   2.0000     -19.137621      -520.7611
   4   2.0000     -10.285033      -279.8700
   5   2.0000     -10.239625      -278.6344
   6   2.0000     -10.235586      -278.5245
   7   2.0000     -10.234968      -278.5076
   8   2.0000     -10.234410      -278.4924
   9   2.0000     -10.229703      -278.3644
  10   2.0000     -10.196949      -277.4731
  11   2.0000     -10.195684      -277.4387
  12   2.0000     -10.192689      -277.3572
  13   2.0000      -1.056250       -28.7420
  14   2.0000      -1.039428       -28.2843
  15   2.0000      -1.007119       -27.4051
  16   2.0000      -0.996715       -27.1220
  17   2.0000      -0.793787       -21.6000
  18   2.0000      -0.783500       -21.3201
  19   2.0000      -0.772049       -21.0085
  20   2.0000      -0.735996       -20.0275
  21   2.0000      -0.681321       -18.5397
  22   2.0000      -0.608511       -16.5584
  23   2.0000      -0.607190       -16.5225
  24   2.0000      -0.595576       -16.2064
  25   2.0000      -0.581478       -15.8228
  26   2.0000      -0.528838       -14.3904
  27   2.0000      -0.516524       -14.0553
  28   2.0000      -0.504352       -13.7241
  29   2.0000      -0.496785       -13.5182
  30   2.0000      -0.478880       -13.0310
  31   2.0000      -0.457953       -12.4615
  32   2.0000      -0.454486       -12.3672
  33   2.0000      -0.443495       -12.0681
  34   2.0000      -0.429002       -11.6737
  35   2.0000      -0.418436       -11.3862
  36   2.0000      -0.408863       -11.1257
  37   2.0000      -0.396458       -10.7882
  38   2.0000      -0.382535       -10.4093
  39   2.0000      -0.372021       -10.1232
  40   2.0000      -0.367471        -9.9994
  41   2.0000      -0.361227        -9.8295
  42   2.0000      -0.357008        -9.7147
  43   2.0000      -0.334600        -9.1049
  44   2.0000      -0.317928        -8.6513
  45   2.0000      -0.308904        -8.4057
  46   2.0000      -0.302829        -8.2404
  47   2.0000      -0.274995        -7.4830
  48   2.0000      -0.264633        -7.2010
  49   2.0000      -0.257954        -7.0193
  50   2.0000      -0.246462        -6.7066
  51   0.0000       0.053711         1.4616
  52   0.0000       0.064756         1.7621
  53   0.0000       0.088872         2.4183
  54   0.0000       0.092420         2.5149
  55   0.0000       0.100768         2.7420

MULLIKEN ATOMIC CHARGES
-----------------------
   0 C :    0.322456
   1 C :   -0.296790
   2 C :   -0.305248
   3 C :   -0.002864
   4 O :   -0.496752
   5 H :    0.147289
   6 H :    0.155948
   7 H :    0.141129
   8 H :    0.145872
   9 H :    0.155343
  10 H :    0.157329
  11 H :    0.145862
  12 C :   -0.006840
  13 H :    0.117140
  14 H :    0.152379
  15 O :   -0.524862
  16 C :    0.057582
  17 C :    0.090653
  18 C :   -0.309270
  19 C :   -0.026943
  20 O :   -0.526389
  21 H :    0.173799
  22 O :   -0.604061
  23 H :    0.173124
  24 H :    0.163380
  25 H :    0.143763
  26 H :    0.142864
  27 H :    0.150230
  28 H :    0.363879
Sum of atomic charges:   -0.0000000

LOEWDIN ATOMIC CHARGES
----------------------
   0 C :    0.186424
   1 C :   -0.233736
   2 C :   -0.218490
   3 C :   -0.026079
   4 O :   -0.300218
   5 H :    0.098774
   6 H :    0.121437
   7 H :    0.111500
   8 H :    0.116322
   9 H :    0.110766
  10 H :    0.110678
  11 H :    0.104776
  12 C :   -0.040264
  13 H :    0.088428
  14 H :    0.107037
  15 O :   -0.338616
  16 C :    0.017747
  17 C :    0.037965
  18 C :   -0.244364
  19 C :   -0.037815
  20 O :   -0.329609
  21 H :    0.121582
  22 O :   -0.413198
  23 H :    0.122019
  24 H :    0.127174
  25 H :    0.110309
  26 H :    0.102468
  27 H :    0.104561
  28 H :    0.282421

  Mayer bond orders larger than 0.100000
B(  0-C ,  1-C ) :   0.9268 B(  0-C ,  4-O ) :   0.9382 B(  0-C ,  5-H ) :   0.9238
B(  0-C , 15-O ) :   0.8328 B(  1-C ,  2-C ) :   0.9505 B(  1-C ,  6-H ) :   0.9328
B(  1-C ,  7-H ) :   0.9267 B(  2-C ,  3-C ) :   0.9536 B(  2-C ,  8-H ) :   0.9449
B(  2-C ,  9-H ) :   0.9345 B(  3-C ,  4-O ) :   0.8360 B(  3-C , 10-H ) :   0.9333
B(  3-C , 11-H ) :   0.9390 B( 12-C , 13-H ) :   0.9105 B( 12-C , 14-H ) :   0.9188
B( 12-C , 15-O ) :   0.8338 B( 12-C , 16-C ) :   0.9041 B( 16-C , 17-C ) :   0.9117
B( 16-C , 20-O ) :   0.8404 B( 16-C , 21-H ) :   0.9236 B( 17-C , 18-C ) :   0.9110
B( 17-C , 22-O ) :   0.8859 B( 17-C , 23-H ) :   0.9155 B( 18-C , 19-C ) :   0.9396
B( 18-C , 24-H ) :   0.9381 B( 18-C , 25-H ) :   0.9318 B( 19-C , 20-O ) :   0.8445
B( 19-C , 26-H ) :   0.9362 B( 19-C , 27-H ) :   0.9372 B( 22-O , 28-H ) :   0.7946

FINAL SINGLE POINT ENERGY      -652.856460449183

DIPOLE MOMENT
-------------
                                X             Y             Z
Electronic contribution:     -4.61224      -4.87465       1.03511
Nuclear contribution   :      5.67918       6.05231      -1.91681
                        -----------------------------------------
Total Dipole Moment    :      1.06694       1.17766      -0.88170
                        -----------------------------------------
Magnitude (a.u.)       :      1.81731
Magnitude (Debye)      :      4.61925

Rotational constants in cm-1:     0.048051     0.015101     0.014384
Rotational constants in MHz :  1440.528832   452.723116   431.216410

                             ****ORCA TERMINATED NORMALLY****
TOTAL RUN TIME: 0 days 0 hours 22 minutes 41 seconds 786 msec
