                         Program Version 4.2.1 -  RELEASE  -
|  1> # Test redundant internal optimization
|  2> #
|  3> ! RKS B3LYP  Opt TightSCF SmallPrint
|  4>
|  5> %basis
|  6>         Basis "6-31G"
|  7> end
|  8>
|  9> %geom
| 10> Constraints
| 11> { D 4  0  19  14  120.0   C } # D for Dihedral angle
| 12> { D 0  19  14  12  60.0   C } # D for Dihedral angle
| 13> { D 0  4  3  2   C } # D for Dihedral angle
| 14> { D 4  3  2  1   C } # D for Dihedral angle
| 15> { D 3  2  1  0   C } # D for Dihedral angle
| 16> { D 2  1  0  4   C } # D for Dihedral angle
| 17> { D 1  0  4  3   C } # D for Dihedral angle
| 18> { D 14  15  16  17   C } # D for Dihedral angle
| 19> { D 15  16  17  12   C } # D for Dihedral angle
| 20> { D 16  17  12  14   C } # D for Dihedral angle
| 21> { D 17  12  14  15   C } # D for Dihedral angle
| 22> { D 12  14  15  16   C } # D for Dihedral angle
| 23> end
| 24> end
| 25>
| 26>
| 27> #%pal
| 28> #nprocs 8
| 29> #end
| 30>
| 31> * xyz 0 1
| 32> C  -21.048   26.222   46.251
| 33> C  -20.361   27.558   45.944
| 34> C  -20.329   28.222   47.341
| 35> C  -20.110   27.022   48.296
| 36> O  -20.473   25.807   47.535
| 37> H  -20.833   25.428   45.533
| 38> H  -19.344   27.382   45.576
| 39> H  -20.898   28.157   45.201
| 40> H  -19.543   28.978   47.434
| 41> H  -21.289   28.710   47.548
| 42> H  -20.733   27.082   49.195
| 43> H  -19.064   26.913   48.597
| 44> C  -22.576   28.085   44.631
| 45> H  -22.661   29.171   44.469
| 46> C  -22.946   27.704   46.069
| 47> C  -24.491   27.731   46.014
| 48> C  -24.802   27.219   44.585
| 49> O  -23.554   27.366   43.805
| 50> H  -21.586   27.752   44.315
| 51> O  -22.472   26.381   46.366
| 52> H  -22.535   28.394   46.815
| 53> H  -24.955   27.114   46.789
| 54> H  -24.855   28.759   46.143
| 55> H  -25.599   27.789   44.097
| 56> H  -25.067   26.157   44.571
| 57> *
| 58>
| 59>                          ****END OF INPUT****
 Total Charge           Charge          ....    0
 Multiplicity           Mult            ....    1
 Number of Electrons    NEL             ....   86
FINAL SINGLE POINT ENERGY      -538.362039139561
FINAL SINGLE POINT ENERGY      -538.415175155354
FINAL SINGLE POINT ENERGY      -538.419209126718
FINAL SINGLE POINT ENERGY      -538.419718182100
FINAL SINGLE POINT ENERGY      -538.419789952425
FINAL SINGLE POINT ENERGY      -538.419811871764
FINAL SINGLE POINT ENERGY      -538.419813219154
                    ***********************HURRAY********************

CARTESIAN COORDINATES (ANGSTROEM)
---------------------------------
  C    -21.058010   26.291333   46.332419
  C    -20.044544   27.391715   45.995472
  C    -19.944835   28.169406   47.341070
  C    -20.096261   27.036253   48.384564
  O    -20.692085   25.890885   47.668372
  H    -20.974764   25.396918   45.714564
  H    -19.088408   26.904120   45.773753
  H    -20.300275   28.022571   45.147794
  H    -18.996394   28.705002   47.442007
  H    -20.755216   28.901393   47.428165
  H    -20.745140   27.309635   49.221655
  H    -19.131415   26.700369   48.776169
  C    -22.876208   28.414084   44.574781
  H    -23.217888   29.459779   44.513885
  C    -23.116873   27.888561   45.990258
  C    -24.624354   27.575431   45.952967
  C    -24.854924   27.081137   44.505884
  O    -23.686808   27.542800   43.718954
  H    -21.858351   28.353324   44.199078
  O    -22.475508   26.623787   46.326879
  H    -22.874748   28.647519   46.747591
  H    -24.873489   26.827671   46.708086
  H    -25.195269   28.488904   46.156001
  H    -25.768547   27.490043   44.061805
  H    -24.873686   25.990361   44.437827

 Multiplicity           Mult            ....    1
 Number of Electrons    NEL             ....   86
 Basis Dimension        Dim             ....  127

ORBITAL ENERGIES
----------------

  NO   OCC          E(Eh)            E(eV)
   0   2.0000     -19.136898      -520.7415
   1   2.0000     -19.134742      -520.6828
   2   2.0000     -19.130044      -520.5550
   3   2.0000     -10.280187      -279.7381
   4   2.0000     -10.244954      -278.7794
   5   2.0000     -10.226982      -278.2903
   6   2.0000     -10.226879      -278.2875
   7   2.0000     -10.219348      -278.0826
   8   2.0000     -10.195137      -277.4238
   9   2.0000     -10.194052      -277.3943
  10   2.0000     -10.184235      -277.1271
  11   2.0000      -1.048627       -28.5346
  12   2.0000      -1.014793       -27.6139
  13   2.0000      -0.985556       -26.8183
  14   2.0000      -0.791250       -21.5310
  15   2.0000      -0.785478       -21.3739
  16   2.0000      -0.739124       -20.1126
  17   2.0000      -0.728688       -19.8286
  18   2.0000      -0.622768       -16.9464
  19   2.0000      -0.606139       -16.4939
  20   2.0000      -0.596697       -16.2369
  21   2.0000      -0.565721       -15.3941
  22   2.0000      -0.518487       -14.1088
  23   2.0000      -0.502136       -13.6638
  24   2.0000      -0.492880       -13.4120
  25   2.0000      -0.487473       -13.2648
  26   2.0000      -0.452354       -12.3092
  27   2.0000      -0.447604       -12.1799
  28   2.0000      -0.434175       -11.8145
  29   2.0000      -0.414801       -11.2873
  30   2.0000      -0.410852       -11.1799
  31   2.0000      -0.388700       -10.5771
  32   2.0000      -0.370964       -10.0944
  33   2.0000      -0.369718       -10.0606
  34   2.0000      -0.365636        -9.9495
  35   2.0000      -0.357728        -9.7343
  36   2.0000      -0.348344        -9.4789
  37   2.0000      -0.313599        -8.5335
  38   2.0000      -0.306386        -8.3372
  39   2.0000      -0.286319        -7.7911
  40   2.0000      -0.265974        -7.2375
  41   2.0000      -0.246888        -6.7182
  42   2.0000      -0.236464        -6.4345
  43   0.0000       0.068346         1.8598
  44   0.0000       0.088993         2.4216
  45   0.0000       0.095191         2.5903
  46   0.0000       0.105333         2.8663
  47   0.0000       0.112123         3.0510

MULLIKEN ATOMIC CHARGES
-----------------------
   0 C :    0.322149
   1 C :   -0.297310
   2 C :   -0.311820
   3 C :   -0.000295
   4 O :   -0.494943
   5 H :    0.164067
   6 H :    0.156674
   7 H :    0.142879
   8 H :    0.145856
   9 H :    0.148044
  10 H :    0.146779
  11 H :    0.144418
  12 C :   -0.018730
  13 H :    0.125342
  14 C :    0.087416
  15 C :   -0.290949
  16 C :    0.001772
  17 O :   -0.523000
  18 H :    0.159652
  19 O :   -0.539000
  20 H :    0.125986
  21 H :    0.175684
  22 H :    0.138502
  23 H :    0.132504
  24 H :    0.158322
Sum of atomic charges:   -0.0000000

LOEWDIN ATOMIC CHARGES
----------------------
   0 C :    0.187176
   1 C :   -0.231704
   2 C :   -0.221014
   3 C :   -0.030106
   4 O :   -0.311437
   5 H :    0.110975
   6 H :    0.122886
   7 H :    0.114234
   8 H :    0.116460
   9 H :    0.107761
  10 H :    0.104624
  11 H :    0.103458
  12 C :   -0.051943
  13 H :    0.093388
  14 C :    0.043873
  15 C :   -0.221469
  16 C :   -0.027301
  17 O :   -0.332880
  18 H :    0.112297
  19 O :   -0.333209
  20 H :    0.090948
  21 H :    0.134708
  22 H :    0.110231
  23 H :    0.097409
  24 H :    0.110634

  Mayer bond orders larger than 0.100000
B(  0-C ,  1-C ) :   0.9290 B(  0-C ,  4-O ) :   0.9135 B(  0-C ,  5-H ) :   0.9303
B(  0-C , 19-O ) :   0.8642 B(  1-C ,  2-C ) :   0.9507 B(  1-C ,  6-H ) :   0.9332
B(  1-C ,  7-H ) :   0.9211 B(  2-C ,  3-C ) :   0.9495 B(  2-C ,  8-H ) :   0.9455
B(  2-C ,  9-H ) :   0.9417 B(  3-C ,  4-O ) :   0.8466 B(  3-C , 10-H ) :   0.9345
B(  3-C , 11-H ) :   0.9389 B( 12-C , 13-H ) :   0.9079 B( 12-C , 14-C ) :   0.9083
B( 12-C , 17-O ) :   0.8713 B( 12-C , 18-H ) :   0.9219 B( 14-C , 15-C ) :   0.9515
B( 14-C , 19-O ) :   0.8375 B( 14-C , 20-H ) :   0.9123 B( 15-C , 16-C ) :   0.9469
B( 15-C , 21-H ) :   0.9332 B( 15-C , 22-H ) :   0.9417 B( 16-C , 17-O ) :   0.8528
B( 16-C , 23-H ) :   0.9340 B( 16-C , 24-H ) :   0.9360

FINAL SINGLE POINT ENERGY      -538.419813642219

DIPOLE MOMENT
-------------
                                X             Y             Z
Electronic contribution:     -0.79260      -3.98755      -0.89971
Nuclear contribution   :      1.18420       5.24871       1.28754
                        -----------------------------------------
Total Dipole Moment    :      0.39161       1.26116       0.38784
                        -----------------------------------------
Magnitude (a.u.)       :      1.37633
Magnitude (Debye)      :      3.49835

Rotational constants in cm-1:     0.083192     0.021344     0.020082
Rotational constants in MHz :  2494.045920   639.880609   602.041883

                             ****ORCA TERMINATED NORMALLY****
TOTAL RUN TIME: 0 days 0 hours 8 minutes 14 seconds 33 msec
