                         Program Version 4.2.0 -  RELEASE  -
|  1> # Test redundant internal optimization
|  2> #
|  3> ! RKS B3LYP  Opt TightSCF SmallPrint
|  4>
|  5> %basis
|  6>         Basis "6-31G"
|  7> end
|  8>
|  9> %geom
| 10> Constraints
| 11> { D 4  0  15  12  315.0   C } # D for Dihedral angle
| 12> { D 0  15  12  16  150.0   C } # D for Dihedral angle
| 13> { D 0  4  3  2   C } # D for Dihedral angle
| 14> { D 4  3  2  1   C } # D for Dihedral angle
| 15> { D 3  2  1  0   C } # D for Dihedral angle
| 16> { D 2  1  0  4   C } # D for Dihedral angle
| 17> { D 1  0  4  3   C } # D for Dihedral angle
| 18> { D 16  20  19  18   C } # D for Dihedral angle
| 19> { D 20  19  18  17   C } # D for Dihedral angle
| 20> { D 19  18  17  16   C } # D for Dihedral angle
| 21> { D 18  17  16  20   C } # D for Dihedral angle
| 22> { D 17  16  20  19   C } # D for Dihedral angle
| 23> { D 15  12  16  20   C } # D for Dihedral angle
| 24> end
| 25> end
| 26>
| 27>
| 28> #%pal
| 29> #nprocs 8
| 30> #end
| 31>
| 32> * xyz 0 1
| 33> C  -21.048   26.222   46.251
| 34> C  -20.361   27.558   45.944
| 35> C  -20.329   28.222   47.341
| 36> C  -20.110   27.022   48.296
| 37> O  -20.473   25.807   47.535
| 38> H  -20.833   25.428   45.533
| 39> H  -19.344   27.382   45.576
| 40> H  -20.898   28.157   45.201
| 41> H  -19.543   28.978   47.434
| 42> H  -21.289   28.710   47.548
| 43> H  -20.733   27.082   49.195
| 44> H  -19.064   26.913   48.597
| 45> C  -23.319   25.255   47.135
| 46> H  -23.611   24.473   46.422
| 47> H  -22.655   24.804   47.885
| 48> O  -22.586   26.394   46.375
| 49> C  -24.596   25.748   47.870
| 50> C  -24.279   26.907   48.822
| 51> C  -24.194   28.102   47.843
| 52> C  -25.269   27.763   46.780
| 53> O  -25.551   26.317   46.913
| 54> H  -25.087   24.896   48.343
| 55> O  -25.445   27.104   49.828
| 56> H  -23.354   26.757   49.390
| 57> H  -24.379   29.065   48.330
| 58> H  -23.198   28.144   47.385
| 59> H  -24.930   27.970   45.759
| 60> H  -26.210   28.291   46.954
| 61> H  -26.382   27.257   49.281
| 62> *
| 63>
| 64>                          ****END OF INPUT****
 Total Charge           Charge          ....    0
 Multiplicity           Mult            ....    1
 Number of Electrons    NEL             ....  102
FINAL SINGLE POINT ENERGY      -652.837801378894
FINAL SINGLE POINT ENERGY      -652.860502468185
FINAL SINGLE POINT ENERGY      -652.864485907711
FINAL SINGLE POINT ENERGY      -652.866090577231
FINAL SINGLE POINT ENERGY      -652.866249039872
FINAL SINGLE POINT ENERGY      -652.866273973961
FINAL SINGLE POINT ENERGY      -652.866273876554
                    ***********************HURRAY********************

CARTESIAN COORDINATES (ANGSTROEM)
---------------------------------
  C    -21.075560   26.145380   46.313018
  C    -20.397462   27.462692   45.934456
  C    -20.322442   28.183097   47.300331
  C    -20.077821   27.027389   48.296508
  O    -20.473279   25.783914   47.577418
  H    -20.858886   25.306733   45.642048
  H    -19.396864   27.248191   45.544853
  H    -20.963102   28.016746   45.182347
  H    -19.520433   28.927626   47.334312
  H    -21.264133   28.695554   47.512583
  H    -20.670132   27.111411   49.211425
  H    -19.023412   26.909104   48.560246
  C    -23.233928   25.301879   47.125613
  H    -23.521113   24.507648   46.424071
  H    -22.574222   24.880650   47.891822
  O    -22.511918   26.335518   46.377597
  C    -24.498863   25.838858   47.787836
  C    -24.331902   26.962388   48.821121
  C    -24.305903   28.223615   47.917622
  C    -25.295722   27.855526   46.783224
  O    -25.451685   26.384750   46.820092
  H    -24.992066   24.978371   48.257309
  O    -25.453072   26.976175   49.748968
  H    -23.444367   26.854958   49.445307
  H    -24.607256   29.112287   48.478760
  H    -23.304776   28.361529   47.510596
  H    -24.920964   28.143441   45.797605
  H    -26.290621   28.290187   46.928894
  H    -26.288097   26.902382   49.240018

 Multiplicity           Mult            ....    1
 Number of Electrons    NEL             ....  102
 Basis Dimension        Dim             ....  149

ORBITAL ENERGIES
----------------

  NO   OCC          E(Eh)            E(eV)
   0   2.0000     -19.152451      -521.1647
   1   2.0000     -19.148452      -521.0559
   2   2.0000     -19.135364      -520.6997
   3   2.0000     -19.134499      -520.6762
   4   2.0000     -10.283515      -279.8287
   5   2.0000     -10.236309      -278.5441
   6   2.0000     -10.235001      -278.5085
   7   2.0000     -10.231884      -278.4237
   8   2.0000     -10.225428      -278.2480
   9   2.0000     -10.221606      -278.1440
  10   2.0000     -10.194278      -277.4004
  11   2.0000     -10.192445      -277.3505
  12   2.0000     -10.177494      -276.9437
  13   2.0000      -1.060106       -28.8470
  14   2.0000      -1.031641       -28.0724
  15   2.0000      -1.003340       -27.3023
  16   2.0000      -0.995390       -27.0859
  17   2.0000      -0.796417       -21.6716
  18   2.0000      -0.776044       -21.1172
  19   2.0000      -0.763851       -20.7855
  20   2.0000      -0.735802       -20.0222
  21   2.0000      -0.672522       -18.3002
  22   2.0000      -0.608441       -16.5565
  23   2.0000      -0.597832       -16.2678
  24   2.0000      -0.596192       -16.2232
  25   2.0000      -0.574393       -15.6300
  26   2.0000      -0.523545       -14.2464
  27   2.0000      -0.509828       -13.8731
  28   2.0000      -0.501733       -13.6529
  29   2.0000      -0.490032       -13.3345
  30   2.0000      -0.470673       -12.8077
  31   2.0000      -0.463122       -12.6022
  32   2.0000      -0.448878       -12.2146
  33   2.0000      -0.432964       -11.7815
  34   2.0000      -0.421209       -11.4617
  35   2.0000      -0.413204       -11.2438
  36   2.0000      -0.406920       -11.0729
  37   2.0000      -0.386147       -10.5076
  38   2.0000      -0.379285       -10.3209
  39   2.0000      -0.366717        -9.9789
  40   2.0000      -0.365028        -9.9329
  41   2.0000      -0.355355        -9.6697
  42   2.0000      -0.351759        -9.5718
  43   2.0000      -0.343978        -9.3601
  44   2.0000      -0.323842        -8.8122
  45   2.0000      -0.303578        -8.2608
  46   2.0000      -0.301501        -8.2043
  47   2.0000      -0.269676        -7.3383
  48   2.0000      -0.266615        -7.2550
  49   2.0000      -0.261998        -7.1293
  50   2.0000      -0.239417        -6.5149
  51   0.0000       0.060403         1.6437
  52   0.0000       0.077017         2.0957
  53   0.0000       0.092611         2.5201
  54   0.0000       0.100978         2.7478
  55   0.0000       0.104886         2.8541

MULLIKEN ATOMIC CHARGES
-----------------------
   0 C :    0.298584
   1 C :   -0.266748
   2 C :   -0.307583
   3 C :   -0.013558
   4 O :   -0.513715
   5 H :    0.149441
   6 H :    0.150222
   7 H :    0.160635
   8 H :    0.147156
   9 H :    0.159887
  10 H :    0.148459
  11 H :    0.150702
  12 C :   -0.007442
  13 H :    0.145951
  14 H :    0.162986
  15 O :   -0.531419
  16 C :    0.062435
  17 C :    0.078158
  18 C :   -0.296862
  19 C :   -0.014938
  20 O :   -0.525924
  21 H :    0.154374
  22 O :   -0.606478
  23 H :    0.148032
  24 H :    0.144941
  25 H :    0.172684
  26 H :    0.150446
  27 H :    0.135295
  28 H :    0.364281
Sum of atomic charges:   -0.0000000

LOEWDIN ATOMIC CHARGES
----------------------
   0 C :    0.175372
   1 C :   -0.213123
   2 C :   -0.217757
   3 C :   -0.029969
   4 O :   -0.325419
   5 H :    0.096798
   6 H :    0.117544
   7 H :    0.126286
   8 H :    0.116676
   9 H :    0.113834
  10 H :    0.104247
  11 H :    0.107123
  12 C :   -0.045400
  13 H :    0.105740
  14 H :    0.115928
  15 O :   -0.334437
  16 C :    0.013320
  17 C :    0.039673
  18 C :   -0.241692
  19 C :   -0.031701
  20 O :   -0.329880
  21 H :    0.116058
  22 O :   -0.418135
  23 H :    0.113238
  24 H :    0.117595
  25 H :    0.121609
  26 H :    0.107949
  27 H :    0.095776
  28 H :    0.282748

  Mayer bond orders larger than 0.100000
B(  0-C ,  1-C ) :   0.9459 B(  0-C ,  4-O ) :   0.8954 B(  0-C ,  5-H ) :   0.9215
B(  0-C , 15-O ) :   0.8598 B(  1-C ,  2-C ) :   0.9556 B(  1-C ,  6-H ) :   0.9384
B(  1-C ,  7-H ) :   0.9353 B(  2-C ,  3-C ) :   0.9552 B(  2-C ,  8-H ) :   0.9439
B(  2-C ,  9-H ) :   0.9329 B(  3-C ,  4-O ) :   0.8322 B(  3-C , 10-H ) :   0.9328
B(  3-C , 11-H ) :   0.9399 B( 12-C , 13-H ) :   0.9215 B( 12-C , 14-H ) :   0.8969
B( 12-C , 15-O ) :   0.8322 B( 12-C , 16-C ) :   0.9147 B( 16-C , 17-C ) :   0.9087
B( 16-C , 20-O ) :   0.8677 B( 16-C , 21-H ) :   0.9205 B( 17-C , 18-C ) :   0.9237
B( 17-C , 22-O ) :   0.8885 B( 17-C , 23-H ) :   0.9345 B( 18-C , 19-C ) :   0.9433
B( 18-C , 24-H ) :   0.9389 B( 18-C , 25-H ) :   0.9038 B( 19-C , 20-O ) :   0.8414
B( 19-C , 26-H ) :   0.9347 B( 19-C , 27-H ) :   0.9374 B( 22-O , 28-H ) :   0.7949

FINAL SINGLE POINT ENERGY      -652.866271794620

DIPOLE MOMENT
-------------
                                X             Y             Z
Electronic contribution:     -3.62378      -4.40804       0.07185
Nuclear contribution   :      4.51842       5.11607      -0.37997
                        -----------------------------------------
Total Dipole Moment    :      0.89464       0.70803      -0.30813
                        -----------------------------------------
Magnitude (a.u.)       :      1.18179
Magnitude (Debye)      :      3.00386

Rotational constants in cm-1:     0.046647     0.016363     0.015786
Rotational constants in MHz :  1398.438607   490.563681   473.253257

                             ****ORCA TERMINATED NORMALLY****
TOTAL RUN TIME: 0 days 0 hours 22 minutes 6 seconds 203 msec
