                         Program Version 4.2.0 -  RELEASE  -
|  1> # Test redundant internal optimization
|  2> #
|  3> ! RKS B3LYP  Opt TightSCF SmallPrint
|  4>
|  5> %basis
|  6>         Basis "6-31G"
|  7> end
|  8>
|  9> %geom
| 10> Constraints
| 11> { D 4  0  15  12  45.0   C } # D for Dihedral angle
| 12> { D 0  15  12  16  180.0   C } # D for Dihedral angle
| 13> { D 0  4  3  2   C } # D for Dihedral angle
| 14> { D 4  3  2  1   C } # D for Dihedral angle
| 15> { D 3  2  1  0   C } # D for Dihedral angle
| 16> { D 2  1  0  4   C } # D for Dihedral angle
| 17> { D 1  0  4  3   C } # D for Dihedral angle
| 18> { D 16  20  19  18   C } # D for Dihedral angle
| 19> { D 20  19  18  17   C } # D for Dihedral angle
| 20> { D 19  18  17  16   C } # D for Dihedral angle
| 21> { D 18  17  16  20   C } # D for Dihedral angle
| 22> { D 17  16  20  19   C } # D for Dihedral angle
| 23> { D 15  12  16  20   C } # D for Dihedral angle
| 24> end
| 25> end
| 26>
| 27>
| 28> #%pal
| 29> #nprocs 8
| 30> #end
| 31>
| 32> * xyz 0 1
| 33> C  -21.048   26.222   46.251
| 34> C  -20.361   27.558   45.944
| 35> C  -20.329   28.222   47.341
| 36> C  -20.110   27.022   48.296
| 37> O  -20.473   25.807   47.535
| 38> H  -20.833   25.428   45.533
| 39> H  -19.344   27.382   45.576
| 40> H  -20.898   28.157   45.201
| 41> H  -19.543   28.978   47.434
| 42> H  -21.289   28.710   47.548
| 43> H  -20.733   27.082   49.195
| 44> H  -19.064   26.913   48.597
| 45> C  -23.065   27.161   47.638
| 46> H  -22.727   26.628   48.535
| 47> H  -22.637   28.172   47.658
| 48> O  -22.586   26.394   46.375
| 49> C  -24.611   27.301   47.705
| 50> C  -25.041   28.161   48.899
| 51> C  -24.781   29.590   48.366
| 52> C  -25.132   29.474   46.862
| 53> O  -25.111   28.032   46.536
| 54> H  -25.062   26.307   47.678
| 55> H  -26.107   28.013   49.106
| 56> O  -24.244   27.847   50.195
| 57> H  -25.381   30.349   48.878
| 58> H  -23.725   29.854   48.496
| 59> H  -24.413   29.997   46.221
| 60> H  -26.138   29.840   46.639
| 61> H  -23.173   27.989   50.013
| 62> *
| 63>
| 64>                          ****END OF INPUT****
 Total Charge           Charge          ....    0
 Multiplicity           Mult            ....    1
 Number of Electrons    NEL             ....  102
FINAL SINGLE POINT ENERGY      -652.809379699451
FINAL SINGLE POINT ENERGY      -652.836187499809
FINAL SINGLE POINT ENERGY      -652.849110461768
FINAL SINGLE POINT ENERGY      -652.851136874660
FINAL SINGLE POINT ENERGY      -652.851516679845
FINAL SINGLE POINT ENERGY      -652.851601083796
FINAL SINGLE POINT ENERGY      -652.851607472253
FINAL SINGLE POINT ENERGY      -652.851607053901
                    ***********************HURRAY********************

CARTESIAN COORDINATES (ANGSTROEM)
---------------------------------
  C    -21.169786   26.320490   46.377273
  C    -20.318324   27.506365   45.901326
  C    -19.902273   28.167350   47.247622
  C    -19.734257   26.944809   48.185165
  O    -20.455542   25.823286   47.535175
  H    -21.189938   25.501460   45.656382
  H    -19.441068   27.119725   45.371686
  H    -20.871240   28.174673   45.237090
  H    -18.973307   28.740192   47.161817
  H    -20.678318   28.850410   47.602957
  H    -20.151174   27.104666   49.184501
  H    -18.689345   26.635637   48.281389
  C    -23.031191   27.264590   47.780129
  H    -22.753482   26.699847   48.678805
  H    -22.599451   28.273404   47.841104
  O    -22.573413   26.571076   46.591694
  C    -24.552251   27.353333   47.678270
  C    -25.216129   28.102820   48.846255
  C    -25.067350   29.588280   48.399256
  C    -25.229136   29.499801   46.866295
  O    -24.999246   28.080638   46.494637
  H    -24.940110   26.337326   47.564486
  H    -26.270535   27.824706   48.899582
  O    -24.694457   27.804059   50.163188
  H    -25.808436   30.238489   48.871252
  H    -24.070347   29.954570   48.678559
  H    -24.518598   30.131482   46.323886
  H    -26.242477   29.754874   46.542669
  H    -23.817820   28.221643   50.288550

 Multiplicity           Mult            ....    1
 Number of Electrons    NEL             ....  102
 Basis Dimension        Dim             ....  149

ORBITAL ENERGIES
----------------

  NO   OCC          E(Eh)            E(eV)
   0   2.0000     -19.151341      -521.1345
   1   2.0000     -19.145286      -520.9697
   2   2.0000     -19.139782      -520.8199
   3   2.0000     -19.136102      -520.7198
   4   2.0000     -10.276716      -279.6437
   5   2.0000     -10.245587      -278.7966
   6   2.0000     -10.233345      -278.4635
   7   2.0000     -10.230645      -278.3900
   8   2.0000     -10.230281      -278.3801
   9   2.0000     -10.229557      -278.3604
  10   2.0000     -10.196617      -277.4641
  11   2.0000     -10.195889      -277.4442
  12   2.0000     -10.188599      -277.2459
  13   2.0000      -1.053362       -28.6634
  14   2.0000      -1.034381       -28.1469
  15   2.0000      -1.016011       -27.6471
  16   2.0000      -0.994339       -27.0573
  17   2.0000      -0.790096       -21.4996
  18   2.0000      -0.783714       -21.3259
  19   2.0000      -0.772589       -21.0232
  20   2.0000      -0.733506       -19.9597
  21   2.0000      -0.682893       -18.5825
  22   2.0000      -0.612227       -16.6595
  23   2.0000      -0.606072       -16.4921
  24   2.0000      -0.597087       -16.2475
  25   2.0000      -0.572925       -15.5901
  26   2.0000      -0.527962       -14.3666
  27   2.0000      -0.508013       -13.8237
  28   2.0000      -0.503059       -13.6889
  29   2.0000      -0.496844       -13.5198
  30   2.0000      -0.472259       -12.8508
  31   2.0000      -0.462641       -12.5891
  32   2.0000      -0.448662       -12.2087
  33   2.0000      -0.432611       -11.7719
  34   2.0000      -0.425747       -11.5852
  35   2.0000      -0.418821       -11.3967
  36   2.0000      -0.412554       -11.2262
  37   2.0000      -0.401799       -10.9335
  38   2.0000      -0.381742       -10.3877
  39   2.0000      -0.376434       -10.2433
  40   2.0000      -0.362316        -9.8591
  41   2.0000      -0.358011        -9.7420
  42   2.0000      -0.346770        -9.4361
  43   2.0000      -0.334070        -9.0905
  44   2.0000      -0.321245        -8.7415
  45   2.0000      -0.314353        -8.5540
  46   2.0000      -0.306779        -8.3479
  47   2.0000      -0.271706        -7.3935
  48   2.0000      -0.263453        -7.1689
  49   2.0000      -0.248617        -6.7652
  50   2.0000      -0.242178        -6.5900
  51   0.0000       0.043382         1.1805
  52   0.0000       0.066942         1.8216
  53   0.0000       0.084186         2.2908
  54   0.0000       0.090666         2.4671
  55   0.0000       0.102628         2.7927

MULLIKEN ATOMIC CHARGES
-----------------------
   0 C :    0.298915
   1 C :   -0.266109
   2 C :   -0.315805
   3 C :   -0.011116
   4 O :   -0.508777
   5 H :    0.167783
   6 H :    0.151969
   7 H :    0.158460
   8 H :    0.146154
   9 H :    0.143388
  10 H :    0.136895
  11 H :    0.151070
  12 C :   -0.011114
  13 H :    0.150970
  14 H :    0.109582
  15 O :   -0.513218
  16 C :    0.090248
  17 C :    0.082926
  18 C :   -0.319716
  19 C :   -0.007342
  20 O :   -0.503351
  21 H :    0.169559
  22 H :    0.170118
  23 O :   -0.598179
  24 H :    0.158934
  25 H :    0.124558
  26 H :    0.142491
  27 H :    0.147121
  28 H :    0.353582
Sum of atomic charges:   -0.0000000

LOEWDIN ATOMIC CHARGES
----------------------
   0 C :    0.176676
   1 C :   -0.227109
   2 C :   -0.223630
   3 C :   -0.034237
   4 O :   -0.321345
   5 H :    0.114212
   6 H :    0.119459
   7 H :    0.123948
   8 H :    0.115754
   9 H :    0.105081
  10 H :    0.098391
  11 H :    0.106492
  12 C :   -0.052853
  13 H :    0.107761
  14 H :    0.081183
  15 O :   -0.309217
  16 C :    0.023478
  17 C :    0.035082
  18 C :   -0.240924
  19 C :   -0.030325
  20 O :   -0.311803
  21 H :    0.122919
  22 H :    0.120844
  23 O :   -0.406132
  24 H :    0.123028
  25 H :    0.099755
  26 H :    0.101758
  27 H :    0.105428
  28 H :    0.276332

  Mayer bond orders larger than 0.100000
B(  0-C ,  1-C ) :   0.9145 B(  0-C ,  4-O ) :   0.8952 B(  0-C ,  5-H ) :   0.9355
B(  0-C , 15-O ) :   0.8946 B(  1-C ,  2-C ) :   0.9559 B(  1-C ,  6-H ) :   0.9348
B(  1-C ,  7-H ) :   0.9364 B(  2-C ,  3-C ) :   0.9479 B(  2-C ,  8-H ) :   0.9446
B(  2-C ,  9-H ) :   0.9406 B(  3-C ,  4-O ) :   0.8453 B(  3-C , 10-H ) :   0.9337
B(  3-C , 11-H ) :   0.9391 B( 12-C , 13-H ) :   0.9008 B( 12-C , 14-H ) :   0.9019
B( 12-C , 15-O ) :   0.8439 B( 12-C , 16-C ) :   0.9085 B( 16-C , 17-C ) :   0.8759
B( 16-C , 20-O ) :   0.8699 B( 16-C , 21-H ) :   0.9274 B( 17-C , 18-C ) :   0.9208
B( 17-C , 22-H ) :   0.9333 B( 17-C , 23-O ) :   0.8974 B( 18-C , 19-C ) :   0.9379
B( 18-C , 24-H ) :   0.9415 B( 18-C , 25-H ) :   0.9423 B( 19-C , 20-O ) :   0.8533
B( 19-C , 26-H ) :   0.9317 B( 19-C , 27-H ) :   0.9381 B( 23-O , 28-H ) :   0.7990

FINAL SINGLE POINT ENERGY      -652.851594826998

DIPOLE MOMENT
-------------
                                X             Y             Z
Electronic contribution:     -3.37141      -5.56783      -0.76665
Nuclear contribution   :      4.23116       7.25578       1.08981
                        -----------------------------------------
Total Dipole Moment    :      0.85975       1.68795       0.32317
                        -----------------------------------------
Magnitude (a.u.)       :      1.92166
Magnitude (Debye)      :      4.88446

Rotational constants in cm-1:     0.046254     0.014569     0.013480
Rotational constants in MHz :  1386.660683   436.781708   404.132673

                             ****ORCA TERMINATED NORMALLY****
TOTAL RUN TIME: 0 days 0 hours 29 minutes 26 seconds 734 msec
