                         Program Version 4.2.1 -  RELEASE  -
|  1> # Test redundant internal optimization
|  2> #
|  3> ! RKS B3LYP  Opt TightSCF SmallPrint
|  4>
|  5> %basis
|  6>         Basis "6-31G"
|  7> end
|  8>
|  9> %geom
| 10> Constraints
| 11> { D 4  0  19  14  135.0   C } # D for Dihedral angle
| 12> { D 0  19  14  12  195.0   C } # D for Dihedral angle
| 13> { D 0  4  3  2   C } # D for Dihedral angle
| 14> { D 4  3  2  1   C } # D for Dihedral angle
| 15> { D 3  2  1  0   C } # D for Dihedral angle
| 16> { D 2  1  0  4   C } # D for Dihedral angle
| 17> { D 1  0  4  3   C } # D for Dihedral angle
| 18> { D 14  15  16  17   C } # D for Dihedral angle
| 19> { D 15  16  17  12   C } # D for Dihedral angle
| 20> { D 16  17  12  14   C } # D for Dihedral angle
| 21> { D 17  12  14  15   C } # D for Dihedral angle
| 22> { D 12  14  15  16   C } # D for Dihedral angle
| 23> end
| 24> end
| 25>
| 26>
| 27> #%pal
| 28> #nprocs 8
| 29> #end
| 30>
| 31> * xyz 0 1
| 32> C  -21.048   26.222   46.251
| 33> C  -20.361   27.558   45.944
| 34> C  -20.329   28.222   47.341
| 35> C  -20.110   27.022   48.296
| 36> O  -20.473   25.807   47.535
| 37> H  -20.833   25.428   45.533
| 38> H  -19.344   27.382   45.576
| 39> H  -20.898   28.157   45.201
| 40> H  -19.543   28.978   47.434
| 41> H  -21.289   28.710   47.548
| 42> H  -20.733   27.082   49.195
| 43> H  -19.064   26.913   48.597
| 44> C  -24.415   27.842   46.242
| 45> H  -24.933   28.563   45.590
| 46> C  -22.986   27.575   45.755
| 47> C  -22.237   28.823   46.279
| 48> C  -22.944   29.118   47.626
| 49> O  -24.239   28.403   47.587
| 50> H  -25.031   26.948   46.348
| 51> O  -22.472   26.381   46.366
| 52> H  -22.916   27.464   44.667
| 53> H  -21.163   28.654   46.400
| 54> H  -22.368   29.661   45.584
| 55> H  -23.129   30.186   47.779
| 56> H  -22.388   28.728   48.484
| 57> *
| 58>
| 59>                          ****END OF INPUT****
 Total Charge           Charge          ....    0
 Multiplicity           Mult            ....    1
 Number of Electrons    NEL             ....   86
FINAL SINGLE POINT ENERGY      -538.173978067486
FINAL SINGLE POINT ENERGY      -538.256165802393
FINAL SINGLE POINT ENERGY      -538.307564700246
FINAL SINGLE POINT ENERGY      -538.342058270855
FINAL SINGLE POINT ENERGY      -538.365664584244
FINAL SINGLE POINT ENERGY      -538.381646904170
FINAL SINGLE POINT ENERGY      -538.392223818380
FINAL SINGLE POINT ENERGY      -538.399081269710
FINAL SINGLE POINT ENERGY      -538.403353570761
FINAL SINGLE POINT ENERGY      -538.406030545580
FINAL SINGLE POINT ENERGY      -538.411147742717
FINAL SINGLE POINT ENERGY      -538.411426108906
FINAL SINGLE POINT ENERGY      -538.411502148161
FINAL SINGLE POINT ENERGY      -538.411565435190
FINAL SINGLE POINT ENERGY      -538.411579571243
FINAL SINGLE POINT ENERGY      -538.411603513651
FINAL SINGLE POINT ENERGY      -538.411613822427
FINAL SINGLE POINT ENERGY      -538.411632875060
FINAL SINGLE POINT ENERGY      -538.411639998222
                    ***********************HURRAY********************

CARTESIAN COORDINATES (ANGSTROEM)
---------------------------------
  C    -20.984809   26.295322   46.257294
  C    -19.925672   27.374744   46.004545
  C    -19.782198   28.034888   47.410347
  C    -19.977824   26.824261   48.356618
  O    -20.629552   25.771986   47.547038
  H    -20.885393   25.448188   45.572098
  H    -18.993392   26.870817   45.729724
  H    -20.181022   28.076703   45.206518
  H    -18.803147   28.506135   47.542866
  H    -20.544986   28.793510   47.585933
  H    -20.611553   27.052424   49.218134
  H    -19.028912   26.409322   48.708457
  C    -24.509197   27.678406   46.316835
  H    -25.252972   28.204063   45.700153
  C    -23.113174   27.796320   45.708248
  C    -22.702643   29.210587   46.151155
  C    -23.345119   29.353059   47.552488
  O    -24.390141   28.309890   47.638221
  H    -24.804193   26.641203   46.468329
  O    -22.398980   26.625490   46.219600
  H    -23.137676   27.728940   44.610700
  H    -21.633551   29.406823   46.133870
  H    -23.171379   29.911655   45.449484
  H    -23.800802   30.338270   47.703084
  H    -22.637716   29.163993   48.366262

 Multiplicity           Mult            ....    1
 Number of Electrons    NEL             ....   86
 Basis Dimension        Dim             ....  127

ORBITAL ENERGIES
----------------

  NO   OCC          E(Eh)            E(eV)
   0   2.0000     -19.137735      -520.7642
   1   2.0000     -19.133143      -520.6393
   2   2.0000     -19.128948      -520.5251
   3   2.0000     -10.280647      -279.7506
   4   2.0000     -10.246732      -278.8278
   5   2.0000     -10.225942      -278.2620
   6   2.0000     -10.225904      -278.2610
   7   2.0000     -10.219574      -278.0888
   8   2.0000     -10.195856      -277.4433
   9   2.0000     -10.193752      -277.3861
  10   2.0000     -10.193517      -277.3797
  11   2.0000      -1.046716       -28.4826
  12   2.0000      -1.014050       -27.5937
  13   2.0000      -0.984690       -26.7948
  14   2.0000      -0.790915       -21.5219
  15   2.0000      -0.789842       -21.4927
  16   2.0000      -0.747097       -20.3295
  17   2.0000      -0.723370       -19.6839
  18   2.0000      -0.622262       -16.9326
  19   2.0000      -0.605725       -16.4826
  20   2.0000      -0.600933       -16.3522
  21   2.0000      -0.566540       -15.4163
  22   2.0000      -0.509523       -13.8648
  23   2.0000      -0.506677       -13.7874
  24   2.0000      -0.499604       -13.5949
  25   2.0000      -0.489951       -13.3322
  26   2.0000      -0.453697       -12.3457
  27   2.0000      -0.443150       -12.0587
  28   2.0000      -0.423592       -11.5265
  29   2.0000      -0.418040       -11.3754
  30   2.0000      -0.415606       -11.3092
  31   2.0000      -0.391160       -10.6440
  32   2.0000      -0.373979       -10.1765
  33   2.0000      -0.372572       -10.1382
  34   2.0000      -0.364330        -9.9139
  35   2.0000      -0.360573        -9.8117
  36   2.0000      -0.353587        -9.6216
  37   2.0000      -0.312742        -8.5101
  38   2.0000      -0.303653        -8.2628
  39   2.0000      -0.283144        -7.7047
  40   2.0000      -0.260678        -7.0934
  41   2.0000      -0.250385        -6.8133
  42   2.0000      -0.234293        -6.3754
  43   0.0000       0.070236         1.9112
  44   0.0000       0.082693         2.2502
  45   0.0000       0.092639         2.5208
  46   0.0000       0.102952         2.8015
  47   0.0000       0.113195         3.0802

MULLIKEN ATOMIC CHARGES
-----------------------
   0 C :    0.330307
   1 C :   -0.300196
   2 C :   -0.314338
   3 C :   -0.004469
   4 O :   -0.492666
   5 H :    0.152836
   6 H :    0.156696
   7 H :    0.143084
   8 H :    0.143776
   9 H :    0.152248
  10 H :    0.154431
  11 H :    0.144346
  12 C :    0.002603
  13 H :    0.121419
  14 C :    0.096497
  15 C :   -0.326364
  16 C :    0.003850
  17 O :   -0.517285
  18 H :    0.180965
  19 O :   -0.540638
  20 H :    0.130214
  21 H :    0.150770
  22 H :    0.148374
  23 H :    0.134652
  24 H :    0.148888
Sum of atomic charges:    0.0000000

LOEWDIN ATOMIC CHARGES
----------------------
   0 C :    0.187969
   1 C :   -0.232049
   2 C :   -0.224320
   3 C :   -0.028618
   4 O :   -0.306422
   5 H :    0.101608
   6 H :    0.123390
   7 H :    0.112412
   8 H :    0.115160
   9 H :    0.110511
  10 H :    0.107920
  11 H :    0.103183
  12 C :   -0.031637
  13 H :    0.089382
  14 C :    0.048783
  15 C :   -0.245405
  16 C :   -0.028964
  17 O :   -0.326469
  18 H :    0.130110
  19 O :   -0.338593
  20 H :    0.094275
  21 H :    0.119549
  22 H :    0.118689
  23 H :    0.098355
  24 H :    0.101180

  Mayer bond orders larger than 0.100000
B(  0-C ,  1-C ) :   0.9236 B(  0-C ,  4-O ) :   0.9237 B(  0-C ,  5-H ) :   0.9313
B(  0-C , 19-O ) :   0.8653 B(  1-C ,  2-C ) :   0.9546 B(  1-C ,  6-H ) :   0.9322
B(  1-C ,  7-H ) :   0.9300 B(  2-C ,  3-C ) :   0.9490 B(  2-C ,  8-H ) :   0.9459
B(  2-C ,  9-H ) :   0.9254 B(  3-C ,  4-O ) :   0.8437 B(  3-C , 10-H ) :   0.9326
B(  3-C , 11-H ) :   0.9387 B( 12-C , 13-H ) :   0.9151 B( 12-C , 14-C ) :   0.9294
B( 12-C , 17-O ) :   0.8673 B( 12-C , 18-H ) :   0.9274 B( 14-C , 15-C ) :   0.9259
B( 14-C , 19-O ) :   0.8426 B( 14-C , 20-H ) :   0.9231 B( 15-C , 16-C ) :   0.9439
B( 15-C , 21-H ) :   0.9220 B( 15-C , 22-H ) :   0.9310 B( 16-C , 17-O ) :   0.8647
B( 16-C , 23-H ) :   0.9311 B( 16-C , 24-H ) :   0.9288

FINAL SINGLE POINT ENERGY      -538.411640668694

DIPOLE MOMENT
-------------
                                X             Y             Z
Electronic contribution:     -3.04505      -4.92939       0.72703
Nuclear contribution   :      4.06479       6.24462      -1.71038
                        -----------------------------------------
Total Dipole Moment    :      1.01973       1.31523      -0.98335
                        -----------------------------------------
Magnitude (a.u.)       :      1.93304
Magnitude (Debye)      :      4.91341

Rotational constants in cm-1:     0.064346     0.025628     0.024198
Rotational constants in MHz :  1929.044643   768.322110   725.442723

                             ****ORCA TERMINATED NORMALLY****
TOTAL RUN TIME: 0 days 0 hours 26 minutes 3 seconds 151 msec
