                         Program Version 4.2.1 -  RELEASE  -
|  1> # Test redundant internal optimization
|  2> #
|  3> ! RKS B3LYP  Opt TightSCF SmallPrint
|  4>
|  5> %basis
|  6>         Basis "6-31G"
|  7> end
|  8>
|  9> %geom
| 10> Constraints
| 11> { D 4  0  19  14  330.0   C } # D for Dihedral angle
| 12> { D 0  19  14  12  150.0   C } # D for Dihedral angle
| 13> { D 0  4  3  2   C } # D for Dihedral angle
| 14> { D 4  3  2  1   C } # D for Dihedral angle
| 15> { D 3  2  1  0   C } # D for Dihedral angle
| 16> { D 2  1  0  4   C } # D for Dihedral angle
| 17> { D 1  0  4  3   C } # D for Dihedral angle
| 18> { D 14  15  16  17   C } # D for Dihedral angle
| 19> { D 15  16  17  12   C } # D for Dihedral angle
| 20> { D 16  17  12  14   C } # D for Dihedral angle
| 21> { D 17  12  14  15   C } # D for Dihedral angle
| 22> { D 12  14  15  16   C } # D for Dihedral angle
| 23> end
| 24> end
| 25>
| 26>
| 27> #%pal
| 28> #nprocs 8
| 29> #end
| 30>
| 31> * xyz 0 1
| 32> C  -21.048   26.222   46.251
| 33> C  -20.361   27.558   45.944
| 34> C  -20.329   28.222   47.341
| 35> C  -20.110   27.022   48.296
| 36> O  -20.473   25.807   47.535
| 37> H  -20.833   25.428   45.533
| 38> H  -19.344   27.382   45.576
| 39> H  -20.898   28.157   45.201
| 40> H  -19.543   28.978   47.434
| 41> H  -21.289   28.710   47.548
| 42> H  -20.733   27.082   49.195
| 43> H  -19.064   26.913   48.597
| 44> C  -24.329   26.202   47.929
| 45> H  -24.648   25.714   48.863
| 46> C  -23.087   25.523   47.341
| 47> C  -23.701   24.277   46.662
| 48> C  -25.067   24.795   46.146
| 49> O  -25.354   26.040   46.891
| 50> H  -24.220   27.273   48.104
| 51> O  -22.472   26.381   46.366
| 52> H  -22.338   25.269   48.098
| 53> H  -23.075   23.879   45.858
| 54> H  -23.846   23.478   47.400
| 55> H  -25.880   24.080   46.315
| 56> H  -25.041   25.055   45.083
| 57> *
| 58>
| 59>                          ****END OF INPUT****
 Total Charge           Charge          ....    0
 Multiplicity           Mult            ....    1
 Number of Electrons    NEL             ....   86
FINAL SINGLE POINT ENERGY      -538.431533774765
FINAL SINGLE POINT ENERGY      -538.434875447784
FINAL SINGLE POINT ENERGY      -538.435365062111
FINAL SINGLE POINT ENERGY      -538.435462026736
FINAL SINGLE POINT ENERGY      -538.435472623059
FINAL SINGLE POINT ENERGY      -538.435475890096
                    ***********************HURRAY********************

CARTESIAN COORDINATES (ANGSTROEM)
---------------------------------
  C    -20.994828   26.198624   46.277511
  C    -20.427226   27.582354   45.961411
  C    -20.360647   28.222406   47.365615
  C    -20.000704   27.033940   48.283061
  O    -20.327580   25.806569   47.500488
  H    -20.759195   25.415411   45.550255
  H    -19.427664   27.472041   45.525866
  H    -21.063515   28.134623   45.266954
  H    -19.623353   29.028825   47.425941
  H    -21.340514   28.631914   47.628088
  H    -20.570106   27.019111   49.216240
  H    -18.932824   26.977289   48.511794
  C    -24.346501   26.224616   47.886973
  H    -24.725290   25.773080   48.816046
  C    -23.114289   25.471362   47.386079
  C    -23.752739   24.246798   46.702659
  C    -25.058373   24.816490   46.098803
  O    -25.318797   26.092041   46.801062
  H    -24.162371   27.289266   48.036926
  O    -22.436255   26.322668   46.408411
  H    -22.411803   25.199631   48.177448
  H    -23.090384   23.811024   45.949093
  H    -23.966437   23.477443   47.454034
  H    -25.914775   24.147196   46.240431
  H    -24.956830   25.052276   45.035809

 Multiplicity           Mult            ....    1
 Number of Electrons    NEL             ....   86
 Basis Dimension        Dim             ....  127

ORBITAL ENERGIES
----------------

  NO   OCC          E(Eh)            E(eV)
   0   2.0000     -19.150231      -521.1043
   1   2.0000     -19.138264      -520.7786
   2   2.0000     -19.122503      -520.3498
   3   2.0000     -10.279735      -279.7258
   4   2.0000     -10.232104      -278.4297
   5   2.0000     -10.232021      -278.4274
   6   2.0000     -10.217243      -278.0253
   7   2.0000     -10.215556      -277.9794
   8   2.0000     -10.189068      -277.2586
   9   2.0000     -10.186157      -277.1794
  10   2.0000     -10.180619      -277.0287
  11   2.0000      -1.055897       -28.7324
  12   2.0000      -1.010601       -27.4998
  13   2.0000      -0.987050       -26.8590
  14   2.0000      -0.793721       -21.5982
  15   2.0000      -0.774760       -21.0823
  16   2.0000      -0.739553       -20.1243
  17   2.0000      -0.719497       -19.5785
  18   2.0000      -0.611947       -16.6519
  19   2.0000      -0.600193       -16.3321
  20   2.0000      -0.593534       -16.1509
  21   2.0000      -0.564283       -15.3549
  22   2.0000      -0.523803       -14.2534
  23   2.0000      -0.500077       -13.6078
  24   2.0000      -0.487460       -13.2645
  25   2.0000      -0.478920       -13.0321
  26   2.0000      -0.453519       -12.3409
  27   2.0000      -0.433130       -11.7861
  28   2.0000      -0.428516       -11.6605
  29   2.0000      -0.413724       -11.2580
  30   2.0000      -0.408565       -11.1176
  31   2.0000      -0.379842       -10.3360
  32   2.0000      -0.370908       -10.0929
  33   2.0000      -0.363713        -9.8971
  34   2.0000      -0.360420        -9.8075
  35   2.0000      -0.355533        -9.6745
  36   2.0000      -0.344175        -9.3655
  37   2.0000      -0.334076        -9.0907
  38   2.0000      -0.301834        -8.2133
  39   2.0000      -0.291697        -7.9375
  40   2.0000      -0.266067        -7.2400
  41   2.0000      -0.256281        -6.9737
  42   2.0000      -0.227748        -6.1973
  43   0.0000       0.077152         2.0994
  44   0.0000       0.098858         2.6901
  45   0.0000       0.103232         2.8091
  46   0.0000       0.104540         2.8447
  47   0.0000       0.109982         2.9928

MULLIKEN ATOMIC CHARGES
-----------------------
   0 C :    0.299155
   1 C :   -0.260326
   2 C :   -0.301593
   3 C :   -0.014057
   4 O :   -0.514821
   5 H :    0.146670
   6 H :    0.143807
   7 H :    0.165726
   8 H :    0.145273
   9 H :    0.160292
  10 H :    0.143781
  11 H :    0.149822
  12 C :    0.007864
  13 H :    0.120867
  14 C :    0.050342
  15 C :   -0.291131
  16 C :    0.001563
  17 O :   -0.521019
  18 H :    0.156351
  19 O :   -0.526991
  20 H :    0.162024
  21 H :    0.150604
  22 H :    0.140257
  23 H :    0.133450
  24 H :    0.152088
Sum of atomic charges:   -0.0000000

LOEWDIN ATOMIC CHARGES
----------------------
   0 C :    0.179079
   1 C :   -0.215228
   2 C :   -0.217170
   3 C :   -0.030973
   4 O :   -0.324830
   5 H :    0.096341
   6 H :    0.113429
   7 H :    0.128721
   8 H :    0.116079
   9 H :    0.117596
  10 H :    0.102771
  11 H :    0.106489
  12 C :   -0.036580
  13 H :    0.089872
  14 C :    0.031270
  15 C :   -0.233604
  16 C :   -0.029426
  17 O :   -0.330931
  18 H :    0.116781
  19 O :   -0.330604
  20 H :    0.114230
  21 H :    0.120401
  22 H :    0.111936
  23 H :    0.097096
  24 H :    0.107251

  Mayer bond orders larger than 0.100000
B(  0-C ,  1-C ) :   0.9439 B(  0-C ,  4-O ) :   0.8982 B(  0-C ,  5-H ) :   0.9227
B(  0-C , 19-O ) :   0.8542 B(  1-C ,  2-C ) :   0.9541 B(  1-C ,  6-H ) :   0.9376
B(  1-C ,  7-H ) :   0.9344 B(  2-C ,  3-C ) :   0.9554 B(  2-C ,  8-H ) :   0.9446
B(  2-C ,  9-H ) :   0.9437 B(  3-C ,  4-O ) :   0.8296 B(  3-C , 10-H ) :   0.9353
B(  3-C , 11-H ) :   0.9406 B( 12-C , 13-H ) :   0.9151 B( 12-C , 14-C ) :   0.9361
B( 12-C , 17-O ) :   0.8721 B( 12-C , 18-H ) :   0.9319 B( 14-C , 15-C ) :   0.9374
B( 14-C , 19-O ) :   0.8246 B( 14-C , 20-H ) :   0.9054 B( 15-C , 16-C ) :   0.9472
B( 15-C , 21-H ) :   0.9415 B( 15-C , 22-H ) :   0.9384 B( 16-C , 17-O ) :   0.8563
B( 16-C , 23-H ) :   0.9336 B( 16-C , 24-H ) :   0.9361

FINAL SINGLE POINT ENERGY      -538.435476022117

DIPOLE MOMENT
-------------
                                X             Y             Z
Electronic contribution:     -1.36190      -0.87699      -0.78544
Nuclear contribution   :      2.28582       0.83987       1.13338
                        -----------------------------------------
Total Dipole Moment    :      0.92392      -0.03712       0.34795
                        -----------------------------------------
Magnitude (a.u.)       :      0.98797
Magnitude (Debye)      :      2.51122

Rotational constants in cm-1:     0.082136     0.020803     0.020349
Rotational constants in MHz :  2462.365072   623.650603   610.062516

                             ****ORCA TERMINATED NORMALLY****
TOTAL RUN TIME: 0 days 0 hours 15 minutes 33 seconds 133 msec
