                         Program Version 4.2.0 -  RELEASE  -
|  1> # Test redundant internal optimization
|  2> #
|  3> ! RKS B3LYP  Opt TightSCF SmallPrint
|  4>
|  5> %basis
|  6>         Basis "6-31G"
|  7> end
|  8>
|  9> %geom
| 10> Constraints
| 11> { D 4  0  15  12  210.0   C } # D for Dihedral angle
| 12> { D 0  15  12  16  195.0   C } # D for Dihedral angle
| 13> { D 0  4  3  2   C } # D for Dihedral angle
| 14> { D 4  3  2  1   C } # D for Dihedral angle
| 15> { D 3  2  1  0   C } # D for Dihedral angle
| 16> { D 2  1  0  4   C } # D for Dihedral angle
| 17> { D 1  0  4  3   C } # D for Dihedral angle
| 18> { D 16  20  19  18   C } # D for Dihedral angle
| 19> { D 20  19  18  17   C } # D for Dihedral angle
| 20> { D 19  18  17  16   C } # D for Dihedral angle
| 21> { D 18  17  16  20   C } # D for Dihedral angle
| 22> { D 17  16  20  19   C } # D for Dihedral angle
| 23> { D 15  12  16  20   C } # D for Dihedral angle
| 24> end
| 25> end
| 26>
| 27>
| 28> #%pal
| 29> #nprocs 8
| 30> #end
| 31>
| 32> * xyz 0 1
| 33> C  -21.048   26.222   46.251
| 34> C  -20.361   27.558   45.944
| 35> C  -20.329   28.222   47.341
| 36> C  -20.110   27.022   48.296
| 37> O  -20.473   25.807   47.535
| 38> H  -20.833   25.428   45.533
| 39> H  -19.344   27.382   45.576
| 40> H  -20.898   28.157   45.201
| 41> H  -19.543   28.978   47.434
| 42> H  -21.289   28.710   47.548
| 43> H  -20.733   27.082   49.195
| 44> H  -19.064   26.913   48.597
| 45> C  -23.389   26.110   45.076
| 46> H  -22.885   26.588   44.227
| 47> H  -23.438   25.031   44.883
| 48> O  -22.586   26.394   46.375
| 49> C  -24.847   26.645   45.142
| 50> C  -24.874   28.175   45.241
| 51> C  -24.625   28.589   43.771
| 52> C  -25.358   27.486   42.967
| 53> O  -25.557   26.351   43.893
| 54> H  -25.381   26.130   45.943
| 55> O  -26.274   28.652   45.716
| 56> H  -24.122   28.576   45.929
| 57> H  -25.000   29.591   43.543
| 58> H  -23.550   28.576   43.554
| 59> H  -24.781   27.145   42.101
| 60> H  -26.348   27.804   42.629
| 61> H  -27.045   28.263   45.041
| 62> *
| 63>
| 64>                          ****END OF INPUT****
 Total Charge           Charge          ....    0
 Multiplicity           Mult            ....    1
 Number of Electrons    NEL             ....  102
FINAL SINGLE POINT ENERGY      -652.835098227872
FINAL SINGLE POINT ENERGY      -652.858337617481
FINAL SINGLE POINT ENERGY      -652.861736711901
FINAL SINGLE POINT ENERGY      -652.862340463091
FINAL SINGLE POINT ENERGY      -652.862430549335
FINAL SINGLE POINT ENERGY      -652.862441406866
                    ***********************HURRAY********************

CARTESIAN COORDINATES (ANGSTROEM)
---------------------------------
  C    -21.128846   26.197880   46.196636
  C    -20.426151   27.517423   45.884664
  C    -20.483919   28.242315   47.250785
  C    -20.328306   27.086125   48.260956
  O    -20.648884   25.846950   47.502419
  H    -20.890408   25.365317   45.527019
  H    -19.388832   27.317628   45.590954
  H    -20.910624   28.078615   45.080226
  H    -19.701397   28.999468   47.357751
  H    -21.455664   28.730202   47.370936
  H    -21.011041   27.159840   49.110662
  H    -19.303132   26.972435   48.625075
  C    -23.293656   26.065307   45.033775
  H    -22.780398   26.492470   44.159045
  H    -23.363512   24.979365   44.892267
  O    -22.573406   26.378921   46.259164
  C    -24.695028   26.659337   45.157859
  C    -24.745453   28.189571   45.278056
  C    -24.573242   28.626206   43.800876
  C    -25.322677   27.519830   43.016392
  O    -25.457568   26.365908   43.939559
  H    -25.219299   26.187070   45.992828
  O    -26.023633   28.624133   45.818318
  H    -23.988377   28.588654   45.949937
  H    -24.994509   29.621513   43.639828
  H    -23.511435   28.656183   43.531765
  H    -24.787725   27.196137   42.118449
  H    -26.334339   27.821331   42.729357
  H    -26.743538   28.100864   45.406442

 Multiplicity           Mult            ....    1
 Number of Electrons    NEL             ....  102
 Basis Dimension        Dim             ....  149

ORBITAL ENERGIES
----------------

  NO   OCC          E(Eh)            E(eV)
   0   2.0000     -19.147164      -521.0208
   1   2.0000     -19.145420      -520.9734
   2   2.0000     -19.142356      -520.8900
   3   2.0000     -19.136925      -520.7422
   4   2.0000     -10.282934      -279.8129
   5   2.0000     -10.238076      -278.5922
   6   2.0000     -10.234989      -278.5082
   7   2.0000     -10.234672      -278.4996
   8   2.0000     -10.234113      -278.4844
   9   2.0000     -10.226538      -278.2782
  10   2.0000     -10.190884      -277.3081
  11   2.0000     -10.190857      -277.3073
  12   2.0000     -10.189087      -277.2591
  13   2.0000      -1.056018       -28.7357
  14   2.0000      -1.038310       -28.2538
  15   2.0000      -1.006359       -27.3844
  16   2.0000      -0.998484       -27.1701
  17   2.0000      -0.790530       -21.5114
  18   2.0000      -0.781897       -21.2765
  19   2.0000      -0.770296       -20.9608
  20   2.0000      -0.732385       -19.9292
  21   2.0000      -0.677245       -18.4288
  22   2.0000      -0.606493       -16.5035
  23   2.0000      -0.602989       -16.4082
  24   2.0000      -0.590991       -16.0817
  25   2.0000      -0.586740       -15.9660
  26   2.0000      -0.525932       -14.3113
  27   2.0000      -0.519324       -14.1315
  28   2.0000      -0.498688       -13.5700
  29   2.0000      -0.492513       -13.4020
  30   2.0000      -0.473797       -12.8927
  31   2.0000      -0.457345       -12.4450
  32   2.0000      -0.453987       -12.3536
  33   2.0000      -0.443845       -12.0776
  34   2.0000      -0.425687       -11.5835
  35   2.0000      -0.417259       -11.3542
  36   2.0000      -0.405061       -11.0223
  37   2.0000      -0.394721       -10.7409
  38   2.0000      -0.376890       -10.2557
  39   2.0000      -0.370450       -10.0804
  40   2.0000      -0.364123        -9.9083
  41   2.0000      -0.358788        -9.7631
  42   2.0000      -0.355926        -9.6852
  43   2.0000      -0.332753        -9.0547
  44   2.0000      -0.316002        -8.5988
  45   2.0000      -0.314490        -8.5577
  46   2.0000      -0.306179        -8.3316
  47   2.0000      -0.272765        -7.4223
  48   2.0000      -0.264219        -7.1898
  49   2.0000      -0.256247        -6.9728
  50   2.0000      -0.246525        -6.7083
  51   0.0000       0.057360         1.5608
  52   0.0000       0.064654         1.7593
  53   0.0000       0.088120         2.3979
  54   0.0000       0.095833         2.6078
  55   0.0000       0.102643         2.7931

MULLIKEN ATOMIC CHARGES
-----------------------
   0 C :    0.297850
   1 C :   -0.263910
   2 C :   -0.302872
   3 C :   -0.002517
   4 O :   -0.501509
   5 H :    0.141523
   6 H :    0.146505
   7 H :    0.137625
   8 H :    0.143781
   9 H :    0.164221
  10 H :    0.157163
  11 H :    0.142831
  12 C :   -0.007658
  13 H :    0.119732
  14 H :    0.155345
  15 O :   -0.517380
  16 C :    0.053914
  17 C :    0.091878
  18 C :   -0.299762
  19 C :   -0.029595
  20 O :   -0.526955
  21 H :    0.173045
  22 O :   -0.603242
  23 H :    0.170184
  24 H :    0.161749
  25 H :    0.140105
  26 H :    0.145420
  27 H :    0.148652
  28 H :    0.363881
Sum of atomic charges:   -0.0000000

LOEWDIN ATOMIC CHARGES
----------------------
   0 C :    0.179447
   1 C :   -0.227360
   2 C :   -0.217060
   3 C :   -0.025036
   4 O :   -0.304967
   5 H :    0.098725
   6 H :    0.114494
   7 H :    0.111746
   8 H :    0.115298
   9 H :    0.118253
  10 H :    0.110896
  11 H :    0.103063
  12 C :   -0.040080
  13 H :    0.086884
  14 H :    0.108014
  15 O :   -0.337608
  16 C :    0.018727
  17 C :    0.038697
  18 C :   -0.241667
  19 C :   -0.038069
  20 O :   -0.329832
  21 H :    0.121963
  22 O :   -0.414209
  23 H :    0.123182
  24 H :    0.126697
  25 H :    0.110087
  26 H :    0.103501
  27 H :    0.103849
  28 H :    0.282366

  Mayer bond orders larger than 0.100000
B(  0-C ,  1-C ) :   0.9332 B(  0-C ,  4-O ) :   0.9389 B(  0-C ,  5-H ) :   0.9203
B(  0-C , 15-O ) :   0.8260 B(  1-C ,  2-C ) :   0.9534 B(  1-C ,  6-H ) :   0.9340
B(  1-C ,  7-H ) :   0.9371 B(  2-C ,  3-C ) :   0.9547 B(  2-C ,  8-H ) :   0.9447
B(  2-C ,  9-H ) :   0.9420 B(  3-C ,  4-O ) :   0.8352 B(  3-C , 10-H ) :   0.9340
B(  3-C , 11-H ) :   0.9396 B( 12-C , 13-H ) :   0.9159 B( 12-C , 14-H ) :   0.9150
B( 12-C , 15-O ) :   0.8312 B( 12-C , 16-C ) :   0.9080 B( 16-C , 17-C ) :   0.9122
B( 16-C , 20-O ) :   0.8441 B( 16-C , 21-H ) :   0.9233 B( 17-C , 18-C ) :   0.9103
B( 17-C , 22-O ) :   0.8917 B( 17-C , 23-H ) :   0.9232 B( 18-C , 19-C ) :   0.9411
B( 18-C , 24-H ) :   0.9384 B( 18-C , 25-H ) :   0.9354 B( 19-C , 20-O ) :   0.8426
B( 19-C , 26-H ) :   0.9357 B( 19-C , 27-H ) :   0.9379 B( 22-O , 28-H ) :   0.7948

FINAL SINGLE POINT ENERGY      -652.862443911869

DIPOLE MOMENT
-------------
                                X             Y             Z
Electronic contribution:     -3.79531      -4.31785       2.03621
Nuclear contribution   :      4.59755       5.09661      -3.07601
                        -----------------------------------------
Total Dipole Moment    :      0.80224       0.77876      -1.03980
                        -----------------------------------------
Magnitude (a.u.)       :      1.52684
Magnitude (Debye)      :      3.88091

Rotational constants in cm-1:     0.054170     0.012966     0.012357
Rotational constants in MHz :  1623.973553   388.706770   370.464644

                             ****ORCA TERMINATED NORMALLY****
TOTAL RUN TIME: 0 days 0 hours 20 minutes 6 seconds 877 msec
