                         Program Version 4.2.0 -  RELEASE  -
|  1> # Test redundant internal optimization
|  2> #
|  3> ! RKS B3LYP  Opt TightSCF SmallPrint
|  4>
|  5> %basis
|  6>         Basis "6-31G"
|  7> end
|  8>
|  9> %geom
| 10> Constraints
| 11> { D 4  0  15  12  330.0   C } # D for Dihedral angle
| 12> { D 0  15  12  16  225.0   C } # D for Dihedral angle
| 13> { D 0  4  3  2   C } # D for Dihedral angle
| 14> { D 4  3  2  1   C } # D for Dihedral angle
| 15> { D 3  2  1  0   C } # D for Dihedral angle
| 16> { D 2  1  0  4   C } # D for Dihedral angle
| 17> { D 1  0  4  3   C } # D for Dihedral angle
| 18> { D 16  20  19  18   C } # D for Dihedral angle
| 19> { D 20  19  18  17   C } # D for Dihedral angle
| 20> { D 19  18  17  16   C } # D for Dihedral angle
| 21> { D 18  17  16  20   C } # D for Dihedral angle
| 22> { D 17  16  20  19   C } # D for Dihedral angle
| 23> { D 15  12  16  20   C } # D for Dihedral angle
| 24> end
| 25> end
| 26>
| 27>
| 28> #%pal
| 29> #nprocs 8
| 30> #end
| 31>
| 32> * xyz 0 1
| 33> C  -21.048   26.222   46.251
| 34> C  -20.361   27.558   45.944
| 35> C  -20.329   28.222   47.341
| 36> C  -20.110   27.022   48.296
| 37> O  -20.473   25.807   47.535
| 38> H  -20.833   25.428   45.533
| 39> H  -19.344   27.382   45.576
| 40> H  -20.898   28.157   45.201
| 41> H  -19.543   28.978   47.434
| 42> H  -21.289   28.710   47.548
| 43> H  -20.733   27.082   49.195
| 44> H  -19.064   26.913   48.597
| 45> C  -23.271   25.476   47.424
| 46> H  -22.576   24.679   47.716
| 47> H  -23.533   26.048   48.323
| 48> O  -22.586   26.394   46.375
| 49> C  -24.571   24.816   46.887
| 50> C  -25.559   25.871   46.374
| 51> C  -24.969   26.202   44.982
| 52> C  -24.408   24.839   44.505
| 53> O  -24.280   23.991   45.710
| 54> H  -24.977   24.152   47.652
| 55> H  -26.559   25.433   46.276
| 56> O  -25.658   27.116   47.297
| 57> H  -25.714   26.611   44.292
| 58> H  -24.163   26.938   45.081
| 59> H  -23.428   24.933   44.026
| 60> H  -25.088   24.324   43.820
| 61> H  -24.668   27.570   47.410
| 62> *
| 63>
| 64>                          ****END OF INPUT****
 Total Charge           Charge          ....    0
 Multiplicity           Mult            ....    1
 Number of Electrons    NEL             ....  102
FINAL SINGLE POINT ENERGY      -652.836598073081
FINAL SINGLE POINT ENERGY      -652.859408005350
FINAL SINGLE POINT ENERGY      -652.863749742549
FINAL SINGLE POINT ENERGY      -652.865127907991
FINAL SINGLE POINT ENERGY      -652.865250925035
FINAL SINGLE POINT ENERGY      -652.865274871624
                    ***********************HURRAY********************

CARTESIAN COORDINATES (ANGSTROEM)
---------------------------------
  C    -21.044207   26.172177   46.320820
  C    -20.437545   27.536408   45.996682
  C    -20.368144   28.190587   47.394280
  C    -20.048842   27.002332   48.327123
  O    -20.401214   25.777951   47.551539
  H    -20.840070   25.370641   45.606182
  H    -19.436109   27.393227   45.575306
  H    -21.044484   28.101311   45.285671
  H    -19.611008   28.978408   47.453079
  H    -21.338953   28.629186   47.644843
  H    -20.628274   27.009574   49.253721
  H    -18.985206   26.919755   48.566704
  C    -23.177201   25.502972   47.436089
  H    -22.514130   24.699942   47.767572
  H    -23.430394   26.120287   48.307382
  O    -22.487356   26.333697   46.446641
  C    -24.453249   24.900156   46.857854
  C    -25.506535   25.912319   46.372942
  C    -25.018564   26.214230   44.922956
  C    -24.454855   24.852013   44.466089
  O    -24.222588   24.051648   45.696184
  H    -24.871301   24.248148   47.635301
  H    -26.496130   25.450637   46.371968
  O    -25.640471   27.085054   47.212927
  H    -25.829415   26.572933   44.281874
  H    -24.228253   26.967578   44.966685
  H    -23.509524   24.946483   43.923579
  H    -25.165233   24.288754   43.852234
  H    -24.843744   27.645592   47.106771

 Multiplicity           Mult            ....    1
 Number of Electrons    NEL             ....  102
 Basis Dimension        Dim             ....  149

ORBITAL ENERGIES
----------------

  NO   OCC          E(Eh)            E(eV)
   0   2.0000     -19.152802      -521.1742
   1   2.0000     -19.146868      -521.0128
   2   2.0000     -19.136685      -520.7357
   3   2.0000     -19.131039      -520.5820
   4   2.0000     -10.284175      -279.8466
   5   2.0000     -10.234649      -278.4990
   6   2.0000     -10.233063      -278.4558
   7   2.0000     -10.225662      -278.2544
   8   2.0000     -10.223944      -278.2077
   9   2.0000     -10.220197      -278.1057
  10   2.0000     -10.194235      -277.3992
  11   2.0000     -10.192081      -277.3406
  12   2.0000     -10.176864      -276.9266
  13   2.0000      -1.059646       -28.8344
  14   2.0000      -1.024391       -27.8751
  15   2.0000      -1.006731       -27.3945
  16   2.0000      -0.994164       -27.0526
  17   2.0000      -0.796286       -21.6680
  18   2.0000      -0.770136       -20.9565
  19   2.0000      -0.763481       -20.7754
  20   2.0000      -0.734559       -19.9884
  21   2.0000      -0.674428       -18.3521
  22   2.0000      -0.607781       -16.5386
  23   2.0000      -0.598879       -16.2963
  24   2.0000      -0.597051       -16.2466
  25   2.0000      -0.563062       -15.3217
  26   2.0000      -0.527180       -14.3453
  27   2.0000      -0.511146       -13.9090
  28   2.0000      -0.496075       -13.4989
  29   2.0000      -0.491554       -13.3759
  30   2.0000      -0.466452       -12.6928
  31   2.0000      -0.459351       -12.4996
  32   2.0000      -0.444616       -12.0986
  33   2.0000      -0.427082       -11.6215
  34   2.0000      -0.421390       -11.4666
  35   2.0000      -0.414973       -11.2920
  36   2.0000      -0.399180       -10.8622
  37   2.0000      -0.395687       -10.7672
  38   2.0000      -0.381041       -10.3687
  39   2.0000      -0.368046       -10.0150
  40   2.0000      -0.363571        -9.8933
  41   2.0000      -0.356030        -9.6881
  42   2.0000      -0.350639        -9.5414
  43   2.0000      -0.334880        -9.1126
  44   2.0000      -0.321660        -8.7528
  45   2.0000      -0.306611        -8.3433
  46   2.0000      -0.300807        -8.1854
  47   2.0000      -0.270638        -7.3644
  48   2.0000      -0.265407        -7.2221
  49   2.0000      -0.256312        -6.9746
  50   2.0000      -0.234455        -6.3798
  51   0.0000       0.061593         1.6760
  52   0.0000       0.082798         2.2531
  53   0.0000       0.093542         2.5454
  54   0.0000       0.099658         2.7118
  55   0.0000       0.107349         2.9211

MULLIKEN ATOMIC CHARGES
-----------------------
   0 C :    0.301519
   1 C :   -0.261567
   2 C :   -0.301321
   3 C :   -0.012323
   4 O :   -0.510191
   5 H :    0.161070
   6 H :    0.148312
   7 H :    0.155790
   8 H :    0.147728
   9 H :    0.152927
  10 H :    0.148766
  11 H :    0.151145
  12 C :   -0.026727
  13 H :    0.178375
  14 H :    0.133496
  15 O :   -0.555802
  16 C :    0.094311
  17 C :    0.085636
  18 C :   -0.311522
  19 C :   -0.007489
  20 O :   -0.522758
  21 H :    0.147442
  22 H :    0.159623
  23 O :   -0.607266
  24 H :    0.142265
  25 H :    0.164078
  26 H :    0.140776
  27 H :    0.141861
  28 H :    0.361847
Sum of atomic charges:   -0.0000000

LOEWDIN ATOMIC CHARGES
----------------------
   0 C :    0.181015
   1 C :   -0.216438
   2 C :   -0.216987
   3 C :   -0.029939
   4 O :   -0.319571
   5 H :    0.105055
   6 H :    0.115874
   7 H :    0.123163
   8 H :    0.117172
   9 H :    0.114345
  10 H :    0.105756
  11 H :    0.107443
  12 C :   -0.050458
  13 H :    0.123837
  14 H :    0.099895
  15 O :   -0.352388
  16 C :    0.015884
  17 C :    0.037167
  18 C :   -0.244176
  19 C :   -0.026214
  20 O :   -0.324597
  21 H :    0.113348
  22 H :    0.114973
  23 O :   -0.412089
  24 H :    0.114166
  25 H :    0.120907
  26 H :    0.101496
  27 H :    0.100561
  28 H :    0.280801

  Mayer bond orders larger than 0.100000
B(  0-C ,  1-C ) :   0.9448 B(  0-C ,  4-O ) :   0.9084 B(  0-C ,  5-H ) :   0.9229
B(  0-C , 15-O ) :   0.8318 B(  1-C ,  2-C ) :   0.9523 B(  1-C ,  6-H ) :   0.9368
B(  1-C ,  7-H ) :   0.9364 B(  2-C ,  3-C ) :   0.9557 B(  2-C ,  8-H ) :   0.9444
B(  2-C ,  9-H ) :   0.9461 B(  3-C ,  4-O ) :   0.8295 B(  3-C , 10-H ) :   0.9348
B(  3-C , 11-H ) :   0.9401 B( 12-C , 13-H ) :   0.9147 B( 12-C , 14-H ) :   0.9141
B( 12-C , 15-O ) :   0.8207 B( 12-C , 16-C ) :   0.9069 B( 16-C , 17-C ) :   0.8861
B( 16-C , 20-O ) :   0.8754 B( 16-C , 21-H ) :   0.9273 B( 17-C , 18-C ) :   0.9338
B( 17-C , 22-H ) :   0.9369 B( 17-C , 23-O ) :   0.8988 B( 18-C , 19-C ) :   0.9453
B( 18-C , 24-H ) :   0.9411 B( 18-C , 25-H ) :   0.9268 B( 19-C , 20-O ) :   0.8405
B( 19-C , 26-H ) :   0.9329 B( 19-C , 27-H ) :   0.9377 B( 23-O , 28-H ) :   0.7939

FINAL SINGLE POINT ENERGY      -652.865275725447

DIPOLE MOMENT
-------------
                                X             Y             Z
Electronic contribution:     -2.19575      -4.01062       0.86870
Nuclear contribution   :      3.03900       5.05201      -1.10310
                        -----------------------------------------
Total Dipole Moment    :      0.84325       1.04139      -0.23440
                        -----------------------------------------
Magnitude (a.u.)       :      1.36034
Magnitude (Debye)      :      3.45770

Rotational constants in cm-1:     0.048864     0.015321     0.014593
Rotational constants in MHz :  1464.910061   459.303728   437.495320

                             ****ORCA TERMINATED NORMALLY****
TOTAL RUN TIME: 0 days 0 hours 35 minutes 33 seconds 186 msec
