                         Program Version 4.2.0 -  RELEASE  -
|  1> # Test redundant internal optimization
|  2> #
|  3> ! RKS B3LYP  Opt TightSCF SmallPrint
|  4>
|  5> %basis
|  6>         Basis "6-31G"
|  7> end
|  8>
|  9> %geom
| 10> Constraints
| 11> { D 4  0  15  12  15.0   C } # D for Dihedral angle
| 12> { D 0  15  12  16  285.0   C } # D for Dihedral angle
| 13> { D 0  4  3  2   C } # D for Dihedral angle
| 14> { D 4  3  2  1   C } # D for Dihedral angle
| 15> { D 3  2  1  0   C } # D for Dihedral angle
| 16> { D 2  1  0  4   C } # D for Dihedral angle
| 17> { D 1  0  4  3   C } # D for Dihedral angle
| 18> { D 16  20  19  18   C } # D for Dihedral angle
| 19> { D 20  19  18  17   C } # D for Dihedral angle
| 20> { D 19  18  17  16   C } # D for Dihedral angle
| 21> { D 18  17  16  20   C } # D for Dihedral angle
| 22> { D 17  16  20  19   C } # D for Dihedral angle
| 23> { D 15  12  16  20   C } # D for Dihedral angle
| 24> end
| 25> end
| 26>
| 27>
| 28> #%pal
| 29> #nprocs 8
| 30> #end
| 31>
| 32> * xyz 0 1
| 33> C  -21.048   26.222   46.251
| 34> C  -20.361   27.558   45.944
| 35> C  -20.329   28.222   47.341
| 36> C  -20.110   27.022   48.296
| 37> O  -20.473   25.807   47.535
| 38> H  -20.833   25.428   45.533
| 39> H  -19.344   27.382   45.576
| 40> H  -20.898   28.157   45.201
| 41> H  -19.543   28.978   47.434
| 42> H  -21.289   28.710   47.548
| 43> H  -20.733   27.082   49.195
| 44> H  -19.064   26.913   48.597
| 45> C  -23.128   26.462   47.829
| 46> H  -22.497   27.138   48.419
| 47> H  -24.153   26.854   47.839
| 48> O  -22.586   26.394   46.375
| 49> C  -23.145   25.075   48.529
| 50> C  -23.938   24.049   47.711
| 51> C  -22.912   23.657   46.621
| 52> C  -21.559   23.714   47.374
| 53> O  -21.791   24.517   48.595
| 54> H  -23.491   25.198   49.557
| 55> H  -24.188   23.184   48.335
| 56> O  -25.254   24.623   47.120
| 57> H  -23.107   22.671   46.188
| 58> H  -22.931   24.390   45.806
| 59> H  -20.768   24.183   46.781
| 60> H  -21.220   22.726   47.699
| 61> H  -25.027   25.491   46.492
| 62> *
| 63>
| 64>                          ****END OF INPUT****
 Total Charge           Charge          ....    0
 Multiplicity           Mult            ....    1
 Number of Electrons    NEL             ....  102
FINAL SINGLE POINT ENERGY      -652.773994081231
FINAL SINGLE POINT ENERGY      -652.828578824948
FINAL SINGLE POINT ENERGY      -652.848029752054
FINAL SINGLE POINT ENERGY      -652.852483134620
FINAL SINGLE POINT ENERGY      -652.853102171520
FINAL SINGLE POINT ENERGY      -652.853248947103
FINAL SINGLE POINT ENERGY      -652.853278029439
FINAL SINGLE POINT ENERGY      -652.853283787772
FINAL SINGLE POINT ENERGY      -652.853283640069
                    ***********************HURRAY********************

CARTESIAN COORDINATES (ANGSTROEM)
---------------------------------
  C    -21.034640   26.494981   46.211145
  C    -20.484354   27.902553   45.977972
  C    -20.198301   28.381936   47.424846
  C    -19.739333   27.083781   48.129446
  O    -20.211406   25.971022   47.261558
  H    -20.933699   25.818478   45.360579
  H    -19.554894   27.837050   45.399755
  H    -21.193285   28.536712   45.441774
  H    -19.435016   29.164998   47.464112
  H    -21.111311   28.779026   47.879594
  H    -20.166525   26.941217   49.124561
  H    -18.650445   26.993918   48.185213
  C    -23.115399   26.430294   47.777550
  H    -22.638636   27.117004   48.490780
  H    -24.134106   26.787349   47.600717
  O    -22.471439   26.555493   46.473365
  C    -23.231003   25.051438   48.452704
  C    -24.055195   24.046895   47.629710
  C    -22.963241   23.392669   46.726181
  C    -21.732900   23.363425   47.660363
  O    -22.010058   24.332525   48.752086
  H    -23.711824   25.253702   49.418810
  H    -24.510737   23.304854   48.289778
  O    -25.163506   24.625725   46.898713
  H    -23.255757   22.400557   46.373578
  H    -22.792699   24.040812   45.859515
  H    -20.804279   23.663983   47.174349
  H    -21.600682   22.387219   48.137316
  H    -24.815332   25.147383   46.144930

 Multiplicity           Mult            ....    1
 Number of Electrons    NEL             ....  102
 Basis Dimension        Dim             ....  149

ORBITAL ENERGIES
----------------

  NO   OCC          E(Eh)            E(eV)
   0   2.0000     -19.149270      -521.0781
   1   2.0000     -19.141499      -520.8667
   2   2.0000     -19.135520      -520.7040
   3   2.0000     -19.127677      -520.4906
   4   2.0000     -10.283839      -279.8375
   5   2.0000     -10.231405      -278.4107
   6   2.0000     -10.230898      -278.3969
   7   2.0000     -10.230845      -278.3954
   8   2.0000     -10.225291      -278.2443
   9   2.0000     -10.212808      -277.9046
  10   2.0000     -10.192743      -277.3587
  11   2.0000     -10.187353      -277.2120
  12   2.0000     -10.178529      -276.9719
  13   2.0000      -1.054890       -28.7050
  14   2.0000      -1.022390       -27.8207
  15   2.0000      -1.004437       -27.3321
  16   2.0000      -0.993235       -27.0273
  17   2.0000      -0.790638       -21.5144
  18   2.0000      -0.770794       -20.9744
  19   2.0000      -0.763708       -20.7816
  20   2.0000      -0.733268       -19.9532
  21   2.0000      -0.675991       -18.3947
  22   2.0000      -0.605046       -16.4641
  23   2.0000      -0.603120       -16.4117
  24   2.0000      -0.596880       -16.2419
  25   2.0000      -0.554848       -15.0982
  26   2.0000      -0.526516       -14.3272
  27   2.0000      -0.507209       -13.8019
  28   2.0000      -0.497569       -13.5396
  29   2.0000      -0.484175       -13.1751
  30   2.0000      -0.468139       -12.7387
  31   2.0000      -0.457863       -12.4591
  32   2.0000      -0.437070       -11.8933
  33   2.0000      -0.427327       -11.6282
  34   2.0000      -0.418795       -11.3960
  35   2.0000      -0.410765       -11.1775
  36   2.0000      -0.404235       -10.9998
  37   2.0000      -0.389996       -10.6123
  38   2.0000      -0.379457       -10.3256
  39   2.0000      -0.368590       -10.0299
  40   2.0000      -0.360457        -9.8085
  41   2.0000      -0.357028        -9.7152
  42   2.0000      -0.345329        -9.3969
  43   2.0000      -0.329021        -8.9531
  44   2.0000      -0.316349        -8.6083
  45   2.0000      -0.309390        -8.4189
  46   2.0000      -0.298826        -8.1315
  47   2.0000      -0.267008        -7.2657
  48   2.0000      -0.259212        -7.0535
  49   2.0000      -0.256567        -6.9815
  50   2.0000      -0.224241        -6.1019
  51   0.0000       0.064550         1.7565
  52   0.0000       0.087739         2.3875
  53   0.0000       0.091162         2.4807
  54   0.0000       0.098086         2.6691
  55   0.0000       0.105159         2.8615

MULLIKEN ATOMIC CHARGES
-----------------------
   0 C :    0.311311
   1 C :   -0.257340
   2 C :   -0.317324
   3 C :   -0.013141
   4 O :   -0.501284
   5 H :    0.152581
   6 H :    0.145068
   7 H :    0.156248
   8 H :    0.148815
   9 H :    0.154486
  10 H :    0.162282
  11 H :    0.150848
  12 C :   -0.031158
  13 H :    0.131941
  14 H :    0.161477
  15 O :   -0.561242
  16 C :    0.104273
  17 C :    0.086975
  18 C :   -0.319793
  19 C :   -0.002682
  20 O :   -0.516432
  21 H :    0.142718
  22 H :    0.159735
  23 O :   -0.609784
  24 H :    0.144617
  25 H :    0.149396
  26 H :    0.165271
  27 H :    0.135398
  28 H :    0.366738
Sum of atomic charges:   -0.0000000

LOEWDIN ATOMIC CHARGES
----------------------
   0 C :    0.181117
   1 C :   -0.221169
   2 C :   -0.221229
   3 C :   -0.030554
   4 O :   -0.302994
   5 H :    0.103867
   6 H :    0.113668
   7 H :    0.123042
   8 H :    0.117797
   9 H :    0.112834
  10 H :    0.111544
  11 H :    0.107077
  12 C :   -0.047407
  13 H :    0.094832
  14 H :    0.120827
  15 O :   -0.358013
  16 C :    0.008036
  17 C :    0.033538
  18 C :   -0.240948
  19 C :   -0.029059
  20 O :   -0.315894
  21 H :    0.113012
  22 H :    0.114522
  23 O :   -0.412949
  24 H :    0.116558
  25 H :    0.112345
  26 H :    0.113626
  27 H :    0.098669
  28 H :    0.283305

  Mayer bond orders larger than 0.100000
B(  0-C ,  1-C ) :   0.9313 B(  0-C ,  4-O ) :   0.9242 B(  0-C ,  5-H ) :   0.9312
B(  0-C , 15-O ) :   0.8272 B(  1-C ,  2-C ) :   0.9549 B(  1-C ,  6-H ) :   0.9350
B(  1-C ,  7-H ) :   0.9373 B(  2-C ,  3-C ) :   0.9512 B(  2-C ,  8-H ) :   0.9441
B(  2-C ,  9-H ) :   0.9430 B(  3-C ,  4-O ) :   0.8220 B(  3-C , 10-H ) :   0.9287
B(  3-C , 11-H ) :   0.9398 B( 12-C , 13-H ) :   0.9236 B( 12-C , 14-H ) :   0.9180
B( 12-C , 15-O ) :   0.8409 B( 12-C , 16-C ) :   0.8842 B( 16-C , 17-C ) :   0.8834
B( 16-C , 20-O ) :   0.8911 B( 16-C , 21-H ) :   0.9192 B( 17-C , 18-C ) :   0.9307
B( 17-C , 22-H ) :   0.9374 B( 17-C , 23-O ) :   0.8989 B( 18-C , 19-C ) :   0.9437
B( 18-C , 24-H ) :   0.9423 B( 18-C , 25-H ) :   0.9333 B( 19-C , 20-O ) :   0.8295
B( 19-C , 26-H ) :   0.9173 B( 19-C , 27-H ) :   0.9401 B( 23-O , 28-H ) :   0.7898

FINAL SINGLE POINT ENERGY      -652.853282012601

DIPOLE MOMENT
-------------
                                X             Y             Z
Electronic contribution:     -2.50613      -2.64565       0.55331
Nuclear contribution   :      3.26757       3.40019      -0.90379
                        -----------------------------------------
Total Dipole Moment    :      0.76144       0.75454      -0.35049
                        -----------------------------------------
Magnitude (a.u.)       :      1.12782
Magnitude (Debye)      :      2.86668

Rotational constants in cm-1:     0.049437     0.018482     0.016566
Rotational constants in MHz :  1482.086971   554.089995   496.632226

                             ****ORCA TERMINATED NORMALLY****
TOTAL RUN TIME: 0 days 0 hours 28 minutes 27 seconds 689 msec
