                         Program Version 4.2.0 -  RELEASE  -
|  1> # Test redundant internal optimization
|  2> #
|  3> ! RKS B3LYP  Opt TightSCF SmallPrint
|  4>
|  5> %basis
|  6>         Basis "6-31G"
|  7> end
|  8>
|  9> %geom
| 10> Constraints
| 11> { D 4  0  15  12  210.0   C } # D for Dihedral angle
| 12> { D 0  15  12  16  240.0   C } # D for Dihedral angle
| 13> { D 0  4  3  2   C } # D for Dihedral angle
| 14> { D 4  3  2  1   C } # D for Dihedral angle
| 15> { D 3  2  1  0   C } # D for Dihedral angle
| 16> { D 2  1  0  4   C } # D for Dihedral angle
| 17> { D 1  0  4  3   C } # D for Dihedral angle
| 18> { D 16  20  19  18   C } # D for Dihedral angle
| 19> { D 20  19  18  17   C } # D for Dihedral angle
| 20> { D 19  18  17  16   C } # D for Dihedral angle
| 21> { D 18  17  16  20   C } # D for Dihedral angle
| 22> { D 17  16  20  19   C } # D for Dihedral angle
| 23> { D 15  12  16  20   C } # D for Dihedral angle
| 24> end
| 25> end
| 26>
| 27>
| 28> #%pal
| 29> #nprocs 8
| 30> #end
| 31>
| 32> * xyz 0 1
| 33> C  -21.048   26.222   46.251
| 34> C  -20.361   27.558   45.944
| 35> C  -20.329   28.222   47.341
| 36> C  -20.110   27.022   48.296
| 37> O  -20.473   25.807   47.535
| 38> H  -20.833   25.428   45.533
| 39> H  -19.344   27.382   45.576
| 40> H  -20.898   28.157   45.201
| 41> H  -19.543   28.978   47.434
| 42> H  -21.289   28.710   47.548
| 43> H  -20.733   27.082   49.195
| 44> H  -19.064   26.913   48.597
| 45> C  -23.389   26.110   45.076
| 46> H  -22.695   25.820   44.277
| 47> H  -24.095   25.285   45.234
| 48> O  -22.586   26.394   46.375
| 49> C  -24.203   27.342   44.592
| 50> C  -25.071   26.994   43.378
| 51> C  -26.267   26.272   44.044
| 52> C  -26.435   27.033   45.383
| 53> O  -25.166   27.756   45.618
| 54> H  -23.522   28.182   44.435
| 55> O  -25.541   28.293   42.668
| 56> H  -24.552   26.367   42.644
| 57> H  -27.174   26.300   43.432
| 58> H  -26.017   25.220   44.227
| 59> H  -26.626   26.360   46.227
| 60> H  -27.230   27.783   45.340
| 61> H  -26.064   28.936   43.385
| 62> *
| 63>
| 64>                          ****END OF INPUT****
 Total Charge           Charge          ....    0
 Multiplicity           Mult            ....    1
 Number of Electrons    NEL             ....  102
FINAL SINGLE POINT ENERGY      -652.830067779931
FINAL SINGLE POINT ENERGY      -652.852613372310
FINAL SINGLE POINT ENERGY      -652.856159271379
FINAL SINGLE POINT ENERGY      -652.856803081702
FINAL SINGLE POINT ENERGY      -652.856885520056
FINAL SINGLE POINT ENERGY      -652.856893816472
                    ***********************HURRAY********************

CARTESIAN COORDINATES (ANGSTROEM)
---------------------------------
  C    -21.076097   26.214250   46.160570
  C    -20.436617   27.572266   45.879836
  C    -20.491763   28.246815   47.271741
  C    -20.264086   27.064175   48.236094
  O    -20.550869   25.839635   47.441678
  H    -20.821764   25.417998   45.452717
  H    -19.398207   27.426167   45.557525
  H    -20.962717   28.139132   45.107065
  H    -19.740929   29.033880   47.388096
  H    -21.483097   28.682260   47.427326
  H    -20.930093   27.079256   49.101792
  H    -19.226825   26.980848   48.573812
  C    -23.306946   26.040314   45.087553
  H    -22.654984   25.739982   44.252839
  H    -23.964237   25.196185   45.328437
  O    -22.523912   26.332835   46.275307
  C    -24.129672   27.259423   44.666887
  C    -25.025702   27.010471   43.445433
  C    -26.260559   26.327635   44.092549
  C    -26.374696   27.042676   45.462582
  O    -25.061197   27.683217   45.714198
  H    -23.456805   28.105245   44.494310
  O    -25.377528   28.263087   42.796413
  H    -24.558051   26.407313   42.665527
  H    -27.146098   26.459383   43.465332
  H    -26.081869   25.253503   44.215246
  H    -26.596888   26.353736   46.282750
  H    -27.126807   27.837947   45.460771
  H    -25.628985   28.918365   43.481613

 Multiplicity           Mult            ....    1
 Number of Electrons    NEL             ....  102
 Basis Dimension        Dim             ....  149

ORBITAL ENERGIES
----------------

  NO   OCC          E(Eh)            E(eV)
   0   2.0000     -19.142552      -520.8953
   1   2.0000     -19.141934      -520.8785
   2   2.0000     -19.137525      -520.7585
   3   2.0000     -19.137008      -520.7445
   4   2.0000     -10.278653      -279.6964
   5   2.0000     -10.246225      -278.8140
   6   2.0000     -10.236570      -278.5512
   7   2.0000     -10.235702      -278.5276
   8   2.0000     -10.231827      -278.4222
   9   2.0000     -10.221346      -278.1370
  10   2.0000     -10.192801      -277.3602
  11   2.0000     -10.184282      -277.1284
  12   2.0000     -10.182146      -277.0703
  13   2.0000      -1.051002       -28.5992
  14   2.0000      -1.038295       -28.2534
  15   2.0000      -1.008775       -27.4502
  16   2.0000      -0.991503       -26.9802
  17   2.0000      -0.788209       -21.4482
  18   2.0000      -0.782307       -21.2877
  19   2.0000      -0.768776       -20.9195
  20   2.0000      -0.730938       -19.8898
  21   2.0000      -0.675970       -18.3941
  22   2.0000      -0.607560       -16.5325
  23   2.0000      -0.596780       -16.2392
  24   2.0000      -0.595496       -16.2043
  25   2.0000      -0.583601       -15.8806
  26   2.0000      -0.524582       -14.2746
  27   2.0000      -0.513599       -13.9757
  28   2.0000      -0.497497       -13.5376
  29   2.0000      -0.489712       -13.3257
  30   2.0000      -0.473637       -12.8883
  31   2.0000      -0.457753       -12.4561
  32   2.0000      -0.453569       -12.3423
  33   2.0000      -0.442379       -12.0377
  34   2.0000      -0.428776       -11.6676
  35   2.0000      -0.410176       -11.1615
  36   2.0000      -0.398943       -10.8558
  37   2.0000      -0.395759       -10.7692
  38   2.0000      -0.375077       -10.2064
  39   2.0000      -0.371977       -10.1220
  40   2.0000      -0.362100        -9.8532
  41   2.0000      -0.355269        -9.6674
  42   2.0000      -0.350571        -9.5395
  43   2.0000      -0.333117        -9.0646
  44   2.0000      -0.312672        -8.5082
  45   2.0000      -0.309625        -8.4253
  46   2.0000      -0.302107        -8.2208
  47   2.0000      -0.274349        -7.4654
  48   2.0000      -0.262273        -7.1368
  49   2.0000      -0.255936        -6.9644
  50   2.0000      -0.236162        -6.4263
  51   0.0000       0.064246         1.7482
  52   0.0000       0.081199         2.2095
  53   0.0000       0.083162         2.2630
  54   0.0000       0.088096         2.3972
  55   0.0000       0.100244         2.7278

MULLIKEN ATOMIC CHARGES
-----------------------
   0 C :    0.285750
   1 C :   -0.262499
   2 C :   -0.300951
   3 C :   -0.000824
   4 O :   -0.501723
   5 H :    0.136565
   6 H :    0.141799
   7 H :    0.141603
   8 H :    0.140297
   9 H :    0.170982
  10 H :    0.156416
  11 H :    0.139792
  12 C :   -0.007878
  13 H :    0.120504
  14 H :    0.146951
  15 O :   -0.495530
  16 C :    0.067796
  17 C :    0.076906
  18 C :   -0.306721
  19 C :   -0.027981
  20 O :   -0.508245
  21 H :    0.159583
  22 O :   -0.601352
  23 H :    0.150603
  24 H :    0.164571
  25 H :    0.149356
  26 H :    0.152078
  27 H :    0.146771
  28 H :    0.365382
Sum of atomic charges:   -0.0000000

LOEWDIN ATOMIC CHARGES
----------------------
   0 C :    0.178410
   1 C :   -0.228288
   2 C :   -0.217102
   3 C :   -0.024550
   4 O :   -0.306061
   5 H :    0.094935
   6 H :    0.111973
   7 H :    0.112845
   8 H :    0.113725
   9 H :    0.123586
  10 H :    0.110648
  11 H :    0.101319
  12 C :   -0.040403
  13 H :    0.094952
  14 H :    0.106156
  15 O :   -0.324108
  16 C :    0.010496
  17 C :    0.033616
  18 C :   -0.243599
  19 C :   -0.038145
  20 O :   -0.320808
  21 H :    0.113786
  22 O :   -0.413898
  23 H :    0.114483
  24 H :    0.127221
  25 H :    0.114696
  26 H :    0.107625
  27 H :    0.102766
  28 H :    0.283725

  Mayer bond orders larger than 0.100000
B(  0-C ,  1-C ) :   0.9314 B(  0-C ,  4-O ) :   0.9407 B(  0-C ,  5-H ) :   0.9185
B(  0-C , 15-O ) :   0.8395 B(  1-C ,  2-C ) :   0.9551 B(  1-C ,  6-H ) :   0.9338
B(  1-C ,  7-H ) :   0.9360 B(  2-C ,  3-C ) :   0.9555 B(  2-C ,  8-H ) :   0.9450
B(  2-C ,  9-H ) :   0.9411 B(  3-C ,  4-O ) :   0.8342 B(  3-C , 10-H ) :   0.9343
B(  3-C , 11-H ) :   0.9398 B( 12-C , 13-H ) :   0.9122 B( 12-C , 14-H ) :   0.9283
B( 12-C , 15-O ) :   0.8545 B( 12-C , 16-C ) :   0.8876 B( 16-C , 17-C ) :   0.8958
B( 16-C , 20-O ) :   0.8700 B( 16-C , 21-H ) :   0.9241 B( 17-C , 18-C ) :   0.9116
B( 17-C , 22-O ) :   0.8931 B( 17-C , 23-H ) :   0.9331 B( 18-C , 19-C ) :   0.9413
B( 18-C , 24-H ) :   0.9369 B( 18-C , 25-H ) :   0.9328 B( 19-C , 20-O ) :   0.8498
B( 19-C , 26-H ) :   0.9336 B( 19-C , 27-H ) :   0.9375 B( 22-O , 28-H ) :   0.7937

FINAL SINGLE POINT ENERGY      -652.856894832497

DIPOLE MOMENT
-------------
                                X             Y             Z
Electronic contribution:     -0.78570      -0.86238       0.37091
Nuclear contribution   :      0.74356       0.94730      -0.84183
                        -----------------------------------------
Total Dipole Moment    :     -0.04215       0.08492      -0.47092
                        -----------------------------------------
Magnitude (a.u.)       :      0.48037
Magnitude (Debye)      :      1.22099

Rotational constants in cm-1:     0.061437     0.011802     0.011475
Rotational constants in MHz :  1841.839785   353.805848   344.000827

                             ****ORCA TERMINATED NORMALLY****
TOTAL RUN TIME: 0 days 0 hours 21 minutes 13 seconds 420 msec
