                         Program Version 4.2.0 -  RELEASE  -
|  1> # Test redundant internal optimization
|  2> #
|  3> ! RKS B3LYP  Opt TightSCF SmallPrint
|  4>
|  5> %basis
|  6>         Basis "6-31G"
|  7> end
|  8>
|  9> %geom
| 10> Constraints
| 11> { D 4  0  15  12  120.0   C } # D for Dihedral angle
| 12> { D 0  15  12  16  240.0   C } # D for Dihedral angle
| 13> { D 0  4  3  2   C } # D for Dihedral angle
| 14> { D 4  3  2  1   C } # D for Dihedral angle
| 15> { D 3  2  1  0   C } # D for Dihedral angle
| 16> { D 2  1  0  4   C } # D for Dihedral angle
| 17> { D 1  0  4  3   C } # D for Dihedral angle
| 18> { D 16  20  19  18   C } # D for Dihedral angle
| 19> { D 20  19  18  17   C } # D for Dihedral angle
| 20> { D 19  18  17  16   C } # D for Dihedral angle
| 21> { D 18  17  16  20   C } # D for Dihedral angle
| 22> { D 17  16  20  19   C } # D for Dihedral angle
| 23> { D 15  12  16  20   C } # D for Dihedral angle
| 24> end
| 25> end
| 26>
| 27>
| 28> #%pal
| 29> #nprocs 8
| 30> #end
| 31>
| 32> * xyz 0 1
| 33> C  -21.048   26.222   46.251
| 34> C  -20.361   27.558   45.944
| 35> C  -20.329   28.222   47.341
| 36> C  -20.110   27.022   48.296
| 37> O  -20.473   25.807   47.535
| 38> H  -20.833   25.428   45.533
| 39> H  -19.344   27.382   45.576
| 40> H  -20.898   28.157   45.201
| 41> H  -19.543   28.978   47.434
| 42> H  -21.289   28.710   47.548
| 43> H  -20.733   27.082   49.195
| 44> H  -19.064   26.913   48.597
| 45> C  -23.119   27.818   46.058
| 46> H  -22.278   28.467   45.784
| 47> H  -23.817   27.787   45.211
| 48> O  -22.586   26.394   46.375
| 49> C  -23.862   28.463   47.260
| 50> C  -24.473   29.815   46.877
| 51> C  -25.752   29.379   46.122
| 52> C  -26.194   28.106   46.886
| 53> O  -25.015   27.643   47.649
| 54> H  -23.190   28.498   48.120
| 55> H  -24.731   30.382   47.779
| 56> O  -23.528   30.687   46.005
| 57> H  -26.527   30.152   46.117
| 58> H  -25.510   29.139   45.079
| 59> H  -26.521   27.305   46.213
| 60> H  -26.988   28.307   47.610
| 61> H  -23.256   30.141   45.095
| 62> *
| 63>
| 64>                          ****END OF INPUT****
 Total Charge           Charge          ....    0
 Multiplicity           Mult            ....    1
 Number of Electrons    NEL             ....  102
FINAL SINGLE POINT ENERGY      -652.806690670653
FINAL SINGLE POINT ENERGY      -652.830914073671
FINAL SINGLE POINT ENERGY      -652.842299402850
FINAL SINGLE POINT ENERGY      -652.844554547194
FINAL SINGLE POINT ENERGY      -652.845085040239
FINAL SINGLE POINT ENERGY      -652.845201803047
FINAL SINGLE POINT ENERGY      -652.845225038390
FINAL SINGLE POINT ENERGY      -652.845230622002
FINAL SINGLE POINT ENERGY      -652.845231368814
                    ***********************HURRAY********************

CARTESIAN COORDINATES (ANGSTROEM)
---------------------------------
  C    -21.112727   26.303572   46.311215
  C    -20.148790   27.441321   45.960364
  C    -20.028363   28.194374   47.314304
  C    -20.105818   27.042796   48.345024
  O    -20.690573   25.888184   47.625598
  H    -21.009333   25.418772   45.680646
  H    -19.187398   26.993182   45.687898
  H    -20.467231   28.074346   45.128425
  H    -19.093752   28.757924   47.392509
  H    -20.854258   28.901699   47.442666
  H    -20.735843   27.280603   49.206840
  H    -19.118914   26.729990   48.698163
  C    -23.101539   27.889137   45.973649
  H    -22.337475   28.621864   45.695134
  H    -23.757089   27.731614   45.107072
  O    -22.537410   26.596578   46.309970
  C    -23.899849   28.447090   47.154303
  C    -24.569413   29.799370   46.861905
  C    -25.878787   29.359828   46.139591
  C    -26.240370   28.044515   46.865259
  O    -25.007617   27.585153   47.552122
  H    -23.239228   28.496763   48.025550
  H    -24.804186   30.299767   47.804261
  O    -23.748860   30.748410   46.132521
  H    -26.665914   30.116226   46.209525
  H    -25.669771   29.185216   45.074856
  H    -26.581350   27.260676   46.181729
  H    -27.000320   28.195053   47.637613
  H    -23.779822   30.559978   45.172287

 Multiplicity           Mult            ....    1
 Number of Electrons    NEL             ....  102
 Basis Dimension        Dim             ....  149

ORBITAL ENERGIES
----------------

  NO   OCC          E(Eh)            E(eV)
   0   2.0000     -19.154358      -521.2166
   1   2.0000     -19.135408      -520.7009
   2   2.0000     -19.133679      -520.6539
   3   2.0000     -19.133399      -520.6463
   4   2.0000     -10.276433      -279.6360
   5   2.0000     -10.247788      -278.8565
   6   2.0000     -10.231461      -278.4122
   7   2.0000     -10.230342      -278.3818
   8   2.0000     -10.229989      -278.3721
   9   2.0000     -10.223391      -278.1926
  10   2.0000     -10.199230      -277.5352
  11   2.0000     -10.192951      -277.3643
  12   2.0000     -10.191175      -277.3160
  13   2.0000      -1.045589       -28.4519
  14   2.0000      -1.035689       -28.1825
  15   2.0000      -1.016013       -27.6471
  16   2.0000      -0.988100       -26.8876
  17   2.0000      -0.787964       -21.4416
  18   2.0000      -0.784932       -21.3591
  19   2.0000      -0.770122       -20.9561
  20   2.0000      -0.731706       -19.9107
  21   2.0000      -0.684765       -18.6334
  22   2.0000      -0.613982       -16.7073
  23   2.0000      -0.604613       -16.4524
  24   2.0000      -0.594415       -16.1749
  25   2.0000      -0.568319       -15.4648
  26   2.0000      -0.524035       -14.2597
  27   2.0000      -0.516213       -14.0469
  28   2.0000      -0.502751       -13.6805
  29   2.0000      -0.498742       -13.5715
  30   2.0000      -0.464829       -12.6486
  31   2.0000      -0.453103       -12.3296
  32   2.0000      -0.445917       -12.1340
  33   2.0000      -0.433563       -11.7978
  34   2.0000      -0.431093       -11.7306
  35   2.0000      -0.424177       -11.5424
  36   2.0000      -0.411873       -11.2076
  37   2.0000      -0.397603       -10.8193
  38   2.0000      -0.379968       -10.3394
  39   2.0000      -0.376741       -10.2516
  40   2.0000      -0.360941        -9.8217
  41   2.0000      -0.357085        -9.7168
  42   2.0000      -0.350962        -9.5502
  43   2.0000      -0.330603        -8.9962
  44   2.0000      -0.319331        -8.6894
  45   2.0000      -0.308756        -8.4017
  46   2.0000      -0.286258        -7.7895
  47   2.0000      -0.274312        -7.4644
  48   2.0000      -0.267018        -7.2659
  49   2.0000      -0.248032        -6.7493
  50   2.0000      -0.233342        -6.3496
  51   0.0000       0.045397         1.2353
  52   0.0000       0.074600         2.0300
  53   0.0000       0.080577         2.1926
  54   0.0000       0.087898         2.3918
  55   0.0000       0.101126         2.7518

MULLIKEN ATOMIC CHARGES
-----------------------
   0 C :    0.316690
   1 C :   -0.306556
   2 C :   -0.312687
   3 C :   -0.003803
   4 O :   -0.492225
   5 H :    0.157286
   6 H :    0.156996
   7 H :    0.144064
   8 H :    0.145812
   9 H :    0.159321
  10 H :    0.150379
  11 H :    0.143611
  12 C :   -0.018822
  13 H :    0.130174
  14 H :    0.131908
  15 O :   -0.514146
  16 C :    0.102150
  17 C :    0.079299
  18 C :   -0.337932
  19 C :   -0.007097
  20 O :   -0.499957
  21 H :    0.157899
  22 H :    0.168293
  23 O :   -0.601511
  24 H :    0.160702
  25 H :    0.135237
  26 H :    0.148030
  27 H :    0.150998
  28 H :    0.355886
Sum of atomic charges:   -0.0000000

LOEWDIN ATOMIC CHARGES
----------------------
   0 C :    0.182222
   1 C :   -0.233794
   2 C :   -0.222154
   3 C :   -0.030398
   4 O :   -0.311496
   5 H :    0.106265
   6 H :    0.123263
   7 H :    0.113170
   8 H :    0.116463
   9 H :    0.112396
  10 H :    0.105976
  11 H :    0.103446
  12 C :   -0.049145
  13 H :    0.098805
  14 H :    0.096934
  15 O :   -0.317543
  16 C :    0.016072
  17 C :    0.032447
  18 C :   -0.244648
  19 C :   -0.028929
  20 O :   -0.309040
  21 H :    0.114135
  22 H :    0.119331
  23 O :   -0.410704
  24 H :    0.123132
  25 H :    0.104075
  26 H :    0.105180
  27 H :    0.106718
  28 H :    0.277822

  Mayer bond orders larger than 0.100000
B(  0-C ,  1-C ) :   0.9301 B(  0-C ,  4-O ) :   0.9156 B(  0-C ,  5-H ) :   0.9320
B(  0-C , 15-O ) :   0.8765 B(  1-C ,  2-C ) :   0.9500 B(  1-C ,  6-H ) :   0.9334
B(  1-C ,  7-H ) :   0.9282 B(  2-C ,  3-C ) :   0.9482 B(  2-C ,  8-H ) :   0.9462
B(  2-C ,  9-H ) :   0.9380 B(  3-C ,  4-O ) :   0.8471 B(  3-C , 10-H ) :   0.9327
B(  3-C , 11-H ) :   0.9392 B( 12-C , 13-H ) :   0.8908 B( 12-C , 14-H ) :   0.9309
B( 12-C , 15-O ) :   0.8592 B( 12-C , 16-C ) :   0.8914 B( 16-C , 17-C ) :   0.8668
B( 16-C , 20-O ) :   0.8729 B( 16-C , 21-H ) :   0.9292 B( 17-C , 18-C ) :   0.9288
B( 17-C , 22-H ) :   0.9319 B( 17-C , 23-O ) :   0.8904 B( 18-C , 19-C ) :   0.9395
B( 18-C , 24-H ) :   0.9409 B( 18-C , 25-H ) :   0.9388 B( 19-C , 20-O ) :   0.8533
B( 19-C , 26-H ) :   0.9306 B( 19-C , 27-H ) :   0.9371 B( 23-O , 28-H ) :   0.7994

FINAL SINGLE POINT ENERGY      -652.845231344411

DIPOLE MOMENT
-------------
                                X             Y             Z
Electronic contribution:     -1.25299      -3.65997       1.41749
Nuclear contribution   :      1.31042       4.95888      -2.54463
                        -----------------------------------------
Total Dipole Moment    :      0.05742       1.29890      -1.12714
                        -----------------------------------------
Magnitude (a.u.)       :      1.72072
Magnitude (Debye)      :      4.37373

Rotational constants in cm-1:     0.049550     0.014747     0.013219
Rotational constants in MHz :  1485.481873   442.105102   396.295607

                             ****ORCA TERMINATED NORMALLY****
TOTAL RUN TIME: 0 days 0 hours 34 minutes 9 seconds 229 msec
