                         Program Version 4.2.0 -  RELEASE  -
|  1> # Test redundant internal optimization
|  2> #
|  3> ! RKS B3LYP  Opt TightSCF SmallPrint
|  4>
|  5> %basis
|  6>         Basis "6-31G"
|  7> end
|  8>
|  9> %geom
| 10> Constraints
| 11> { D 4  0  15  12  225.0   C } # D for Dihedral angle
| 12> { D 0  15  12  16  240.0   C } # D for Dihedral angle
| 13> { D 0  4  3  2   C } # D for Dihedral angle
| 14> { D 4  3  2  1   C } # D for Dihedral angle
| 15> { D 3  2  1  0   C } # D for Dihedral angle
| 16> { D 2  1  0  4   C } # D for Dihedral angle
| 17> { D 1  0  4  3   C } # D for Dihedral angle
| 18> { D 16  20  19  18   C } # D for Dihedral angle
| 19> { D 20  19  18  17   C } # D for Dihedral angle
| 20> { D 19  18  17  16   C } # D for Dihedral angle
| 21> { D 18  17  16  20   C } # D for Dihedral angle
| 22> { D 17  16  20  19   C } # D for Dihedral angle
| 23> { D 15  12  16  20   C } # D for Dihedral angle
| 24> end
| 25> end
| 26>
| 27>
| 28> #%pal
| 29> #nprocs 8
| 30> #end
| 31>
| 32> * xyz 0 1
| 33> C  -21.048   26.222   46.251
| 34> C  -20.361   27.558   45.944
| 35> C  -20.329   28.222   47.341
| 36> C  -20.110   27.022   48.296
| 37> O  -20.473   25.807   47.535
| 38> H  -20.833   25.428   45.533
| 39> H  -19.344   27.382   45.576
| 40> H  -20.898   28.157   45.201
| 41> H  -19.543   28.978   47.434
| 42> H  -21.289   28.710   47.548
| 43> H  -20.733   27.082   49.195
| 44> H  -19.064   26.913   48.597
| 45> C  -23.415   25.773   45.218
| 46> H  -22.735   25.299   44.499
| 47> H  -24.097   25.004   45.604
| 48> O  -22.586   26.394   46.375
| 49> C  -24.271   26.825   44.460
| 50> C  -25.186   27.595   45.420
| 51> C  -24.202   28.615   46.041
| 52> C  -23.250   28.946   44.864
| 53> O  -23.412   27.859   43.874
| 54> H  -24.792   26.336   43.635
| 55> H  -25.973   28.109   44.858
| 56> O  -25.859   26.685   46.484
| 57> H  -24.704   29.505   46.433
| 58> H  -23.649   28.151   46.866
| 59> H  -22.201   28.996   45.174
| 60> H  -23.515   29.881   44.362
| 61> H  -25.089   26.159   47.059
| 62> *
| 63>
| 64>                          ****END OF INPUT****
 Total Charge           Charge          ....    0
 Multiplicity           Mult            ....    1
 Number of Electrons    NEL             ....  102
FINAL SINGLE POINT ENERGY      -652.826845332063
FINAL SINGLE POINT ENERGY      -652.850020477972
FINAL SINGLE POINT ENERGY      -652.857141890661
FINAL SINGLE POINT ENERGY      -652.860562446292
FINAL SINGLE POINT ENERGY      -652.860900159504
FINAL SINGLE POINT ENERGY      -652.860951967182
FINAL SINGLE POINT ENERGY      -652.860956704416
                    ***********************HURRAY********************

CARTESIAN COORDINATES (ANGSTROEM)
---------------------------------
  C    -21.011388   26.171014   46.223757
  C    -20.301657   27.496039   45.954963
  C    -20.280104   28.139057   47.361589
  C    -20.095760   26.921655   48.293828
  O    -20.473722   25.735809   47.483300
  H    -20.803013   25.383846   45.492714
  H    -19.281217   27.286425   45.612316
  H    -20.808062   28.089612   45.193417
  H    -19.479347   28.875881   47.476221
  H    -21.233970   28.638092   47.560818
  H    -20.732434   26.955879   49.181306
  H    -19.055673   26.774913   48.599255
  C    -23.277166   25.786322   45.272863
  H    -22.634170   25.295168   44.530665
  H    -23.943742   25.027588   45.701691
  O    -22.455916   26.330261   46.348785
  C    -24.136748   26.824566   44.558259
  C    -25.182717   27.541064   45.430971
  C    -24.361052   28.738234   45.995375
  C    -23.425846   29.095400   44.823099
  O    -23.407282   27.912320   43.916541
  H    -24.635042   26.282984   43.743508
  H    -26.010480   27.887416   44.809011
  O    -25.797323   26.707212   46.440331
  H    -24.998268   29.572692   46.300382
  H    -23.787116   28.386818   46.858085
  H    -22.406998   29.320771   45.144752
  H    -23.802387   29.933911   44.228818
  H    -25.142401   26.502053   47.140379

 Multiplicity           Mult            ....    1
 Number of Electrons    NEL             ....  102
 Basis Dimension        Dim             ....  149

ORBITAL ENERGIES
----------------

  NO   OCC          E(Eh)            E(eV)
   0   2.0000     -19.147597      -521.0326
   1   2.0000     -19.142639      -520.8977
   2   2.0000     -19.142413      -520.8915
   3   2.0000     -19.140919      -520.8509
   4   2.0000     -10.283552      -279.8297
   5   2.0000     -10.239090      -278.6198
   6   2.0000     -10.233942      -278.4797
   7   2.0000     -10.232420      -278.4383
   8   2.0000     -10.228703      -278.3371
   9   2.0000     -10.228287      -278.3258
  10   2.0000     -10.190533      -277.2985
  11   2.0000     -10.186710      -277.1945
  12   2.0000     -10.184377      -277.1310
  13   2.0000      -1.055508       -28.7218
  14   2.0000      -1.030230       -28.0340
  15   2.0000      -1.012674       -27.5563
  16   2.0000      -0.996947       -27.1283
  17   2.0000      -0.790178       -21.5018
  18   2.0000      -0.776354       -21.1257
  19   2.0000      -0.769748       -20.9459
  20   2.0000      -0.734411       -19.9843
  21   2.0000      -0.682076       -18.5602
  22   2.0000      -0.606230       -16.4963
  23   2.0000      -0.602959       -16.4073
  24   2.0000      -0.597000       -16.2452
  25   2.0000      -0.577643       -15.7185
  26   2.0000      -0.527206       -14.3460
  27   2.0000      -0.509172       -13.8553
  28   2.0000      -0.498929       -13.5766
  29   2.0000      -0.492144       -13.3919
  30   2.0000      -0.472217       -12.8497
  31   2.0000      -0.463768       -12.6198
  32   2.0000      -0.442303       -12.0357
  33   2.0000      -0.437895       -11.9157
  34   2.0000      -0.426004       -11.5921
  35   2.0000      -0.418666       -11.3925
  36   2.0000      -0.406854       -11.0711
  37   2.0000      -0.393356       -10.7038
  38   2.0000      -0.383863       -10.4455
  39   2.0000      -0.370253       -10.0751
  40   2.0000      -0.361103        -9.8261
  41   2.0000      -0.354992        -9.6598
  42   2.0000      -0.350249        -9.5308
  43   2.0000      -0.330340        -8.9890
  44   2.0000      -0.316850        -8.6219
  45   2.0000      -0.315620        -8.5885
  46   2.0000      -0.308598        -8.3974
  47   2.0000      -0.272967        -7.4278
  48   2.0000      -0.265785        -7.2324
  49   2.0000      -0.257507        -7.0071
  50   2.0000      -0.239323        -6.5123
  51   0.0000       0.064518         1.7556
  52   0.0000       0.069535         1.8921
  53   0.0000       0.085938         2.3385
  54   0.0000       0.094662         2.5759
  55   0.0000       0.101399         2.7592

MULLIKEN ATOMIC CHARGES
-----------------------
   0 C :    0.296845
   1 C :   -0.268446
   2 C :   -0.308893
   3 C :   -0.001449
   4 O :   -0.501581
   5 H :    0.144163
   6 H :    0.145970
   7 H :    0.166919
   8 H :    0.144717
   9 H :    0.155316
  10 H :    0.150257
  11 H :    0.143773
  12 C :   -0.035283
  13 H :    0.142524
  14 H :    0.153474
  15 O :   -0.532602
  16 C :    0.104741
  17 C :    0.087723
  18 C :   -0.314540
  19 C :   -0.011355
  20 O :   -0.526508
  21 H :    0.147038
  22 H :    0.162322
  23 O :   -0.605890
  24 H :    0.146450
  25 H :    0.164829
  26 H :    0.134515
  27 H :    0.145960
  28 H :    0.369010
Sum of atomic charges:   -0.0000000

LOEWDIN ATOMIC CHARGES
----------------------
   0 C :    0.182525
   1 C :   -0.225726
   2 C :   -0.218382
   3 C :   -0.026008
   4 O :   -0.310013
   5 H :    0.099392
   6 H :    0.115466
   7 H :    0.124632
   8 H :    0.115462
   9 H :    0.112866
  10 H :    0.107141
  11 H :    0.103309
  12 C :   -0.046505
  13 H :    0.104986
  14 H :    0.111255
  15 O :   -0.346487
  16 C :    0.012069
  17 C :    0.037299
  18 C :   -0.241791
  19 C :   -0.027010
  20 O :   -0.327285
  21 H :    0.113909
  22 H :    0.116308
  23 O :   -0.409228
  24 H :    0.117141
  25 H :    0.119066
  26 H :    0.097027
  27 H :    0.102835
  28 H :    0.285747

  Mayer bond orders larger than 0.100000
B(  0-C ,  1-C ) :   0.9366 B(  0-C ,  4-O ) :   0.9355 B(  0-C ,  5-H ) :   0.9173
B(  0-C , 15-O ) :   0.8292 B(  1-C ,  2-C ) :   0.9555 B(  1-C ,  6-H ) :   0.9336
B(  1-C ,  7-H ) :   0.9211 B(  2-C ,  3-C ) :   0.9526 B(  2-C ,  8-H ) :   0.9448
B(  2-C ,  9-H ) :   0.9417 B(  3-C ,  4-O ) :   0.8385 B(  3-C , 10-H ) :   0.9350
B(  3-C , 11-H ) :   0.9393 B( 12-C , 13-H ) :   0.9216 B( 12-C , 14-H ) :   0.9125
B( 12-C , 15-O ) :   0.8492 B( 12-C , 16-C ) :   0.9004 B( 16-C , 17-C ) :   0.8864
B( 16-C , 20-O ) :   0.8714 B( 16-C , 21-H ) :   0.9238 B( 17-C , 18-C ) :   0.9301
B( 17-C , 22-H ) :   0.9364 B( 17-C , 23-O ) :   0.9062 B( 18-C , 19-C ) :   0.9456
B( 18-C , 24-H ) :   0.9409 B( 18-C , 25-H ) :   0.9258 B( 19-C , 20-O ) :   0.8425
B( 19-C , 26-H ) :   0.9200 B( 19-C , 27-H ) :   0.9388 B( 23-O , 28-H ) :   0.7901

FINAL SINGLE POINT ENERGY      -652.860955526063

DIPOLE MOMENT
-------------
                                X             Y             Z
Electronic contribution:     -2.69389      -4.32042      -1.10329
Nuclear contribution   :      3.35926       5.13659       1.19187
                        -----------------------------------------
Total Dipole Moment    :      0.66537       0.81617       0.08858
                        -----------------------------------------
Magnitude (a.u.)       :      1.05674
Magnitude (Debye)      :      2.68601

Rotational constants in cm-1:     0.045005     0.016865     0.015703
Rotational constants in MHz :  1349.212643   505.607069   470.764092

                             ****ORCA TERMINATED NORMALLY****
TOTAL RUN TIME: 0 days 0 hours 21 minutes 59 seconds 726 msec
