                         Program Version 4.2.0 -  RELEASE  -
|  1> # Test redundant internal optimization
|  2> #
|  3> ! RKS B3LYP  Opt TightSCF SmallPrint
|  4>
|  5> %basis
|  6>         Basis "6-31G"
|  7> end
|  8>
|  9> %geom
| 10> Constraints
| 11> { D 4  0  15  12  165.0   C } # D for Dihedral angle
| 12> { D 0  15  12  16  90.0   C } # D for Dihedral angle
| 13> { D 0  4  3  2   C } # D for Dihedral angle
| 14> { D 4  3  2  1   C } # D for Dihedral angle
| 15> { D 3  2  1  0   C } # D for Dihedral angle
| 16> { D 2  1  0  4   C } # D for Dihedral angle
| 17> { D 1  0  4  3   C } # D for Dihedral angle
| 18> { D 16  20  19  18   C } # D for Dihedral angle
| 19> { D 20  19  18  17   C } # D for Dihedral angle
| 20> { D 19  18  17  16   C } # D for Dihedral angle
| 21> { D 18  17  16  20   C } # D for Dihedral angle
| 22> { D 17  16  20  19   C } # D for Dihedral angle
| 23> { D 15  12  16  20   C } # D for Dihedral angle
| 24> end
| 25> end
| 26>
| 27>
| 28> #%pal
| 29> #nprocs 8
| 30> #end
| 31>
| 32> * xyz 0 1
| 33> C  -21.048   26.222   46.251
| 34> C  -20.361   27.558   45.944
| 35> C  -20.329   28.222   47.341
| 36> C  -20.110   27.022   48.296
| 37> O  -20.473   25.807   47.535
| 38> H  -20.833   25.428   45.533
| 39> H  -19.344   27.382   45.576
| 40> H  -20.898   28.157   45.201
| 41> H  -19.543   28.978   47.434
| 42> H  -21.289   28.710   47.548
| 43> H  -20.733   27.082   49.195
| 44> H  -19.064   26.913   48.597
| 45> C  -23.260   27.170   45.210
| 46> H  -24.140   27.702   45.592
| 47> H  -22.567   27.911   44.791
| 48> O  -22.586   26.394   46.375
| 49> C  -23.715   26.239   44.052
| 50> C  -22.549   25.393   43.527
| 51> C  -22.465   24.278   44.596
| 52> C  -23.946   24.056   44.991
| 53> O  -24.686   25.254   44.538
| 54> H  -24.219   26.836   43.291
| 55> O  -22.908   24.796   42.139
| 56> H  -21.616   25.959   43.429
| 57> H  -21.991   23.365   44.221
| 58> H  -21.884   24.626   45.459
| 59> H  -24.080   23.937   46.071
| 60> H  -24.389   23.194   44.483
| 61> H  -23.840   24.224   42.214
| 62> *
| 63>
| 64>                          ****END OF INPUT****
 Total Charge           Charge          ....    0
 Multiplicity           Mult            ....    1
 Number of Electrons    NEL             ....  102
FINAL SINGLE POINT ENERGY      -652.802696264164
FINAL SINGLE POINT ENERGY      -652.834297193691
FINAL SINGLE POINT ENERGY      -652.848275165054
FINAL SINGLE POINT ENERGY      -652.851147875162
FINAL SINGLE POINT ENERGY      -652.851608217816
FINAL SINGLE POINT ENERGY      -652.851659862186
FINAL SINGLE POINT ENERGY      -652.851668902450
                    ***********************HURRAY********************

CARTESIAN COORDINATES (ANGSTROEM)
---------------------------------
  C    -20.963558   26.282087   46.418965
  C    -20.174775   27.532463   46.030441
  C    -20.272637   28.390748   47.318902
  C    -20.236404   27.327146   48.435571
  O    -20.577190   26.039886   47.777638
  H    -20.706020   25.388062   45.851763
  H    -19.135843   27.239065   45.839581
  H    -20.539989   28.049686   45.140377
  H    -19.453940   29.112067   47.401208
  H    -21.218979   28.939389   47.334690
  H    -20.960819   27.512644   49.232130
  H    -19.240555   27.200392   48.870317
  C    -23.115433   27.072564   45.309301
  H    -23.985791   27.551318   45.766736
  H    -22.513627   27.857548   44.829524
  O    -22.415656   26.487643   46.443931
  C    -23.655624   26.146536   44.209982
  C    -22.679701   25.291982   43.384212
  C    -22.538671   24.020036   44.268143
  C    -23.958608   23.870168   44.875115
  O    -24.625697   25.179560   44.716013
  H    -24.208045   26.807703   43.528380
  O    -23.246226   24.984943   42.080886
  H    -21.729358   25.784755   43.171730
  H    -22.244745   23.162134   43.657168
  H    -21.797805   24.157406   45.053770
  H    -23.931459   23.616770   45.938006
  H    -24.567929   23.130147   44.346379
  H    -24.170917   24.680151   42.199140

 Multiplicity           Mult            ....    1
 Number of Electrons    NEL             ....  102
 Basis Dimension        Dim             ....  149

ORBITAL ENERGIES
----------------

  NO   OCC          E(Eh)            E(eV)
   0   2.0000     -19.145387      -520.9725
   1   2.0000     -19.143468      -520.9202
   2   2.0000     -19.140750      -520.8463
   3   2.0000     -19.140509      -520.8397
   4   2.0000     -10.284660      -279.8598
   5   2.0000     -10.244462      -278.7660
   6   2.0000     -10.236189      -278.5409
   7   2.0000     -10.234889      -278.5055
   8   2.0000     -10.228270      -278.3254
   9   2.0000     -10.226167      -278.2682
  10   2.0000     -10.194922      -277.4179
  11   2.0000     -10.192453      -277.3507
  12   2.0000     -10.186307      -277.1835
  13   2.0000      -1.055790       -28.7295
  14   2.0000      -1.037730       -28.2381
  15   2.0000      -1.007813       -27.4240
  16   2.0000      -0.993671       -27.0392
  17   2.0000      -0.791753       -21.5447
  18   2.0000      -0.779024       -21.1983
  19   2.0000      -0.771446       -20.9921
  20   2.0000      -0.738595       -20.0982
  21   2.0000      -0.681318       -18.5396
  22   2.0000      -0.610189       -16.6041
  23   2.0000      -0.604059       -16.4373
  24   2.0000      -0.601589       -16.3701
  25   2.0000      -0.572574       -15.5805
  26   2.0000      -0.525257       -14.2930
  27   2.0000      -0.514448       -13.9988
  28   2.0000      -0.506481       -13.7820
  29   2.0000      -0.491010       -13.3611
  30   2.0000      -0.472571       -12.8593
  31   2.0000      -0.460348       -12.5267
  32   2.0000      -0.454056       -12.3555
  33   2.0000      -0.445037       -12.1101
  34   2.0000      -0.423803       -11.5323
  35   2.0000      -0.419312       -11.4101
  36   2.0000      -0.404469       -11.0062
  37   2.0000      -0.392643       -10.6844
  38   2.0000      -0.384256       -10.4561
  39   2.0000      -0.368605       -10.0303
  40   2.0000      -0.363988        -9.9046
  41   2.0000      -0.361720        -9.8429
  42   2.0000      -0.354011        -9.6331
  43   2.0000      -0.331947        -9.0327
  44   2.0000      -0.317452        -8.6383
  45   2.0000      -0.306864        -8.3502
  46   2.0000      -0.300518        -8.1775
  47   2.0000      -0.272566        -7.4169
  48   2.0000      -0.271418        -7.3857
  49   2.0000      -0.260603        -7.0914
  50   2.0000      -0.237490        -6.4624
  51   0.0000       0.062646         1.7047
  52   0.0000       0.074265         2.0209
  53   0.0000       0.092236         2.5099
  54   0.0000       0.098810         2.6888
  55   0.0000       0.100801         2.7429

MULLIKEN ATOMIC CHARGES
-----------------------
   0 C :    0.304845
   1 C :   -0.295301
   2 C :   -0.294759
   3 C :   -0.000879
   4 O :   -0.498528
   5 H :    0.143508
   6 H :    0.153441
   7 H :    0.143614
   8 H :    0.144609
   9 H :    0.158254
  10 H :    0.156637
  11 H :    0.144005
  12 C :   -0.020079
  13 H :    0.170397
  14 H :    0.115043
  15 O :   -0.510261
  16 C :    0.078342
  17 C :    0.067447
  18 C :   -0.299247
  19 C :   -0.023337
  20 O :   -0.522598
  21 H :    0.152642
  22 O :   -0.600039
  23 H :    0.143084
  24 H :    0.157242
  25 H :    0.162527
  26 H :    0.163337
  27 H :    0.139977
  28 H :    0.366074
Sum of atomic charges:    0.0000000

LOEWDIN ATOMIC CHARGES
----------------------
   0 C :    0.177971
   1 C :   -0.233967
   2 C :   -0.215712
   3 C :   -0.025067
   4 O :   -0.302323
   5 H :    0.093108
   6 H :    0.119189
   7 H :    0.112466
   8 H :    0.115637
   9 H :    0.116124
  10 H :    0.110819
  11 H :    0.103568
  12 C :   -0.044355
  13 H :    0.124505
  14 H :    0.090721
  15 O :   -0.330084
  16 C :    0.003772
  17 C :    0.034221
  18 C :   -0.241404
  19 C :   -0.033468
  20 O :   -0.327735
  21 H :    0.115444
  22 O :   -0.413599
  23 H :    0.110915
  24 H :    0.123393
  25 H :    0.120300
  26 H :    0.113610
  27 H :    0.098005
  28 H :    0.283947

  Mayer bond orders larger than 0.100000
B(  0-C ,  1-C ) :   0.9286 B(  0-C ,  4-O ) :   0.9398 B(  0-C ,  5-H ) :   0.8977
B(  0-C , 15-O ) :   0.8381 B(  1-C ,  2-C ) :   0.9500 B(  1-C ,  6-H ) :   0.9333
B(  1-C ,  7-H ) :   0.9278 B(  2-C ,  3-C ) :   0.9544 B(  2-C ,  8-H ) :   0.9450
B(  2-C ,  9-H ) :   0.9456 B(  3-C ,  4-O ) :   0.8332 B(  3-C , 10-H ) :   0.9343
B(  3-C , 11-H ) :   0.9395 B( 12-C , 13-H ) :   0.9312 B( 12-C , 14-H ) :   0.9007
B( 12-C , 15-O ) :   0.8844 B( 12-C , 16-C ) :   0.8800 B( 16-C , 17-C ) :   0.9071
B( 16-C , 20-O ) :   0.8707 B( 16-C , 21-H ) :   0.9140 B( 17-C , 18-C ) :   0.9193
B( 17-C , 22-O ) :   0.8935 B( 17-C , 23-H ) :   0.9357 B( 18-C , 19-C ) :   0.9418
B( 18-C , 24-H ) :   0.9375 B( 18-C , 25-H ) :   0.9125 B( 19-C , 20-O ) :   0.8412
B( 19-C , 26-H ) :   0.9320 B( 19-C , 27-H ) :   0.9369 B( 22-O , 28-H ) :   0.7932

FINAL SINGLE POINT ENERGY      -652.851668213147

DIPOLE MOMENT
-------------
                                X             Y             Z
Electronic contribution:     -3.85032      -2.65972      -0.78197
Nuclear contribution   :      4.60515       3.38867       0.65890
                        -----------------------------------------
Total Dipole Moment    :      0.75483       0.72896      -0.12307
                        -----------------------------------------
Magnitude (a.u.)       :      1.05654
Magnitude (Debye)      :      2.68552

Rotational constants in cm-1:     0.056989     0.013855     0.013423
Rotational constants in MHz :  1708.488398   415.363825   402.413918

                             ****ORCA TERMINATED NORMALLY****
TOTAL RUN TIME: 0 days 0 hours 34 minutes 59 seconds 127 msec
