                         Program Version 4.2.0 -  RELEASE  -
|  1> # Test redundant internal optimization
|  2> #
|  3> ! RKS B3LYP  Opt TightSCF SmallPrint
|  4>
|  5> %basis
|  6>         Basis "6-31G"
|  7> end
|  8>
|  9> %geom
| 10> Constraints
| 11> { D 4  0  15  12  105.0   C } # D for Dihedral angle
| 12> { D 0  15  12  16  195.0   C } # D for Dihedral angle
| 13> { D 0  4  3  2   C } # D for Dihedral angle
| 14> { D 4  3  2  1   C } # D for Dihedral angle
| 15> { D 3  2  1  0   C } # D for Dihedral angle
| 16> { D 2  1  0  4   C } # D for Dihedral angle
| 17> { D 1  0  4  3   C } # D for Dihedral angle
| 18> { D 16  20  19  18   C } # D for Dihedral angle
| 19> { D 20  19  18  17   C } # D for Dihedral angle
| 20> { D 19  18  17  16   C } # D for Dihedral angle
| 21> { D 18  17  16  20   C } # D for Dihedral angle
| 22> { D 17  16  20  19   C } # D for Dihedral angle
| 23> { D 15  12  16  20   C } # D for Dihedral angle
| 24> end
| 25> end
| 26>
| 27>
| 28> #%pal
| 29> #nprocs 8
| 30> #end
| 31>
| 32> * xyz 0 1
| 33> C  -21.048   26.222   46.251
| 34> C  -20.361   27.558   45.944
| 35> C  -20.329   28.222   47.341
| 36> C  -20.110   27.022   48.296
| 37> O  -20.473   25.807   47.535
| 38> H  -20.833   25.428   45.533
| 39> H  -19.344   27.382   45.576
| 40> H  -20.898   28.157   45.201
| 41> H  -19.543   28.978   47.434
| 42> H  -21.289   28.710   47.548
| 43> H  -20.733   27.082   49.195
| 44> H  -19.064   26.913   48.597
| 45> C  -23.085   27.864   46.420
| 46> H  -22.446   28.443   47.099
| 47> H  -23.027   28.320   45.423
| 48> O  -22.586   26.394   46.375
| 49> C  -24.554   27.986   46.911
| 50> C  -25.049   29.434   46.833
| 51> C  -25.378   29.572   45.327
| 52> C  -25.909   28.166   44.952
| 53> O  -25.455   27.248   46.018
| 54> H  -24.640   27.531   47.900
| 55> H  -25.954   29.556   47.439
| 56> O  -23.994   30.466   47.316
| 57> H  -26.108   30.362   45.123
| 58> H  -24.467   29.804   44.763
| 59> H  -25.523   27.815   43.989
| 60> H  -27.002   28.124   44.934
| 61> H  -23.079   30.364   46.723
| 62> *
| 63>
| 64>                          ****END OF INPUT****
 Total Charge           Charge          ....    0
 Multiplicity           Mult            ....    1
 Number of Electrons    NEL             ....  102
FINAL SINGLE POINT ENERGY      -652.798741256065
FINAL SINGLE POINT ENERGY      -652.827827682333
FINAL SINGLE POINT ENERGY      -652.843359803156
FINAL SINGLE POINT ENERGY      -652.846043185207
FINAL SINGLE POINT ENERGY      -652.846569296805
FINAL SINGLE POINT ENERGY      -652.846723231570
FINAL SINGLE POINT ENERGY      -652.846747225986
FINAL SINGLE POINT ENERGY      -652.846743276443
                    ***********************HURRAY********************

CARTESIAN COORDINATES (ANGSTROEM)
---------------------------------
  C    -21.174631   26.344154   46.366064
  C    -20.151397   27.419034   45.973374
  C    -19.883230   28.127420   47.334537
  C    -19.978475   26.954146   48.343113
  O    -20.695213   25.864409   47.642219
  H    -21.152683   25.468182   45.715492
  H    -19.245352   26.919054   45.616982
  H    -20.501938   28.096394   45.189192
  H    -18.900610   28.609096   47.361766
  H    -20.631730   28.896384   47.540574
  H    -20.524630   27.215702   49.254162
  H    -18.994730   26.562263   48.617245
  C    -23.058799   28.060167   46.397546
  H    -22.545162   28.680022   47.141851
  H    -22.924574   28.516491   45.404945
  O    -22.575889   26.694639   46.383337
  C    -24.534352   28.005168   46.791422
  C    -25.220379   29.380565   46.819140
  C    -25.602781   29.578543   45.320665
  C    -25.949116   28.143507   44.866963
  O    -25.349221   27.225272   45.866430
  H    -24.598463   27.486919   47.752047
  H    -26.117460   29.324465   47.438890
  O    -24.437271   30.455060   47.397995
  H    -26.431847   30.279920   45.193104
  H    -24.736578   29.974140   44.772545
  H    -25.552977   27.901834   43.875846
  H    -27.027813   27.958445   44.868808
  H    -23.783696   30.788608   46.749746

 Multiplicity           Mult            ....    1
 Number of Electrons    NEL             ....  102
 Basis Dimension        Dim             ....  149

ORBITAL ENERGIES
----------------

  NO   OCC          E(Eh)            E(eV)
   0   2.0000     -19.153153      -521.1838
   1   2.0000     -19.137866      -520.7678
   2   2.0000     -19.135918      -520.7148
   3   2.0000     -19.135015      -520.6902
   4   2.0000     -10.276035      -279.6251
   5   2.0000     -10.246507      -278.8216
   6   2.0000     -10.233107      -278.4570
   7   2.0000     -10.230149      -278.3765
   8   2.0000     -10.229723      -278.3649
   9   2.0000     -10.226110      -278.2666
  10   2.0000     -10.198169      -277.5063
  11   2.0000     -10.194855      -277.4161
  12   2.0000     -10.194558      -277.4080
  13   2.0000      -1.047786       -28.5117
  14   2.0000      -1.035011       -28.1641
  15   2.0000      -1.015803       -27.6414
  16   2.0000      -0.992445       -27.0058
  17   2.0000      -0.789381       -21.4801
  18   2.0000      -0.784400       -21.3446
  19   2.0000      -0.772211       -21.0129
  20   2.0000      -0.731881       -19.9155
  21   2.0000      -0.685103       -18.6426
  22   2.0000      -0.613316       -16.6892
  23   2.0000      -0.605671       -16.4811
  24   2.0000      -0.595307       -16.1991
  25   2.0000      -0.571250       -15.5445
  26   2.0000      -0.526059       -14.3148
  27   2.0000      -0.512652       -13.9500
  28   2.0000      -0.501895       -13.6573
  29   2.0000      -0.495884       -13.4937
  30   2.0000      -0.471265       -12.8238
  31   2.0000      -0.460944       -12.5429
  32   2.0000      -0.440519       -11.9871
  33   2.0000      -0.437330       -11.9004
  34   2.0000      -0.429389       -11.6843
  35   2.0000      -0.418347       -11.3838
  36   2.0000      -0.414899       -11.2900
  37   2.0000      -0.402438       -10.9509
  38   2.0000      -0.383327       -10.4309
  39   2.0000      -0.379135       -10.3168
  40   2.0000      -0.362176        -9.8553
  41   2.0000      -0.355921        -9.6851
  42   2.0000      -0.349240        -9.5033
  43   2.0000      -0.330502        -8.9934
  44   2.0000      -0.317303        -8.6343
  45   2.0000      -0.311639        -8.4801
  46   2.0000      -0.288771        -7.8579
  47   2.0000      -0.272997        -7.4286
  48   2.0000      -0.265672        -7.2293
  49   2.0000      -0.248639        -6.7658
  50   2.0000      -0.240230        -6.5370
  51   0.0000       0.044336         1.2064
  52   0.0000       0.068909         1.8751
  53   0.0000       0.083501         2.2722
  54   0.0000       0.091677         2.4947
  55   0.0000       0.098559         2.6819

MULLIKEN ATOMIC CHARGES
-----------------------
   0 C :    0.309448
   1 C :   -0.294642
   2 C :   -0.312133
   3 C :   -0.005845
   4 O :   -0.495159
   5 H :    0.165272
   6 H :    0.158739
   7 H :    0.141674
   8 H :    0.144722
   9 H :    0.147693
  10 H :    0.148063
  11 H :    0.145660
  12 C :   -0.012133
  13 H :    0.135710
  14 H :    0.112123
  15 O :   -0.512564
  16 C :    0.100147
  17 C :    0.080295
  18 C :   -0.330015
  19 C :   -0.008982
  20 O :   -0.500011
  21 H :    0.170412
  22 H :    0.171886
  23 O :   -0.599798
  24 H :    0.160007
  25 H :    0.130676
  26 H :    0.144166
  27 H :    0.150751
  28 H :    0.353835
Sum of atomic charges:   -0.0000000

LOEWDIN ATOMIC CHARGES
----------------------
   0 C :    0.177225
   1 C :   -0.231112
   2 C :   -0.222850
   3 C :   -0.032041
   4 O :   -0.316241
   5 H :    0.110873
   6 H :    0.124248
   7 H :    0.113480
   8 H :    0.115422
   9 H :    0.107047
  10 H :    0.105096
  11 H :    0.103972
  12 C :   -0.049681
  13 H :    0.097406
  14 H :    0.084153
  15 O :   -0.310230
  16 C :    0.023991
  17 C :    0.033655
  18 C :   -0.243033
  19 C :   -0.029784
  20 O :   -0.308739
  21 H :    0.123725
  22 H :    0.121296
  23 O :   -0.408949
  24 H :    0.122894
  25 H :    0.102112
  26 H :    0.103164
  27 H :    0.106424
  28 H :    0.276479

  Mayer bond orders larger than 0.100000
B(  0-C ,  1-C ) :   0.9256 B(  0-C ,  4-O ) :   0.9058 B(  0-C ,  5-H ) :   0.9338
B(  0-C , 15-O ) :   0.8973 B(  1-C ,  2-C ) :   0.9516 B(  1-C ,  6-H ) :   0.9352
B(  1-C ,  7-H ) :   0.9344 B(  2-C ,  3-C ) :   0.9480 B(  2-C ,  8-H ) :   0.9452
B(  2-C ,  9-H ) :   0.9382 B(  3-C ,  4-O ) :   0.8507 B(  3-C , 10-H ) :   0.9339
B(  3-C , 11-H ) :   0.9390 B( 12-C , 13-H ) :   0.8858 B( 12-C , 14-H ) :   0.9185
B( 12-C , 15-O ) :   0.8481 B( 12-C , 16-C ) :   0.9042 B( 16-C , 17-C ) :   0.8723
B( 16-C , 20-O ) :   0.8753 B( 16-C , 21-H ) :   0.9275 B( 17-C , 18-C ) :   0.9272
B( 17-C , 22-H ) :   0.9318 B( 17-C , 23-O ) :   0.8906 B( 18-C , 19-C ) :   0.9388
B( 18-C , 24-H ) :   0.9411 B( 18-C , 25-H ) :   0.9399 B( 19-C , 20-O ) :   0.8533
B( 19-C , 26-H ) :   0.9313 B( 19-C , 27-H ) :   0.9375 B( 23-O , 28-H ) :   0.8000

FINAL SINGLE POINT ENERGY      -652.846742473958

DIPOLE MOMENT
-------------
                                X             Y             Z
Electronic contribution:     -2.96305      -4.54026       1.69679
Nuclear contribution   :      3.66037       6.22819      -2.64920
                        -----------------------------------------
Total Dipole Moment    :      0.69731       1.68793      -0.95241
                        -----------------------------------------
Magnitude (a.u.)       :      2.05972
Magnitude (Debye)      :      5.23540

Rotational constants in cm-1:     0.051425     0.013490     0.012142
Rotational constants in MHz :  1541.672759   404.420020   364.013011

                             ****ORCA TERMINATED NORMALLY****
TOTAL RUN TIME: 0 days 0 hours 30 minutes 13 seconds 52 msec
