                         Program Version 4.2.0 -  RELEASE  -
|  1> # Test redundant internal optimization
|  2> #
|  3> ! RKS B3LYP  Opt TightSCF SmallPrint
|  4>
|  5> %basis
|  6>         Basis "6-31G"
|  7> end
|  8>
|  9> %geom
| 10> Constraints
| 11> { D 4  0  15  12  240.0   C } # D for Dihedral angle
| 12> { D 0  15  12  16  300.0   C } # D for Dihedral angle
| 13> { D 0  4  3  2   C } # D for Dihedral angle
| 14> { D 4  3  2  1   C } # D for Dihedral angle
| 15> { D 3  2  1  0   C } # D for Dihedral angle
| 16> { D 2  1  0  4   C } # D for Dihedral angle
| 17> { D 1  0  4  3   C } # D for Dihedral angle
| 18> { D 16  20  19  18   C } # D for Dihedral angle
| 19> { D 20  19  18  17   C } # D for Dihedral angle
| 20> { D 19  18  17  16   C } # D for Dihedral angle
| 21> { D 18  17  16  20   C } # D for Dihedral angle
| 22> { D 17  16  20  19   C } # D for Dihedral angle
| 23> { D 15  12  16  20   C } # D for Dihedral angle
| 24> end
| 25> end
| 26>
| 27>
| 28> #%pal
| 29> #nprocs 8
| 30> #end
| 31>
| 32> * xyz 0 1
| 33> C  -21.048   26.222   46.251
| 34> C  -20.361   27.558   45.944
| 35> C  -20.329   28.222   47.341
| 36> C  -20.110   27.022   48.296
| 37> O  -20.473   25.807   47.535
| 38> H  -20.833   25.428   45.533
| 39> H  -19.344   27.382   45.576
| 40> H  -20.898   28.157   45.201
| 41> H  -19.543   28.978   47.434
| 42> H  -21.289   28.710   47.548
| 43> H  -20.733   27.082   49.195
| 44> H  -19.064   26.913   48.597
| 45> C  -23.430   25.483   45.442
| 46> H  -23.218   24.432   45.675
| 47> H  -24.502   25.659   45.600
| 48> O  -22.586   26.394   46.375
| 49> C  -23.128   25.720   43.937
| 50> C  -24.057   24.891   43.045
| 51> C  -25.355   25.732   43.075
| 52> C  -24.829   27.188   43.128
| 53> O  -23.420   27.110   43.568
| 54> H  -22.063   25.558   43.755
| 55> O  -23.486   24.816   41.602
| 56> H  -24.205   23.868   43.410
| 57> H  -25.999   25.552   42.208
| 58> H  -25.935   25.498   43.977
| 59> H  -25.391   27.812   43.833
| 60> H  -24.834   27.670   42.146
| 61> H  -23.331   25.830   41.215
| 62> *
| 63>
| 64>                          ****END OF INPUT****
 Total Charge           Charge          ....    0
 Multiplicity           Mult            ....    1
 Number of Electrons    NEL             ....  102
FINAL SINGLE POINT ENERGY      -652.832225837516
FINAL SINGLE POINT ENERGY      -652.855112981831
FINAL SINGLE POINT ENERGY      -652.859302837816
FINAL SINGLE POINT ENERGY      -652.860070200824
FINAL SINGLE POINT ENERGY      -652.860183548380
FINAL SINGLE POINT ENERGY      -652.860192729359
                    ***********************HURRAY********************

CARTESIAN COORDINATES (ANGSTROEM)
---------------------------------
  C    -21.030398   26.196334   46.170100
  C    -20.418089   27.573023   45.917512
  C    -20.438966   28.193440   47.332548
  C    -20.165107   26.981687   48.250196
  O    -20.457464   25.778518   47.428256
  H    -20.776253   25.420444   45.443010
  H    -19.388448   27.455820   45.558015
  H    -20.993950   28.141198   45.183965
  H    -19.696024   28.987165   47.456377
  H    -21.430187   28.610673   47.533634
  H    -20.801889   26.962460   49.138114
  H    -19.116578   26.905544   48.554021
  C    -23.318813   25.525699   45.455837
  H    -23.164961   24.457572   45.681881
  H    -24.334000   25.797967   45.754418
  O    -22.467626   26.341671   46.298724
  C    -23.111911   25.743344   43.952577
  C    -24.067258   24.914629   43.082125
  C    -25.352341   25.784967   43.104635
  C    -24.793969   27.230939   43.124684
  O    -23.379175   27.130226   43.557439
  H    -22.073511   25.540038   43.675343
  O    -23.541258   24.762565   41.735146
  H    -24.226775   23.897897   43.443113
  H    -25.973830   25.577915   42.229991
  H    -25.941232   25.571751   44.003846
  H    -25.332275   27.883200   43.818679
  H    -24.795806   27.697584   42.134468
  H    -23.205904   25.629731   41.423346

 Multiplicity           Mult            ....    1
 Number of Electrons    NEL             ....  102
 Basis Dimension        Dim             ....  149

ORBITAL ENERGIES
----------------

  NO   OCC          E(Eh)            E(eV)
   0   2.0000     -19.148221      -521.0496
   1   2.0000     -19.144684      -520.9533
   2   2.0000     -19.137451      -520.7565
   3   2.0000     -19.132200      -520.6136
   4   2.0000     -10.273955      -279.5685
   5   2.0000     -10.248890      -278.8865
   6   2.0000     -10.240159      -278.6489
   7   2.0000     -10.236577      -278.5514
   8   2.0000     -10.235099      -278.5112
   9   2.0000     -10.218070      -278.0478
  10   2.0000     -10.195903      -277.4446
  11   2.0000     -10.177952      -276.9562
  12   2.0000     -10.175768      -276.8967
  13   2.0000      -1.049055       -28.5462
  14   2.0000      -1.040228       -28.3061
  15   2.0000      -1.011779       -27.5319
  16   2.0000      -0.989394       -26.9228
  17   2.0000      -0.790631       -21.5142
  18   2.0000      -0.778938       -21.1960
  19   2.0000      -0.768764       -20.9191
  20   2.0000      -0.730665       -19.8824
  21   2.0000      -0.675307       -18.3760
  22   2.0000      -0.610723       -16.6186
  23   2.0000      -0.607404       -16.5283
  24   2.0000      -0.590703       -16.0738
  25   2.0000      -0.571542       -15.5524
  26   2.0000      -0.531078       -14.4514
  27   2.0000      -0.514395       -13.9974
  28   2.0000      -0.491624       -13.3778
  29   2.0000      -0.489206       -13.3120
  30   2.0000      -0.472964       -12.8700
  31   2.0000      -0.455337       -12.3903
  32   2.0000      -0.453979       -12.3534
  33   2.0000      -0.442600       -12.0438
  34   2.0000      -0.425688       -11.5836
  35   2.0000      -0.412808       -11.2331
  36   2.0000      -0.400433       -10.8963
  37   2.0000      -0.393923       -10.7192
  38   2.0000      -0.378356       -10.2956
  39   2.0000      -0.369947       -10.0668
  40   2.0000      -0.360000        -9.7961
  41   2.0000      -0.351019        -9.5517
  42   2.0000      -0.346421        -9.4266
  43   2.0000      -0.336335        -9.1522
  44   2.0000      -0.316561        -8.6141
  45   2.0000      -0.310054        -8.4370
  46   2.0000      -0.301879        -8.2145
  47   2.0000      -0.277762        -7.5583
  48   2.0000      -0.266339        -7.2475
  49   2.0000      -0.249333        -6.7847
  50   2.0000      -0.238090        -6.4787
  51   0.0000       0.060405         1.6437
  52   0.0000       0.085096         2.3156
  53   0.0000       0.087936         2.3929
  54   0.0000       0.091833         2.4989
  55   0.0000       0.095690         2.6039

MULLIKEN ATOMIC CHARGES
-----------------------
   0 C :    0.277978
   1 C :   -0.256891
   2 C :   -0.300906
   3 C :   -0.000817
   4 O :   -0.508644
   5 H :    0.139161
   6 H :    0.136844
   7 H :    0.171196
   8 H :    0.138367
   9 H :    0.163648
  10 H :    0.148719
  11 H :    0.138274
  12 C :    0.000206
  13 H :    0.133487
  14 H :    0.150640
  15 O :   -0.506966
  16 C :    0.048897
  17 C :    0.076457
  18 C :   -0.297070
  19 C :   -0.033194
  20 O :   -0.516708
  21 H :    0.161608
  22 O :   -0.600575
  23 H :    0.155587
  24 H :    0.166531
  25 H :    0.146234
  26 H :    0.155484
  27 H :    0.147582
  28 H :    0.364871
Sum of atomic charges:    0.0000000

LOEWDIN ATOMIC CHARGES
----------------------
   0 C :    0.173644
   1 C :   -0.221630
   2 C :   -0.216374
   3 C :   -0.026574
   4 O :   -0.319159
   5 H :    0.096417
   6 H :    0.109764
   7 H :    0.129492
   8 H :    0.112454
   9 H :    0.119934
  10 H :    0.106281
  11 H :    0.100506
  12 C :   -0.038124
  13 H :    0.097668
  14 H :    0.114388
  15 O :   -0.321397
  16 C :   -0.000193
  17 C :    0.036019
  18 C :   -0.240540
  19 C :   -0.038374
  20 O :   -0.328548
  21 H :    0.112628
  22 O :   -0.413301
  23 H :    0.117371
  24 H :    0.128420
  25 H :    0.114232
  26 H :    0.108433
  27 H :    0.103248
  28 H :    0.283316

  Mayer bond orders larger than 0.100000
B(  0-C ,  1-C ) :   0.9412 B(  0-C ,  4-O ) :   0.9228 B(  0-C ,  5-H ) :   0.9172
B(  0-C , 15-O ) :   0.8392 B(  1-C ,  2-C ) :   0.9569 B(  1-C ,  6-H ) :   0.9378
B(  1-C ,  7-H ) :   0.9299 B(  2-C ,  3-C ) :   0.9546 B(  2-C ,  8-H ) :   0.9455
B(  2-C ,  9-H ) :   0.9436 B(  3-C ,  4-O ) :   0.8397 B(  3-C , 10-H ) :   0.9353
B(  3-C , 11-H ) :   0.9400 B( 12-C , 13-H ) :   0.9095 B( 12-C , 14-H ) :   0.9395
B( 12-C , 15-O ) :   0.8688 B( 12-C , 16-C ) :   0.8787 B( 16-C , 17-C ) :   0.8955
B( 16-C , 20-O ) :   0.8576 B( 16-C , 21-H ) :   0.9197 B( 17-C , 18-C ) :   0.9144
B( 17-C , 22-O ) :   0.8920 B( 17-C , 23-H ) :   0.9319 B( 18-C , 19-C ) :   0.9403
B( 18-C , 24-H ) :   0.9366 B( 18-C , 25-H ) :   0.9333 B( 19-C , 20-O ) :   0.8459
B( 19-C , 26-H ) :   0.9330 B( 19-C , 27-H ) :   0.9373 B( 22-O , 28-H ) :   0.7945

FINAL SINGLE POINT ENERGY      -652.860194044358

DIPOLE MOMENT
-------------
                                X             Y             Z
Electronic contribution:      0.55303      -2.74857      -1.06295
Nuclear contribution   :     -1.07952       3.31861       0.78958
                        -----------------------------------------
Total Dipole Moment    :     -0.52649       0.57004      -0.27336
                        -----------------------------------------
Magnitude (a.u.)       :      0.82272
Magnitude (Debye)      :      2.09118

Rotational constants in cm-1:     0.064988     0.012086     0.011652
Rotational constants in MHz :  1948.278984   362.331298   349.324941

                             ****ORCA TERMINATED NORMALLY****
TOTAL RUN TIME: 0 days 2 hours 11 minutes 9 seconds 165 msec
