                         Program Version 4.2.0 -  RELEASE  -
|  1> # Test redundant internal optimization
|  2> #
|  3> ! RKS B3LYP  Opt TightSCF SmallPrint
|  4>
|  5> %basis
|  6>         Basis "6-31G"
|  7> end
|  8>
|  9> %geom
| 10> Constraints
| 11> { D 4  0  15  12  270.0   C } # D for Dihedral angle
| 12> { D 0  15  12  16  225.0   C } # D for Dihedral angle
| 13> { D 0  4  3  2   C } # D for Dihedral angle
| 14> { D 4  3  2  1   C } # D for Dihedral angle
| 15> { D 3  2  1  0   C } # D for Dihedral angle
| 16> { D 2  1  0  4   C } # D for Dihedral angle
| 17> { D 1  0  4  3   C } # D for Dihedral angle
| 18> { D 16  20  19  18   C } # D for Dihedral angle
| 19> { D 20  19  18  17   C } # D for Dihedral angle
| 20> { D 19  18  17  16   C } # D for Dihedral angle
| 21> { D 18  17  16  20   C } # D for Dihedral angle
| 22> { D 17  16  20  19   C } # D for Dihedral angle
| 23> { D 15  12  16  20   C } # D for Dihedral angle
| 24> end
| 25> end
| 26>
| 27>
| 28> #%pal
| 29> #nprocs 8
| 30> #end
| 31>
| 32> * xyz 0 1
| 33> C  -21.048   26.222   46.251
| 34> C  -20.361   27.558   45.944
| 35> C  -20.329   28.222   47.341
| 36> C  -20.110   27.022   48.296
| 37> O  -20.473   25.807   47.535
| 38> H  -20.833   25.428   45.533
| 39> H  -19.344   27.382   45.576
| 40> H  -20.898   28.157   45.201
| 41> H  -19.543   28.978   47.434
| 42> H  -21.289   28.710   47.548
| 43> H  -20.733   27.082   49.195
| 44> H  -19.064   26.913   48.597
| 45> C  -23.420   25.119   46.072
| 46> H  -22.782   24.380   45.571
| 47> H  -23.793   24.674   47.004
| 48> O  -22.586   26.394   46.375
| 49> C  -24.645   25.405   45.160
| 50> C  -24.205   25.872   43.768
| 51> C  -23.822   24.532   43.095
| 52> C  -24.846   23.534   43.691
| 53> O  -25.394   24.170   44.907
| 54> H  -25.321   26.090   45.675
| 55> H  -25.047   26.340   43.246
| 56> O  -23.029   26.885   43.807
| 57> H  -23.870   24.578   42.002
| 58> H  -22.799   24.251   43.373
| 59> H  -24.388   22.576   43.961
| 60> H  -25.686   23.346   43.017
| 61> H  -22.175   26.437   44.326
| 62> *
| 63>
| 64>                          ****END OF INPUT****
 Total Charge           Charge          ....    0
 Multiplicity           Mult            ....    1
 Number of Electrons    NEL             ....  102
FINAL SINGLE POINT ENERGY      -652.824881160074
FINAL SINGLE POINT ENERGY      -652.851469103110
FINAL SINGLE POINT ENERGY      -652.858094890887
FINAL SINGLE POINT ENERGY      -652.860723621417
FINAL SINGLE POINT ENERGY      -652.861774561274
FINAL SINGLE POINT ENERGY      -652.862813160692
FINAL SINGLE POINT ENERGY      -652.863916044965
FINAL SINGLE POINT ENERGY      -652.864731618809
FINAL SINGLE POINT ENERGY      -652.865281334212
FINAL SINGLE POINT ENERGY      -652.865286562410
FINAL SINGLE POINT ENERGY      -652.865658881051
FINAL SINGLE POINT ENERGY      -652.865712956714
FINAL SINGLE POINT ENERGY      -652.865720522661
FINAL SINGLE POINT ENERGY      -652.865722837284
                    ***********************HURRAY********************

CARTESIAN COORDINATES (ANGSTROEM)
---------------------------------
  C    -21.035101   26.113690   46.252196
  C    -20.394518   27.459719   45.915334
  C    -20.419644   28.178252   47.286288
  C    -20.178411   27.024594   48.283872
  O    -20.484663   25.776320   47.538802
  H    -20.802541   25.289905   45.572688
  H    -19.363877   27.282440   45.587259
  H    -20.914173   28.003531   45.124268
  H    -19.659616   28.961501   47.363433
  H    -21.401941   28.632194   47.447802
  H    -20.824174   27.073962   49.163877
  H    -19.135127   26.948290   48.603294
  C    -23.312111   25.104846   46.105939
  H    -22.693788   24.304911   45.678154
  H    -23.704449   24.756881   47.065024
  O    -22.479341   26.299264   46.329787
  C    -24.477119   25.442820   45.166901
  C    -24.089414   25.882138   43.746153
  C    -23.791953   24.516336   43.064424
  C    -24.818844   23.567791   43.718829
  O    -25.282267   24.241083   44.964753
  H    -25.127398   26.176851   45.653411
  H    -24.962604   26.348806   43.272698
  O    -22.968949   26.791749   43.667388
  H    -23.895761   24.567891   41.976929
  H    -22.759663   24.231437   43.291736
  H    -24.399881   22.591320   43.979983
  H    -25.706912   23.415793   43.098461
  H    -22.748759   27.079682   44.581319

 Multiplicity           Mult            ....    1
 Number of Electrons    NEL             ....  102
 Basis Dimension        Dim             ....  149

ORBITAL ENERGIES
----------------

  NO   OCC          E(Eh)            E(eV)
   0   2.0000     -19.161873      -521.4211
   1   2.0000     -19.145869      -520.9856
   2   2.0000     -19.143355      -520.9172
   3   2.0000     -19.125690      -520.4365
   4   2.0000     -10.289271      -279.9853
   5   2.0000     -10.236659      -278.5536
   6   2.0000     -10.236416      -278.5471
   7   2.0000     -10.236102      -278.5385
   8   2.0000     -10.229760      -278.3659
   9   2.0000     -10.229695      -278.3642
  10   2.0000     -10.192740      -277.3586
  11   2.0000     -10.190528      -277.2984
  12   2.0000     -10.184450      -277.1330
  13   2.0000      -1.062823       -28.9209
  14   2.0000      -1.029891       -28.0248
  15   2.0000      -1.008552       -27.4441
  16   2.0000      -0.998877       -27.1808
  17   2.0000      -0.794666       -21.6240
  18   2.0000      -0.775915       -21.1137
  19   2.0000      -0.769419       -20.9370
  20   2.0000      -0.735069       -20.0022
  21   2.0000      -0.679707       -18.4958
  22   2.0000      -0.606209       -16.4958
  23   2.0000      -0.601458       -16.3665
  24   2.0000      -0.595318       -16.1994
  25   2.0000      -0.584170       -15.8961
  26   2.0000      -0.525757       -14.3066
  27   2.0000      -0.523508       -14.2454
  28   2.0000      -0.499220       -13.5845
  29   2.0000      -0.492035       -13.3889
  30   2.0000      -0.471318       -12.8252
  31   2.0000      -0.459583       -12.5059
  32   2.0000      -0.442230       -12.0337
  33   2.0000      -0.438096       -11.9212
  34   2.0000      -0.432371       -11.7654
  35   2.0000      -0.420489       -11.4421
  36   2.0000      -0.406519       -11.0620
  37   2.0000      -0.390021       -10.6130
  38   2.0000      -0.380709       -10.3596
  39   2.0000      -0.370333       -10.0773
  40   2.0000      -0.362374        -9.8607
  41   2.0000      -0.355738        -9.6801
  42   2.0000      -0.352521        -9.5926
  43   2.0000      -0.341694        -9.2980
  44   2.0000      -0.331529        -9.0214
  45   2.0000      -0.313170        -8.5218
  46   2.0000      -0.297197        -8.0872
  47   2.0000      -0.279407        -7.6031
  48   2.0000      -0.265540        -7.2257
  49   2.0000      -0.255426        -6.9505
  50   2.0000      -0.243959        -6.6385
  51   0.0000       0.054513         1.4834
  52   0.0000       0.071018         1.9325
  53   0.0000       0.091504         2.4899
  54   0.0000       0.096087         2.6147
  55   0.0000       0.108985         2.9656

MULLIKEN ATOMIC CHARGES
-----------------------
   0 C :    0.285436
   1 C :   -0.278078
   2 C :   -0.299223
   3 C :   -0.002295
   4 O :   -0.505746
   5 H :    0.154756
   6 H :    0.155001
   7 H :    0.161565
   8 H :    0.145789
   9 H :    0.162789
  10 H :    0.152567
  11 H :    0.145241
  12 C :    0.001869
  13 H :    0.136461
  14 H :    0.169887
  15 O :   -0.548223
  16 C :    0.039072
  17 C :    0.117911
  18 C :   -0.301134
  19 C :   -0.021858
  20 O :   -0.518496
  21 H :    0.161056
  22 H :    0.143219
  23 O :   -0.647977
  24 H :    0.156879
  25 H :    0.145486
  26 H :    0.145352
  27 H :    0.151232
  28 H :    0.391464
Sum of atomic charges:   -0.0000000

LOEWDIN ATOMIC CHARGES
----------------------
   0 C :    0.172941
   1 C :   -0.218233
   2 C :   -0.216213
   3 C :   -0.026071
   4 O :   -0.319645
   5 H :    0.103213
   6 H :    0.119717
   7 H :    0.123439
   8 H :    0.115942
   9 H :    0.119191
  10 H :    0.108555
  11 H :    0.104360
  12 C :   -0.038335
  13 H :    0.100946
  14 H :    0.118828
  15 O :   -0.340976
  16 C :    0.012417
  17 C :    0.040457
  18 C :   -0.232214
  19 C :   -0.032135
  20 O :   -0.320637
  21 H :    0.114688
  22 H :    0.101111
  23 O :   -0.436978
  24 H :    0.122920
  25 H :    0.111511
  26 H :    0.103536
  27 H :    0.106781
  28 H :    0.280885

  Mayer bond orders larger than 0.100000
B(  0-C ,  1-C ) :   0.9470 B(  0-C ,  4-O ) :   0.9299 B(  0-C ,  5-H ) :   0.9150
B(  0-C , 15-O ) :   0.8118 B(  1-C ,  2-C ) :   0.9527 B(  1-C ,  6-H ) :   0.9383
B(  1-C ,  7-H ) :   0.9305 B(  2-C ,  3-C ) :   0.9539 B(  2-C ,  8-H ) :   0.9449
B(  2-C ,  9-H ) :   0.9444 B(  3-C ,  4-O ) :   0.8327 B(  3-C , 10-H ) :   0.9351
B(  3-C , 11-H ) :   0.9400 B( 12-C , 13-H ) :   0.9211 B( 12-C , 14-H ) :   0.9285
B( 12-C , 15-O ) :   0.7922 B( 12-C , 16-C ) :   0.9034 B( 16-C , 17-C ) :   0.9158
B( 16-C , 20-O ) :   0.8565 B( 16-C , 21-H ) :   0.9286 B( 17-C , 18-C ) :   0.9141
B( 17-C , 22-H ) :   0.9247 B( 17-C , 23-O ) :   0.9179 B( 18-C , 19-C ) :   0.9409
B( 18-C , 24-H ) :   0.9432 B( 18-C , 25-H ) :   0.9419 B( 19-C , 20-O ) :   0.8330
B( 19-C , 26-H ) :   0.9336 B( 19-C , 27-H ) :   0.9378 B( 23-O , 28-H ) :   0.7168

FINAL SINGLE POINT ENERGY      -652.865722967342

DIPOLE MOMENT
-------------
                                X             Y             Z
Electronic contribution:     -2.64404      -1.28635       1.11883
Nuclear contribution   :      3.18375       1.52457      -1.13516
                        -----------------------------------------
Total Dipole Moment    :      0.53971       0.23822      -0.01632
                        -----------------------------------------
Magnitude (a.u.)       :      0.59017
Magnitude (Debye)      :      1.50010

Rotational constants in cm-1:     0.061761     0.013565     0.012407
Rotational constants in MHz :  1851.544330   406.665543   371.955536

                             ****ORCA TERMINATED NORMALLY****
TOTAL RUN TIME: 0 days 0 hours 40 minutes 32 seconds 704 msec
