                         Program Version 4.2.0 -  RELEASE  -
|  1> # Test redundant internal optimization
|  2> #
|  3> ! RKS B3LYP  Opt TightSCF SmallPrint
|  4>
|  5> %basis
|  6>         Basis "6-31G"
|  7> end
|  8>
|  9> %geom
| 10> Constraints
| 11> { D 4  0  15  12  165.0   C } # D for Dihedral angle
| 12> { D 0  15  12  16  165.0   C } # D for Dihedral angle
| 13> { D 0  4  3  2   C } # D for Dihedral angle
| 14> { D 4  3  2  1   C } # D for Dihedral angle
| 15> { D 3  2  1  0   C } # D for Dihedral angle
| 16> { D 2  1  0  4   C } # D for Dihedral angle
| 17> { D 1  0  4  3   C } # D for Dihedral angle
| 18> { D 16  20  19  18   C } # D for Dihedral angle
| 19> { D 20  19  18  17   C } # D for Dihedral angle
| 20> { D 19  18  17  16   C } # D for Dihedral angle
| 21> { D 18  17  16  20   C } # D for Dihedral angle
| 22> { D 17  16  20  19   C } # D for Dihedral angle
| 23> { D 15  12  16  20   C } # D for Dihedral angle
| 24> end
| 25> end
| 26>
| 27>
| 28> #%pal
| 29> #nprocs 8
| 30> #end
| 31>
| 32> * xyz 0 1
| 33> C  -21.048   26.222   46.251
| 34> C  -20.361   27.558   45.944
| 35> C  -20.329   28.222   47.341
| 36> C  -20.110   27.022   48.296
| 37> O  -20.473   25.807   47.535
| 38> H  -20.833   25.428   45.533
| 39> H  -19.344   27.382   45.576
| 40> H  -20.898   28.157   45.201
| 41> H  -19.543   28.978   47.434
| 42> H  -21.289   28.710   47.548
| 43> H  -20.733   27.082   49.195
| 44> H  -19.064   26.913   48.597
| 45> C  -23.260   27.170   45.210
| 46> H  -23.035   28.239   45.310
| 47> H  -22.870   26.826   44.244
| 48> O  -22.586   26.394   46.375
| 49> C  -24.804   26.996   45.187
| 50> C  -25.422   27.678   43.961
| 51> C  -25.133   26.643   42.848
| 52> C  -25.268   25.287   43.584
| 53> O  -25.158   25.581   45.029
| 54> H  -25.216   27.325   46.143
| 55> O  -26.952   27.854   44.164
| 56> H  -24.986   28.661   43.751
| 57> H  -25.822   26.728   42.000
| 58> H  -24.114   26.776   42.465
| 59> H  -24.483   24.577   43.302
| 60> H  -26.244   24.820   43.424
| 61> H  -27.409   26.881   44.376
| 62> *
| 63>
| 64>                          ****END OF INPUT****
 Total Charge           Charge          ....    0
 Multiplicity           Mult            ....    1
 Number of Electrons    NEL             ....  102
FINAL SINGLE POINT ENERGY      -652.826644352019
FINAL SINGLE POINT ENERGY      -652.849954332588
FINAL SINGLE POINT ENERGY      -652.854162213106
FINAL SINGLE POINT ENERGY      -652.854917533223
FINAL SINGLE POINT ENERGY      -652.855023778856
FINAL SINGLE POINT ENERGY      -652.855035592339
                    ***********************HURRAY********************

CARTESIAN COORDINATES (ANGSTROEM)
---------------------------------
  C    -21.082244   26.266536   46.168287
  C    -20.294152   27.557161   45.948405
  C    -20.392701   28.237677   47.338235
  C    -20.356312   27.036063   48.305135
  O    -20.696291   25.847349   47.483003
  H    -20.845020   25.451475   45.477313
  H    -19.254599   27.295588   45.718877
  H    -20.668690   28.182859   45.134050
  H    -19.576611   28.944108   47.516765
  H    -21.341037   28.777614   47.426174
  H    -21.080688   27.115224   49.119449
  H    -19.360484   26.854588   48.720056
  C    -23.122850   27.198002   45.099191
  H    -22.934297   28.278566   45.196362
  H    -22.705063   26.863715   44.136289
  O    -22.529328   26.462440   46.194757
  C    -24.629317   26.951178   45.142380
  C    -25.410999   27.637431   44.012890
  C    -25.239426   26.625192   42.849597
  C    -25.251992   25.255870   43.573602
  O    -24.968700   25.534195   45.002149
  H    -24.999725   27.255994   46.125618
  O    -26.807681   27.804685   44.378174
  H    -25.055138   28.639764   43.769754
  H    -26.047939   26.733682   42.122140
  H    -24.287897   26.795329   42.332871
  H    -24.496247   24.564753   43.187830
  H    -26.228739   24.763790   43.527656
  H    -27.122830   26.986175   44.816992

 Multiplicity           Mult            ....    1
 Number of Electrons    NEL             ....  102
 Basis Dimension        Dim             ....  149

ORBITAL ENERGIES
----------------

  NO   OCC          E(Eh)            E(eV)
   0   2.0000     -19.140571      -520.8414
   1   2.0000     -19.139782      -520.8199
   2   2.0000     -19.139252      -520.8055
   3   2.0000     -19.138196      -520.7768
   4   2.0000     -10.279361      -279.7156
   5   2.0000     -10.244792      -278.7750
   6   2.0000     -10.236599      -278.5520
   7   2.0000     -10.235091      -278.5110
   8   2.0000     -10.230668      -278.3906
   9   2.0000     -10.225344      -278.2458
  10   2.0000     -10.191622      -277.3281
  11   2.0000     -10.191185      -277.3162
  12   2.0000     -10.190368      -277.2940
  13   2.0000      -1.053506       -28.6673
  14   2.0000      -1.036951       -28.2169
  15   2.0000      -1.007330       -27.4108
  16   2.0000      -0.992613       -27.0104
  17   2.0000      -0.789324       -21.4786
  18   2.0000      -0.785676       -21.3793
  19   2.0000      -0.769785       -20.9469
  20   2.0000      -0.732601       -19.9351
  21   2.0000      -0.678326       -18.4582
  22   2.0000      -0.605852       -16.4861
  23   2.0000      -0.604292       -16.4436
  24   2.0000      -0.592623       -16.1261
  25   2.0000      -0.581213       -15.8156
  26   2.0000      -0.527075       -14.3424
  27   2.0000      -0.511352       -13.9146
  28   2.0000      -0.495757       -13.4902
  29   2.0000      -0.495250       -13.4764
  30   2.0000      -0.477835       -13.0026
  31   2.0000      -0.462410       -12.5828
  32   2.0000      -0.451848       -12.2954
  33   2.0000      -0.447701       -12.1826
  34   2.0000      -0.422708       -11.5025
  35   2.0000      -0.414938       -11.2910
  36   2.0000      -0.399808       -10.8793
  37   2.0000      -0.394903       -10.7459
  38   2.0000      -0.377877       -10.2825
  39   2.0000      -0.373458       -10.1623
  40   2.0000      -0.366512        -9.9733
  41   2.0000      -0.359097        -9.7715
  42   2.0000      -0.353722        -9.6253
  43   2.0000      -0.333655        -9.0792
  44   2.0000      -0.313332        -8.5262
  45   2.0000      -0.306749        -8.3471
  46   2.0000      -0.299157        -8.1405
  47   2.0000      -0.272573        -7.4171
  48   2.0000      -0.259810        -7.0698
  49   2.0000      -0.251854        -6.8533
  50   2.0000      -0.244084        -6.6419
  51   0.0000       0.062259         1.6942
  52   0.0000       0.078123         2.1258
  53   0.0000       0.084516         2.2998
  54   0.0000       0.098376         2.6769
  55   0.0000       0.105987         2.8841

MULLIKEN ATOMIC CHARGES
-----------------------
   0 C :    0.314832
   1 C :   -0.292695
   2 C :   -0.298952
   3 C :    0.000133
   4 O :   -0.497553
   5 H :    0.145512
   6 H :    0.151188
   7 H :    0.140441
   8 H :    0.144205
   9 H :    0.155416
  10 H :    0.156285
  11 H :    0.142629
  12 C :   -0.003377
  13 H :    0.126440
  14 H :    0.118312
  15 O :   -0.502542
  16 C :    0.071179
  17 C :    0.077393
  18 C :   -0.294500
  19 C :   -0.032279
  20 O :   -0.505245
  21 H :    0.170863
  22 O :   -0.602495
  23 H :    0.147358
  24 H :    0.164764
  25 H :    0.139037
  26 H :    0.149633
  27 H :    0.147068
  28 H :    0.366949
Sum of atomic charges:    0.0000000

LOEWDIN ATOMIC CHARGES
----------------------
   0 C :    0.183847
   1 C :   -0.235653
   2 C :   -0.217011
   3 C :   -0.025194
   4 O :   -0.300249
   5 H :    0.099502
   6 H :    0.118195
   7 H :    0.112196
   8 H :    0.115244
   9 H :    0.114538
  10 H :    0.110494
  11 H :    0.102993
  12 C :   -0.044893
  13 H :    0.091458
  14 H :    0.087983
  15 O :   -0.323799
  16 C :    0.019783
  17 C :    0.035389
  18 C :   -0.241569
  19 C :   -0.039406
  20 O :   -0.316395
  21 H :    0.122292
  22 O :   -0.414034
  23 H :    0.113387
  24 H :    0.127401
  25 H :    0.110376
  26 H :    0.105452
  27 H :    0.103033
  28 H :    0.284642

  Mayer bond orders larger than 0.100000
B(  0-C ,  1-C ) :   0.9267 B(  0-C ,  4-O ) :   0.9399 B(  0-C ,  5-H ) :   0.9211
B(  0-C , 15-O ) :   0.8355 B(  1-C ,  2-C ) :   0.9509 B(  1-C ,  6-H ) :   0.9339
B(  1-C ,  7-H ) :   0.9293 B(  2-C ,  3-C ) :   0.9548 B(  2-C ,  8-H ) :   0.9451
B(  2-C ,  9-H ) :   0.9451 B(  3-C ,  4-O ) :   0.8365 B(  3-C , 10-H ) :   0.9340
B(  3-C , 11-H ) :   0.9396 B( 12-C , 13-H ) :   0.9036 B( 12-C , 14-H ) :   0.9139
B( 12-C , 15-O ) :   0.8515 B( 12-C , 16-C ) :   0.8959 B( 16-C , 17-C ) :   0.9000
B( 16-C , 20-O ) :   0.8708 B( 16-C , 21-H ) :   0.9230 B( 17-C , 18-C ) :   0.9112
B( 17-C , 22-O ) :   0.8940 B( 17-C , 23-H ) :   0.9333 B( 18-C , 19-C ) :   0.9399
B( 18-C , 24-H ) :   0.9373 B( 18-C , 25-H ) :   0.9343 B( 19-C , 20-O ) :   0.8528
B( 19-C , 26-H ) :   0.9335 B( 19-C , 27-H ) :   0.9370 B( 22-O , 28-H ) :   0.7929

FINAL SINGLE POINT ENERGY      -652.855037453002

DIPOLE MOMENT
-------------
                                X             Y             Z
Electronic contribution:     -3.50669      -3.60993       2.45459
Nuclear contribution   :      4.33845       4.49202      -3.46663
                        -----------------------------------------
Total Dipole Moment    :      0.83176       0.88209      -1.01204
                        -----------------------------------------
Magnitude (a.u.)       :      1.57928
Magnitude (Debye)      :      4.01421

Rotational constants in cm-1:     0.064462     0.011470     0.011034
Rotational constants in MHz :  1932.522354   343.854029   330.785205

                             ****ORCA TERMINATED NORMALLY****
TOTAL RUN TIME: 0 days 2 hours 6 minutes 4 seconds 910 msec
