                         Program Version 4.2.0 -  RELEASE  -
|  1> # Test redundant internal optimization
|  2> #
|  3> ! RKS B3LYP  Opt TightSCF SmallPrint
|  4>
|  5> %basis
|  6>         Basis "6-31G"
|  7> end
|  8>
|  9> %geom
| 10> Constraints
| 11> { D 4  0  15  12  105.0   C } # D for Dihedral angle
| 12> { D 0  15  12  16  210.0   C } # D for Dihedral angle
| 13> { D 0  4  3  2   C } # D for Dihedral angle
| 14> { D 4  3  2  1   C } # D for Dihedral angle
| 15> { D 3  2  1  0   C } # D for Dihedral angle
| 16> { D 2  1  0  4   C } # D for Dihedral angle
| 17> { D 1  0  4  3   C } # D for Dihedral angle
| 18> { D 16  20  19  18   C } # D for Dihedral angle
| 19> { D 20  19  18  17   C } # D for Dihedral angle
| 20> { D 19  18  17  16   C } # D for Dihedral angle
| 21> { D 18  17  16  20   C } # D for Dihedral angle
| 22> { D 17  16  20  19   C } # D for Dihedral angle
| 23> { D 15  12  16  20   C } # D for Dihedral angle
| 24> end
| 25> end
| 26>
| 27>
| 28> #%pal
| 29> #nprocs 8
| 30> #end
| 31>
| 32> * xyz 0 1
| 33> C  -21.048   26.222   46.251
| 34> C  -20.361   27.558   45.944
| 35> C  -20.329   28.222   47.341
| 36> C  -20.110   27.022   48.296
| 37> O  -20.473   25.807   47.535
| 38> H  -20.833   25.428   45.533
| 39> H  -19.344   27.382   45.576
| 40> H  -20.898   28.157   45.201
| 41> H  -19.543   28.978   47.434
| 42> H  -21.289   28.710   47.548
| 43> H  -20.733   27.082   49.195
| 44> H  -19.064   26.913   48.597
| 45> C  -23.085   27.864   46.420
| 46> H  -22.309   28.496   46.872
| 47> H  -23.280   28.235   45.406
| 48> O  -22.586   26.394   46.375
| 49> C  -24.391   28.030   47.245
| 50> C  -24.916   29.468   47.172
| 51> C  -25.606   29.481   45.787
| 52> C  -26.187   28.050   45.670
| 53> O  -25.469   27.223   46.664
| 54> H  -24.224   27.661   48.258
| 55> H  -25.647   29.644   47.969
| 56> O  -23.794   30.535   47.295
| 57> H  -26.378   30.253   45.704
| 58> H  -24.865   29.662   44.999
| 59> H  -26.043   27.618   44.674
| 60> H  -27.250   28.009   45.924
| 61> H  -23.050   30.381   46.506
| 62> *
| 63>
| 64>                          ****END OF INPUT****
 Total Charge           Charge          ....    0
 Multiplicity           Mult            ....    1
 Number of Electrons    NEL             ....  102
FINAL SINGLE POINT ENERGY      -652.796781618425
FINAL SINGLE POINT ENERGY      -652.826603528634
FINAL SINGLE POINT ENERGY      -652.842058301388
FINAL SINGLE POINT ENERGY      -652.844910510747
FINAL SINGLE POINT ENERGY      -652.845495176291
FINAL SINGLE POINT ENERGY      -652.845638305756
FINAL SINGLE POINT ENERGY      -652.845661520407
FINAL SINGLE POINT ENERGY      -652.845654883168
FINAL SINGLE POINT ENERGY      -652.845651721229
                    ***********************HURRAY********************

CARTESIAN COORDINATES (ANGSTROEM)
---------------------------------
  C    -21.168762   26.340526   46.373511
  C    -20.143834   27.409001   45.965636
  C    -19.872306   28.135811   47.318001
  C    -19.968632   26.974456   48.340699
  O    -20.687720   25.877734   47.654925
  H    -21.145489   25.455678   45.734926
  H    -19.238374   26.903987   45.615324
  H    -20.496058   28.076261   45.173378
  H    -18.887249   28.613014   47.337049
  H    -20.615311   28.911233   47.518791
  H    -20.512849   27.248729   49.249193
  H    -18.985236   26.584394   48.618643
  C    -23.071714   28.049474   46.378348
  H    -22.409426   28.748683   46.897599
  H    -23.189562   28.385668   45.337847
  O    -22.570571   26.688372   46.382759
  C    -24.409629   28.052406   47.117710
  C    -25.087227   29.431808   47.162867
  C    -25.820278   29.475455   45.788117
  C    -26.245800   28.004287   45.585548
  O    -25.412599   27.189517   46.502520
  H    -24.236738   27.640713   48.115482
  H    -25.809770   29.452792   47.981887
  O    -24.199369   30.549926   47.421867
  H    -26.665772   30.168554   45.789792
  H    -25.117604   29.798643   45.008227
  H    -26.094801   27.655446   44.558977
  H    -27.290364   27.833608   45.864237
  H    -23.751955   30.828825   46.597138

 Multiplicity           Mult            ....    1
 Number of Electrons    NEL             ....  102
 Basis Dimension        Dim             ....  149

ORBITAL ENERGIES
----------------

  NO   OCC          E(Eh)            E(eV)
   0   2.0000     -19.153063      -521.1813
   1   2.0000     -19.136595      -520.7332
   2   2.0000     -19.135237      -520.6963
   3   2.0000     -19.134425      -520.6742
   4   2.0000     -10.275785      -279.6183
   5   2.0000     -10.246549      -278.8228
   6   2.0000     -10.231693      -278.4185
   7   2.0000     -10.229670      -278.3635
   8   2.0000     -10.228908      -278.3427
   9   2.0000     -10.225398      -278.2472
  10   2.0000     -10.198022      -277.5023
  11   2.0000     -10.194296      -277.4009
  12   2.0000     -10.193800      -277.3874
  13   2.0000      -1.046646       -28.4807
  14   2.0000      -1.034772       -28.1576
  15   2.0000      -1.015413       -27.6308
  16   2.0000      -0.991422       -26.9780
  17   2.0000      -0.788402       -21.4535
  18   2.0000      -0.784274       -21.3412
  19   2.0000      -0.771507       -20.9938
  20   2.0000      -0.731479       -19.9046
  21   2.0000      -0.684546       -18.6274
  22   2.0000      -0.613211       -16.6863
  23   2.0000      -0.605258       -16.4699
  24   2.0000      -0.594912       -16.1884
  25   2.0000      -0.569834       -15.5060
  26   2.0000      -0.524616       -14.2755
  27   2.0000      -0.514118       -13.9899
  28   2.0000      -0.502107       -13.6630
  29   2.0000      -0.495735       -13.4896
  30   2.0000      -0.468504       -12.7486
  31   2.0000      -0.459228       -12.4962
  32   2.0000      -0.440507       -11.9868
  33   2.0000      -0.435806       -11.8589
  34   2.0000      -0.429940       -11.6993
  35   2.0000      -0.417952       -11.3731
  36   2.0000      -0.415955       -11.3187
  37   2.0000      -0.400917       -10.9095
  38   2.0000      -0.382434       -10.4066
  39   2.0000      -0.378531       -10.3003
  40   2.0000      -0.361730        -9.8432
  41   2.0000      -0.356319        -9.6959
  42   2.0000      -0.348068        -9.4714
  43   2.0000      -0.329573        -8.9681
  44   2.0000      -0.317974        -8.6525
  45   2.0000      -0.310471        -8.4483
  46   2.0000      -0.286551        -7.7974
  47   2.0000      -0.273054        -7.4302
  48   2.0000      -0.265934        -7.2364
  49   2.0000      -0.248536        -6.7630
  50   2.0000      -0.238118        -6.4795
  51   0.0000       0.045241         1.2311
  52   0.0000       0.071032         1.9329
  53   0.0000       0.084181         2.2907
  54   0.0000       0.091107         2.4791
  55   0.0000       0.099795         2.7156

MULLIKEN ATOMIC CHARGES
-----------------------
   0 C :    0.309771
   1 C :   -0.295912
   2 C :   -0.316078
   3 C :   -0.005220
   4 O :   -0.495375
   5 H :    0.164049
   6 H :    0.158934
   7 H :    0.141834
   8 H :    0.144653
   9 H :    0.155972
  10 H :    0.147762
  11 H :    0.145531
  12 C :   -0.013961
  13 H :    0.131602
  14 H :    0.117238
  15 O :   -0.512224
  16 C :    0.101286
  17 C :    0.078341
  18 C :   -0.329424
  19 C :   -0.006412
  20 O :   -0.499685
  21 H :    0.167763
  22 H :    0.171105
  23 O :   -0.601104
  24 H :    0.159980
  25 H :    0.130697
  26 H :    0.145170
  27 H :    0.149318
  28 H :    0.354389
Sum of atomic charges:   -0.0000000

LOEWDIN ATOMIC CHARGES
----------------------
   0 C :    0.177810
   1 C :   -0.231582
   2 C :   -0.223697
   3 C :   -0.031989
   4 O :   -0.316221
   5 H :    0.110084
   6 H :    0.124406
   7 H :    0.113656
   8 H :    0.115446
   9 H :    0.109243
  10 H :    0.104876
  11 H :    0.103856
  12 C :   -0.050009
  13 H :    0.098548
  14 H :    0.087376
  15 O :   -0.311624
  16 C :    0.023054
  17 C :    0.032736
  18 C :   -0.242654
  19 C :   -0.028978
  20 O :   -0.308492
  21 H :    0.122569
  22 H :    0.120557
  23 O :   -0.410328
  24 H :    0.122890
  25 H :    0.102259
  26 H :    0.103441
  27 H :    0.105928
  28 H :    0.276837

  Mayer bond orders larger than 0.100000
B(  0-C ,  1-C ) :   0.9249 B(  0-C ,  4-O ) :   0.9050 B(  0-C ,  5-H ) :   0.9342
B(  0-C , 15-O ) :   0.8995 B(  1-C ,  2-C ) :   0.9519 B(  1-C ,  6-H ) :   0.9350
B(  1-C ,  7-H ) :   0.9349 B(  2-C ,  3-C ) :   0.9467 B(  2-C ,  8-H ) :   0.9451
B(  2-C ,  9-H ) :   0.9353 B(  3-C ,  4-O ) :   0.8508 B(  3-C , 10-H ) :   0.9339
B(  3-C , 11-H ) :   0.9391 B( 12-C , 13-H ) :   0.8846 B( 12-C , 14-H ) :   0.9231
B( 12-C , 15-O ) :   0.8478 B( 12-C , 16-C ) :   0.9048 B( 16-C , 17-C ) :   0.8694
B( 16-C , 20-O ) :   0.8761 B( 16-C , 21-H ) :   0.9283 B( 17-C , 18-C ) :   0.9280
B( 17-C , 22-H ) :   0.9323 B( 17-C , 23-O ) :   0.8898 B( 18-C , 19-C ) :   0.9386
B( 18-C , 24-H ) :   0.9406 B( 18-C , 25-H ) :   0.9402 B( 19-C , 20-O ) :   0.8517
B( 19-C , 26-H ) :   0.9317 B( 19-C , 27-H ) :   0.9375 B( 23-O , 28-H ) :   0.8001

FINAL SINGLE POINT ENERGY      -652.845651705783

DIPOLE MOMENT
-------------
                                X             Y             Z
Electronic contribution:     -2.47839      -4.32074       1.74323
Nuclear contribution   :      2.98351       5.95984      -2.75689
                        -----------------------------------------
Total Dipole Moment    :      0.50512       1.63910      -1.01366
                        -----------------------------------------
Magnitude (a.u.)       :      1.99231
Magnitude (Debye)      :      5.06404

Rotational constants in cm-1:     0.051251     0.013696     0.012252
Rotational constants in MHz :  1536.463817   410.591041   367.298294

                             ****ORCA TERMINATED NORMALLY****
TOTAL RUN TIME: 0 days 0 hours 29 minutes 47 seconds 708 msec
