                         Program Version 4.2.0 -  RELEASE  -
|  1> # Test redundant internal optimization
|  2> #
|  3> ! RKS B3LYP  Opt TightSCF SmallPrint
|  4>
|  5> %basis
|  6>         Basis "6-31G"
|  7> end
|  8>
|  9> %geom
| 10> Constraints
| 11> { D 4  0  15  12  135.0   C } # D for Dihedral angle
| 12> { D 0  15  12  16  210.0   C } # D for Dihedral angle
| 13> { D 0  4  3  2   C } # D for Dihedral angle
| 14> { D 4  3  2  1   C } # D for Dihedral angle
| 15> { D 3  2  1  0   C } # D for Dihedral angle
| 16> { D 2  1  0  4   C } # D for Dihedral angle
| 17> { D 1  0  4  3   C } # D for Dihedral angle
| 18> { D 16  20  19  18   C } # D for Dihedral angle
| 19> { D 20  19  18  17   C } # D for Dihedral angle
| 20> { D 19  18  17  16   C } # D for Dihedral angle
| 21> { D 18  17  16  20   C } # D for Dihedral angle
| 22> { D 17  16  20  19   C } # D for Dihedral angle
| 23> { D 15  12  16  20   C } # D for Dihedral angle
| 24> end
| 25> end
| 26>
| 27>
| 28> #%pal
| 29> #nprocs 8
| 30> #end
| 31>
| 32> * xyz 0 1
| 33> C  -21.048   26.222   46.251
| 34> C  -20.361   27.558   45.944
| 35> C  -20.329   28.222   47.341
| 36> C  -20.110   27.022   48.296
| 37> O  -20.473   25.807   47.535
| 38> H  -20.833   25.428   45.533
| 39> H  -19.344   27.382   45.576
| 40> H  -20.898   28.157   45.201
| 41> H  -19.543   28.978   47.434
| 42> H  -21.289   28.710   47.548
| 43> H  -20.733   27.082   49.195
| 44> H  -19.064   26.913   48.597
| 45> C  -23.162   27.680   45.721
| 46> H  -22.403   28.471   45.749
| 47> H  -23.423   27.492   44.671
| 48> O  -22.586   26.394   46.375
| 49> C  -24.437   28.200   46.439
| 50> C  -25.515   27.112   46.518
| 51> C  -25.009   26.256   47.704
| 52> C  -24.379   27.306   48.653
| 53> O  -24.142   28.519   47.840
| 54> H  -24.764   29.126   45.962
| 55> O  -26.891   27.749   46.851
| 56> H  -25.615   26.537   45.591
| 57> H  -25.809   25.684   48.186
| 58> H  -24.250   25.544   47.358
| 59> H  -23.429   26.969   49.080
| 60> H  -25.052   27.590   49.467
| 61> H  -26.815   28.331   47.776
| 62> *
| 63>
| 64>                          ****END OF INPUT****
 Total Charge           Charge          ....    0
 Multiplicity           Mult            ....    1
 Number of Electrons    NEL             ....  102
FINAL SINGLE POINT ENERGY      -652.826296715772
FINAL SINGLE POINT ENERGY      -652.849599418609
FINAL SINGLE POINT ENERGY      -652.856305566564
FINAL SINGLE POINT ENERGY      -652.858342874230
FINAL SINGLE POINT ENERGY      -652.858624640787
FINAL SINGLE POINT ENERGY      -652.858677986211
FINAL SINGLE POINT ENERGY      -652.858680312747
                    ***********************HURRAY********************

CARTESIAN COORDINATES (ANGSTROEM)
---------------------------------
  C    -21.124813   26.332140   46.229829
  C    -20.240281   27.544027   45.928369
  C    -20.207567   28.269710   47.300108
  C    -20.223839   27.095950   48.303345
  O    -20.706345   25.916534   47.541640
  H    -20.971567   25.474465   45.571501
  H    -19.242499   27.174554   45.667222
  H    -20.585770   28.172187   45.104121
  H    -19.323178   28.903486   47.413871
  H    -21.098601   28.891973   47.431313
  H    -20.893495   27.268587   49.149278
  H    -19.227545   26.840139   48.675242
  C    -23.184591   27.753792   45.683786
  H    -22.518006   28.621310   45.707062
  H    -23.451995   27.553530   44.635090
  O    -22.561162   26.586075   46.277526
  C    -24.436204   28.122170   46.478547
  C    -25.546758   27.065220   46.578597
  C    -25.038683   26.186146   47.752398
  C    -24.355897   27.210805   48.689676
  O    -24.099984   28.424966   47.871049
  H    -24.843315   29.042990   46.043427
  O    -26.827037   27.697033   46.863693
  H    -25.703888   26.504904   45.656440
  H    -25.870510   25.660098   48.229317
  H    -24.307254   25.467537   47.380579
  H    -23.403216   26.840066   49.073466
  H    -24.991330   27.519914   49.526515
  H    -26.720669   28.300692   47.628995

 Multiplicity           Mult            ....    1
 Number of Electrons    NEL             ....  102
 Basis Dimension        Dim             ....  149

ORBITAL ENERGIES
----------------

  NO   OCC          E(Eh)            E(eV)
   0   2.0000     -19.143410      -520.9187
   1   2.0000     -19.142183      -520.8853
   2   2.0000     -19.137896      -520.7686
   3   2.0000     -19.132368      -520.6182
   4   2.0000     -10.284724      -279.8616
   5   2.0000     -10.236276      -278.5432
   6   2.0000     -10.233446      -278.4662
   7   2.0000     -10.232581      -278.4427
   8   2.0000     -10.227389      -278.3014
   9   2.0000     -10.219335      -278.0822
  10   2.0000     -10.195545      -277.4349
  11   2.0000     -10.190811      -277.3061
  12   2.0000     -10.170539      -276.7544
  13   2.0000      -1.054788       -28.7022
  14   2.0000      -1.030065       -28.0295
  15   2.0000      -1.002036       -27.2668
  16   2.0000      -0.992280       -27.0013
  17   2.0000      -0.791228       -21.5304
  18   2.0000      -0.777648       -21.1609
  19   2.0000      -0.761719       -20.7274
  20   2.0000      -0.734417       -19.9845
  21   2.0000      -0.677493       -18.4355
  22   2.0000      -0.606440       -16.5021
  23   2.0000      -0.598951       -16.2983
  24   2.0000      -0.593088       -16.1388
  25   2.0000      -0.568812       -15.4782
  26   2.0000      -0.527918       -14.3654
  27   2.0000      -0.507122       -13.7995
  28   2.0000      -0.499896       -13.6029
  29   2.0000      -0.487819       -13.2742
  30   2.0000      -0.473465       -12.8836
  31   2.0000      -0.458042       -12.4640
  32   2.0000      -0.446580       -12.1520
  33   2.0000      -0.440071       -11.9749
  34   2.0000      -0.423019       -11.5109
  35   2.0000      -0.407949       -11.1008
  36   2.0000      -0.403283       -10.9739
  37   2.0000      -0.384624       -10.4661
  38   2.0000      -0.383560       -10.4372
  39   2.0000      -0.364264        -9.9121
  40   2.0000      -0.361550        -9.8383
  41   2.0000      -0.355595        -9.6762
  42   2.0000      -0.353824        -9.6280
  43   2.0000      -0.326065        -8.8727
  44   2.0000      -0.315320        -8.5803
  45   2.0000      -0.304183        -8.2772
  46   2.0000      -0.292789        -7.9672
  47   2.0000      -0.273571        -7.4442
  48   2.0000      -0.262540        -7.1441
  49   2.0000      -0.252758        -6.8779
  50   2.0000      -0.241293        -6.5659
  51   0.0000       0.066666         1.8141
  52   0.0000       0.081465         2.2168
  53   0.0000       0.098074         2.6687
  54   0.0000       0.101764         2.7692
  55   0.0000       0.105810         2.8792

MULLIKEN ATOMIC CHARGES
-----------------------
   0 C :    0.326465
   1 C :   -0.307107
   2 C :   -0.310378
   3 C :   -0.003666
   4 O :   -0.500194
   5 H :    0.153874
   6 H :    0.155430
   7 H :    0.146591
   8 H :    0.144283
   9 H :    0.175556
  10 H :    0.152741
  11 H :    0.143778
  12 C :    0.002249
  13 H :    0.141519
  14 H :    0.128761
  15 O :   -0.538300
  16 C :    0.072732
  17 C :    0.077376
  18 C :   -0.284540
  19 C :   -0.029077
  20 O :   -0.532652
  21 H :    0.151142
  22 O :   -0.603642
  23 H :    0.150757
  24 H :    0.143684
  25 H :    0.188491
  26 H :    0.159923
  27 H :    0.133439
  28 H :    0.360763
Sum of atomic charges:   -0.0000000

LOEWDIN ATOMIC CHARGES
----------------------
   0 C :    0.185954
   1 C :   -0.233397
   2 C :   -0.221425
   3 C :   -0.027031
   4 O :   -0.311580
   5 H :    0.103902
   6 H :    0.121819
   7 H :    0.114985
   8 H :    0.115849
   9 H :    0.121688
  10 H :    0.106789
  11 H :    0.103329
  12 C :   -0.036790
  13 H :    0.102280
  14 H :    0.094535
  15 O :   -0.336358
  16 C :    0.014395
  17 C :    0.039337
  18 C :   -0.240329
  19 C :   -0.034481
  20 O :   -0.335376
  21 H :    0.113601
  22 O :   -0.417614
  23 H :    0.115926
  24 H :    0.116581
  25 H :    0.137286
  26 H :    0.110772
  27 H :    0.094545
  28 H :    0.280805

  Mayer bond orders larger than 0.100000
B(  0-C ,  1-C ) :   0.9355 B(  0-C ,  4-O ) :   0.9283 B(  0-C ,  5-H ) :   0.9288
B(  0-C , 15-O ) :   0.8364 B(  1-C ,  2-C ) :   0.9484 B(  1-C ,  6-H ) :   0.9335
B(  1-C ,  7-H ) :   0.9284 B(  2-C ,  3-C ) :   0.9525 B(  2-C ,  8-H ) :   0.9451
B(  2-C ,  9-H ) :   0.9317 B(  3-C ,  4-O ) :   0.8373 B(  3-C , 10-H ) :   0.9305
B(  3-C , 11-H ) :   0.9401 B( 12-C , 13-H ) :   0.9051 B( 12-C , 14-H ) :   0.9144
B( 12-C , 15-O ) :   0.8478 B( 12-C , 16-C ) :   0.8953 B( 16-C , 17-C ) :   0.9107
B( 16-C , 20-O ) :   0.8728 B( 16-C , 21-H ) :   0.9226 B( 17-C , 18-C ) :   0.9256
B( 17-C , 22-O ) :   0.8878 B( 17-C , 23-H ) :   0.9362 B( 18-C , 19-C ) :   0.9464
B( 18-C , 24-H ) :   0.9379 B( 18-C , 25-H ) :   0.9144 B( 19-C , 20-O ) :   0.8337
B( 19-C , 26-H ) :   0.9286 B( 19-C , 27-H ) :   0.9369 B( 22-O , 28-H ) :   0.7976

FINAL SINGLE POINT ENERGY      -652.858667145658

DIPOLE MOMENT
-------------
                                X             Y             Z
Electronic contribution:     -3.35670      -1.50733      -0.43633
Nuclear contribution   :      4.39485       2.07568       0.11798
                        -----------------------------------------
Total Dipole Moment    :      1.03815       0.56834      -0.31835
                        -----------------------------------------
Magnitude (a.u.)       :      1.22561
Magnitude (Debye)      :      3.11525

Rotational constants in cm-1:     0.055880     0.015796     0.015113
Rotational constants in MHz :  1675.226651   473.565136   453.091278

                             ****ORCA TERMINATED NORMALLY****
TOTAL RUN TIME: 0 days 0 hours 21 minutes 37 seconds 247 msec
