                         Program Version 4.2.0 -  RELEASE  -
|  1> # Test redundant internal optimization
|  2> #
|  3> ! RKS B3LYP  Opt TightSCF SmallPrint
|  4>
|  5> %basis
|  6>         Basis "6-31G"
|  7> end
|  8>
|  9> %geom
| 10> Constraints
| 11> { D 4  0  15  12  330.0   C } # D for Dihedral angle
| 12> { D 0  15  12  16  195.0   C } # D for Dihedral angle
| 13> { D 0  4  3  2   C } # D for Dihedral angle
| 14> { D 4  3  2  1   C } # D for Dihedral angle
| 15> { D 3  2  1  0   C } # D for Dihedral angle
| 16> { D 2  1  0  4   C } # D for Dihedral angle
| 17> { D 1  0  4  3   C } # D for Dihedral angle
| 18> { D 16  20  19  18   C } # D for Dihedral angle
| 19> { D 20  19  18  17   C } # D for Dihedral angle
| 20> { D 19  18  17  16   C } # D for Dihedral angle
| 21> { D 18  17  16  20   C } # D for Dihedral angle
| 22> { D 17  16  20  19   C } # D for Dihedral angle
| 23> { D 15  12  16  20   C } # D for Dihedral angle
| 24> end
| 25> end
| 26>
| 27>
| 28> #%pal
| 29> #nprocs 8
| 30> #end
| 31>
| 32> * xyz 0 1
| 33> C  -21.048   26.222   46.251
| 34> C  -20.361   27.558   45.944
| 35> C  -20.329   28.222   47.341
| 36> C  -20.110   27.022   48.296
| 37> O  -20.473   25.807   47.535
| 38> H  -20.833   25.428   45.533
| 39> H  -19.344   27.382   45.576
| 40> H  -20.898   28.157   45.201
| 41> H  -19.543   28.978   47.434
| 42> H  -21.289   28.710   47.548
| 43> H  -20.733   27.082   49.195
| 44> H  -19.064   26.913   48.597
| 45> C  -23.271   25.476   47.424
| 46> H  -22.873   24.458   47.329
| 47> H  -23.062   25.832   48.441
| 48> O  -22.586   26.394   46.375
| 49> C  -24.814   25.415   47.253
| 50> C  -25.466   24.595   48.371
| 51> C  -25.481   25.612   49.537
| 52> C  -25.731   26.963   48.822
| 53> O  -25.399   26.752   47.397
| 54> H  -25.049   25.070   46.244
| 55> O  -26.914   24.201   47.969
| 56> H  -24.914   23.680   48.613
| 57> H  -26.248   25.388   50.286
| 58> H  -24.509   25.618   50.045
| 59> H  -25.106   27.770   49.220
| 60> H  -26.780   27.272   48.867
| 61> H  -27.486   25.102   47.723
| 62> *
| 63>
| 64>                          ****END OF INPUT****
 Total Charge           Charge          ....    0
 Multiplicity           Mult            ....    1
 Number of Electrons    NEL             ....  102
FINAL SINGLE POINT ENERGY      -652.834268325545
FINAL SINGLE POINT ENERGY      -652.857832392944
FINAL SINGLE POINT ENERGY      -652.861841331859
FINAL SINGLE POINT ENERGY      -652.862564593080
FINAL SINGLE POINT ENERGY      -652.862659658416
FINAL SINGLE POINT ENERGY      -652.862671744688
                    ***********************HURRAY********************

CARTESIAN COORDINATES (ANGSTROEM)
---------------------------------
  C    -21.138552   26.167343   46.305150
  C    -20.569932   27.542077   45.955895
  C    -20.431359   28.187298   47.351201
  C    -20.043586   26.998952   48.258076
  O    -20.420006   25.772489   47.499185
  H    -20.952854   25.373379   45.574192
  H    -19.593258   27.417546   45.474278
  H    -21.230645   28.099904   45.288966
  H    -19.683186   28.985834   47.373157
  H    -21.394280   28.608115   47.655257
  H    -20.570855   26.996210   49.216125
  H    -18.966976   26.932411   48.440202
  C    -23.162576   25.451077   47.525628
  H    -22.799301   24.417293   47.430202
  H    -22.889849   25.809791   48.525427
  O    -22.567091   26.303417   46.510647
  C    -24.672869   25.478124   47.316174
  C    -25.457214   24.652855   48.346488
  C    -25.557395   25.645895   49.535382
  C    -25.695945   27.019108   48.831823
  O    -25.230415   26.828514   47.437781
  H    -24.890535   25.150174   46.295549
  O    -26.769935   24.297478   47.831998
  H    -24.984855   23.706024   48.611973
  H    -26.412151   25.401922   50.171156
  H    -24.648200   25.598720   50.145252
  H    -25.094144   27.800403   49.305859
  H    -26.734427   27.361908   48.782673
  H    -27.151608   25.074740   47.371304

 Multiplicity           Mult            ....    1
 Number of Electrons    NEL             ....  102
 Basis Dimension        Dim             ....  149

ORBITAL ENERGIES
----------------

  NO   OCC          E(Eh)            E(eV)
   0   2.0000     -19.146298      -520.9973
   1   2.0000     -19.138819      -520.7937
   2   2.0000     -19.138374      -520.7816
   3   2.0000     -19.137380      -520.7546
   4   2.0000     -10.277219      -279.6574
   5   2.0000     -10.241704      -278.6909
   6   2.0000     -10.231624      -278.4166
   7   2.0000     -10.229690      -278.3640
   8   2.0000     -10.229128      -278.3487
   9   2.0000     -10.228610      -278.3346
  10   2.0000     -10.188993      -277.2566
  11   2.0000     -10.186481      -277.1882
  12   2.0000     -10.183952      -277.1194
  13   2.0000      -1.054826       -28.7033
  14   2.0000      -1.034576       -28.1522
  15   2.0000      -1.004863       -27.3437
  16   2.0000      -0.990968       -26.9656
  17   2.0000      -0.791390       -21.5348
  18   2.0000      -0.781206       -21.2577
  19   2.0000      -0.766804       -20.8658
  20   2.0000      -0.731409       -19.9027
  21   2.0000      -0.671457       -18.2713
  22   2.0000      -0.603907       -16.4331
  23   2.0000      -0.601315       -16.3626
  24   2.0000      -0.591121       -16.0852
  25   2.0000      -0.577025       -15.7016
  26   2.0000      -0.527448       -14.3526
  27   2.0000      -0.506970       -13.7953
  28   2.0000      -0.494583       -13.4583
  29   2.0000      -0.491054       -13.3623
  30   2.0000      -0.475499       -12.9390
  31   2.0000      -0.459221       -12.4960
  32   2.0000      -0.451074       -12.2743
  33   2.0000      -0.440692       -11.9918
  34   2.0000      -0.414599       -11.2818
  35   2.0000      -0.410213       -11.1625
  36   2.0000      -0.403046       -10.9674
  37   2.0000      -0.392790       -10.6884
  38   2.0000      -0.371849       -10.1185
  39   2.0000      -0.368156       -10.0180
  40   2.0000      -0.360841        -9.8190
  41   2.0000      -0.357558        -9.7296
  42   2.0000      -0.348132        -9.4731
  43   2.0000      -0.339908        -9.2494
  44   2.0000      -0.323722        -8.8089
  45   2.0000      -0.306471        -8.3395
  46   2.0000      -0.300492        -8.1768
  47   2.0000      -0.270195        -7.3524
  48   2.0000      -0.260911        -7.0997
  49   2.0000      -0.254808        -6.9337
  50   2.0000      -0.241729        -6.5778
  51   0.0000       0.064010         1.7418
  52   0.0000       0.079274         2.1572
  53   0.0000       0.092919         2.5284
  54   0.0000       0.101617         2.7651
  55   0.0000       0.102623         2.7925

MULLIKEN ATOMIC CHARGES
-----------------------
   0 C :    0.294775
   1 C :   -0.259512
   2 C :   -0.302485
   3 C :   -0.013456
   4 O :   -0.515941
   5 H :    0.148063
   6 H :    0.143188
   7 H :    0.166331
   8 H :    0.143544
   9 H :    0.164516
  10 H :    0.141032
  11 H :    0.148398
  12 C :    0.020040
  13 H :    0.136672
  14 H :    0.129450
  15 O :   -0.526171
  16 C :    0.064127
  17 C :    0.075439
  18 C :   -0.291473
  19 C :   -0.030652
  20 O :   -0.511244
  21 H :    0.166126
  22 O :   -0.602477
  23 H :    0.151753
  24 H :    0.162730
  25 H :    0.141216
  26 H :    0.145927
  27 H :    0.144829
  28 H :    0.365256
Sum of atomic charges:    0.0000000

LOEWDIN ATOMIC CHARGES
----------------------
   0 C :    0.177759
   1 C :   -0.215094
   2 C :   -0.217631
   3 C :   -0.031099
   4 O :   -0.327485
   5 H :    0.097792
   6 H :    0.113064
   7 H :    0.128994
   8 H :    0.115160
   9 H :    0.120128
  10 H :    0.100901
  11 H :    0.105427
  12 C :   -0.036501
  13 H :    0.101982
  14 H :    0.094678
  15 O :   -0.327594
  16 C :    0.017613
  17 C :    0.035432
  18 C :   -0.240730
  19 C :   -0.039083
  20 O :   -0.321602
  21 H :    0.119869
  22 O :   -0.414460
  23 H :    0.115540
  24 H :    0.126486
  25 H :    0.111512
  26 H :    0.103669
  27 H :    0.101786
  28 H :    0.283489

  Mayer bond orders larger than 0.100000
B(  0-C ,  1-C ) :   0.9468 B(  0-C ,  4-O ) :   0.8961 B(  0-C ,  5-H ) :   0.9220
B(  0-C , 15-O ) :   0.8526 B(  1-C ,  2-C ) :   0.9534 B(  1-C ,  6-H ) :   0.9378
B(  1-C ,  7-H ) :   0.9345 B(  2-C ,  3-C ) :   0.9554 B(  2-C ,  8-H ) :   0.9447
B(  2-C ,  9-H ) :   0.9438 B(  3-C ,  4-O ) :   0.8337 B(  3-C , 10-H ) :   0.9344
B(  3-C , 11-H ) :   0.9403 B( 12-C , 13-H ) :   0.9126 B( 12-C , 14-H ) :   0.9203
B( 12-C , 15-O ) :   0.8265 B( 12-C , 16-C ) :   0.8998 B( 16-C , 17-C ) :   0.9010
B( 16-C , 20-O ) :   0.8613 B( 16-C , 21-H ) :   0.9240 B( 17-C , 18-C ) :   0.9117
B( 17-C , 22-O ) :   0.8922 B( 17-C , 23-H ) :   0.9330 B( 18-C , 19-C ) :   0.9398
B( 18-C , 24-H ) :   0.9370 B( 18-C , 25-H ) :   0.9343 B( 19-C , 20-O ) :   0.8545
B( 19-C , 26-H ) :   0.9342 B( 19-C , 27-H ) :   0.9377 B( 22-O , 28-H ) :   0.7938

FINAL SINGLE POINT ENERGY      -652.862673692332

DIPOLE MOMENT
-------------
                                X             Y             Z
Electronic contribution:     -2.89897      -3.11148      -3.24354
Nuclear contribution   :      3.52486       3.76284       3.91479
                        -----------------------------------------
Total Dipole Moment    :      0.62589       0.65136       0.67126
                        -----------------------------------------
Magnitude (a.u.)       :      1.12543
Magnitude (Debye)      :      2.86061

Rotational constants in cm-1:     0.059037     0.012469     0.012164
Rotational constants in MHz :  1769.898422   373.811444   364.659936

                             ****ORCA TERMINATED NORMALLY****
TOTAL RUN TIME: 0 days 1 hours 47 minutes 0 seconds 161 msec
