                         Program Version 4.2.0 -  RELEASE  -
|  1> # Test redundant internal optimization
|  2> #
|  3> ! RKS B3LYP  Opt TightSCF SmallPrint
|  4>
|  5> %basis
|  6>         Basis "6-31G"
|  7> end
|  8>
|  9> %geom
| 10> Constraints
| 11> { D 4  0  15  12  195.0   C } # D for Dihedral angle
| 12> { D 0  15  12  16  255.0   C } # D for Dihedral angle
| 13> { D 0  4  3  2   C } # D for Dihedral angle
| 14> { D 4  3  2  1   C } # D for Dihedral angle
| 15> { D 3  2  1  0   C } # D for Dihedral angle
| 16> { D 2  1  0  4   C } # D for Dihedral angle
| 17> { D 1  0  4  3   C } # D for Dihedral angle
| 18> { D 16  20  19  18   C } # D for Dihedral angle
| 19> { D 20  19  18  17   C } # D for Dihedral angle
| 20> { D 19  18  17  16   C } # D for Dihedral angle
| 21> { D 18  17  16  20   C } # D for Dihedral angle
| 22> { D 17  16  20  19   C } # D for Dihedral angle
| 23> { D 15  12  16  20   C } # D for Dihedral angle
| 24> end
| 25> end
| 26>
| 27>
| 28> #%pal
| 29> #nprocs 8
| 30> #end
| 31>
| 32> * xyz 0 1
| 33> C  -21.048   26.222   46.251
| 34> C  -20.361   27.558   45.944
| 35> C  -20.329   28.222   47.341
| 36> C  -20.110   27.022   48.296
| 37> O  -20.473   25.807   47.535
| 38> H  -20.833   25.428   45.533
| 39> H  -19.344   27.382   45.576
| 40> H  -20.898   28.157   45.201
| 41> H  -19.543   28.978   47.434
| 42> H  -21.289   28.710   47.548
| 43> H  -20.733   27.082   49.195
| 44> H  -19.064   26.913   48.597
| 45> C  -23.353   26.472   45.026
| 46> H  -22.701   26.117   44.218
| 47> H  -24.245   25.833   45.054
| 48> O  -22.586   26.394   46.375
| 49> C  -23.816   27.915   44.681
| 50> C  -22.618   28.844   44.455
| 51> C  -22.198   28.469   43.014
| 52> C  -23.550   28.165   42.322
| 53> O  -24.532   27.931   43.402
| 54> H  -24.517   28.257   45.445
| 55> O  -23.075   30.327   44.525
| 56> H  -21.815   28.697   45.185
| 57> H  -21.643   29.268   42.513
| 58> H  -21.561   27.577   43.029
| 59> H  -23.502   27.278   41.681
| 60> H  -23.915   29.009   41.730
| 61> H  -23.881   30.500   43.802
| 62> *
| 63>
| 64>                          ****END OF INPUT****
 Total Charge           Charge          ....    0
 Multiplicity           Mult            ....    1
 Number of Electrons    NEL             ....  102
FINAL SINGLE POINT ENERGY      -652.793118549443
FINAL SINGLE POINT ENERGY      -652.828950960043
FINAL SINGLE POINT ENERGY      -652.847371366383
FINAL SINGLE POINT ENERGY      -652.850799734191
FINAL SINGLE POINT ENERGY      -652.851414474662
FINAL SINGLE POINT ENERGY      -652.851496275419
FINAL SINGLE POINT ENERGY      -652.851503453331
                    ***********************HURRAY********************

CARTESIAN COORDINATES (ANGSTROEM)
---------------------------------
  C    -21.026282   26.197967   46.258685
  C    -20.149828   27.422955   46.004231
  C    -20.189053   28.141960   47.377656
  C    -20.231732   26.961833   48.370907
  O    -20.661096   25.784878   47.579879
  H    -20.833250   25.360798   45.577508
  H    -19.133585   27.066663   45.793551
  H    -20.460220   28.041107   45.165061
  H    -19.324117   28.792517   47.535654
  H    -21.097498   28.747674   47.458830
  H    -20.943084   27.111070   49.186796
  H    -19.248161   26.721031   48.785165
  C    -23.251827   26.552196   45.091455
  H    -22.707746   26.091924   44.250353
  H    -24.156390   25.960297   45.253541
  O    -22.468454   26.432568   46.311573
  C    -23.721099   27.962243   44.670928
  C    -22.711650   29.068504   44.327483
  C    -22.281763   28.668632   42.890779
  C    -23.585872   28.086436   42.287805
  O    -24.473684   27.763549   43.425478
  H    -24.428253   28.339108   45.416904
  O    -23.378180   30.364208   44.336321
  H    -21.898032   29.174665   45.036177
  H    -21.907589   29.535090   42.340625
  H    -21.488785   27.911823   42.923752
  H    -23.414106   27.179321   41.700060
  H    -24.114068   28.811671   41.660705
  H    -24.247595   30.281311   43.890137

 Multiplicity           Mult            ....    1
 Number of Electrons    NEL             ....  102
 Basis Dimension        Dim             ....  149

ORBITAL ENERGIES
----------------

  NO   OCC          E(Eh)            E(eV)
   0   2.0000     -19.151839      -521.1480
   1   2.0000     -19.142720      -520.8999
   2   2.0000     -19.141758      -520.8737
   3   2.0000     -19.140852      -520.8491
   4   2.0000     -10.284236      -279.8483
   5   2.0000     -10.246825      -278.8303
   6   2.0000     -10.239032      -278.6182
   7   2.0000     -10.238632      -278.6073
   8   2.0000     -10.234232      -278.4876
   9   2.0000     -10.226679      -278.2821
  10   2.0000     -10.197276      -277.4820
  11   2.0000     -10.192408      -277.3495
  12   2.0000     -10.190371      -277.2941
  13   2.0000      -1.054635       -28.6981
  14   2.0000      -1.044575       -28.4243
  15   2.0000      -1.011632       -27.5279
  16   2.0000      -0.993271       -27.0283
  17   2.0000      -0.791093       -21.5267
  18   2.0000      -0.785032       -21.3618
  19   2.0000      -0.771993       -21.0070
  20   2.0000      -0.738143       -20.0859
  21   2.0000      -0.679853       -18.4997
  22   2.0000      -0.612479       -16.6664
  23   2.0000      -0.606846       -16.5131
  24   2.0000      -0.599159       -16.3039
  25   2.0000      -0.582100       -15.8397
  26   2.0000      -0.526601       -14.3296
  27   2.0000      -0.521992       -14.2041
  28   2.0000      -0.504363       -13.7244
  29   2.0000      -0.489664       -13.3244
  30   2.0000      -0.480039       -13.0625
  31   2.0000      -0.460440       -12.5292
  32   2.0000      -0.458300       -12.4710
  33   2.0000      -0.438513       -11.9326
  34   2.0000      -0.424680       -11.5561
  35   2.0000      -0.422009       -11.4834
  36   2.0000      -0.410935       -11.1821
  37   2.0000      -0.398083       -10.8324
  38   2.0000      -0.380991       -10.3673
  39   2.0000      -0.374686       -10.1957
  40   2.0000      -0.366945        -9.9851
  41   2.0000      -0.360988        -9.8230
  42   2.0000      -0.354670        -9.6511
  43   2.0000      -0.337454        -9.1826
  44   2.0000      -0.314747        -8.5647
  45   2.0000      -0.312528        -8.5043
  46   2.0000      -0.299870        -8.1599
  47   2.0000      -0.277844        -7.5605
  48   2.0000      -0.270055        -7.3486
  49   2.0000      -0.260797        -7.0966
  50   2.0000      -0.241170        -6.5626
  51   0.0000       0.060578         1.6484
  52   0.0000       0.066514         1.8099
  53   0.0000       0.085553         2.3280
  54   0.0000       0.093909         2.5554
  55   0.0000       0.098172         2.6714

MULLIKEN ATOMIC CHARGES
-----------------------
   0 C :    0.307878
   1 C :   -0.284958
   2 C :   -0.305910
   3 C :    0.000184
   4 O :   -0.497633
   5 H :    0.138616
   6 H :    0.148429
   7 H :    0.141138
   8 H :    0.144770
   9 H :    0.166229
  10 H :    0.157062
  11 H :    0.142792
  12 C :   -0.014911
  13 H :    0.116627
  14 H :    0.174192
  15 O :   -0.513223
  16 C :    0.054197
  17 C :    0.073870
  18 C :   -0.302068
  19 C :   -0.033753
  20 O :   -0.522209
  21 H :    0.168043
  22 O :   -0.605471
  23 H :    0.167047
  24 H :    0.166152
  25 H :    0.144762
  26 H :    0.150776
  27 H :    0.151044
  28 H :    0.366328
Sum of atomic charges:   -0.0000000

LOEWDIN ATOMIC CHARGES
----------------------
   0 C :    0.185405
   1 C :   -0.235843
   2 C :   -0.217948
   3 C :   -0.024166
   4 O :   -0.299572
   5 H :    0.094688
   6 H :    0.117324
   7 H :    0.111951
   8 H :    0.115988
   9 H :    0.117967
  10 H :    0.110752
  11 H :    0.102609
  12 C :   -0.041974
  13 H :    0.089830
  14 H :    0.124084
  15 O :   -0.338336
  16 C :    0.007806
  17 C :    0.031826
  18 C :   -0.242909
  19 C :   -0.039250
  20 O :   -0.326945
  21 H :    0.117798
  22 O :   -0.414608
  23 H :    0.120667
  24 H :    0.128421
  25 H :    0.111026
  26 H :    0.105656
  27 H :    0.104324
  28 H :    0.283431

  Mayer bond orders larger than 0.100000
B(  0-C ,  1-C ) :   0.9233 B(  0-C ,  4-O ) :   0.9398 B(  0-C ,  5-H ) :   0.9197
B(  0-C , 15-O ) :   0.8404 B(  1-C ,  2-C ) :   0.9518 B(  1-C ,  6-H ) :   0.9309
B(  1-C ,  7-H ) :   0.9169 B(  2-C ,  3-C ) :   0.9517 B(  2-C ,  8-H ) :   0.9446
B(  2-C ,  9-H ) :   0.9399 B(  3-C ,  4-O ) :   0.8346 B(  3-C , 10-H ) :   0.9341
B(  3-C , 11-H ) :   0.9392 B( 12-C , 13-H ) :   0.9254 B( 12-C , 14-H ) :   0.9272
B( 12-C , 15-O ) :   0.8528 B( 12-C , 16-C ) :   0.8788 B( 16-C , 17-C ) :   0.9118
B( 16-C , 20-O ) :   0.8268 B( 16-C , 21-H ) :   0.9244 B( 17-C , 18-C ) :   0.9130
B( 17-C , 22-O ) :   0.8800 B( 17-C , 23-H ) :   0.9109 B( 18-C , 19-C ) :   0.9385
B( 18-C , 24-H ) :   0.9371 B( 18-C , 25-H ) :   0.9301 B( 19-C , 20-O ) :   0.8423
B( 19-C , 26-H ) :   0.9342 B( 19-C , 27-H ) :   0.9371 B( 22-O , 28-H ) :   0.7920

FINAL SINGLE POINT ENERGY      -652.851505105244

DIPOLE MOMENT
-------------
                                X             Y             Z
Electronic contribution:     -4.34181      -2.04257       1.63401
Nuclear contribution   :      5.18399       2.45557      -2.59244
                        -----------------------------------------
Total Dipole Moment    :      0.84218       0.41300      -0.95843
                        -----------------------------------------
Magnitude (a.u.)       :      1.34105
Magnitude (Debye)      :      3.40868

Rotational constants in cm-1:     0.051730     0.014649     0.013278
Rotational constants in MHz :  1550.835491   439.172465   398.078788

                             ****ORCA TERMINATED NORMALLY****
TOTAL RUN TIME: 0 days 0 hours 55 minutes 50 seconds 274 msec
