                         Program Version 4.2.0 -  RELEASE  -
|  1> # Test redundant internal optimization
|  2> #
|  3> ! RKS B3LYP  Opt TightSCF SmallPrint
|  4>
|  5> %basis
|  6>         Basis "6-31G"
|  7> end
|  8>
|  9> %geom
| 10> Constraints
| 11> { D 4  0  15  12  240.0   C } # D for Dihedral angle
| 12> { D 0  15  12  16  150.0   C } # D for Dihedral angle
| 13> { D 0  4  3  2   C } # D for Dihedral angle
| 14> { D 4  3  2  1   C } # D for Dihedral angle
| 15> { D 3  2  1  0   C } # D for Dihedral angle
| 16> { D 2  1  0  4   C } # D for Dihedral angle
| 17> { D 1  0  4  3   C } # D for Dihedral angle
| 18> { D 16  20  19  18   C } # D for Dihedral angle
| 19> { D 20  19  18  17   C } # D for Dihedral angle
| 20> { D 19  18  17  16   C } # D for Dihedral angle
| 21> { D 18  17  16  20   C } # D for Dihedral angle
| 22> { D 17  16  20  19   C } # D for Dihedral angle
| 23> { D 15  12  16  20   C } # D for Dihedral angle
| 24> end
| 25> end
| 26>
| 27>
| 28> #%pal
| 29> #nprocs 8
| 30> #end
| 31>
| 32> * xyz 0 1
| 33> C  -21.048   26.222   46.251
| 34> C  -20.361   27.558   45.944
| 35> C  -20.329   28.222   47.341
| 36> C  -20.110   27.022   48.296
| 37> O  -20.473   25.807   47.535
| 38> H  -20.833   25.428   45.533
| 39> H  -19.344   27.382   45.576
| 40> H  -20.898   28.157   45.201
| 41> H  -19.543   28.978   47.434
| 42> H  -21.289   28.710   47.548
| 43> H  -20.733   27.082   49.195
| 44> H  -19.064   26.913   48.597
| 45> C  -23.430   25.483   45.442
| 46> H  -23.596   25.997   44.488
| 47> H  -22.898   24.545   45.238
| 48> O  -22.586   26.394   46.375
| 49> C  -24.813   25.119   46.049
| 50> C  -25.694   26.363   46.210
| 51> C  -26.210   26.571   44.766
| 52> C  -26.369   25.124   44.237
| 53> O  -25.566   24.260   45.129
| 54> H  -24.662   24.549   46.968
| 55> H  -26.527   26.148   46.891
| 56> O  -24.920   27.593   46.758
| 57> H  -27.147   27.135   44.728
| 58> H  -25.465   27.119   44.177
| 59> H  -26.009   25.011   43.209
| 60> H  -27.402   24.771   44.291
| 61> H  -24.082   27.826   46.091
| 62> *
| 63>
| 64>                          ****END OF INPUT****
 Total Charge           Charge          ....    0
 Multiplicity           Mult            ....    1
 Number of Electrons    NEL             ....  102
FINAL SINGLE POINT ENERGY      -652.831547390966
FINAL SINGLE POINT ENERGY      -652.855510753864
FINAL SINGLE POINT ENERGY      -652.861736397408
FINAL SINGLE POINT ENERGY      -652.864033949766
FINAL SINGLE POINT ENERGY      -652.865424113110
FINAL SINGLE POINT ENERGY      -652.866244698183
FINAL SINGLE POINT ENERGY      -652.866562220300
FINAL SINGLE POINT ENERGY      -652.866625095076
FINAL SINGLE POINT ENERGY      -652.866631489040
                    ***********************HURRAY********************

CARTESIAN COORDINATES (ANGSTROEM)
---------------------------------
  C    -21.072503   26.161216   46.191735
  C    -20.428003   27.516460   45.906055
  C    -20.526877   28.214760   47.283709
  C    -20.325400   27.050139   48.276812
  O    -20.584992   25.809578   47.496020
  H    -20.799460   25.349676   45.512181
  H    -19.380738   27.364563   45.620315
  H    -20.936020   28.061766   45.107191
  H    -19.778153   29.002568   47.408325
  H    -21.516924   28.665180   47.406165
  H    -21.015023   27.078872   49.123668
  H    -19.298516   26.975925   48.645468
  C    -23.317760   25.429465   45.337776
  H    -23.437776   25.902702   44.354872
  H    -22.814733   24.464629   45.203722
  O    -22.522824   26.299562   46.209080
  C    -24.671283   25.199290   46.018243
  C    -25.527374   26.462809   46.208461
  C    -26.139988   26.646006   44.789090
  C    -26.350373   25.195615   44.308958
  O    -25.491471   24.333528   45.174433
  H    -24.506009   24.667321   46.958976
  H    -26.326807   26.236714   46.923248
  O    -24.832799   27.631883   46.686533
  H    -27.068414   27.222280   44.818974
  H    -25.425961   27.192015   44.163374
  H    -26.065635   25.036962   43.263880
  H    -27.378660   24.849477   44.449749
  H    -23.860522   27.468039   46.650986

 Multiplicity           Mult            ....    1
 Number of Electrons    NEL             ....  102
 Basis Dimension        Dim             ....  149

ORBITAL ENERGIES
----------------

  NO   OCC          E(Eh)            E(eV)
   0   2.0000     -19.163332      -521.4608
   1   2.0000     -19.148615      -521.0603
   2   2.0000     -19.139798      -520.8204
   3   2.0000     -19.112744      -520.0842
   4   2.0000     -10.293135      -280.0904
   5   2.0000     -10.241150      -278.6759
   6   2.0000     -10.233308      -278.4625
   7   2.0000     -10.231732      -278.4196
   8   2.0000     -10.229727      -278.3650
   9   2.0000     -10.226498      -278.2772
  10   2.0000     -10.194858      -277.4162
  11   2.0000     -10.193468      -277.3784
  12   2.0000     -10.178838      -276.9803
  13   2.0000      -1.064938       -28.9784
  14   2.0000      -1.025510       -27.9056
  15   2.0000      -1.008018       -27.4296
  16   2.0000      -0.991730       -26.9863
  17   2.0000      -0.796063       -21.6620
  18   2.0000      -0.773509       -21.0482
  19   2.0000      -0.767745       -20.8914
  20   2.0000      -0.735979       -20.0270
  21   2.0000      -0.679629       -18.4936
  22   2.0000      -0.607169       -16.5219
  23   2.0000      -0.602653       -16.3990
  24   2.0000      -0.593914       -16.1612
  25   2.0000      -0.582140       -15.8408
  26   2.0000      -0.528736       -14.3876
  27   2.0000      -0.523237       -14.2380
  28   2.0000      -0.499682       -13.5970
  29   2.0000      -0.487606       -13.2684
  30   2.0000      -0.473825       -12.8934
  31   2.0000      -0.458440       -12.4748
  32   2.0000      -0.445039       -12.1101
  33   2.0000      -0.438072       -11.9205
  34   2.0000      -0.426486       -11.6053
  35   2.0000      -0.419183       -11.4066
  36   2.0000      -0.407020       -11.0756
  37   2.0000      -0.387995       -10.5579
  38   2.0000      -0.381849       -10.3906
  39   2.0000      -0.368080       -10.0160
  40   2.0000      -0.364024        -9.9056
  41   2.0000      -0.360575        -9.8117
  42   2.0000      -0.347500        -9.4560
  43   2.0000      -0.342968        -9.3326
  44   2.0000      -0.325237        -8.8501
  45   2.0000      -0.318723        -8.6729
  46   2.0000      -0.287693        -7.8285
  47   2.0000      -0.280216        -7.6251
  48   2.0000      -0.260589        -7.0910
  49   2.0000      -0.249230        -6.7819
  50   2.0000      -0.241683        -6.5765
  51   0.0000       0.052944         1.4407
  52   0.0000       0.081076         2.2062
  53   0.0000       0.091856         2.4995
  54   0.0000       0.096685         2.6309
  55   0.0000       0.102104         2.7784

MULLIKEN ATOMIC CHARGES
-----------------------
   0 C :    0.298901
   1 C :   -0.258367
   2 C :   -0.307551
   3 C :   -0.006627
   4 O :   -0.498397
   5 H :    0.148643
   6 H :    0.150188
   7 H :    0.149841
   8 H :    0.148389
   9 H :    0.165950
  10 H :    0.158944
  11 H :    0.146633
  12 C :   -0.017050
  13 H :    0.140797
  14 H :    0.161451
  15 O :   -0.561289
  16 C :    0.051526
  17 C :    0.119239
  18 C :   -0.306090
  19 C :   -0.018732
  20 O :   -0.521377
  21 H :    0.166569
  22 H :    0.148150
  23 O :   -0.644939
  24 H :    0.153052
  25 H :    0.145988
  26 H :    0.140788
  27 H :    0.149017
  28 H :    0.396353
Sum of atomic charges:   -0.0000000

LOEWDIN ATOMIC CHARGES
----------------------
   0 C :    0.180482
   1 C :   -0.220984
   2 C :   -0.217210
   3 C :   -0.026893
   4 O :   -0.311321
   5 H :    0.104259
   6 H :    0.116728
   7 H :    0.119877
   8 H :    0.117719
   9 H :    0.119332
  10 H :    0.111496
  11 H :    0.105230
  12 C :   -0.041110
  13 H :    0.097571
  14 H :    0.113213
  15 O :   -0.344452
  16 C :    0.016928
  17 C :    0.042442
  18 C :   -0.238240
  19 C :   -0.032060
  20 O :   -0.323958
  21 H :    0.119072
  22 H :    0.105280
  23 O :   -0.437616
  24 H :    0.121722
  25 H :    0.111125
  26 H :    0.101066
  27 H :    0.105840
  28 H :    0.284462

  Mayer bond orders larger than 0.100000
B(  0-C ,  1-C ) :   0.9449 B(  0-C ,  4-O ) :   0.9456 B(  0-C ,  5-H ) :   0.9203
B(  0-C , 15-O ) :   0.8020 B(  1-C ,  2-C ) :   0.9548 B(  1-C ,  6-H ) :   0.9354
B(  1-C ,  7-H ) :   0.9376 B(  2-C ,  3-C ) :   0.9524 B(  2-C ,  8-H ) :   0.9446
B(  2-C ,  9-H ) :   0.9426 B(  3-C ,  4-O ) :   0.8313 B(  3-C , 10-H ) :   0.9339
B(  3-C , 11-H ) :   0.9395 B( 12-C , 13-H ) :   0.9235 B( 12-C , 14-H ) :   0.9216
B( 12-C , 15-O ) :   0.7874 B( 12-C , 16-C ) :   0.9044 B( 16-C , 17-C ) :   0.9140
B( 16-C , 20-O ) :   0.8565 B( 16-C , 21-H ) :   0.9275 B( 17-C , 18-C ) :   0.9040
B( 17-C , 22-H ) :   0.9289 B( 17-C , 23-O ) :   0.9358 B( 18-C , 19-C ) :   0.9382
B( 18-C , 24-H ) :   0.9441 B( 18-C , 25-H ) :   0.9426 B( 19-C , 20-O ) :   0.8302
B( 19-C , 26-H ) :   0.9345 B( 19-C , 27-H ) :   0.9391 B( 23-O , 28-H ) :   0.7181

FINAL SINGLE POINT ENERGY      -652.866633184754

DIPOLE MOMENT
-------------
                                X             Y             Z
Electronic contribution:     -0.90090      -3.82321       1.85244
Nuclear contribution   :      1.74071       4.35762      -2.62491
                        -----------------------------------------
Total Dipole Moment    :      0.83980       0.53441      -0.77247
                        -----------------------------------------
Magnitude (a.u.)       :      1.25999
Magnitude (Debye)      :      3.20264

Rotational constants in cm-1:     0.060238     0.013066     0.012188
Rotational constants in MHz :  1805.885598   391.696500   365.374085

                             ****ORCA TERMINATED NORMALLY****
TOTAL RUN TIME: 0 days 0 hours 23 minutes 4 seconds 602 msec
