                         Program Version 4.2.0 -  RELEASE  -
|  1> # Test redundant internal optimization
|  2> #
|  3> ! RKS B3LYP  Opt TightSCF SmallPrint
|  4>
|  5> %basis
|  6>         Basis "6-31G"
|  7> end
|  8>
|  9> %geom
| 10> Constraints
| 11> { D 4  0  15  12  210.0   C } # D for Dihedral angle
| 12> { D 0  15  12  16  30.0   C } # D for Dihedral angle
| 13> { D 0  4  3  2   C } # D for Dihedral angle
| 14> { D 4  3  2  1   C } # D for Dihedral angle
| 15> { D 3  2  1  0   C } # D for Dihedral angle
| 16> { D 2  1  0  4   C } # D for Dihedral angle
| 17> { D 1  0  4  3   C } # D for Dihedral angle
| 18> { D 16  20  19  18   C } # D for Dihedral angle
| 19> { D 20  19  18  17   C } # D for Dihedral angle
| 20> { D 19  18  17  16   C } # D for Dihedral angle
| 21> { D 18  17  16  20   C } # D for Dihedral angle
| 22> { D 17  16  20  19   C } # D for Dihedral angle
| 23> { D 15  12  16  20   C } # D for Dihedral angle
| 24> end
| 25> end
| 26>
| 27>
| 28> #%pal
| 29> #nprocs 8
| 30> #end
| 31>
| 32> * xyz 0 1
| 33> C  -21.048   26.222   46.251
| 34> C  -20.361   27.558   45.944
| 35> C  -20.329   28.222   47.341
| 36> C  -20.110   27.022   48.296
| 37> O  -20.473   25.807   47.535
| 38> H  -20.833   25.428   45.533
| 39> H  -19.344   27.382   45.576
| 40> H  -20.898   28.157   45.201
| 41> H  -19.543   28.978   47.434
| 42> H  -21.289   28.710   47.548
| 43> H  -20.733   27.082   49.195
| 44> H  -19.064   26.913   48.597
| 45> C  -23.389   26.110   45.076
| 46> H  -24.388   25.742   45.341
| 47> H  -23.508   27.030   44.489
| 48> O  -22.586   26.394   46.375
| 49> C  -22.705   25.054   44.165
| 50> C  -23.461   24.884   42.844
| 51> C  -22.975   26.116   42.043
| 52> C  -21.503   26.272   42.500
| 53> O  -21.371   25.512   43.761
| 54> H  -22.568   24.129   44.730
| 55> O  -23.025   23.568   42.144
| 56> H  -24.549   24.863   42.971
| 57> H  -23.063   25.980   40.960
| 58> H  -23.561   27.000   42.319
| 59> H  -21.229   27.318   42.681
| 60> H  -20.796   25.839   41.787
| 61> H  -21.938   23.567   42.006
| 62> *
| 63>
| 64>                          ****END OF INPUT****
 Total Charge           Charge          ....    0
 Multiplicity           Mult            ....    1
 Number of Electrons    NEL             ....  102
FINAL SINGLE POINT ENERGY      -652.824544803118
FINAL SINGLE POINT ENERGY      -652.846153684205
FINAL SINGLE POINT ENERGY      -652.854255893862
FINAL SINGLE POINT ENERGY      -652.856321622862
FINAL SINGLE POINT ENERGY      -652.856680601262
FINAL SINGLE POINT ENERGY      -652.856731327268
FINAL SINGLE POINT ENERGY      -652.856736485501
                    ***********************HURRAY********************

CARTESIAN COORDINATES (ANGSTROEM)
---------------------------------
  C    -20.854143   26.232553   46.254589
  C    -20.219246   27.609189   46.067155
  C    -20.429343   28.251476   47.459377
  C    -20.274050   27.050919   48.418109
  O    -20.451573   25.839789   47.577802
  H    -20.518690   25.466345   45.561914
  H    -19.151855   27.490498   45.845466
  H    -20.680938   28.177589   45.255426
  H    -19.711463   29.050010   47.669602
  H    -21.439896   28.665322   47.524141
  H    -21.021577   27.037799   49.215907
  H    -19.273783   26.984583   48.857648
  C    -23.128329   26.094532   45.089544
  H    -24.085259   25.734062   45.482461
  H    -23.314063   27.054208   44.581143
  O    -22.311963   26.343681   46.262982
  C    -22.607406   25.081278   44.066473
  C    -23.521874   24.915443   42.843148
  C    -23.072860   26.104857   41.950226
  C    -21.550824   26.198158   42.230110
  O    -21.307727   25.461192   43.497298
  H    -22.449425   24.115941   44.559561
  O    -23.298480   23.636341   42.192669
  H    -24.585621   24.934186   43.082625
  H    -23.302163   25.906176   40.900508
  H    -23.589752   27.022307   42.250642
  H    -21.203370   27.228654   42.346597
  H    -20.949185   25.711726   41.456593
  H    -22.335144   23.460187   42.143285

 Multiplicity           Mult            ....    1
 Number of Electrons    NEL             ....  102
 Basis Dimension        Dim             ....  149

ORBITAL ENERGIES
----------------

  NO   OCC          E(Eh)            E(eV)
   0   2.0000     -19.156601      -521.2776
   1   2.0000     -19.147256      -521.0233
   2   2.0000     -19.130197      -520.5591
   3   2.0000     -19.128157      -520.5036
   4   2.0000     -10.264055      -279.2991
   5   2.0000     -10.252518      -278.9852
   6   2.0000     -10.243636      -278.7435
   7   2.0000     -10.241808      -278.6938
   8   2.0000     -10.235526      -278.5228
   9   2.0000     -10.215355      -277.9739
  10   2.0000     -10.198844      -277.5246
  11   2.0000     -10.177001      -276.9303
  12   2.0000     -10.175257      -276.8828
  13   2.0000      -1.049569       -28.5602
  14   2.0000      -1.038046       -28.2467
  15   2.0000      -1.016072       -27.6487
  16   2.0000      -0.982202       -26.7271
  17   2.0000      -0.793897       -21.6030
  18   2.0000      -0.777626       -21.1603
  19   2.0000      -0.770610       -20.9694
  20   2.0000      -0.728168       -19.8145
  21   2.0000      -0.676618       -18.4117
  22   2.0000      -0.614379       -16.7181
  23   2.0000      -0.606933       -16.5155
  24   2.0000      -0.588617       -16.0171
  25   2.0000      -0.567853       -15.4521
  26   2.0000      -0.534890       -14.5551
  27   2.0000      -0.510278       -13.8854
  28   2.0000      -0.494161       -13.4468
  29   2.0000      -0.485524       -13.2118
  30   2.0000      -0.476986       -12.9794
  31   2.0000      -0.457940       -12.4612
  32   2.0000      -0.449330       -12.2269
  33   2.0000      -0.440703       -11.9921
  34   2.0000      -0.428045       -11.6477
  35   2.0000      -0.408918       -11.1272
  36   2.0000      -0.403650       -10.9839
  37   2.0000      -0.395704       -10.7676
  38   2.0000      -0.382679       -10.4132
  39   2.0000      -0.370294       -10.0762
  40   2.0000      -0.362700        -9.8696
  41   2.0000      -0.348546        -9.4844
  42   2.0000      -0.345688        -9.4067
  43   2.0000      -0.336856        -9.1663
  44   2.0000      -0.323647        -8.8069
  45   2.0000      -0.302140        -8.2216
  46   2.0000      -0.300015        -8.1638
  47   2.0000      -0.281199        -7.6518
  48   2.0000      -0.258062        -7.0222
  49   2.0000      -0.251356        -6.8398
  50   2.0000      -0.234505        -6.3812
  51   0.0000       0.053273         1.4496
  52   0.0000       0.078355         2.1321
  53   0.0000       0.085858         2.3363
  54   0.0000       0.092644         2.5210
  55   0.0000       0.101230         2.7546

MULLIKEN ATOMIC CHARGES
-----------------------
   0 C :    0.284034
   1 C :   -0.255378
   2 C :   -0.299420
   3 C :   -0.000021
   4 O :   -0.504725
   5 H :    0.182215
   6 H :    0.141809
   7 H :    0.134243
   8 H :    0.135677
   9 H :    0.157369
  10 H :    0.149389
  11 H :    0.137198
  12 C :    0.029378
  13 H :    0.151414
  14 H :    0.119007
  15 O :   -0.533278
  16 C :    0.024130
  17 C :    0.080392
  18 C :   -0.295034
  19 C :   -0.029963
  20 O :   -0.528991
  21 H :    0.176259
  22 O :   -0.599023
  23 H :    0.159847
  24 H :    0.166544
  25 H :    0.147410
  26 H :    0.150141
  27 H :    0.152891
  28 H :    0.366485
Sum of atomic charges:   -0.0000000

LOEWDIN ATOMIC CHARGES
----------------------
   0 C :    0.176832
   1 C :   -0.222798
   2 C :   -0.218506
   3 C :   -0.026590
   4 O :   -0.309637
   5 H :    0.116302
   6 H :    0.112473
   7 H :    0.110808
   8 H :    0.110972
   9 H :    0.116694
  10 H :    0.106373
  11 H :    0.099713
  12 C :   -0.034864
  13 H :    0.115975
  14 H :    0.087194
  15 O :   -0.338333
  16 C :   -0.000719
  17 C :    0.040035
  18 C :   -0.239910
  19 C :   -0.037896
  20 O :   -0.333192
  21 H :    0.120953
  22 O :   -0.411093
  23 H :    0.119353
  24 H :    0.128689
  25 H :    0.114683
  26 H :    0.105902
  27 H :    0.105906
  28 H :    0.284680

  Mayer bond orders larger than 0.100000
B(  0-C ,  1-C ) :   0.9358 B(  0-C ,  4-O ) :   0.9191 B(  0-C ,  5-H ) :   0.9017
B(  0-C , 15-O ) :   0.8158 B(  1-C ,  2-C ) :   0.9532 B(  1-C ,  6-H ) :   0.9368
B(  1-C ,  7-H ) :   0.9411 B(  2-C ,  3-C ) :   0.9549 B(  2-C ,  8-H ) :   0.9459
B(  2-C ,  9-H ) :   0.9445 B(  3-C ,  4-O ) :   0.8417 B(  3-C , 10-H ) :   0.9351
B(  3-C , 11-H ) :   0.9402 B( 12-C , 13-H ) :   0.9240 B( 12-C , 14-H ) :   0.9183
B( 12-C , 15-O ) :   0.8652 B( 12-C , 16-C ) :   0.8957 B( 16-C , 17-C ) :   0.8996
B( 16-C , 20-O ) :   0.8317 B( 16-C , 21-H ) :   0.9197 B( 17-C , 18-C ) :   0.9096
B( 17-C , 22-O ) :   0.8959 B( 17-C , 23-H ) :   0.9328 B( 18-C , 19-C ) :   0.9414
B( 18-C , 24-H ) :   0.9366 B( 18-C , 25-H ) :   0.9325 B( 19-C , 20-O ) :   0.8377
B( 19-C , 26-H ) :   0.9341 B( 19-C , 27-H ) :   0.9371 B( 22-O , 28-H ) :   0.7936

FINAL SINGLE POINT ENERGY      -652.856737491551

DIPOLE MOMENT
-------------
                                X             Y             Z
Electronic contribution:     -0.68724      -5.75749       0.64601
Nuclear contribution   :      0.71229       6.93369      -1.60932
                        -----------------------------------------
Total Dipole Moment    :      0.02505       1.17620      -0.96331
                        -----------------------------------------
Magnitude (a.u.)       :      1.52054
Magnitude (Debye)      :      3.86491

Rotational constants in cm-1:     0.066074     0.012844     0.012214
Rotational constants in MHz :  1980.837696   385.061860   366.160639

                             ****ORCA TERMINATED NORMALLY****
TOTAL RUN TIME: 0 days 0 hours 26 minutes 21 seconds 810 msec
