                         Program Version 4.2.0 -  RELEASE  -
|  1> # Test redundant internal optimization
|  2> #
|  3> ! RKS B3LYP  Opt TightSCF SmallPrint
|  4>
|  5> %basis
|  6>         Basis "6-31G"
|  7> end
|  8>
|  9> %geom
| 10> Constraints
| 11> { D 4  0  15  12  225.0   C } # D for Dihedral angle
| 12> { D 0  15  12  16  60.0   C } # D for Dihedral angle
| 13> { D 0  4  3  2   C } # D for Dihedral angle
| 14> { D 4  3  2  1   C } # D for Dihedral angle
| 15> { D 3  2  1  0   C } # D for Dihedral angle
| 16> { D 2  1  0  4   C } # D for Dihedral angle
| 17> { D 1  0  4  3   C } # D for Dihedral angle
| 18> { D 16  20  19  18   C } # D for Dihedral angle
| 19> { D 20  19  18  17   C } # D for Dihedral angle
| 20> { D 19  18  17  16   C } # D for Dihedral angle
| 21> { D 18  17  16  20   C } # D for Dihedral angle
| 22> { D 17  16  20  19   C } # D for Dihedral angle
| 23> { D 15  12  16  20   C } # D for Dihedral angle
| 24> end
| 25> end
| 26>
| 27>
| 28> #%pal
| 29> #nprocs 8
| 30> #end
| 31>
| 32> * xyz 0 1
| 33> C  -21.048   26.222   46.251
| 34> C  -20.361   27.558   45.944
| 35> C  -20.329   28.222   47.341
| 36> C  -20.110   27.022   48.296
| 37> O  -20.473   25.807   47.535
| 38> H  -20.833   25.428   45.533
| 39> H  -19.344   27.382   45.576
| 40> H  -20.898   28.157   45.201
| 41> H  -19.543   28.978   47.434
| 42> H  -21.289   28.710   47.548
| 43> H  -20.733   27.082   49.195
| 44> H  -19.064   26.913   48.597
| 45> C  -23.415   25.773   45.218
| 46> H  -24.482   25.957   45.398
| 47> H  -23.144   26.235   44.260
| 48> O  -22.586   26.394   46.375
| 49> C  -23.201   24.240   45.081
| 50> C  -23.942   23.681   43.861
| 51> C  -22.988   24.074   42.708
| 52> C  -21.585   23.934   43.350
| 53> O  -21.790   23.942   44.814
| 54> H  -23.457   23.757   46.026
| 55> O  -24.062   22.137   43.972
| 56> H  -24.948   24.098   43.741
| 57> H  -23.107   23.439   41.824
| 58> H  -23.172   25.111   42.403
| 59> H  -20.916   24.758   43.077
| 60> H  -21.102   22.987   43.096
| 61> H  -23.066   21.697   44.093
| 62> *
| 63>
| 64>                          ****END OF INPUT****
 Total Charge           Charge          ....    0
 Multiplicity           Mult            ....    1
 Number of Electrons    NEL             ....  102
FINAL SINGLE POINT ENERGY      -652.829419505546
FINAL SINGLE POINT ENERGY      -652.852342920982
FINAL SINGLE POINT ENERGY      -652.856209836317
FINAL SINGLE POINT ENERGY      -652.858684304407
FINAL SINGLE POINT ENERGY      -652.858936826759
FINAL SINGLE POINT ENERGY      -652.858981071127
                    ***********************HURRAY********************

CARTESIAN COORDINATES (ANGSTROEM)
---------------------------------
  C    -20.891926   26.237500   46.218602
  C    -20.320828   27.639211   46.009421
  C    -20.473312   28.261004   47.418672
  C    -20.217507   27.058886   48.353458
  O    -20.397817   25.848668   47.513320
  H    -20.590756   25.466708   45.513546
  H    -19.263559   27.565062   45.726824
  H    -20.852939   28.197746   45.234509
  H    -19.775821   29.085155   47.595463
  H    -21.493820   28.634453   47.544279
  H    -20.916128   27.011469   49.192955
  H    -19.191799   27.027349   48.734136
  C    -23.184647   25.760795   45.245424
  H    -24.206894   25.972323   45.574493
  H    -23.018204   26.299941   44.297598
  O    -22.351616   26.327416   46.286321
  C    -23.049135   24.251297   45.014245
  C    -23.941295   23.714933   43.882963
  C    -23.066987   23.999476   42.632054
  C    -21.625295   23.769192   43.150983
  O    -21.692985   23.835850   44.633102
  H    -23.259217   23.735953   45.957151
  O    -24.200228   22.294843   44.048504
  H    -24.925100   24.183706   43.836213
  H    -23.336341   23.329943   41.812022
  H    -23.209016   25.032694   42.296304
  H    -20.919706   24.524901   42.791688
  H    -21.237268   22.779753   42.892106
  H    -23.377854   21.848773   44.341643

 Multiplicity           Mult            ....    1
 Number of Electrons    NEL             ....  102
 Basis Dimension        Dim             ....  149

ORBITAL ENERGIES
----------------

  NO   OCC          E(Eh)            E(eV)
   0   2.0000     -19.153440      -521.1916
   1   2.0000     -19.143312      -520.9160
   2   2.0000     -19.132417      -520.6195
   3   2.0000     -19.127781      -520.4934
   4   2.0000     -10.262682      -279.2618
   5   2.0000     -10.249207      -278.8951
   6   2.0000     -10.239153      -278.6215
   7   2.0000     -10.238802      -278.6120
   8   2.0000     -10.235869      -278.5322
   9   2.0000     -10.215074      -277.9663
  10   2.0000     -10.196379      -277.4576
  11   2.0000     -10.177180      -276.9352
  12   2.0000     -10.176912      -276.9278
  13   2.0000      -1.047179       -28.4952
  14   2.0000      -1.037355       -28.2279
  15   2.0000      -1.012868       -27.5615
  16   2.0000      -0.983848       -26.7719
  17   2.0000      -0.791357       -21.5339
  18   2.0000      -0.778302       -21.1787
  19   2.0000      -0.768428       -20.9100
  20   2.0000      -0.726787       -19.7769
  21   2.0000      -0.675347       -18.3771
  22   2.0000      -0.610862       -16.6224
  23   2.0000      -0.601993       -16.3811
  24   2.0000      -0.588751       -16.0207
  25   2.0000      -0.572707       -15.5841
  26   2.0000      -0.530650       -14.4397
  27   2.0000      -0.507258       -13.8032
  28   2.0000      -0.496858       -13.5202
  29   2.0000      -0.484323       -13.1791
  30   2.0000      -0.475368       -12.9354
  31   2.0000      -0.457199       -12.4410
  32   2.0000      -0.446358       -12.1460
  33   2.0000      -0.441161       -12.0046
  34   2.0000      -0.426539       -11.6067
  35   2.0000      -0.408914       -11.1271
  36   2.0000      -0.401154       -10.9160
  37   2.0000      -0.391855       -10.6629
  38   2.0000      -0.380217       -10.3462
  39   2.0000      -0.367729       -10.0064
  40   2.0000      -0.366129        -9.9629
  41   2.0000      -0.348292        -9.4775
  42   2.0000      -0.344084        -9.3630
  43   2.0000      -0.335257        -9.1228
  44   2.0000      -0.319749        -8.7008
  45   2.0000      -0.304295        -8.2803
  46   2.0000      -0.297333        -8.0908
  47   2.0000      -0.277713        -7.5570
  48   2.0000      -0.264799        -7.2056
  49   2.0000      -0.251242        -6.8366
  50   2.0000      -0.230531        -6.2731
  51   0.0000       0.058498         1.5918
  52   0.0000       0.081627         2.2212
  53   0.0000       0.087588         2.3834
  54   0.0000       0.096647         2.6299
  55   0.0000       0.104205         2.8356

MULLIKEN ATOMIC CHARGES
-----------------------
   0 C :    0.263590
   1 C :   -0.253744
   2 C :   -0.297388
   3 C :   -0.000219
   4 O :   -0.500781
   5 H :    0.189143
   6 H :    0.139069
   7 H :    0.136159
   8 H :    0.135614
   9 H :    0.159674
  10 H :    0.148625
  11 H :    0.136920
  12 C :   -0.001670
  13 H :    0.154505
  14 H :    0.115774
  15 O :   -0.526074
  16 C :    0.056157
  17 C :    0.081407
  18 C :   -0.291386
  19 C :   -0.032597
  20 O :   -0.518512
  21 H :    0.176448
  22 O :   -0.600789
  23 H :    0.154969
  24 H :    0.166444
  25 H :    0.142203
  26 H :    0.147196
  27 H :    0.151931
  28 H :    0.367332
Sum of atomic charges:   -0.0000000

LOEWDIN ATOMIC CHARGES
----------------------
   0 C :    0.168689
   1 C :   -0.224238
   2 C :   -0.217129
   3 C :   -0.027732
   4 O :   -0.308891
   5 H :    0.120994
   6 H :    0.110076
   7 H :    0.112464
   8 H :    0.110992
   9 H :    0.118009
  10 H :    0.106125
  11 H :    0.099668
  12 C :   -0.038485
  13 H :    0.119014
  14 H :    0.084314
  15 O :   -0.336071
  16 C :    0.003991
  17 C :    0.037838
  18 C :   -0.239510
  19 C :   -0.039049
  20 O :   -0.324844
  21 H :    0.123261
  22 O :   -0.412194
  23 H :    0.117253
  24 H :    0.128592
  25 H :    0.112282
  26 H :    0.103922
  27 H :    0.105775
  28 H :    0.284882

  Mayer bond orders larger than 0.100000
B(  0-C ,  1-C ) :   0.9358 B(  0-C ,  4-O ) :   0.9282 B(  0-C ,  5-H ) :   0.8936
B(  0-C , 15-O ) :   0.8109 B(  1-C ,  2-C ) :   0.9550 B(  1-C ,  6-H ) :   0.9376
B(  1-C ,  7-H ) :   0.9402 B(  2-C ,  3-C ) :   0.9554 B(  2-C ,  8-H ) :   0.9460
B(  2-C ,  9-H ) :   0.9438 B(  3-C ,  4-O ) :   0.8426 B(  3-C , 10-H ) :   0.9350
B(  3-C , 11-H ) :   0.9400 B( 12-C , 13-H ) :   0.9300 B( 12-C , 14-H ) :   0.9203
B( 12-C , 15-O ) :   0.8764 B( 12-C , 16-C ) :   0.8888 B( 16-C , 17-C ) :   0.8944
B( 16-C , 20-O ) :   0.8416 B( 16-C , 21-H ) :   0.9212 B( 17-C , 18-C ) :   0.9104
B( 17-C , 22-O ) :   0.8939 B( 17-C , 23-H ) :   0.9334 B( 18-C , 19-C ) :   0.9412
B( 18-C , 24-H ) :   0.9373 B( 18-C , 25-H ) :   0.9334 B( 19-C , 20-O ) :   0.8388
B( 19-C , 26-H ) :   0.9342 B( 19-C , 27-H ) :   0.9382 B( 22-O , 28-H ) :   0.7935

FINAL SINGLE POINT ENERGY      -652.858984343306

DIPOLE MOMENT
-------------
                                X             Y             Z
Electronic contribution:     -1.52265      -5.01332       1.97617
Nuclear contribution   :      1.71162       5.84133      -3.09054
                        -----------------------------------------
Total Dipole Moment    :      0.18896       0.82801      -1.11437
                        -----------------------------------------
Magnitude (a.u.)       :      1.40112
Magnitude (Debye)      :      3.56136

Rotational constants in cm-1:     0.066851     0.012275     0.012083
Rotational constants in MHz :  2004.131848   368.009171   362.232875

                             ****ORCA TERMINATED NORMALLY****
TOTAL RUN TIME: 0 days 0 hours 16 minutes 16 seconds 59 msec
