                         Program Version 4.2.0 -  RELEASE  -
|  1> # Test redundant internal optimization
|  2> #
|  3> ! RKS B3LYP  Opt TightSCF SmallPrint
|  4>
|  5> %basis
|  6>         Basis "6-31G"
|  7> end
|  8>
|  9> %geom
| 10> Constraints
| 11> { D 4  0  15  12  15.0   C } # D for Dihedral angle
| 12> { D 0  15  12  16  210.0   C } # D for Dihedral angle
| 13> { D 0  4  3  2   C } # D for Dihedral angle
| 14> { D 4  3  2  1   C } # D for Dihedral angle
| 15> { D 3  2  1  0   C } # D for Dihedral angle
| 16> { D 2  1  0  4   C } # D for Dihedral angle
| 17> { D 1  0  4  3   C } # D for Dihedral angle
| 18> { D 16  20  19  18   C } # D for Dihedral angle
| 19> { D 20  19  18  17   C } # D for Dihedral angle
| 20> { D 19  18  17  16   C } # D for Dihedral angle
| 21> { D 18  17  16  20   C } # D for Dihedral angle
| 22> { D 17  16  20  19   C } # D for Dihedral angle
| 23> { D 15  12  16  20   C } # D for Dihedral angle
| 24> end
| 25> end
| 26>
| 27>
| 28> #%pal
| 29> #nprocs 8
| 30> #end
| 31>
| 32> * xyz 0 1
| 33> C  -21.048   26.222   46.251
| 34> C  -20.361   27.558   45.944
| 35> C  -20.329   28.222   47.341
| 36> C  -20.110   27.022   48.296
| 37> O  -20.473   25.807   47.535
| 38> H  -20.833   25.428   45.533
| 39> H  -19.344   27.382   45.576
| 40> H  -20.898   28.157   45.201
| 41> H  -19.543   28.978   47.434
| 42> H  -21.289   28.710   47.548
| 43> H  -20.733   27.082   49.195
| 44> H  -19.064   26.913   48.597
| 45> C  -23.128   26.462   47.829
| 46> H  -22.472   25.879   48.488
| 47> H  -23.138   27.500   48.187
| 48> O  -22.586   26.394   46.375
| 49> C  -24.572   25.903   47.959
| 50> C  -24.618   24.404   47.640
| 51> C  -24.095   23.786   48.959
| 52> C  -24.662   24.739   50.042
| 53> O  -25.032   25.991   49.349
| 54> H  -25.248   26.514   47.359
| 55> O  -26.083   23.963   47.371
| 56> H  -24.011   24.129   46.771
| 57> H  -24.421   22.751   49.101
| 58> H  -22.999   23.797   48.969
| 59> H  -23.930   24.965   50.825
| 60> H  -25.569   24.347   50.508
| 61> H  -26.712   24.228   48.229
| 62> *
| 63>
| 64>                          ****END OF INPUT****
 Total Charge           Charge          ....    0
 Multiplicity           Mult            ....    1
 Number of Electrons    NEL             ....  102
FINAL SINGLE POINT ENERGY      -652.835133987990
FINAL SINGLE POINT ENERGY      -652.857747873317
FINAL SINGLE POINT ENERGY      -652.861813807393
FINAL SINGLE POINT ENERGY      -652.862442040383
FINAL SINGLE POINT ENERGY      -652.862533556831
FINAL SINGLE POINT ENERGY      -652.862549739774
                    ***********************HURRAY********************

CARTESIAN COORDINATES (ANGSTROEM)
---------------------------------
  C    -21.146622   26.225979   46.404402
  C    -20.508562   27.536930   45.939362
  C    -20.263782   28.265953   47.283851
  C    -19.910143   27.111623   48.248176
  O    -20.399884   25.868414   47.586941
  H    -21.040155   25.397968   45.701543
  H    -19.561307   27.318032   45.432727
  H    -21.159367   28.089157   45.258294
  H    -19.462851   29.008882   47.220692
  H    -21.175307   28.780994   47.604720
  H    -20.388560   27.201073   49.227335
  H    -18.832473   26.984759   48.383694
  C    -23.109244   26.473010   47.971985
  H    -22.459554   25.935995   48.669201
  H    -23.172835   27.522682   48.285439
  O    -22.583713   26.365699   46.617501
  C    -24.512588   25.867650   47.969567
  C    -24.569797   24.370452   47.633824
  C    -24.160621   23.731145   48.984873
  C    -24.782766   24.687317   50.032756
  O    -25.073091   25.959213   49.323600
  H    -25.167663   26.440162   47.307619
  O    -25.915432   23.981385   47.238495
  H    -23.925580   24.096346   46.800844
  H    -24.543505   22.710406   49.060950
  H    -23.069254   23.696416   49.072066
  H    -24.112098   24.893866   50.872743
  H    -25.733218   24.316889   50.428578
  H    -26.561028   24.394602   47.850224

 Multiplicity           Mult            ....    1
 Number of Electrons    NEL             ....  102
 Basis Dimension        Dim             ....  149

ORBITAL ENERGIES
----------------

  NO   OCC          E(Eh)            E(eV)
   0   2.0000     -19.155793      -521.2556
   1   2.0000     -19.141790      -520.8746
   2   2.0000     -19.141605      -520.8695
   3   2.0000     -19.130770      -520.5747
   4   2.0000     -10.283263      -279.8218
   5   2.0000     -10.237226      -278.5691
   6   2.0000     -10.231013      -278.4000
   7   2.0000     -10.228601      -278.3344
   8   2.0000     -10.228223      -278.3241
   9   2.0000     -10.226751      -278.2840
  10   2.0000     -10.195520      -277.4342
  11   2.0000     -10.188995      -277.2566
  12   2.0000     -10.182994      -277.0934
  13   2.0000      -1.058997       -28.8168
  14   2.0000      -1.032237       -28.0886
  15   2.0000      -1.000459       -27.2239
  16   2.0000      -0.995720       -27.0949
  17   2.0000      -0.794517       -21.6199
  18   2.0000      -0.776998       -21.1432
  19   2.0000      -0.767205       -20.8767
  20   2.0000      -0.734201       -19.9786
  21   2.0000      -0.673032       -18.3141
  22   2.0000      -0.608035       -16.5455
  23   2.0000      -0.599724       -16.3193
  24   2.0000      -0.594036       -16.1645
  25   2.0000      -0.575418       -15.6579
  26   2.0000      -0.519468       -14.1355
  27   2.0000      -0.517320       -14.0770
  28   2.0000      -0.503910       -13.7121
  29   2.0000      -0.488445       -13.2913
  30   2.0000      -0.472611       -12.8604
  31   2.0000      -0.459226       -12.4962
  32   2.0000      -0.450553       -12.2602
  33   2.0000      -0.435263       -11.8441
  34   2.0000      -0.420021       -11.4293
  35   2.0000      -0.414332       -11.2745
  36   2.0000      -0.406395       -11.0586
  37   2.0000      -0.388357       -10.5677
  38   2.0000      -0.379241       -10.3197
  39   2.0000      -0.365133        -9.9358
  40   2.0000      -0.363456        -9.8901
  41   2.0000      -0.357970        -9.7409
  42   2.0000      -0.352293        -9.5864
  43   2.0000      -0.333953        -9.0873
  44   2.0000      -0.326884        -8.8950
  45   2.0000      -0.311499        -8.4763
  46   2.0000      -0.302011        -8.2181
  47   2.0000      -0.271502        -7.3879
  48   2.0000      -0.265171        -7.2157
  49   2.0000      -0.255152        -6.9430
  50   2.0000      -0.240309        -6.5392
  51   0.0000       0.068211         1.8561
  52   0.0000       0.070449         1.9170
  53   0.0000       0.094404         2.5689
  54   0.0000       0.095719         2.6046
  55   0.0000       0.102439         2.7875

MULLIKEN ATOMIC CHARGES
-----------------------
   0 C :    0.298521
   1 C :   -0.255159
   2 C :   -0.314248
   3 C :   -0.019761
   4 O :   -0.513188
   5 H :    0.161524
   6 H :    0.145884
   7 H :    0.161543
   8 H :    0.150112
   9 H :    0.158290
  10 H :    0.146126
  11 H :    0.154429
  12 C :   -0.012925
  13 H :    0.157657
  14 H :    0.138006
  15 O :   -0.541437
  16 C :    0.058590
  17 C :    0.090405
  18 C :   -0.307187
  19 C :   -0.029539
  20 O :   -0.529881
  21 H :    0.165576
  22 O :   -0.602998
  23 H :    0.171323
  24 H :    0.159911
  25 H :    0.158417
  26 H :    0.144247
  27 H :    0.144587
  28 H :    0.361175
Sum of atomic charges:   -0.0000000

LOEWDIN ATOMIC CHARGES
----------------------
   0 C :    0.181796
   1 C :   -0.222901
   2 C :   -0.220733
   3 C :   -0.033454
   4 O :   -0.319362
   5 H :    0.109151
   6 H :    0.114839
   7 H :    0.125880
   8 H :    0.118798
   9 H :    0.114991
  10 H :    0.103304
  11 H :    0.108829
  12 C :   -0.044336
  13 H :    0.107539
  14 H :    0.097874
  15 O :   -0.341982
  16 C :    0.017871
  17 C :    0.039093
  18 C :   -0.243945
  19 C :   -0.038333
  20 O :   -0.332781
  21 H :    0.117663
  22 O :   -0.415267
  23 H :    0.125425
  24 H :    0.125693
  25 H :    0.119266
  26 H :    0.102653
  27 H :    0.101881
  28 H :    0.280547

  Mayer bond orders larger than 0.100000
B(  0-C ,  1-C ) :   0.9246 B(  0-C ,  4-O ) :   0.9132 B(  0-C ,  5-H ) :   0.9319
B(  0-C , 15-O ) :   0.8495 B(  1-C ,  2-C ) :   0.9526 B(  1-C ,  6-H ) :   0.9345
B(  1-C ,  7-H ) :   0.9362 B(  2-C ,  3-C ) :   0.9521 B(  2-C ,  8-H ) :   0.9444
B(  2-C ,  9-H ) :   0.9434 B(  3-C ,  4-O ) :   0.8276 B(  3-C , 10-H ) :   0.9328
B(  3-C , 11-H ) :   0.9403 B( 12-C , 13-H ) :   0.9076 B( 12-C , 14-H ) :   0.9163
B( 12-C , 15-O ) :   0.8229 B( 12-C , 16-C ) :   0.9039 B( 16-C , 17-C ) :   0.9121
B( 16-C , 20-O ) :   0.8434 B( 16-C , 21-H ) :   0.9258 B( 17-C , 18-C ) :   0.9136
B( 17-C , 22-O ) :   0.8896 B( 17-C , 23-H ) :   0.9251 B( 18-C , 19-C ) :   0.9416
B( 18-C , 24-H ) :   0.9380 B( 18-C , 25-H ) :   0.9323 B( 19-C , 20-O ) :   0.8427
B( 19-C , 26-H ) :   0.9357 B( 19-C , 27-H ) :   0.9388 B( 22-O , 28-H ) :   0.7967

FINAL SINGLE POINT ENERGY      -652.862550940835

DIPOLE MOMENT
-------------
                                X             Y             Z
Electronic contribution:     -4.08623      -2.10309      -1.78133
Nuclear contribution   :      5.16291       2.72729       2.32827
                        -----------------------------------------
Total Dipole Moment    :      1.07668       0.62420       0.54694
                        -----------------------------------------
Magnitude (a.u.)       :      1.35942
Magnitude (Debye)      :      3.45537

Rotational constants in cm-1:     0.055915     0.013533     0.012822
Rotational constants in MHz :  1676.274717   405.710397   384.390414

                             ****ORCA TERMINATED NORMALLY****
TOTAL RUN TIME: 0 days 0 hours 14 minutes 41 seconds 626 msec
