                         Program Version 4.2.0 -  RELEASE  -
|  1> # Test redundant internal optimization
|  2> #
|  3> ! RKS B3LYP  Opt TightSCF SmallPrint
|  4>
|  5> %basis
|  6>         Basis "6-31G"
|  7> end
|  8>
|  9> %geom
| 10> Constraints
| 11> { D 4  0  15  12  135.0   C } # D for Dihedral angle
| 12> { D 0  15  12  16  105.0   C } # D for Dihedral angle
| 13> { D 0  4  3  2   C } # D for Dihedral angle
| 14> { D 4  3  2  1   C } # D for Dihedral angle
| 15> { D 3  2  1  0   C } # D for Dihedral angle
| 16> { D 2  1  0  4   C } # D for Dihedral angle
| 17> { D 1  0  4  3   C } # D for Dihedral angle
| 18> { D 16  20  19  18   C } # D for Dihedral angle
| 19> { D 20  19  18  17   C } # D for Dihedral angle
| 20> { D 19  18  17  16   C } # D for Dihedral angle
| 21> { D 18  17  16  20   C } # D for Dihedral angle
| 22> { D 17  16  20  19   C } # D for Dihedral angle
| 23> { D 15  12  16  20   C } # D for Dihedral angle
| 24> end
| 25> end
| 26>
| 27>
| 28> #%pal
| 29> #nprocs 8
| 30> #end
| 31>
| 32> * xyz 0 1
| 33> C  -21.048   26.222   46.251
| 34> C  -20.361   27.558   45.944
| 35> C  -20.329   28.222   47.341
| 36> C  -20.110   27.022   48.296
| 37> O  -20.473   25.807   47.535
| 38> H  -20.833   25.428   45.533
| 39> H  -19.344   27.382   45.576
| 40> H  -20.898   28.157   45.201
| 41> H  -19.543   28.978   47.434
| 42> H  -21.289   28.710   47.548
| 43> H  -20.733   27.082   49.195
| 44> H  -19.064   26.913   48.597
| 45> C  -23.162   27.680   45.721
| 46> H  -23.872   28.151   46.411
| 47> H  -22.358   28.398   45.513
| 48> O  -22.586   26.394   46.375
| 49> C  -23.898   27.394   44.382
| 50> C  -22.990   26.652   43.394
| 51> C  -23.070   25.201   43.925
| 52> C  -24.529   25.092   44.435
| 53> O  -25.021   26.477   44.601
| 54> H  -24.317   28.326   43.999
| 55> O  -23.578   26.744   41.960
| 56> H  -21.967   27.042   43.374
| 57> H  -22.838   24.455   43.159
| 58> H  -22.361   25.063   44.751
| 59> H  -24.601   24.567   45.393
| 60> H  -25.187   24.601   43.712
| 61> H  -24.603   26.358   41.956
| 62> *
| 63>
| 64>                          ****END OF INPUT****
 Total Charge           Charge          ....    0
 Multiplicity           Mult            ....    1
 Number of Electrons    NEL             ....  102
FINAL SINGLE POINT ENERGY      -652.813109982759
FINAL SINGLE POINT ENERGY      -652.839578990774
FINAL SINGLE POINT ENERGY      -652.849086134320
FINAL SINGLE POINT ENERGY      -652.851153935187
FINAL SINGLE POINT ENERGY      -652.851540969848
FINAL SINGLE POINT ENERGY      -652.851595264832
FINAL SINGLE POINT ENERGY      -652.851597547652
FINAL SINGLE POINT ENERGY      -652.851596176756
                    ***********************HURRAY********************

CARTESIAN COORDINATES (ANGSTROEM)
---------------------------------
  C    -21.075818   26.281027   46.384506
  C    -20.193611   27.471557   46.003510
  C    -20.166490   28.290296   47.321903
  C    -20.182905   27.186304   48.402858
  O    -20.659857   25.958653   47.722016
  H    -20.901057   25.380167   45.793318
  H    -19.193934   27.086710   45.773838
  H    -20.530959   28.044485   45.136633
  H    -19.282755   28.931203   47.393870
  H    -21.054082   28.927247   47.398746
  H    -20.854516   27.410545   49.235447
  H    -19.185753   26.962350   48.792587
  C    -23.170689   27.633864   45.740385
  H    -23.914590   27.994235   46.457841
  H    -22.475616   28.455519   45.530172
  O    -22.518975   26.517608   46.409453
  C    -23.922920   27.274699   44.453823
  C    -23.118142   26.661492   43.298044
  C    -23.102477   25.156832   43.684064
  C    -24.492415   24.956461   44.340980
  O    -24.986557   26.304543   44.699431
  H    -24.412597   28.195969   44.112398
  O    -23.785359   26.892172   42.026236
  H    -22.121960   27.089459   43.176199
  H    -22.954568   24.534084   42.797686
  H    -22.307423   24.951219   44.400673
  H    -24.438101   24.352112   45.249728
  H    -25.224948   24.514290   43.657369
  H    -24.733925   26.660896   42.118287

 Multiplicity           Mult            ....    1
 Number of Electrons    NEL             ....  102
 Basis Dimension        Dim             ....  149

ORBITAL ENERGIES
----------------

  NO   OCC          E(Eh)            E(eV)
   0   2.0000     -19.143948      -520.9333
   1   2.0000     -19.142712      -520.8997
   2   2.0000     -19.139514      -520.8126
   3   2.0000     -19.138367      -520.7814
   4   2.0000     -10.286585      -279.9122
   5   2.0000     -10.242491      -278.7123
   6   2.0000     -10.235794      -278.5301
   7   2.0000     -10.234744      -278.5015
   8   2.0000     -10.230276      -278.3800
   9   2.0000     -10.224369      -278.2192
  10   2.0000     -10.200045      -277.5573
  11   2.0000     -10.197612      -277.4911
  12   2.0000     -10.184086      -277.1231
  13   2.0000      -1.054777       -28.7019
  14   2.0000      -1.035806       -28.1857
  15   2.0000      -1.006595       -27.3908
  16   2.0000      -0.993725       -27.0406
  17   2.0000      -0.795599       -21.6493
  18   2.0000      -0.779592       -21.2138
  19   2.0000      -0.770373       -20.9629
  20   2.0000      -0.739317       -20.1178
  21   2.0000      -0.681725       -18.5507
  22   2.0000      -0.611590       -16.6422
  23   2.0000      -0.604861       -16.4591
  24   2.0000      -0.601185       -16.3591
  25   2.0000      -0.570144       -15.5144
  26   2.0000      -0.525233       -14.2923
  27   2.0000      -0.516231       -14.0474
  28   2.0000      -0.510120       -13.8811
  29   2.0000      -0.491259       -13.3678
  30   2.0000      -0.473250       -12.8778
  31   2.0000      -0.457538       -12.4502
  32   2.0000      -0.453516       -12.3408
  33   2.0000      -0.441917       -12.0252
  34   2.0000      -0.425604       -11.5813
  35   2.0000      -0.422854       -11.5065
  36   2.0000      -0.403320       -10.9749
  37   2.0000      -0.391463       -10.6523
  38   2.0000      -0.385462       -10.4890
  39   2.0000      -0.369474       -10.0539
  40   2.0000      -0.367620       -10.0034
  41   2.0000      -0.365886        -9.9563
  42   2.0000      -0.354880        -9.6568
  43   2.0000      -0.330037        -8.9808
  44   2.0000      -0.318816        -8.6754
  45   2.0000      -0.305585        -8.3154
  46   2.0000      -0.296441        -8.0666
  47   2.0000      -0.274559        -7.4711
  48   2.0000      -0.269392        -7.3305
  49   2.0000      -0.259355        -7.0574
  50   2.0000      -0.236410        -6.4330
  51   0.0000       0.062187         1.6922
  52   0.0000       0.072473         1.9721
  53   0.0000       0.090119         2.4523
  54   0.0000       0.092577         2.5192
  55   0.0000       0.105221         2.8632

MULLIKEN ATOMIC CHARGES
-----------------------
   0 C :    0.320482
   1 C :   -0.308986
   2 C :   -0.302229
   3 C :   -0.002558
   4 O :   -0.497539
   5 H :    0.152002
   6 H :    0.158863
   7 H :    0.146292
   8 H :    0.147654
   9 H :    0.154571
  10 H :    0.154384
  11 H :    0.145625
  12 C :   -0.012965
  13 H :    0.169160
  14 H :    0.120840
  15 O :   -0.524540
  16 C :    0.074200
  17 C :    0.072798
  18 C :   -0.293235
  19 C :   -0.022981
  20 O :   -0.521893
  21 H :    0.150426
  22 O :   -0.601760
  23 H :    0.142392
  24 H :    0.154497
  25 H :    0.157398
  26 H :    0.164132
  27 H :    0.138137
  28 H :    0.364834
Sum of atomic charges:   -0.0000000

LOEWDIN ATOMIC CHARGES
----------------------
   0 C :    0.180409
   1 C :   -0.234632
   2 C :   -0.218244
   3 C :   -0.027139
   4 O :   -0.306547
   5 H :    0.097662
   6 H :    0.123794
   7 H :    0.112754
   8 H :    0.117210
   9 H :    0.112142
  10 H :    0.109194
  11 H :    0.104475
  12 C :   -0.040907
  13 H :    0.121093
  14 H :    0.094670
  15 O :   -0.332318
  16 C :    0.005480
  17 C :    0.035351
  18 C :   -0.239465
  19 C :   -0.033809
  20 O :   -0.327073
  21 H :    0.114316
  22 O :   -0.415173
  23 H :    0.109910
  24 H :    0.121593
  25 H :    0.120460
  26 H :    0.114238
  27 H :    0.097167
  28 H :    0.283387

  Mayer bond orders larger than 0.100000
B(  0-C ,  1-C ) :   0.9324 B(  0-C ,  4-O ) :   0.9196 B(  0-C ,  5-H ) :   0.9136
B(  0-C , 15-O ) :   0.8498 B(  1-C ,  2-C ) :   0.9489 B(  1-C ,  6-H ) :   0.9325
B(  1-C ,  7-H ) :   0.9260 B(  2-C ,  3-C ) :   0.9508 B(  2-C ,  8-H ) :   0.9454
B(  2-C ,  9-H ) :   0.9432 B(  3-C ,  4-O ) :   0.8399 B(  3-C , 10-H ) :   0.9339
B(  3-C , 11-H ) :   0.9394 B( 12-C , 13-H ) :   0.9279 B( 12-C , 14-H ) :   0.9000
B( 12-C , 15-O ) :   0.8695 B( 12-C , 16-C ) :   0.8862 B( 16-C , 17-C ) :   0.9081
B( 16-C , 20-O ) :   0.8735 B( 16-C , 21-H ) :   0.9166 B( 17-C , 18-C ) :   0.9216
B( 17-C , 22-O ) :   0.8937 B( 17-C , 23-H ) :   0.9346 B( 18-C , 19-C ) :   0.9459
B( 18-C , 24-H ) :   0.9369 B( 18-C , 25-H ) :   0.9166 B( 19-C , 20-O ) :   0.8393
B( 19-C , 26-H ) :   0.9316 B( 19-C , 27-H ) :   0.9364 B( 22-O , 28-H ) :   0.7946

FINAL SINGLE POINT ENERGY      -652.851582753747

DIPOLE MOMENT
-------------
                                X             Y             Z
Electronic contribution:     -4.11382      -2.08075      -0.55360
Nuclear contribution   :      5.01247       2.80198       0.48575
                        -----------------------------------------
Total Dipole Moment    :      0.89866       0.72123      -0.06785
                        -----------------------------------------
Magnitude (a.u.)       :      1.15428
Magnitude (Debye)      :      2.93395

Rotational constants in cm-1:     0.056952     0.014180     0.013584
Rotational constants in MHz :  1707.378878   425.092356   407.226788

                             ****ORCA TERMINATED NORMALLY****
TOTAL RUN TIME: 0 days 0 hours 23 minutes 17 seconds 286 msec
