                         Program Version 4.2.0 -  RELEASE  -
|  1> # Test redundant internal optimization
|  2> #
|  3> ! RKS B3LYP  Opt TightSCF SmallPrint
|  4>
|  5> %basis
|  6>         Basis "6-31G"
|  7> end
|  8>
|  9> %geom
| 10> Constraints
| 11> { D 4  0  15  12  270.0   C } # D for Dihedral angle
| 12> { D 0  15  12  16  240.0   C } # D for Dihedral angle
| 13> { D 0  4  3  2   C } # D for Dihedral angle
| 14> { D 4  3  2  1   C } # D for Dihedral angle
| 15> { D 3  2  1  0   C } # D for Dihedral angle
| 16> { D 2  1  0  4   C } # D for Dihedral angle
| 17> { D 1  0  4  3   C } # D for Dihedral angle
| 18> { D 16  20  19  18   C } # D for Dihedral angle
| 19> { D 20  19  18  17   C } # D for Dihedral angle
| 20> { D 19  18  17  16   C } # D for Dihedral angle
| 21> { D 18  17  16  20   C } # D for Dihedral angle
| 22> { D 17  16  20  19   C } # D for Dihedral angle
| 23> { D 15  12  16  20   C } # D for Dihedral angle
| 24> end
| 25> end
| 26>
| 27>
| 28> #%pal
| 29> #nprocs 8
| 30> #end
| 31>
| 32> * xyz 0 1
| 33> C  -21.048   26.222   46.251
| 34> C  -20.361   27.558   45.944
| 35> C  -20.329   28.222   47.341
| 36> C  -20.110   27.022   48.296
| 37> O  -20.473   25.807   47.535
| 38> H  -20.833   25.428   45.533
| 39> H  -19.344   27.382   45.576
| 40> H  -20.898   28.157   45.201
| 41> H  -19.543   28.978   47.434
| 42> H  -21.289   28.710   47.548
| 43> H  -20.733   27.082   49.195
| 44> H  -19.064   26.913   48.597
| 45> C  -23.420   25.119   46.072
| 46> H  -22.741   24.293   45.824
| 47> H  -24.008   24.827   46.952
| 48> O  -22.586   26.394   46.375
| 49> C  -24.406   25.313   44.887
| 50> C  -25.331   26.513   45.124
| 51> C  -24.409   27.698   44.752
| 52> C  -23.556   27.129   43.591
| 53> O  -23.675   25.656   43.663
| 54> H  -24.926   24.373   44.697
| 55> O  -26.549   26.444   44.163
| 56> H  -25.705   26.572   46.152
| 57> H  -24.965   28.595   44.460
| 58> H  -23.772   27.962   45.605
| 59> H  -22.500   27.408   43.669
| 60> H  -23.930   27.434   42.609
| 61> H  -26.198   26.384   43.127
| 62> *
| 63>
| 64>                          ****END OF INPUT****
 Total Charge           Charge          ....    0
 Multiplicity           Mult            ....    1
 Number of Electrons    NEL             ....  102
FINAL SINGLE POINT ENERGY      -652.838360913489
FINAL SINGLE POINT ENERGY      -652.861406829830
FINAL SINGLE POINT ENERGY      -652.865738054204
FINAL SINGLE POINT ENERGY      -652.867117107565
FINAL SINGLE POINT ENERGY      -652.867239829375
FINAL SINGLE POINT ENERGY      -652.867256013759
                    ***********************HURRAY********************

CARTESIAN COORDINATES (ANGSTROEM)
---------------------------------
  C    -21.049016   26.157652   46.248752
  C    -20.408595   27.517766   45.969005
  C    -20.384682   28.155970   47.379320
  C    -20.120667   26.943584   48.300929
  O    -20.458624   25.742420   47.499341
  H    -20.837717   25.370689   45.520150
  H    -19.390610   27.363665   45.593011
  H    -20.970686   28.101589   45.237917
  H    -19.617295   28.929570   47.479542
  H    -21.358808   28.603145   47.598957
  H    -20.736479   26.949693   49.203757
  H    -19.067934   26.846391   48.582778
  C    -23.324011   25.196748   46.104843
  H    -22.696112   24.331527   45.859703
  H    -23.884535   24.962387   47.018514
  O    -22.477204   26.353595   46.369939
  C    -24.295742   25.430648   44.950186
  C    -25.304862   26.579141   45.099862
  C    -24.469402   27.797341   44.629427
  C    -23.580905   27.200352   43.510194
  O    -23.594874   25.729780   43.698741
  H    -24.835505   24.488821   44.789364
  O    -26.470666   26.349940   44.258821
  H    -25.698081   26.688777   46.110950
  H    -25.119538   28.601324   44.274088
  H    -23.857274   28.157094   45.458284
  H    -22.547571   27.554624   43.558075
  H    -23.973250   27.398612   42.507106
  H    -26.171354   26.092151   43.361443

 Multiplicity           Mult            ....    1
 Number of Electrons    NEL             ....  102
 Basis Dimension        Dim             ....  149

ORBITAL ENERGIES
----------------

  NO   OCC          E(Eh)            E(eV)
   0   2.0000     -19.148515      -521.0576
   1   2.0000     -19.142424      -520.8918
   2   2.0000     -19.139455      -520.8110
   3   2.0000     -19.135382      -520.7002
   4   2.0000     -10.281147      -279.7642
   5   2.0000     -10.237630      -278.5801
   6   2.0000     -10.234171      -278.4860
   7   2.0000     -10.233416      -278.4654
   8   2.0000     -10.227765      -278.3116
   9   2.0000     -10.225786      -278.2578
  10   2.0000     -10.188116      -277.2327
  11   2.0000     -10.187475      -277.2153
  12   2.0000     -10.179020      -276.9852
  13   2.0000      -1.056015       -28.7356
  14   2.0000      -1.034277       -28.1441
  15   2.0000      -1.004918       -27.3452
  16   2.0000      -0.994969       -27.0745
  17   2.0000      -0.790958       -21.5231
  18   2.0000      -0.776790       -21.1375
  19   2.0000      -0.766573       -20.8595
  20   2.0000      -0.732115       -19.9219
  21   2.0000      -0.675665       -18.3858
  22   2.0000      -0.601298       -16.3622
  23   2.0000      -0.599625       -16.3166
  24   2.0000      -0.597800       -16.2670
  25   2.0000      -0.579347       -15.7648
  26   2.0000      -0.526491       -14.3265
  27   2.0000      -0.507418       -13.8076
  28   2.0000      -0.496077       -13.4989
  29   2.0000      -0.490394       -13.3443
  30   2.0000      -0.470731       -12.8092
  31   2.0000      -0.462474       -12.5845
  32   2.0000      -0.449503       -12.2316
  33   2.0000      -0.434304       -11.8180
  34   2.0000      -0.429415       -11.6850
  35   2.0000      -0.411360       -11.1937
  36   2.0000      -0.398829       -10.8527
  37   2.0000      -0.390806       -10.6344
  38   2.0000      -0.378853       -10.3091
  39   2.0000      -0.364929        -9.9302
  40   2.0000      -0.359562        -9.7842
  41   2.0000      -0.357615        -9.7312
  42   2.0000      -0.348828        -9.4921
  43   2.0000      -0.332764        -9.0550
  44   2.0000      -0.322474        -8.7750
  45   2.0000      -0.307862        -8.3774
  46   2.0000      -0.301410        -8.2018
  47   2.0000      -0.277243        -7.5442
  48   2.0000      -0.265818        -7.2333
  49   2.0000      -0.255321        -6.9476
  50   2.0000      -0.241665        -6.5761
  51   0.0000       0.063167         1.7189
  52   0.0000       0.082138         2.2351
  53   0.0000       0.087062         2.3691
  54   0.0000       0.103807         2.8247
  55   0.0000       0.105881         2.8812

MULLIKEN ATOMIC CHARGES
-----------------------
   0 C :    0.286266
   1 C :   -0.267120
   2 C :   -0.301654
   3 C :   -0.000237
   4 O :   -0.507447
   5 H :    0.155941
   6 H :    0.148321
   7 H :    0.153241
   8 H :    0.142203
   9 H :    0.160336
  10 H :    0.148527
  11 H :    0.142478
  12 C :   -0.003208
  13 H :    0.149317
  14 H :    0.144587
  15 O :   -0.526614
  16 C :    0.069436
  17 C :    0.082910
  18 C :   -0.289320
  19 C :   -0.024395
  20 O :   -0.531475
  21 H :    0.154779
  22 O :   -0.604650
  23 H :    0.152816
  24 H :    0.149883
  25 H :    0.171922
  26 H :    0.143604
  27 H :    0.137358
  28 H :    0.362193
Sum of atomic charges:   -0.0000000

LOEWDIN ATOMIC CHARGES
----------------------
   0 C :    0.174361
   1 C :   -0.216929
   2 C :   -0.216707
   3 C :   -0.026826
   4 O :   -0.325448
   5 H :    0.104198
   6 H :    0.115806
   7 H :    0.118103
   8 H :    0.113813
   9 H :    0.117457
  10 H :    0.106250
  11 H :    0.102653
  12 C :   -0.033629
  13 H :    0.109988
  14 H :    0.107714
  15 O :   -0.331127
  16 C :    0.008122
  17 C :    0.040272
  18 C :   -0.241556
  19 C :   -0.033695
  20 O :   -0.334449
  21 H :    0.115762
  22 O :   -0.417311
  23 H :    0.116845
  24 H :    0.119298
  25 H :    0.127915
  26 H :    0.100677
  27 H :    0.097054
  28 H :    0.281388

  Mayer bond orders larger than 0.100000
B(  0-C ,  1-C ) :   0.9479 B(  0-C ,  4-O ) :   0.9167 B(  0-C ,  5-H ) :   0.9154
B(  0-C , 15-O ) :   0.8462 B(  1-C ,  2-C ) :   0.9554 B(  1-C ,  6-H ) :   0.9393
B(  1-C ,  7-H ) :   0.9323 B(  2-C ,  3-C ) :   0.9544 B(  2-C ,  8-H ) :   0.9452
B(  2-C ,  9-H ) :   0.9445 B(  3-C ,  4-O ) :   0.8386 B(  3-C , 10-H ) :   0.9354
B(  3-C , 11-H ) :   0.9401 B( 12-C , 13-H ) :   0.9195 B( 12-C , 14-H ) :   0.9224
B( 12-C , 15-O ) :   0.8503 B( 12-C , 16-C ) :   0.8959 B( 16-C , 17-C ) :   0.9113
B( 16-C , 20-O ) :   0.8656 B( 16-C , 21-H ) :   0.9186 B( 17-C , 18-C ) :   0.9234
B( 17-C , 22-O ) :   0.8894 B( 17-C , 23-H ) :   0.9356 B( 18-C , 19-C ) :   0.9448
B( 18-C , 24-H ) :   0.9373 B( 18-C , 25-H ) :   0.9193 B( 19-C , 20-O ) :   0.8414
B( 19-C , 26-H ) :   0.9293 B( 19-C , 27-H ) :   0.9372 B( 22-O , 28-H ) :   0.7962

FINAL SINGLE POINT ENERGY      -652.867256538953

DIPOLE MOMENT
-------------
                                X             Y             Z
Electronic contribution:     -2.89709      -4.70673      -1.17651
Nuclear contribution   :      3.56727       5.44784       1.19160
                        -----------------------------------------
Total Dipole Moment    :      0.67018       0.74111       0.01508
                        -----------------------------------------
Magnitude (a.u.)       :      0.99931
Magnitude (Debye)      :      2.54004

Rotational constants in cm-1:     0.059597     0.013902     0.013249
Rotational constants in MHz :  1786.658371   416.775054   397.190965

                             ****ORCA TERMINATED NORMALLY****
TOTAL RUN TIME: 0 days 0 hours 17 minutes 39 seconds 829 msec
