                         Program Version 4.2.1 -  RELEASE  -
|  1> # Test redundant internal optimization
|  2> #
|  3> ! RKS B3LYP  Opt TightSCF SmallPrint
|  4>
|  5> %basis
|  6>         Basis "6-31G"
|  7> end
|  8>
|  9> %geom
| 10> Constraints
| 11> { D 4  0  19  14  270.0   C } # D for Dihedral angle
| 12> { D 0  19  14  12  0.0   C } # D for Dihedral angle
| 13> { D 0  4  3  2   C } # D for Dihedral angle
| 14> { D 4  3  2  1   C } # D for Dihedral angle
| 15> { D 3  2  1  0   C } # D for Dihedral angle
| 16> { D 2  1  0  4   C } # D for Dihedral angle
| 17> { D 1  0  4  3   C } # D for Dihedral angle
| 18> { D 14  15  16  17   C } # D for Dihedral angle
| 19> { D 15  16  17  12   C } # D for Dihedral angle
| 20> { D 16  17  12  14   C } # D for Dihedral angle
| 21> { D 17  12  14  15   C } # D for Dihedral angle
| 22> { D 12  14  15  16   C } # D for Dihedral angle
| 23> end
| 24> end
| 25>
| 26>
| 27> #%pal
| 28> #nprocs 8
| 29> #end
| 30>
| 31> * xyz 0 1
| 32> C  -21.048   26.222   46.251
| 33> C  -20.361   27.558   45.944
| 34> C  -20.329   28.222   47.341
| 35> C  -20.110   27.022   48.296
| 36> O  -20.473   25.807   47.535
| 37> H  -20.833   25.428   45.533
| 38> H  -19.344   27.382   45.576
| 39> H  -20.898   28.157   45.201
| 40> H  -19.543   28.978   47.434
| 41> H  -21.289   28.710   47.548
| 42> H  -20.733   27.082   49.195
| 43> H  -19.064   26.913   48.597
| 44> C  -22.277   24.041   45.724
| 45> H  -22.815   23.218   45.228
| 46> C  -23.226   25.191   46.082
| 47> C  -23.900   24.653   47.365
| 48> C  -22.763   23.859   48.055
| 49> O  -21.742   23.598   47.016
| 50> H  -21.424   24.333   45.109
| 51> O  -22.472   26.381   46.366
| 52> H  -23.945   25.419   45.288
| 53> H  -24.299   25.449   48.002
| 54> H  -24.732   23.987   47.103
| 55> H  -23.107   22.904   48.467
| 56> H  -22.275   24.432   48.849
| 57> *
| 58>
| 59>                          ****END OF INPUT****
 Total Charge           Charge          ....    0
 Multiplicity           Mult            ....    1
 Number of Electrons    NEL             ....   86
FINAL SINGLE POINT ENERGY      -538.400574665957
FINAL SINGLE POINT ENERGY      -538.427776451209
FINAL SINGLE POINT ENERGY      -538.429693249508
FINAL SINGLE POINT ENERGY      -538.429998481071
FINAL SINGLE POINT ENERGY      -538.430037297067
FINAL SINGLE POINT ENERGY      -538.430045633073
                    ***********************HURRAY********************

CARTESIAN COORDINATES (ANGSTROEM)
---------------------------------
  C    -20.826484   26.238494   46.237658
  C    -20.349156   27.669458   45.978547
  C    -20.440764   28.295226   47.391582
  C    -20.055528   27.119562   48.317506
  O    -20.220835   25.887322   47.507941
  H    -20.477496   25.494888   45.520699
  H    -19.310823   27.645148   45.628289
  H    -20.966305   28.180693   45.237346
  H    -19.778359   29.157236   47.514974
  H    -21.468748   28.616826   47.582406
  H    -20.690141   27.050056   49.205090
  H    -19.006899   27.152421   48.628812
  C    -22.450222   23.799695   45.683046
  H    -23.200334   23.127356   45.238498
  C    -23.128803   25.117148   46.056334
  C    -23.822737   24.744137   47.378177
  C    -22.837854   23.749977   48.037091
  O    -21.945461   23.275729   46.949768
  H    -21.605880   23.877548   44.995972
  O    -22.262326   26.276988   46.315632
  H    -23.837328   25.448421   45.289884
  H    -24.000675   25.636975   47.980685
  H    -24.787490   24.265536   47.169646
  H    -23.341254   22.888076   48.486752
  H    -22.190097   24.231086   48.772665

 Multiplicity           Mult            ....    1
 Number of Electrons    NEL             ....   86
 Basis Dimension        Dim             ....  127

ORBITAL ENERGIES
----------------

  NO   OCC          E(Eh)            E(eV)
   0   2.0000     -19.137491      -520.7576
   1   2.0000     -19.130502      -520.5674
   2   2.0000     -19.126762      -520.4656
   3   2.0000     -10.273927      -279.5678
   4   2.0000     -10.240776      -278.6657
   5   2.0000     -10.226750      -278.2840
   6   2.0000     -10.218370      -278.0560
   7   2.0000     -10.214249      -277.9439
   8   2.0000     -10.180297      -277.0200
   9   2.0000     -10.180086      -277.0142
  10   2.0000     -10.180022      -277.0125
  11   2.0000      -1.045799       -28.4576
  12   2.0000      -1.010080       -27.4857
  13   2.0000      -0.983707       -26.7680
  14   2.0000      -0.789369       -21.4798
  15   2.0000      -0.772379       -21.0175
  16   2.0000      -0.735450       -20.0126
  17   2.0000      -0.720230       -19.5985
  18   2.0000      -0.617456       -16.8018
  19   2.0000      -0.592886       -16.1333
  20   2.0000      -0.592211       -16.1149
  21   2.0000      -0.562373       -15.3029
  22   2.0000      -0.522581       -14.2202
  23   2.0000      -0.498098       -13.5539
  24   2.0000      -0.482378       -13.1262
  25   2.0000      -0.473842       -12.8939
  26   2.0000      -0.446903       -12.1608
  27   2.0000      -0.441680       -12.0187
  28   2.0000      -0.425194       -11.5701
  29   2.0000      -0.410558       -11.1719
  30   2.0000      -0.397891       -10.8272
  31   2.0000      -0.377566       -10.2741
  32   2.0000      -0.372911       -10.1474
  33   2.0000      -0.361429        -9.8350
  34   2.0000      -0.357124        -9.7178
  35   2.0000      -0.350551        -9.5390
  36   2.0000      -0.340181        -9.2568
  37   2.0000      -0.318539        -8.6679
  38   2.0000      -0.303990        -8.2720
  39   2.0000      -0.287088        -7.8121
  40   2.0000      -0.262764        -7.1502
  41   2.0000      -0.241294        -6.5659
  42   2.0000      -0.232828        -6.3356
  43   0.0000       0.080454         2.1893
  44   0.0000       0.101450         2.7606
  45   0.0000       0.102621         2.7925
  46   0.0000       0.106753         2.9049
  47   0.0000       0.116803         3.1784

MULLIKEN ATOMIC CHARGES
-----------------------
   0 C :    0.294353
   1 C :   -0.254258
   2 C :   -0.295779
   3 C :   -0.004068
   4 O :   -0.496276
   5 H :    0.145669
   6 H :    0.142899
   7 H :    0.149858
   8 H :    0.137144
   9 H :    0.158925
  10 H :    0.141450
  11 H :    0.140440
  12 C :   -0.035736
  13 H :    0.132953
  14 C :    0.098851
  15 C :   -0.291680
  16 C :    0.000502
  17 O :   -0.514233
  18 H :    0.155261
  19 O :   -0.540861
  20 H :    0.139298
  21 H :    0.162531
  22 H :    0.135426
  23 H :    0.131929
  24 H :    0.165402
Sum of atomic charges:    0.0000000

LOEWDIN ATOMIC CHARGES
----------------------
   0 C :    0.175081
   1 C :   -0.215456
   2 C :   -0.216073
   3 C :   -0.030209
   4 O :   -0.320202
   5 H :    0.099547
   6 H :    0.112366
   7 H :    0.120551
   8 H :    0.111592
   9 H :    0.117354
  10 H :    0.101829
  11 H :    0.101352
  12 C :   -0.051375
  13 H :    0.098000
  14 C :    0.045661
  15 C :   -0.229882
  16 C :   -0.029366
  17 O :   -0.325747
  18 H :    0.112031
  19 O :   -0.330559
  20 H :    0.105379
  21 H :    0.127227
  22 H :    0.108685
  23 H :    0.097645
  24 H :    0.114567

  Mayer bond orders larger than 0.100000
B(  0-C ,  1-C ) :   0.9413 B(  0-C ,  4-O ) :   0.9128 B(  0-C ,  5-H ) :   0.9141
B(  0-C , 19-O ) :   0.8534 B(  1-C ,  2-C ) :   0.9587 B(  1-C ,  6-H ) :   0.9404
B(  1-C ,  7-H ) :   0.9378 B(  2-C ,  3-C ) :   0.9530 B(  2-C ,  8-H ) :   0.9459
B(  2-C ,  9-H ) :   0.9447 B(  3-C ,  4-O ) :   0.8461 B(  3-C , 10-H ) :   0.9356
B(  3-C , 11-H ) :   0.9398 B( 12-C , 13-H ) :   0.9080 B( 12-C , 14-C ) :   0.9288
B( 12-C , 17-O ) :   0.8740 B( 12-C , 18-H ) :   0.9244 B( 14-C , 15-C ) :   0.9397
B( 14-C , 19-O ) :   0.8412 B( 14-C , 20-H ) :   0.9310 B( 15-C , 16-C ) :   0.9479
B( 15-C , 21-H ) :   0.9369 B( 15-C , 22-H ) :   0.9381 B( 16-C , 17-O ) :   0.8449
B( 16-C , 23-H ) :   0.9342 B( 16-C , 24-H ) :   0.9296

FINAL SINGLE POINT ENERGY      -538.430046479868

DIPOLE MOMENT
-------------
                                X             Y             Z
Electronic contribution:      0.74450      -2.84113      -0.92221
Nuclear contribution   :     -1.30934       3.59243       0.58016
                        -----------------------------------------
Total Dipole Moment    :     -0.56484       0.75129      -0.34205
                        -----------------------------------------
Magnitude (a.u.)       :      1.00024
Magnitude (Debye)      :      2.54241

Rotational constants in cm-1:     0.072105     0.024909     0.023430
Rotational constants in MHz :  2161.649166   746.760614   702.400231

                             ****ORCA TERMINATED NORMALLY****
TOTAL RUN TIME: 0 days 0 hours 7 minutes 57 seconds 694 msec
