                         Program Version 4.2.1 -  RELEASE  -
|  1> # Test redundant internal optimization
|  2> #
|  3> ! RKS B3LYP  Opt TightSCF SmallPrint
|  4>
|  5> %basis
|  6>         Basis "6-31G"
|  7> end
|  8>
|  9> %geom
| 10> Constraints
| 11> { D 4  0  19  14  240.0   C } # D for Dihedral angle
| 12> { D 0  19  14  12  45.0   C } # D for Dihedral angle
| 13> { D 0  4  3  2   C } # D for Dihedral angle
| 14> { D 4  3  2  1   C } # D for Dihedral angle
| 15> { D 3  2  1  0   C } # D for Dihedral angle
| 16> { D 2  1  0  4   C } # D for Dihedral angle
| 17> { D 1  0  4  3   C } # D for Dihedral angle
| 18> { D 14  15  16  17   C } # D for Dihedral angle
| 19> { D 15  16  17  12   C } # D for Dihedral angle
| 20> { D 16  17  12  14   C } # D for Dihedral angle
| 21> { D 17  12  14  15   C } # D for Dihedral angle
| 22> { D 12  14  15  16   C } # D for Dihedral angle
| 23> end
| 24> end
| 25>
| 26>
| 27> #%pal
| 28> #nprocs 8
| 29> #end
| 30>
| 31> * xyz 0 1
| 32> C  -21.048   26.222   46.251
| 33> C  -20.361   27.558   45.944
| 34> C  -20.329   28.222   47.341
| 35> C  -20.110   27.022   48.296
| 36> O  -20.473   25.807   47.535
| 37> H  -20.833   25.428   45.533
| 38> H  -19.344   27.382   45.576
| 39> H  -20.898   28.157   45.201
| 40> H  -19.543   28.978   47.434
| 41> H  -21.289   28.710   47.548
| 42> H  -20.733   27.082   49.195
| 43> H  -19.064   26.913   48.597
| 44> C  -22.674   24.104   45.530
| 45> H  -23.037   23.509   44.678
| 46> C  -23.235   25.530   45.496
| 47> C  -24.663   25.319   46.052
| 48> C  -24.470   24.198   47.102
| 49> O  -23.176   23.549   46.792
| 50> H  -21.585   24.047   45.568
| 51> O  -22.472   26.381   46.366
| 52> H  -23.231   25.969   44.492
| 53> H  -25.088   26.229   46.486
| 54> H  -25.334   24.986   45.250
| 55> H  -25.266   23.446   47.067
| 56> H  -24.397   24.588   48.122
| 57> *
| 58>
| 59>                          ****END OF INPUT****
 Total Charge           Charge          ....    0
 Multiplicity           Mult            ....    1
 Number of Electrons    NEL             ....   86
FINAL SINGLE POINT ENERGY      -538.418459369809
FINAL SINGLE POINT ENERGY      -538.427949216832
FINAL SINGLE POINT ENERGY      -538.429009181731
FINAL SINGLE POINT ENERGY      -538.429233319482
FINAL SINGLE POINT ENERGY      -538.429254865418
FINAL SINGLE POINT ENERGY      -538.429261644295
                    ***********************HURRAY********************

CARTESIAN COORDINATES (ANGSTROEM)
---------------------------------
  C    -20.902496   26.191211   46.242232
  C    -20.321995   27.579362   45.970755
  C    -20.440709   28.253546   47.359843
  C    -20.177686   27.082713   48.332705
  O    -20.385528   25.844197   47.542606
  H    -20.578363   25.412248   45.550469
  H    -19.270704   27.484810   45.673358
  H    -20.865995   28.110038   45.185919
  H    -19.731462   29.075855   47.492438
  H    -21.454618   28.642875   47.491371
  H    -20.859442   27.072573   49.186944
  H    -19.145123   27.054701   48.694063
  C    -22.806474   23.963220   45.404352
  H    -23.335677   23.475514   44.571740
  C    -23.188464   25.441578   45.443099
  C    -24.565141   25.388521   46.129337
  C    -24.418003   24.228840   47.142170
  O    -23.247541   23.438495   46.697713
  H    -21.741234   23.746204   45.319412
  O    -22.346507   26.295537   46.280439
  H    -23.240114   25.874135   44.434026
  H    -24.794319   26.345842   46.602534
  H    -25.339403   25.170812   45.384540
  H    -25.299971   23.579153   47.168921
  H    -24.196030   24.584020   48.151012

 Multiplicity           Mult            ....    1
 Number of Electrons    NEL             ....   86
 Basis Dimension        Dim             ....  127

ORBITAL ENERGIES
----------------

  NO   OCC          E(Eh)            E(eV)
   0   2.0000     -19.138330      -520.7804
   1   2.0000     -19.132629      -520.6253
   2   2.0000     -19.127174      -520.4769
   3   2.0000     -10.276086      -279.6265
   4   2.0000     -10.242150      -278.7031
   5   2.0000     -10.224714      -278.2286
   6   2.0000     -10.219668      -278.0913
   7   2.0000     -10.217196      -278.0240
   8   2.0000     -10.184051      -277.1221
   9   2.0000     -10.182016      -277.0667
  10   2.0000     -10.181708      -277.0584
  11   2.0000      -1.048051       -28.5189
  12   2.0000      -1.011924       -27.5359
  13   2.0000      -0.986148       -26.8345
  14   2.0000      -0.789485       -21.4830
  15   2.0000      -0.774879       -21.0855
  16   2.0000      -0.736081       -20.0298
  17   2.0000      -0.722488       -19.6599
  18   2.0000      -0.616008       -16.7624
  19   2.0000      -0.594756       -16.1841
  20   2.0000      -0.592702       -16.1282
  21   2.0000      -0.567278       -15.4364
  22   2.0000      -0.525805       -14.3079
  23   2.0000      -0.497846       -13.5471
  24   2.0000      -0.485793       -13.2191
  25   2.0000      -0.474540       -12.9129
  26   2.0000      -0.448792       -12.2122
  27   2.0000      -0.442504       -12.0411
  28   2.0000      -0.431461       -11.7407
  29   2.0000      -0.413618       -11.2551
  30   2.0000      -0.400168       -10.8891
  31   2.0000      -0.376356       -10.2412
  32   2.0000      -0.369329       -10.0499
  33   2.0000      -0.363890        -9.9020
  34   2.0000      -0.359587        -9.7849
  35   2.0000      -0.352442        -9.5904
  36   2.0000      -0.344331        -9.3697
  37   2.0000      -0.315891        -8.5958
  38   2.0000      -0.304174        -8.2770
  39   2.0000      -0.295146        -8.0313
  40   2.0000      -0.260456        -7.0874
  41   2.0000      -0.243366        -6.6223
  42   2.0000      -0.233744        -6.3605
  43   0.0000       0.080832         2.1995
  44   0.0000       0.098144         2.6706
  45   0.0000       0.105555         2.8723
  46   0.0000       0.109365         2.9760
  47   0.0000       0.120845         3.2883

MULLIKEN ATOMIC CHARGES
-----------------------
   0 C :    0.289881
   1 C :   -0.252302
   2 C :   -0.298355
   3 C :   -0.000016
   4 O :   -0.497403
   5 H :    0.136255
   6 H :    0.141154
   7 H :    0.142766
   8 H :    0.138741
   9 H :    0.160308
  10 H :    0.149918
  11 H :    0.139498
  12 C :   -0.012763
  13 H :    0.126059
  14 C :    0.083021
  15 C :   -0.288928
  16 C :    0.001614
  17 O :   -0.515049
  18 H :    0.160961
  19 O :   -0.525663
  20 H :    0.125992
  21 H :    0.163277
  22 H :    0.138107
  23 H :    0.134044
  24 H :    0.158883
Sum of atomic charges:   -0.0000000

LOEWDIN ATOMIC CHARGES
----------------------
   0 C :    0.175695
   1 C :   -0.220116
   2 C :   -0.216556
   3 C :   -0.026660
   4 O :   -0.312861
   5 H :    0.096798
   6 H :    0.111175
   7 H :    0.116474
   8 H :    0.112588
   9 H :    0.118185
  10 H :    0.106876
  11 H :    0.101115
  12 C :   -0.049058
  13 H :    0.094242
  14 C :    0.041556
  15 C :   -0.222461
  16 C :   -0.027438
  17 O :   -0.326284
  18 H :    0.115907
  19 O :   -0.330404
  20 H :    0.093186
  21 H :    0.128631
  22 H :    0.110366
  23 H :    0.097606
  24 H :    0.111438

  Mayer bond orders larger than 0.100000
B(  0-C ,  1-C ) :   0.9405 B(  0-C ,  4-O ) :   0.9313 B(  0-C ,  5-H ) :   0.9157
B(  0-C , 19-O ) :   0.8402 B(  1-C ,  2-C ) :   0.9583 B(  1-C ,  6-H ) :   0.9376
B(  1-C ,  7-H ) :   0.9392 B(  2-C ,  3-C ) :   0.9534 B(  2-C ,  8-H ) :   0.9456
B(  2-C ,  9-H ) :   0.9442 B(  3-C ,  4-O ) :   0.8415 B(  3-C , 10-H ) :   0.9348
B(  3-C , 11-H ) :   0.9398 B( 12-C , 13-H ) :   0.9073 B( 12-C , 14-C ) :   0.9156
B( 12-C , 17-O ) :   0.8767 B( 12-C , 18-H ) :   0.9241 B( 14-C , 15-C ) :   0.9556
B( 14-C , 19-O ) :   0.8419 B( 14-C , 20-H ) :   0.9220 B( 15-C , 16-C ) :   0.9448
B( 15-C , 21-H ) :   0.9365 B( 15-C , 22-H ) :   0.9412 B( 16-C , 17-O ) :   0.8551
B( 16-C , 23-H ) :   0.9332 B( 16-C , 24-H ) :   0.9358

FINAL SINGLE POINT ENERGY      -538.429262097197

DIPOLE MOMENT
-------------
                                X             Y             Z
Electronic contribution:      0.56626      -3.41905       0.60861
Nuclear contribution   :     -0.78784       4.45421      -1.44956
                        -----------------------------------------
Total Dipole Moment    :     -0.22158       1.03516      -0.84095
                        -----------------------------------------
Magnitude (a.u.)       :      1.35198
Magnitude (Debye)      :      3.43646

Rotational constants in cm-1:     0.076897     0.021570     0.020791
Rotational constants in MHz :  2305.301898   646.650878   623.285352

                             ****ORCA TERMINATED NORMALLY****
TOTAL RUN TIME: 0 days 0 hours 6 minutes 50 seconds 223 msec
