                         Program Version 4.2.1 -  RELEASE  -
|  1> # Test redundant internal optimization
|  2> #
|  3> ! RKS B3LYP  Opt TightSCF SmallPrint
|  4>
|  5> %basis
|  6>         Basis "6-31G"
|  7> end
|  8>
|  9> %geom
| 10> Constraints
| 11> { D 4  0  19  14  330.0   C } # D for Dihedral angle
| 12> { D 0  19  14  12  15.0   C } # D for Dihedral angle
| 13> { D 0  4  3  2   C } # D for Dihedral angle
| 14> { D 4  3  2  1   C } # D for Dihedral angle
| 15> { D 3  2  1  0   C } # D for Dihedral angle
| 16> { D 2  1  0  4   C } # D for Dihedral angle
| 17> { D 1  0  4  3   C } # D for Dihedral angle
| 18> { D 14  15  16  17   C } # D for Dihedral angle
| 19> { D 15  16  17  12   C } # D for Dihedral angle
| 20> { D 16  17  12  14   C } # D for Dihedral angle
| 21> { D 17  12  14  15   C } # D for Dihedral angle
| 22> { D 12  14  15  16   C } # D for Dihedral angle
| 23> end
| 24> end
| 25>
| 26>
| 27> #%pal
| 28> #nprocs 8
| 29> #end
| 30>
| 31> * xyz 0 1
| 32> C  -21.048   26.222   46.251
| 33> C  -20.361   27.558   45.944
| 34> C  -20.329   28.222   47.341
| 35> C  -20.110   27.022   48.296
| 36> O  -20.473   25.807   47.535
| 37> H  -20.833   25.428   45.533
| 38> H  -19.344   27.382   45.576
| 39> H  -20.898   28.157   45.201
| 40> H  -19.543   28.978   47.434
| 41> H  -21.289   28.710   47.548
| 42> H  -20.733   27.082   49.195
| 43> H  -19.064   26.913   48.597
| 44> C  -22.018   24.926   48.264
| 45> H  -22.408   24.059   48.820
| 46> C  -23.087   25.523   47.341
| 47> C  -23.936   26.348   48.336
| 48> C  -22.886   26.870   49.348
| 49> O  -21.686   26.018   49.186
| 50> H  -21.093   24.641   47.760
| 51> O  -22.472   26.381   46.366
| 52> H  -23.672   24.763   46.812
| 53> H  -24.489   27.159   47.852
| 54> H  -24.666   25.699   48.837
| 55> H  -23.233   26.807   50.385
| 56> H  -22.579   27.899   49.139
| 57> *
| 58>
| 59>                          ****END OF INPUT****
 Total Charge           Charge          ....    0
 Multiplicity           Mult            ....    1
 Number of Electrons    NEL             ....   86
FINAL SINGLE POINT ENERGY      -538.232905122610
FINAL SINGLE POINT ENERGY      -538.311141029698
FINAL SINGLE POINT ENERGY      -538.351585710241
FINAL SINGLE POINT ENERGY      -538.377798911412
FINAL SINGLE POINT ENERGY      -538.394721980180
FINAL SINGLE POINT ENERGY      -538.405870110220
FINAL SINGLE POINT ENERGY      -538.413412256063
FINAL SINGLE POINT ENERGY      -538.418710691158
FINAL SINGLE POINT ENERGY      -538.422492649215
FINAL SINGLE POINT ENERGY      -538.425096642341
FINAL SINGLE POINT ENERGY      -538.426719084330
FINAL SINGLE POINT ENERGY      -538.427538816136
FINAL SINGLE POINT ENERGY      -538.427761054998
FINAL SINGLE POINT ENERGY      -538.427854480364
FINAL SINGLE POINT ENERGY      -538.427940207082
FINAL SINGLE POINT ENERGY      -538.427988105663
FINAL SINGLE POINT ENERGY      -538.428013865570
FINAL SINGLE POINT ENERGY      -538.428023587091
                    ***********************HURRAY********************

CARTESIAN COORDINATES (ANGSTROEM)
---------------------------------
  C    -20.850487   26.256613   46.239854
  C    -20.429446   27.678760   45.873033
  C    -20.225058   28.319252   47.265794
  C    -19.663577   27.153292   48.111138
  O    -20.008050   25.913418   47.351953
  H    -20.645500   25.501730   45.473447
  H    -19.485826   27.638138   45.316171
  H    -21.181441   28.187460   45.266647
  H    -19.545558   29.176753   47.238026
  H    -21.188023   28.656687   47.659697
  H    -20.110908   27.065346   49.100686
  H    -18.571976   27.171130   48.185468
  C    -22.302734   24.725656   48.546031
  H    -22.961471   23.938555   48.942433
  C    -23.044024   25.469744   47.432902
  C    -23.986400   26.378032   48.243803
  C    -23.150559   26.746629   49.494015
  O    -22.057485   25.749360   49.575151
  H    -21.337820   24.312336   48.267302
  O    -22.289437   26.279206   46.477050
  H    -23.617539   24.755020   46.826899
  H    -24.292121   27.247138   47.657269
  H    -24.881680   25.811321   48.523129
  H    -23.737766   26.709258   50.418341
  H    -22.685116   27.733166   49.410761

 Multiplicity           Mult            ....    1
 Number of Electrons    NEL             ....   86
 Basis Dimension        Dim             ....  127

ORBITAL ENERGIES
----------------

  NO   OCC          E(Eh)            E(eV)
   0   2.0000     -19.139457      -520.8111
   1   2.0000     -19.133101      -520.6381
   2   2.0000     -19.129921      -520.5516
   3   2.0000     -10.276250      -279.6310
   4   2.0000     -10.238578      -278.6059
   5   2.0000     -10.221944      -278.1532
   6   2.0000     -10.216526      -278.0058
   7   2.0000     -10.215577      -277.9800
   8   2.0000     -10.182926      -277.0915
   9   2.0000     -10.181747      -277.0594
  10   2.0000     -10.180158      -277.0162
  11   2.0000      -1.045277       -28.4434
  12   2.0000      -1.009805       -27.4782
  13   2.0000      -0.984251       -26.7828
  14   2.0000      -0.790033       -21.4979
  15   2.0000      -0.774300       -21.0698
  16   2.0000      -0.735450       -20.0126
  17   2.0000      -0.719473       -19.5779
  18   2.0000      -0.613548       -16.6955
  19   2.0000      -0.598650       -16.2901
  20   2.0000      -0.590640       -16.0721
  21   2.0000      -0.561121       -15.2689
  22   2.0000      -0.510898       -13.9022
  23   2.0000      -0.498190       -13.5564
  24   2.0000      -0.485498       -13.2111
  25   2.0000      -0.481382       -13.0991
  26   2.0000      -0.444161       -12.0862
  27   2.0000      -0.439083       -11.9481
  28   2.0000      -0.423842       -11.5333
  29   2.0000      -0.406928       -11.0731
  30   2.0000      -0.398501       -10.8438
  31   2.0000      -0.381849       -10.3907
  32   2.0000      -0.371397       -10.1062
  33   2.0000      -0.362604        -9.8670
  34   2.0000      -0.356988        -9.7141
  35   2.0000      -0.351198        -9.5566
  36   2.0000      -0.339617        -9.2415
  37   2.0000      -0.325681        -8.8622
  38   2.0000      -0.304769        -8.2932
  39   2.0000      -0.292614        -7.9624
  40   2.0000      -0.251126        -6.8335
  41   2.0000      -0.247483        -6.7344
  42   2.0000      -0.235372        -6.4048
  43   0.0000       0.073445         1.9985
  44   0.0000       0.092161         2.5078
  45   0.0000       0.101997         2.7755
  46   0.0000       0.112947         3.0734
  47   0.0000       0.115341         3.1386

MULLIKEN ATOMIC CHARGES
-----------------------
   0 C :    0.311797
   1 C :   -0.260435
   2 C :   -0.308108
   3 C :   -0.020474
   4 O :   -0.514795
   5 H :    0.144259
   6 H :    0.143109
   7 H :    0.156736
   8 H :    0.140871
   9 H :    0.152991
  10 H :    0.183718
  11 H :    0.141405
  12 C :   -0.025435
  13 H :    0.124609
  14 C :    0.107923
  15 C :   -0.297392
  16 C :   -0.007669
  17 O :   -0.523907
  18 H :    0.192314
  19 O :   -0.555468
  20 H :    0.132901
  21 H :    0.161921
  22 H :    0.142093
  23 H :    0.137203
  24 H :    0.139833
Sum of atomic charges:    0.0000000

LOEWDIN ATOMIC CHARGES
----------------------
   0 C :    0.185118
   1 C :   -0.215833
   2 C :   -0.217424
   3 C :   -0.034977
   4 O :   -0.316520
   5 H :    0.094771
   6 H :    0.112599
   7 H :    0.123732
   8 H :    0.113855
   9 H :    0.111761
  10 H :    0.122918
  11 H :    0.101906
  12 C :   -0.052552
  13 H :    0.093496
  14 C :    0.050752
  15 C :   -0.229508
  16 C :   -0.033344
  17 O :   -0.331635
  18 H :    0.133585
  19 O :   -0.349185
  20 H :    0.098983
  21 H :    0.127295
  22 H :    0.112612
  23 H :    0.098961
  24 H :    0.098633

  Mayer bond orders larger than 0.100000
B(  0-C ,  1-C ) :   0.9406 B(  0-C ,  4-O ) :   0.9189 B(  0-C ,  5-H ) :   0.9269
B(  0-C , 19-O ) :   0.8317 B(  1-C ,  2-C ) :   0.9572 B(  1-C ,  6-H ) :   0.9378
B(  1-C ,  7-H ) :   0.9371 B(  2-C ,  3-C ) :   0.9590 B(  2-C ,  8-H ) :   0.9446
B(  2-C ,  9-H ) :   0.9413 B(  3-C ,  4-O ) :   0.8147 B(  3-C , 10-H ) :   0.9133
B(  3-C , 11-H ) :   0.9395 B( 12-C , 13-H ) :   0.9102 B( 12-C , 14-C ) :   0.9271
B( 12-C , 17-O ) :   0.8448 B( 12-C , 18-H ) :   0.9139 B( 14-C , 15-C ) :   0.9391
B( 14-C , 19-O ) :   0.8441 B( 14-C , 20-H ) :   0.9286 B( 15-C , 16-C ) :   0.9491
B( 15-C , 21-H ) :   0.9370 B( 15-C , 22-H ) :   0.9395 B( 16-C , 17-O ) :   0.8573
B( 16-C , 23-H ) :   0.9340 B( 16-C , 24-H ) :   0.9327

FINAL SINGLE POINT ENERGY      -538.428027201842

DIPOLE MOMENT
-------------
                                X             Y             Z
Electronic contribution:      0.88619      -3.35188      -0.66022
Nuclear contribution   :     -1.30785       3.80574       0.40816
                        -----------------------------------------
Total Dipole Moment    :     -0.42166       0.45386      -0.25206
                        -----------------------------------------
Magnitude (a.u.)       :      0.66882
Magnitude (Debye)      :      1.70000

Rotational constants in cm-1:     0.061441     0.030027     0.027752
Rotational constants in MHz :  1841.940355   900.197904   831.978059

                             ****ORCA TERMINATED NORMALLY****
TOTAL RUN TIME: 0 days 0 hours 48 minutes 13 seconds 256 msec
