                         Program Version 4.2.0 -  RELEASE  -
|  1> # Test redundant internal optimization
|  2> #
|  3> ! RKS B3LYP  Opt TightSCF SmallPrint
|  4>
|  5> %basis
|  6>         Basis "6-31G"
|  7> end
|  8>
|  9> %geom
| 10> Constraints
| 11> { D 4  0  15  12  300.0   C } # D for Dihedral angle
| 12> { D 0  15  12  16  240.0   C } # D for Dihedral angle
| 13> { D 0  4  3  2   C } # D for Dihedral angle
| 14> { D 4  3  2  1   C } # D for Dihedral angle
| 15> { D 3  2  1  0   C } # D for Dihedral angle
| 16> { D 2  1  0  4   C } # D for Dihedral angle
| 17> { D 1  0  4  3   C } # D for Dihedral angle
| 18> { D 16  20  19  18   C } # D for Dihedral angle
| 19> { D 20  19  18  17   C } # D for Dihedral angle
| 20> { D 19  18  17  16   C } # D for Dihedral angle
| 21> { D 18  17  16  20   C } # D for Dihedral angle
| 22> { D 17  16  20  19   C } # D for Dihedral angle
| 23> { D 15  12  16  20   C } # D for Dihedral angle
| 24> end
| 25> end
| 26>
| 27>
| 28> #%pal
| 29> #nprocs 8
| 30> #end
| 31>
| 32> * xyz 0 1
| 33> C  -21.048   26.222   46.251
| 34> C  -20.361   27.558   45.944
| 35> C  -20.329   28.222   47.341
| 36> C  -20.110   27.022   48.296
| 37> O  -20.473   25.807   47.535
| 38> H  -20.833   25.428   45.533
| 39> H  -19.344   27.382   45.576
| 40> H  -20.898   28.157   45.201
| 41> H  -19.543   28.978   47.434
| 42> H  -21.289   28.710   47.548
| 43> H  -20.733   27.082   49.195
| 44> H  -19.064   26.913   48.597
| 45> C  -23.362   25.116   46.798
| 46> H  -22.651   24.294   46.946
| 47> H  -23.893   25.285   47.743
| 48> O  -22.586   26.394   46.375
| 49> C  -24.409   24.672   45.740
| 50> C  -25.387   25.807   45.413
| 51> C  -24.548   26.674   44.444
| 52> C  -23.718   25.625   43.662
| 53> O  -23.754   24.380   44.461
| 54> H  -24.885   23.748   46.073
| 55> H  -26.271   25.406   44.906
| 56> O  -25.854   26.590   46.670
| 57> H  -25.165   27.293   43.785
| 58> H  -23.889   27.342   45.011
| 59> H  -22.677   25.933   43.522
| 60> H  -24.153   25.393   42.685
| 61> H  -24.984   27.000   47.193
| 62> *
| 63>
| 64>                          ****END OF INPUT****
 Total Charge           Charge          ....    0
 Multiplicity           Mult            ....    1
 Number of Electrons    NEL             ....  102
FINAL SINGLE POINT ENERGY      -652.838136310091
FINAL SINGLE POINT ENERGY      -652.862294824812
FINAL SINGLE POINT ENERGY      -652.866810523239
FINAL SINGLE POINT ENERGY      -652.868445604489
FINAL SINGLE POINT ENERGY      -652.868580164951
FINAL SINGLE POINT ENERGY      -652.868604323673
FINAL SINGLE POINT ENERGY      -652.868605327425
                    ***********************HURRAY********************

CARTESIAN COORDINATES (ANGSTROEM)
---------------------------------
  C    -21.042401   26.166987   46.285201
  C    -20.409782   27.526837   45.991569
  C    -20.373848   28.168561   47.396792
  C    -20.096537   26.966021   48.325985
  O    -20.439030   25.755066   47.532931
  H    -20.838634   25.366241   45.569315
  H    -19.397838   27.373526   45.600464
  H    -20.985768   28.106416   45.266806
  H    -19.608611   28.945865   47.485289
  H    -21.347083   28.614386   47.622300
  H    -20.702171   26.975747   49.235647
  H    -19.040986   26.871530   48.596586
  C    -23.231412   25.180901   46.819143
  H    -22.543593   24.348874   46.997198
  H    -23.734531   25.412755   47.764881
  O    -22.471627   26.364420   46.404881
  C    -24.268694   24.774453   45.778456
  C    -25.341332   25.828259   45.449214
  C    -24.622674   26.689713   44.366765
  C    -23.784001   25.643153   43.601882
  O    -23.686970   24.448154   44.480954
  H    -24.734402   23.850560   46.143792
  H    -26.229529   25.340684   45.042702
  O    -25.815921   26.578850   46.592356
  H    -25.332133   27.215565   43.721088
  H    -23.978471   27.417189   44.866376
  H    -22.774444   25.995317   43.371956
  H    -24.266556   25.315118   42.676180
  H    -25.112022   27.191854   46.891291

 Multiplicity           Mult            ....    1
 Number of Electrons    NEL             ....  102
 Basis Dimension        Dim             ....  149

ORBITAL ENERGIES
----------------

  NO   OCC          E(Eh)            E(eV)
   0   2.0000     -19.149732      -521.0907
   1   2.0000     -19.145216      -520.9678
   2   2.0000     -19.138925      -520.7966
   3   2.0000     -19.134943      -520.6883
   4   2.0000     -10.281656      -279.7781
   5   2.0000     -10.235476      -278.5215
   6   2.0000     -10.229652      -278.3630
   7   2.0000     -10.227631      -278.3080
   8   2.0000     -10.225990      -278.2633
   9   2.0000     -10.223566      -278.1974
  10   2.0000     -10.190532      -277.2985
  11   2.0000     -10.190285      -277.2918
  12   2.0000     -10.179948      -277.0105
  13   2.0000      -1.058379       -28.8000
  14   2.0000      -1.026513       -27.9328
  15   2.0000      -1.009313       -27.4648
  16   2.0000      -0.995017       -27.0758
  17   2.0000      -0.793380       -21.5890
  18   2.0000      -0.771468       -20.9927
  19   2.0000      -0.765140       -20.8205
  20   2.0000      -0.732825       -19.9412
  21   2.0000      -0.676302       -18.4031
  22   2.0000      -0.604195       -16.4410
  23   2.0000      -0.601727       -16.3738
  24   2.0000      -0.596324       -16.2268
  25   2.0000      -0.568393       -15.4667
  26   2.0000      -0.526903       -14.3378
  27   2.0000      -0.509273       -13.8580
  28   2.0000      -0.496042       -13.4980
  29   2.0000      -0.492425       -13.3996
  30   2.0000      -0.463434       -12.6107
  31   2.0000      -0.460052       -12.5187
  32   2.0000      -0.446066       -12.1381
  33   2.0000      -0.429959       -11.6998
  34   2.0000      -0.422141       -11.4870
  35   2.0000      -0.412450       -11.2233
  36   2.0000      -0.403504       -10.9799
  37   2.0000      -0.396983       -10.8025
  38   2.0000      -0.383714       -10.4414
  39   2.0000      -0.363263        -9.8849
  40   2.0000      -0.361243        -9.8299
  41   2.0000      -0.355468        -9.6728
  42   2.0000      -0.348557        -9.4847
  43   2.0000      -0.334163        -9.0930
  44   2.0000      -0.323420        -8.8007
  45   2.0000      -0.307958        -8.3800
  46   2.0000      -0.301118        -8.1939
  47   2.0000      -0.277634        -7.5548
  48   2.0000      -0.261649        -7.1198
  49   2.0000      -0.258651        -7.0382
  50   2.0000      -0.237150        -6.4532
  51   0.0000       0.066023         1.7966
  52   0.0000       0.078104         2.1253
  53   0.0000       0.092693         2.5223
  54   0.0000       0.101478         2.7613
  55   0.0000       0.104329         2.8389

MULLIKEN ATOMIC CHARGES
-----------------------
   0 C :    0.285576
   1 C :   -0.266370
   2 C :   -0.298469
   3 C :   -0.005262
   4 O :   -0.511759
   5 H :    0.164266
   6 H :    0.149599
   7 H :    0.153431
   8 H :    0.144075
   9 H :    0.156181
  10 H :    0.147543
  11 H :    0.146268
  12 C :   -0.033411
  13 H :    0.170390
  14 H :    0.145285
  15 O :   -0.542022
  16 C :    0.099656
  17 C :    0.091748
  18 C :   -0.310376
  19 C :   -0.004889
  20 O :   -0.525976
  21 H :    0.146295
  22 H :    0.159464
  23 O :   -0.607682
  24 H :    0.143655
  25 H :    0.159785
  26 H :    0.136892
  27 H :    0.141967
  28 H :    0.364139
Sum of atomic charges:    0.0000000

LOEWDIN ATOMIC CHARGES
----------------------
   0 C :    0.172786
   1 C :   -0.215238
   2 C :   -0.216059
   3 C :   -0.028067
   4 O :   -0.327369
   5 H :    0.106020
   6 H :    0.116645
   7 H :    0.121324
   8 H :    0.114815
   9 H :    0.116072
  10 H :    0.105658
  11 H :    0.104724
  12 C :   -0.049234
  13 H :    0.121051
  14 H :    0.108646
  15 O :   -0.342747
  16 C :    0.013835
  17 C :    0.038193
  18 C :   -0.242471
  19 C :   -0.025989
  20 O :   -0.327154
  21 H :    0.113252
  22 H :    0.115496
  23 O :   -0.411081
  24 H :    0.114911
  25 H :    0.118773
  26 H :    0.099378
  27 H :    0.101255
  28 H :    0.282575

  Mayer bond orders larger than 0.100000
B(  0-C ,  1-C ) :   0.9497 B(  0-C ,  4-O ) :   0.9014 B(  0-C ,  5-H ) :   0.9169
B(  0-C , 15-O ) :   0.8454 B(  1-C ,  2-C ) :   0.9543 B(  1-C ,  6-H ) :   0.9393
B(  1-C ,  7-H ) :   0.9368 B(  2-C ,  3-C ) :   0.9559 B(  2-C ,  8-H ) :   0.9449
B(  2-C ,  9-H ) :   0.9456 B(  3-C ,  4-O ) :   0.8351 B(  3-C , 10-H ) :   0.9357
B(  3-C , 11-H ) :   0.9403 B( 12-C , 13-H ) :   0.9192 B( 12-C , 14-H ) :   0.9179
B( 12-C , 15-O ) :   0.8269 B( 12-C , 16-C ) :   0.9036 B( 16-C , 17-C ) :   0.8882
B( 16-C , 20-O ) :   0.8686 B( 16-C , 21-H ) :   0.9260 B( 17-C , 18-C ) :   0.9297
B( 17-C , 22-H ) :   0.9366 B( 17-C , 23-O ) :   0.9010 B( 18-C , 19-C ) :   0.9475
B( 18-C , 24-H ) :   0.9414 B( 18-C , 25-H ) :   0.9283 B( 19-C , 20-O ) :   0.8401
B( 19-C , 26-H ) :   0.9329 B( 19-C , 27-H ) :   0.9377 B( 23-O , 28-H ) :   0.7933

FINAL SINGLE POINT ENERGY      -652.868603578690

DIPOLE MOMENT
-------------
                                X             Y             Z
Electronic contribution:     -2.46756      -4.35468       0.45595
Nuclear contribution   :      3.16347       5.40143      -0.56422
                        -----------------------------------------
Total Dipole Moment    :      0.69591       1.04675      -0.10827
                        -----------------------------------------
Magnitude (a.u.)       :      1.26163
Magnitude (Debye)      :      3.20680

Rotational constants in cm-1:     0.048674     0.015264     0.014689
Rotational constants in MHz :  1459.196087   457.596750   440.371576

                             ****ORCA TERMINATED NORMALLY****
TOTAL RUN TIME: 0 days 0 hours 41 minutes 21 seconds 927 msec
