                         Program Version 4.2.0 -  RELEASE  -
|  1> # Test redundant internal optimization
|  2> #
|  3> ! RKS B3LYP  Opt TightSCF SmallPrint
|  4>
|  5> %basis
|  6>         Basis "6-31G"
|  7> end
|  8>
|  9> %geom
| 10> Constraints
| 11> { D 4  0  15  12  195.0   C } # D for Dihedral angle
| 12> { D 0  15  12  16  75.0   C } # D for Dihedral angle
| 13> { D 0  4  3  2   C } # D for Dihedral angle
| 14> { D 4  3  2  1   C } # D for Dihedral angle
| 15> { D 3  2  1  0   C } # D for Dihedral angle
| 16> { D 2  1  0  4   C } # D for Dihedral angle
| 17> { D 1  0  4  3   C } # D for Dihedral angle
| 18> { D 16  20  19  18   C } # D for Dihedral angle
| 19> { D 20  19  18  17   C } # D for Dihedral angle
| 20> { D 19  18  17  16   C } # D for Dihedral angle
| 21> { D 18  17  16  20   C } # D for Dihedral angle
| 22> { D 17  16  20  19   C } # D for Dihedral angle
| 23> { D 15  12  16  20   C } # D for Dihedral angle
| 24> end
| 25> end
| 26>
| 27>
| 28> #%pal
| 29> #nprocs 8
| 30> #end
| 31>
| 32> * xyz 0 1
| 33> C  -21.048   26.222   46.251
| 34> C  -20.361   27.558   45.944
| 35> C  -20.329   28.222   47.341
| 36> C  -20.110   27.022   48.296
| 37> O  -20.473   25.807   47.535
| 38> H  -20.833   25.428   45.533
| 39> H  -19.344   27.382   45.576
| 40> H  -20.898   28.157   45.201
| 41> H  -19.543   28.978   47.434
| 42> H  -21.289   28.710   47.548
| 43> H  -20.733   27.082   49.195
| 44> H  -19.064   26.913   48.597
| 45> C  -23.353   26.472   45.026
| 46> H  -24.362   26.864   45.206
| 47> H  -22.840   27.150   44.332
| 48> O  -22.586   26.394   46.375
| 49> C  -23.482   25.090   44.328
| 50> C  -24.140   25.222   42.950
| 51> C  -22.958   25.721   42.085
| 52> C  -21.739   24.988   42.699
| 53> O  -22.156   24.533   44.043
| 54> H  -23.984   24.394   45.004
| 55> O  -24.632   23.833   42.459
| 56> H  -24.991   25.912   42.944
| 57> H  -23.087   25.497   41.021
| 58> H  -22.848   26.807   42.188
| 59> H  -20.863   25.639   42.797
| 60> H  -21.457   24.097   42.130
| 61> H  -23.795   23.126   42.456
| 62> *
| 63>
| 64>                          ****END OF INPUT****
 Total Charge           Charge          ....    0
 Multiplicity           Mult            ....    1
 Number of Electrons    NEL             ....  102
FINAL SINGLE POINT ENERGY      -652.833053105721
FINAL SINGLE POINT ENERGY      -652.855362727001
FINAL SINGLE POINT ENERGY      -652.859650149685
FINAL SINGLE POINT ENERGY      -652.860401609926
FINAL SINGLE POINT ENERGY      -652.860525581621
FINAL SINGLE POINT ENERGY      -652.860536675089
                    ***********************HURRAY********************

CARTESIAN COORDINATES (ANGSTROEM)
---------------------------------
  C    -20.965513   26.233874   46.192072
  C    -20.300478   27.593258   45.985499
  C    -20.422633   28.228730   47.392206
  C    -20.255717   27.015351   48.330590
  O    -20.510828   25.818640   47.487096
  H    -20.714004   25.450232   45.480448
  H    -19.249254   27.444238   45.710907
  H    -20.776031   28.195402   45.205108
  H    -19.670934   29.003380   47.571233
  H    -21.415434   28.672538   47.509983
  H    -20.963134   27.013752   49.163617
  H    -19.237440   26.913734   48.718190
  C    -23.182464   26.467816   45.044877
  H    -24.172931   26.819783   45.350985
  H    -22.746103   27.227792   44.375410
  O    -22.424698   26.379591   46.276971
  C    -23.338073   25.132993   44.309435
  C    -24.118343   25.227123   42.988347
  C    -23.007968   25.669979   41.998716
  C    -21.750391   24.935450   42.527978
  O    -22.050589   24.537102   43.927014
  H    -23.804142   24.416264   44.992591
  O    -24.687936   23.942237   42.622235
  H    -24.963165   25.917097   43.023156
  H    -23.267833   25.387409   40.975724
  H    -22.878607   26.757652   42.034904
  H    -20.855940   25.566373   42.520425
  H    -21.532880   24.017963   41.973349
  H    -24.034537   23.234247   42.804933

 Multiplicity           Mult            ....    1
 Number of Electrons    NEL             ....  102
 Basis Dimension        Dim             ....  149

ORBITAL ENERGIES
----------------

  NO   OCC          E(Eh)            E(eV)
   0   2.0000     -19.153215      -521.1855
   1   2.0000     -19.143671      -520.9258
   2   2.0000     -19.134426      -520.6742
   3   2.0000     -19.132193      -520.6134
   4   2.0000     -10.265396      -279.3356
   5   2.0000     -10.249200      -278.8949
   6   2.0000     -10.239594      -278.6335
   7   2.0000     -10.238241      -278.5967
   8   2.0000     -10.235740      -278.5286
   9   2.0000     -10.218342      -278.0552
  10   2.0000     -10.196950      -277.4731
  11   2.0000     -10.182174      -277.0710
  12   2.0000     -10.181396      -277.0499
  13   2.0000      -1.048354       -28.5272
  14   2.0000      -1.039982       -28.2993
  15   2.0000      -1.013055       -27.5666
  16   2.0000      -0.986493       -26.8438
  17   2.0000      -0.791058       -21.5258
  18   2.0000      -0.780755       -21.2454
  19   2.0000      -0.770252       -20.9596
  20   2.0000      -0.728584       -19.8258
  21   2.0000      -0.677542       -18.4369
  22   2.0000      -0.610982       -16.6257
  23   2.0000      -0.602732       -16.4012
  24   2.0000      -0.592047       -16.1104
  25   2.0000      -0.573992       -15.6191
  26   2.0000      -0.531516       -14.4633
  27   2.0000      -0.506658       -13.7869
  28   2.0000      -0.499047       -13.5798
  29   2.0000      -0.487928       -13.2772
  30   2.0000      -0.477816       -13.0020
  31   2.0000      -0.458600       -12.4791
  32   2.0000      -0.447528       -12.1779
  33   2.0000      -0.446126       -12.1397
  34   2.0000      -0.428012       -11.6468
  35   2.0000      -0.407229       -11.0813
  36   2.0000      -0.401918       -10.9368
  37   2.0000      -0.396633       -10.7929
  38   2.0000      -0.380166       -10.3449
  39   2.0000      -0.371171       -10.1001
  40   2.0000      -0.366883        -9.9834
  41   2.0000      -0.351197        -9.5566
  42   2.0000      -0.349263        -9.5039
  43   2.0000      -0.336241        -9.1496
  44   2.0000      -0.318338        -8.6624
  45   2.0000      -0.304506        -8.2860
  46   2.0000      -0.298922        -8.1341
  47   2.0000      -0.279269        -7.5993
  48   2.0000      -0.269541        -7.3346
  49   2.0000      -0.251188        -6.8352
  50   2.0000      -0.233807        -6.3622
  51   0.0000       0.057037         1.5521
  52   0.0000       0.077923         2.1204
  53   0.0000       0.087923         2.3925
  54   0.0000       0.094447         2.5700
  55   0.0000       0.102624         2.7925

MULLIKEN ATOMIC CHARGES
-----------------------
   0 C :    0.278240
   1 C :   -0.273597
   2 C :   -0.296458
   3 C :   -0.000114
   4 O :   -0.501907
   5 H :    0.188577
   6 H :    0.143572
   7 H :    0.134520
   8 H :    0.138086
   9 H :    0.157629
  10 H :    0.152018
  11 H :    0.138582
  12 C :   -0.022137
  13 H :    0.154697
  14 H :    0.113962
  15 O :   -0.509689
  16 C :    0.065677
  17 C :    0.077056
  18 C :   -0.294631
  19 C :   -0.034627
  20 O :   -0.519214
  21 H :    0.175671
  22 O :   -0.600881
  23 H :    0.156559
  24 H :    0.165436
  25 H :    0.146801
  26 H :    0.144930
  27 H :    0.154131
  28 H :    0.367110
Sum of atomic charges:   -0.0000000

LOEWDIN ATOMIC CHARGES
----------------------
   0 C :    0.172618
   1 C :   -0.231034
   2 C :   -0.217176
   3 C :   -0.026283
   4 O :   -0.302417
   5 H :    0.119097
   6 H :    0.112908
   7 H :    0.109117
   8 H :    0.112153
   9 H :    0.116863
  10 H :    0.108173
  11 H :    0.100721
  12 C :   -0.044671
  13 H :    0.118273
  14 H :    0.084149
  15 O :   -0.331439
  16 C :    0.005984
  17 C :    0.035549
  18 C :   -0.241140
  19 C :   -0.039723
  20 O :   -0.326410
  21 H :    0.122989
  22 O :   -0.412268
  23 H :    0.117605
  24 H :    0.128520
  25 H :    0.113473
  26 H :    0.103156
  27 H :    0.106400
  28 H :    0.284814

  Mayer bond orders larger than 0.100000
B(  0-C ,  1-C ) :   0.9306 B(  0-C ,  4-O ) :   0.9292 B(  0-C ,  5-H ) :   0.8962
B(  0-C , 15-O ) :   0.8109 B(  1-C ,  2-C ) :   0.9514 B(  1-C ,  6-H ) :   0.9354
B(  1-C ,  7-H ) :   0.9358 B(  2-C ,  3-C ) :   0.9568 B(  2-C ,  8-H ) :   0.9455
B(  2-C ,  9-H ) :   0.9447 B(  3-C ,  4-O ) :   0.8399 B(  3-C , 10-H ) :   0.9346
B(  3-C , 11-H ) :   0.9400 B( 12-C , 13-H ) :   0.9296 B( 12-C , 14-H ) :   0.9154
B( 12-C , 15-O ) :   0.8816 B( 12-C , 16-C ) :   0.8835 B( 16-C , 17-C ) :   0.8939
B( 16-C , 20-O ) :   0.8464 B( 16-C , 21-H ) :   0.9225 B( 17-C , 18-C ) :   0.9101
B( 17-C , 22-O ) :   0.8937 B( 17-C , 23-H ) :   0.9328 B( 18-C , 19-C ) :   0.9417
B( 18-C , 24-H ) :   0.9368 B( 18-C , 25-H ) :   0.9327 B( 19-C , 20-O ) :   0.8417
B( 19-C , 26-H ) :   0.9343 B( 19-C , 27-H ) :   0.9376 B( 22-O , 28-H ) :   0.7936

FINAL SINGLE POINT ENERGY      -652.860537784683

DIPOLE MOMENT
-------------
                                X             Y             Z
Electronic contribution:     -2.49856      -5.75533       1.41863
Nuclear contribution   :      2.95927       6.97549      -2.39528
                        -----------------------------------------
Total Dipole Moment    :      0.46070       1.22016      -0.97665
                        -----------------------------------------
Magnitude (a.u.)       :      1.62938
Magnitude (Debye)      :      4.14155

Rotational constants in cm-1:     0.067758     0.012377     0.012110
Rotational constants in MHz :  2031.327669   371.054429   363.037594

                             ****ORCA TERMINATED NORMALLY****
TOTAL RUN TIME: 0 days 0 hours 22 minutes 50 seconds 239 msec
