                         Program Version 4.2.0 -  RELEASE  -
|  1> # Test redundant internal optimization
|  2> #
|  3> ! RKS B3LYP  Opt TightSCF SmallPrint
|  4>
|  5> %basis
|  6>         Basis "6-31G"
|  7> end
|  8>
|  9> %geom
| 10> Constraints
| 11> { D 4  0  15  12  345.0   C } # D for Dihedral angle
| 12> { D 0  15  12  16  120.0   C } # D for Dihedral angle
| 13> { D 0  4  3  2   C } # D for Dihedral angle
| 14> { D 4  3  2  1   C } # D for Dihedral angle
| 15> { D 3  2  1  0   C } # D for Dihedral angle
| 16> { D 2  1  0  4   C } # D for Dihedral angle
| 17> { D 1  0  4  3   C } # D for Dihedral angle
| 18> { D 16  20  19  18   C } # D for Dihedral angle
| 19> { D 20  19  18  17   C } # D for Dihedral angle
| 20> { D 19  18  17  16   C } # D for Dihedral angle
| 21> { D 18  17  16  20   C } # D for Dihedral angle
| 22> { D 17  16  20  19   C } # D for Dihedral angle
| 23> { D 15  12  16  20   C } # D for Dihedral angle
| 24> end
| 25> end
| 26>
| 27>
| 28> #%pal
| 29> #nprocs 8
| 30> #end
| 31>
| 32> * xyz 0 1
| 33> C  -21.048   26.222   46.251
| 34> C  -20.361   27.558   45.944
| 35> C  -20.329   28.222   47.341
| 36> C  -20.110   27.022   48.296
| 37> O  -20.473   25.807   47.535
| 38> H  -20.833   25.428   45.533
| 39> H  -19.344   27.382   45.576
| 40> H  -20.898   28.157   45.201
| 41> H  -19.543   28.978   47.434
| 42> H  -21.289   28.710   47.548
| 43> H  -20.733   27.082   49.195
| 44> H  -19.064   26.913   48.597
| 45> C  -23.221   25.764   47.645
| 46> H  -23.951   25.003   47.345
| 47> H  -22.451   25.278   48.258
| 48> O  -22.586   26.394   46.375
| 49> C  -23.944   26.811   48.537
| 50> C  -24.457   26.177   49.835
| 51> C  -23.166   26.116   50.686
| 52> C  -22.409   27.402   50.268
| 53> O  -23.001   27.841   48.986
| 54> H  -24.712   27.315   47.946
| 55> H  -25.200   26.830   50.306
| 56> O  -25.101   24.780   49.618
| 57> H  -23.368   26.081   51.761
| 58> H  -22.585   25.224   50.425
| 59> H  -21.336   27.230   50.127
| 60> H  -22.547   28.218   50.983
| 61> H  -24.376   24.107   49.149
| 62> *
| 63>
| 64>                          ****END OF INPUT****
 Total Charge           Charge          ....    0
 Multiplicity           Mult            ....    1
 Number of Electrons    NEL             ....  102
FINAL SINGLE POINT ENERGY      -652.801940162914
FINAL SINGLE POINT ENERGY      -652.830542699709
FINAL SINGLE POINT ENERGY      -652.852283283652
FINAL SINGLE POINT ENERGY      -652.856678135588
FINAL SINGLE POINT ENERGY      -652.857255473906
FINAL SINGLE POINT ENERGY      -652.857366033485
FINAL SINGLE POINT ENERGY      -652.857380953004
FINAL SINGLE POINT ENERGY      -652.857381700248
FINAL SINGLE POINT ENERGY      -652.857380906583
                    ***********************HURRAY********************

CARTESIAN COORDINATES (ANGSTROEM)
---------------------------------
  C    -21.049506   26.256404   46.252681
  C    -20.491516   27.633241   45.892868
  C    -20.213634   28.235792   47.289416
  C    -19.765676   27.015784   48.118866
  O    -20.233933   25.818274   47.358750
  H    -20.902572   25.500101   45.474472
  H    -19.566841   27.501625   45.318897
  H    -21.199878   28.220844   45.304767
  H    -19.449411   29.019383   47.262465
  H    -21.136659   28.648187   47.702704
  H    -20.199454   26.992099   49.117836
  H    -18.677919   26.919354   48.192899
  C    -23.100554   25.697975   47.644967
  H    -23.857309   24.997874   47.270727
  H    -22.337080   25.137963   48.201633
  O    -22.480879   26.331593   46.497078
  C    -23.808261   26.726056   48.530581
  C    -24.532243   26.143113   49.757446
  C    -23.394018   26.129481   50.820671
  C    -22.584578   27.396756   50.477083
  O    -22.957687   27.778223   49.084331
  H    -24.511073   27.260853   47.882118
  H    -25.331593   26.821065   50.062631
  O    -25.193203   24.872591   49.552708
  H    -23.780636   26.134299   51.842865
  H    -22.787773   25.223609   50.689623
  H    -21.504862   27.239394   50.538556
  H    -22.852000   28.245052   51.114537
  H    -24.535253   24.155015   49.446825

 Multiplicity           Mult            ....    1
 Number of Electrons    NEL             ....  102
 Basis Dimension        Dim             ....  149

ORBITAL ENERGIES
----------------

  NO   OCC          E(Eh)            E(eV)
   0   2.0000     -19.151396      -521.1360
   1   2.0000     -19.147394      -521.0271
   2   2.0000     -19.145898      -520.9864
   3   2.0000     -19.132727      -520.6280
   4   2.0000     -10.273886      -279.5667
   5   2.0000     -10.247283      -278.8427
   6   2.0000     -10.236521      -278.5499
   7   2.0000     -10.230131      -278.3760
   8   2.0000     -10.227359      -278.3006
   9   2.0000     -10.223826      -278.2045
  10   2.0000     -10.197934      -277.4999
  11   2.0000     -10.177243      -276.9369
  12   2.0000     -10.173857      -276.8447
  13   2.0000      -1.048677       -28.5359
  14   2.0000      -1.035978       -28.1904
  15   2.0000      -1.019415       -27.7397
  16   2.0000      -0.988822       -26.9072
  17   2.0000      -0.787062       -21.4171
  18   2.0000      -0.781578       -21.2678
  19   2.0000      -0.766517       -20.8580
  20   2.0000      -0.731772       -19.9125
  21   2.0000      -0.678644       -18.4669
  22   2.0000      -0.615092       -16.7375
  23   2.0000      -0.598096       -16.2750
  24   2.0000      -0.588082       -16.0025
  25   2.0000      -0.569238       -15.4898
  26   2.0000      -0.527605       -14.3568
  27   2.0000      -0.514252       -13.9935
  28   2.0000      -0.493613       -13.4319
  29   2.0000      -0.486518       -13.2388
  30   2.0000      -0.473234       -12.8773
  31   2.0000      -0.462055       -12.5732
  32   2.0000      -0.442927       -12.0527
  33   2.0000      -0.434702       -11.8288
  34   2.0000      -0.426285       -11.5998
  35   2.0000      -0.415740       -11.3129
  36   2.0000      -0.404900       -11.0179
  37   2.0000      -0.393950       -10.7199
  38   2.0000      -0.382242       -10.4013
  39   2.0000      -0.366530        -9.9738
  40   2.0000      -0.355926        -9.6852
  41   2.0000      -0.349082        -9.4990
  42   2.0000      -0.345052        -9.3893
  43   2.0000      -0.332420        -9.0456
  44   2.0000      -0.327203        -8.9036
  45   2.0000      -0.315518        -8.5857
  46   2.0000      -0.295085        -8.0297
  47   2.0000      -0.272941        -7.4271
  48   2.0000      -0.263883        -7.1806
  49   2.0000      -0.259311        -7.0562
  50   2.0000      -0.234951        -6.3933
  51   0.0000       0.049878         1.3572
  52   0.0000       0.065783         1.7900
  53   0.0000       0.089357         2.4315
  54   0.0000       0.098945         2.6924
  55   0.0000       0.101584         2.7642

MULLIKEN ATOMIC CHARGES
-----------------------
   0 C :    0.314823
   1 C :   -0.262372
   2 C :   -0.317485
   3 C :   -0.021900
   4 O :   -0.520088
   5 H :    0.147033
   6 H :    0.140281
   7 H :    0.159220
   8 H :    0.135349
   9 H :    0.197476
  10 H :    0.142733
  11 H :    0.145040
  12 C :   -0.028355
  13 H :    0.146037
  14 H :    0.144238
  15 O :   -0.538092
  16 C :    0.101067
  17 C :    0.081848
  18 C :   -0.314299
  19 C :   -0.025251
  20 O :   -0.513968
  21 H :    0.164119
  22 H :    0.169235
  23 O :   -0.597609
  24 H :    0.157716
  25 H :    0.137265
  26 H :    0.144611
  27 H :    0.154114
  28 H :    0.357211
Sum of atomic charges:   -0.0000000

LOEWDIN ATOMIC CHARGES
----------------------
   0 C :    0.186295
   1 C :   -0.216946
   2 C :   -0.225915
   3 C :   -0.030489
   4 O :   -0.324256
   5 H :    0.096305
   6 H :    0.111171
   7 H :    0.125799
   8 H :    0.111417
   9 H :    0.134611
  10 H :    0.100105
  11 H :    0.102728
  12 C :   -0.051368
  13 H :    0.107858
  14 H :    0.102788
  15 O :   -0.336884
  16 C :    0.012698
  17 C :    0.036019
  18 C :   -0.238785
  19 C :   -0.033541
  20 O :   -0.317454
  21 H :    0.117994
  22 H :    0.120017
  23 O :   -0.404552
  24 H :    0.123273
  25 H :    0.106695
  26 H :    0.098280
  27 H :    0.107323
  28 H :    0.278813

  Mayer bond orders larger than 0.100000
B(  0-C ,  1-C ) :   0.9368 B(  0-C ,  4-O ) :   0.9092 B(  0-C ,  5-H ) :   0.9293
B(  0-C , 15-O ) :   0.8436 B(  1-C ,  2-C ) :   0.9572 B(  1-C ,  6-H ) :   0.9372
B(  1-C ,  7-H ) :   0.9361 B(  2-C ,  3-C ) :   0.9606 B(  2-C ,  8-H ) :   0.9441
B(  2-C ,  9-H ) :   0.9184 B(  3-C ,  4-O ) :   0.8259 B(  3-C , 10-H ) :   0.9191
B(  3-C , 11-H ) :   0.9404 B( 12-C , 13-H ) :   0.9139 B( 12-C , 14-H ) :   0.9125
B( 12-C , 15-O ) :   0.8494 B( 12-C , 16-C ) :   0.8995 B( 16-C , 17-C ) :   0.8679
B( 16-C , 20-O ) :   0.8526 B( 16-C , 21-H ) :   0.9303 B( 17-C , 18-C ) :   0.9205
B( 17-C , 22-H ) :   0.9334 B( 17-C , 23-O ) :   0.9011 B( 18-C , 19-C ) :   0.9436
B( 18-C , 24-H ) :   0.9417 B( 18-C , 25-H ) :   0.9415 B( 19-C , 20-O ) :   0.8468
B( 19-C , 26-H ) :   0.9130 B( 19-C , 27-H ) :   0.9374 B( 23-O , 28-H ) :   0.7973

FINAL SINGLE POINT ENERGY      -652.857379929776

DIPOLE MOMENT
-------------
                                X             Y             Z
Electronic contribution:     -3.32523      -2.27900      -2.24630
Nuclear contribution   :      3.99191       2.33301       3.06363
                        -----------------------------------------
Total Dipole Moment    :      0.66668       0.05401       0.81733
                        -----------------------------------------
Magnitude (a.u.)       :      1.05613
Magnitude (Debye)      :      2.68447

Rotational constants in cm-1:     0.048104     0.017335     0.015162
Rotational constants in MHz :  1442.113774   519.704214   454.543314

                             ****ORCA TERMINATED NORMALLY****
TOTAL RUN TIME: 0 days 0 hours 28 minutes 1 seconds 865 msec
