                         Program Version 4.2.0 -  RELEASE  -
|  1> # Test redundant internal optimization
|  2> #
|  3> ! RKS B3LYP  Opt TightSCF SmallPrint
|  4>
|  5> %basis
|  6>         Basis "6-31G"
|  7> end
|  8>
|  9> %geom
| 10> Constraints
| 11> { D 4  0  15  12  135.0   C } # D for Dihedral angle
| 12> { D 0  15  12  16  225.0   C } # D for Dihedral angle
| 13> { D 0  4  3  2   C } # D for Dihedral angle
| 14> { D 4  3  2  1   C } # D for Dihedral angle
| 15> { D 3  2  1  0   C } # D for Dihedral angle
| 16> { D 2  1  0  4   C } # D for Dihedral angle
| 17> { D 1  0  4  3   C } # D for Dihedral angle
| 18> { D 16  20  19  18   C } # D for Dihedral angle
| 19> { D 20  19  18  17   C } # D for Dihedral angle
| 20> { D 19  18  17  16   C } # D for Dihedral angle
| 21> { D 18  17  16  20   C } # D for Dihedral angle
| 22> { D 17  16  20  19   C } # D for Dihedral angle
| 23> { D 15  12  16  20   C } # D for Dihedral angle
| 24> end
| 25> end
| 26>
| 27>
| 28> #%pal
| 29> #nprocs 8
| 30> #end
| 31>
| 32> * xyz 0 1
| 33> C  -21.048   26.222   46.251
| 34> C  -20.361   27.558   45.944
| 35> C  -20.329   28.222   47.341
| 36> C  -20.110   27.022   48.296
| 37> O  -20.473   25.807   47.535
| 38> H  -20.833   25.428   45.533
| 39> H  -19.344   27.382   45.576
| 40> H  -20.898   28.157   45.201
| 41> H  -19.543   28.978   47.434
| 42> H  -21.289   28.710   47.548
| 43> H  -20.733   27.082   49.195
| 44> H  -19.064   26.913   48.597
| 45> C  -23.162   27.680   45.721
| 46> H  -22.341   28.375   45.504
| 47> H  -23.664   27.437   44.775
| 48> O  -22.586   26.394   46.375
| 49> C  -24.191   28.407   46.630
| 50> C  -25.327   27.467   47.049
| 51> C  -24.660   26.659   48.188
| 52> C  -23.736   27.702   48.865
| 53> O  -23.566   28.805   47.895
| 54> H  -24.521   29.322   46.134
| 55> O  -26.527   28.289   47.590
| 56> H  -25.684   26.832   46.231
| 57> H  -25.386   26.229   48.885
| 58> H  -24.070   25.834   47.769
| 59> H  -22.753   27.291   49.118
| 60> H  -24.183   28.132   49.766
| 61> H  -26.192   28.933   48.411
| 62> *
| 63>
| 64>                          ****END OF INPUT****
 Total Charge           Charge          ....    0
 Multiplicity           Mult            ....    1
 Number of Electrons    NEL             ....  102
FINAL SINGLE POINT ENERGY      -652.822953095321
FINAL SINGLE POINT ENERGY      -652.846193671563
FINAL SINGLE POINT ENERGY      -652.855904670094
FINAL SINGLE POINT ENERGY      -652.857863399355
FINAL SINGLE POINT ENERGY      -652.858236371600
FINAL SINGLE POINT ENERGY      -652.858295024834
FINAL SINGLE POINT ENERGY      -652.858303054959
FINAL SINGLE POINT ENERGY      -652.858303739443
                    ***********************HURRAY********************

CARTESIAN COORDINATES (ANGSTROEM)
---------------------------------
  C    -21.091871   26.346347   46.217243
  C    -20.206674   27.554680   45.902082
  C    -20.120906   28.261664   47.281790
  C    -20.114057   27.074996   48.269504
  O    -20.633419   25.909631   47.507898
  H    -20.946197   25.496803   45.545969
  H    -19.223993   27.172594   45.604274
  H    -20.564565   28.200317   45.097318
  H    -19.227388   28.885934   47.374411
  H    -21.004802   28.886219   47.447020
  H    -20.747012   27.243368   49.143610
  H    -19.107998   26.802780   48.601714
  C    -23.189756   27.738140   45.718376
  H    -22.469888   28.528341   45.489551
  H    -23.693228   27.454679   44.782728
  O    -22.535591   26.570654   46.281335
  C    -24.217189   28.319686   46.689737
  C    -25.379573   27.407354   47.107992
  C    -24.746635   26.611975   48.279199
  C    -23.818125   27.649131   48.951862
  O    -23.608747   28.734888   47.955336
  H    -24.618819   29.228615   46.224217
  O    -26.529600   28.198598   47.522529
  H    -25.746922   26.770831   46.302760
  H    -25.519014   26.229432   48.952208
  H    -24.158384   25.784443   47.879021
  H    -22.852381   27.218510   49.218673
  H    -24.263539   28.115267   49.836874
  H    -26.237727   28.873124   48.171768

 Multiplicity           Mult            ....    1
 Number of Electrons    NEL             ....  102
 Basis Dimension        Dim             ....  149

ORBITAL ENERGIES
----------------

  NO   OCC          E(Eh)            E(eV)
   0   2.0000     -19.143356      -520.9172
   1   2.0000     -19.142679      -520.8988
   2   2.0000     -19.142460      -520.8928
   3   2.0000     -19.133787      -520.6568
   4   2.0000     -10.283823      -279.8370
   5   2.0000     -10.236468      -278.5485
   6   2.0000     -10.234953      -278.5072
   7   2.0000     -10.233771      -278.4751
   8   2.0000     -10.226765      -278.2844
   9   2.0000     -10.223031      -278.1828
  10   2.0000     -10.194479      -277.4059
  11   2.0000     -10.187193      -277.2076
  12   2.0000     -10.173103      -276.8242
  13   2.0000      -1.053067       -28.6554
  14   2.0000      -1.032393       -28.0928
  15   2.0000      -1.003248       -27.2998
  16   2.0000      -0.993210       -27.0266
  17   2.0000      -0.789455       -21.4822
  18   2.0000      -0.778660       -21.1884
  19   2.0000      -0.764395       -20.8003
  20   2.0000      -0.735267       -20.0076
  21   2.0000      -0.678716       -18.4688
  22   2.0000      -0.605506       -16.4767
  23   2.0000      -0.599860       -16.3230
  24   2.0000      -0.595381       -16.2011
  25   2.0000      -0.569020       -15.4838
  26   2.0000      -0.527269       -14.3477
  27   2.0000      -0.506756       -13.7895
  28   2.0000      -0.498664       -13.5693
  29   2.0000      -0.492282       -13.3957
  30   2.0000      -0.472628       -12.8609
  31   2.0000      -0.458939       -12.4884
  32   2.0000      -0.445968       -12.1354
  33   2.0000      -0.442276       -12.0350
  34   2.0000      -0.423314       -11.5190
  35   2.0000      -0.410795       -11.1783
  36   2.0000      -0.403283       -10.9739
  37   2.0000      -0.386282       -10.5113
  38   2.0000      -0.382257       -10.4017
  39   2.0000      -0.364831        -9.9276
  40   2.0000      -0.360247        -9.8028
  41   2.0000      -0.357184        -9.7195
  42   2.0000      -0.352093        -9.5809
  43   2.0000      -0.327297        -8.9062
  44   2.0000      -0.316467        -8.6115
  45   2.0000      -0.306696        -8.3456
  46   2.0000      -0.293334        -7.9820
  47   2.0000      -0.274235        -7.4623
  48   2.0000      -0.264456        -7.1962
  49   2.0000      -0.254640        -6.9291
  50   2.0000      -0.242091        -6.5876
  51   0.0000       0.065032         1.7696
  52   0.0000       0.081603         2.2205
  53   0.0000       0.098436         2.6786
  54   0.0000       0.100274         2.7286
  55   0.0000       0.102907         2.8002

MULLIKEN ATOMIC CHARGES
-----------------------
   0 C :    0.327779
   1 C :   -0.308229
   2 C :   -0.316322
   3 C :   -0.006799
   4 O :   -0.501190
   5 H :    0.154316
   6 H :    0.155525
   7 H :    0.145699
   8 H :    0.142028
   9 H :    0.186070
  10 H :    0.146355
  11 H :    0.144014
  12 C :   -0.003961
  13 H :    0.140793
  14 H :    0.135342
  15 O :   -0.537167
  16 C :    0.078470
  17 C :    0.075802
  18 C :   -0.287228
  19 C :   -0.034692
  20 O :   -0.530572
  21 H :    0.151178
  22 O :   -0.603946
  23 H :    0.153565
  24 H :    0.147569
  25 H :    0.189169
  26 H :    0.160448
  27 H :    0.134759
  28 H :    0.361224
Sum of atomic charges:   -0.0000000

LOEWDIN ATOMIC CHARGES
----------------------
   0 C :    0.186306
   1 C :   -0.232909
   2 C :   -0.225309
   3 C :   -0.027695
   4 O :   -0.311229
   5 H :    0.102994
   6 H :    0.121845
   7 H :    0.114387
   8 H :    0.114986
   9 H :    0.126893
  10 H :    0.101957
  11 H :    0.103087
  12 C :   -0.036652
  13 H :    0.103335
  14 H :    0.099560
  15 O :   -0.338134
  16 C :    0.011518
  17 C :    0.039060
  18 C :   -0.240102
  19 C :   -0.034841
  20 O :   -0.334203
  21 H :    0.113637
  22 O :   -0.417890
  23 H :    0.117238
  24 H :    0.118503
  25 H :    0.137938
  26 H :    0.109011
  27 H :    0.095725
  28 H :    0.280983

  Mayer bond orders larger than 0.100000
B(  0-C ,  1-C ) :   0.9336 B(  0-C ,  4-O ) :   0.9262 B(  0-C ,  5-H ) :   0.9299
B(  0-C , 15-O ) :   0.8407 B(  1-C ,  2-C ) :   0.9496 B(  1-C ,  6-H ) :   0.9329
B(  1-C ,  7-H ) :   0.9267 B(  2-C ,  3-C ) :   0.9534 B(  2-C ,  8-H ) :   0.9452
B(  2-C ,  9-H ) :   0.9231 B(  3-C ,  4-O ) :   0.8382 B(  3-C , 10-H ) :   0.9238
B(  3-C , 11-H ) :   0.9404 B( 12-C , 13-H ) :   0.9066 B( 12-C , 14-H ) :   0.9170
B( 12-C , 15-O ) :   0.8555 B( 12-C , 16-C ) :   0.8944 B( 16-C , 17-C ) :   0.9107
B( 16-C , 20-O ) :   0.8677 B( 16-C , 21-H ) :   0.9206 B( 17-C , 18-C ) :   0.9252
B( 17-C , 22-O ) :   0.8891 B( 17-C , 23-H ) :   0.9358 B( 18-C , 19-C ) :   0.9466
B( 18-C , 24-H ) :   0.9373 B( 18-C , 25-H ) :   0.9146 B( 19-C , 20-O ) :   0.8343
B( 19-C , 26-H ) :   0.9202 B( 19-C , 27-H ) :   0.9379 B( 22-O , 28-H ) :   0.7974

FINAL SINGLE POINT ENERGY      -652.858302496029

DIPOLE MOMENT
-------------
                                X             Y             Z
Electronic contribution:     -3.30050      -1.44631      -0.51106
Nuclear contribution   :      4.23025       2.02196       0.18096
                        -----------------------------------------
Total Dipole Moment    :      0.92975       0.57565      -0.33010
                        -----------------------------------------
Magnitude (a.u.)       :      1.14227
Magnitude (Debye)      :      2.90341

Rotational constants in cm-1:     0.053884     0.016628     0.015792
Rotational constants in MHz :  1615.398873   498.500523   473.421450

                             ****ORCA TERMINATED NORMALLY****
TOTAL RUN TIME: 0 days 1 hours 2 minutes 50 seconds 56 msec
