                         Program Version 4.2.0 -  RELEASE  -
|  1> # Test redundant internal optimization
|  2> #
|  3> ! RKS B3LYP  Opt TightSCF SmallPrint
|  4>
|  5> %basis
|  6>         Basis "6-31G"
|  7> end
|  8>
|  9> %geom
| 10> Constraints
| 11> { D 4  0  15  12  195.0   C } # D for Dihedral angle
| 12> { D 0  15  12  16  240.0   C } # D for Dihedral angle
| 13> { D 0  4  3  2   C } # D for Dihedral angle
| 14> { D 4  3  2  1   C } # D for Dihedral angle
| 15> { D 3  2  1  0   C } # D for Dihedral angle
| 16> { D 2  1  0  4   C } # D for Dihedral angle
| 17> { D 1  0  4  3   C } # D for Dihedral angle
| 18> { D 16  20  19  18   C } # D for Dihedral angle
| 19> { D 20  19  18  17   C } # D for Dihedral angle
| 20> { D 19  18  17  16   C } # D for Dihedral angle
| 21> { D 18  17  16  20   C } # D for Dihedral angle
| 22> { D 17  16  20  19   C } # D for Dihedral angle
| 23> { D 15  12  16  20   C } # D for Dihedral angle
| 24> end
| 25> end
| 26>
| 27>
| 28> #%pal
| 29> #nprocs 8
| 30> #end
| 31>
| 32> * xyz 0 1
| 33> C  -21.048   26.222   46.251
| 34> C  -20.361   27.558   45.944
| 35> C  -20.329   28.222   47.341
| 36> C  -20.110   27.022   48.296
| 37> O  -20.473   25.807   47.535
| 38> H  -20.833   25.428   45.533
| 39> H  -19.344   27.382   45.576
| 40> H  -20.898   28.157   45.201
| 41> H  -19.543   28.978   47.434
| 42> H  -21.289   28.710   47.548
| 43> H  -20.733   27.082   49.195
| 44> H  -19.064   26.913   48.597
| 45> C  -23.353   26.472   45.026
| 46> H  -22.639   26.379   44.198
| 47> H  -24.077   25.651   44.948
| 48> O  -22.586   26.394   46.375
| 49> C  -24.130   27.807   44.854
| 50> C  -23.173   29.002   44.780
| 51> C  -22.681   28.920   43.315
| 52> C  -23.931   28.413   42.553
| 53> O  -24.833   27.827   43.567
| 54> H  -24.889   27.882   45.634
| 55> O  -23.953   30.323   45.024
| 56> H  -22.356   28.946   45.507
| 57> H  -22.322   29.881   42.934
| 58> H  -21.859   28.199   43.235
| 59> H  -23.686   27.649   41.807
| 60> H  -24.478   29.222   42.063
| 61> H  -24.778   30.403   44.306
| 62> *
| 63>
| 64>                          ****END OF INPUT****
 Total Charge           Charge          ....    0
 Multiplicity           Mult            ....    1
 Number of Electrons    NEL             ....  102
FINAL SINGLE POINT ENERGY      -652.826665735686
FINAL SINGLE POINT ENERGY      -652.849658688523
FINAL SINGLE POINT ENERGY      -652.853763645842
FINAL SINGLE POINT ENERGY      -652.855685062760
FINAL SINGLE POINT ENERGY      -652.855871536554
FINAL SINGLE POINT ENERGY      -652.855903196856
                    ***********************HURRAY********************

CARTESIAN COORDINATES (ANGSTROEM)
---------------------------------
  C    -21.071812   26.207731   46.224626
  C    -20.268136   27.470528   45.918945
  C    -20.292991   28.209436   47.282087
  C    -20.239466   27.046319   48.294928
  O    -20.638412   25.834988   47.536803
  H    -20.868260   25.365167   45.554722
  H    -19.243689   27.175761   45.661497
  H    -20.664773   28.060707   45.092538
  H    -19.455665   28.903922   47.397273
  H    -21.225046   28.772190   47.392295
  H    -20.927359   27.173096   49.134274
  H    -19.230868   26.860135   48.675292
  C    -23.282116   26.481568   45.063484
  H    -22.630859   26.294017   44.196483
  H    -24.032219   25.685013   45.091969
  O    -22.515449   26.417058   46.301971
  C    -24.021320   27.815404   44.873106
  C    -23.191452   29.103249   44.761268
  C    -22.717219   29.046740   43.284154
  C    -23.924140   28.400690   42.556652
  O    -24.744393   27.742640   43.598121
  H    -24.770692   27.926003   45.662705
  O    -24.029775   30.267231   45.005927
  H    -22.387690   29.175364   45.488211
  H    -22.481371   30.046676   42.913036
  H    -21.821369   28.423433   43.188638
  H    -23.624018   27.654694   41.814307
  H    -24.560772   29.143130   42.065188
  H    -24.887667   30.148111   44.546500

 Multiplicity           Mult            ....    1
 Number of Electrons    NEL             ....  102
 Basis Dimension        Dim             ....  149

ORBITAL ENERGIES
----------------

  NO   OCC          E(Eh)            E(eV)
   0   2.0000     -19.150722      -521.1176
   1   2.0000     -19.142838      -520.9031
   2   2.0000     -19.141558      -520.8683
   3   2.0000     -19.141283      -520.8608
   4   2.0000     -10.284239      -279.8484
   5   2.0000     -10.244431      -278.7651
   6   2.0000     -10.237953      -278.5889
   7   2.0000     -10.237373      -278.5731
   8   2.0000     -10.234504      -278.4950
   9   2.0000     -10.227233      -278.2971
  10   2.0000     -10.195671      -277.4383
  11   2.0000     -10.192656      -277.3563
  12   2.0000     -10.190798      -277.3057
  13   2.0000      -1.055251       -28.7148
  14   2.0000      -1.042914       -28.3791
  15   2.0000      -1.010557       -27.4987
  16   2.0000      -0.995154       -27.0795
  17   2.0000      -0.791111       -21.5272
  18   2.0000      -0.784666       -21.3518
  19   2.0000      -0.772175       -21.0120
  20   2.0000      -0.736702       -20.0467
  21   2.0000      -0.679760       -18.4972
  22   2.0000      -0.610277       -16.6065
  23   2.0000      -0.605992       -16.4899
  24   2.0000      -0.597453       -16.2575
  25   2.0000      -0.584557       -15.9066
  26   2.0000      -0.526669       -14.3314
  27   2.0000      -0.521461       -14.1897
  28   2.0000      -0.502739       -13.6802
  29   2.0000      -0.491754       -13.3813
  30   2.0000      -0.479269       -13.0416
  31   2.0000      -0.458866       -12.4864
  32   2.0000      -0.458486       -12.4760
  33   2.0000      -0.440095       -11.9756
  34   2.0000      -0.424863       -11.5611
  35   2.0000      -0.420930       -11.4541
  36   2.0000      -0.411581       -11.1997
  37   2.0000      -0.397702       -10.8220
  38   2.0000      -0.379449       -10.3253
  39   2.0000      -0.376060       -10.2331
  40   2.0000      -0.364929        -9.9302
  41   2.0000      -0.361070        -9.8252
  42   2.0000      -0.356590        -9.7033
  43   2.0000      -0.336003        -9.1431
  44   2.0000      -0.314161        -8.5488
  45   2.0000      -0.312467        -8.5027
  46   2.0000      -0.304776        -8.2934
  47   2.0000      -0.276923        -7.5355
  48   2.0000      -0.266774        -7.2593
  49   2.0000      -0.261894        -7.1265
  50   2.0000      -0.241635        -6.5752
  51   0.0000       0.060705         1.6519
  52   0.0000       0.067452         1.8355
  53   0.0000       0.085958         2.3390
  54   0.0000       0.094318         2.5665
  55   0.0000       0.098252         2.6736

MULLIKEN ATOMIC CHARGES
-----------------------
   0 C :    0.304511
   1 C :   -0.284576
   2 C :   -0.308326
   3 C :   -0.001254
   4 O :   -0.499096
   5 H :    0.140818
   6 H :    0.148660
   7 H :    0.141784
   8 H :    0.145454
   9 H :    0.170053
  10 H :    0.157937
  11 H :    0.143213
  12 C :   -0.013067
  13 H :    0.117162
  14 H :    0.168132
  15 O :   -0.514607
  16 C :    0.056925
  17 C :    0.075579
  18 C :   -0.302304
  19 C :   -0.032263
  20 O :   -0.523383
  21 H :    0.170472
  22 O :   -0.604717
  23 H :    0.169360
  24 H :    0.164453
  25 H :    0.144058
  26 H :    0.148855
  27 H :    0.150314
  28 H :    0.365853
Sum of atomic charges:    0.0000000

LOEWDIN ATOMIC CHARGES
----------------------
   0 C :    0.184441
   1 C :   -0.235570
   2 C :   -0.218034
   3 C :   -0.024060
   4 O :   -0.300013
   5 H :    0.095998
   6 H :    0.117113
   7 H :    0.111049
   8 H :    0.116246
   9 H :    0.117801
  10 H :    0.111169
  11 H :    0.103014
  12 C :   -0.040060
  13 H :    0.090921
  14 H :    0.118831
  15 O :   -0.340784
  16 C :    0.011968
  17 C :    0.033164
  18 C :   -0.242583
  19 C :   -0.038716
  20 O :   -0.328195
  21 H :    0.119578
  22 O :   -0.413775
  23 H :    0.121039
  24 H :    0.127845
  25 H :    0.109369
  26 H :    0.104767
  27 H :    0.104172
  28 H :    0.283304

  Mayer bond orders larger than 0.100000
B(  0-C ,  1-C ) :   0.9244 B(  0-C ,  4-O ) :   0.9416 B(  0-C ,  5-H ) :   0.9208
B(  0-C , 15-O ) :   0.8379 B(  1-C ,  2-C ) :   0.9504 B(  1-C ,  6-H ) :   0.9320
B(  1-C ,  7-H ) :   0.9219 B(  2-C ,  3-C ) :   0.9511 B(  2-C ,  8-H ) :   0.9446
B(  2-C ,  9-H ) :   0.9350 B(  3-C ,  4-O ) :   0.8341 B(  3-C , 10-H ) :   0.9341
B(  3-C , 11-H ) :   0.9394 B( 12-C , 13-H ) :   0.9249 B( 12-C , 14-H ) :   0.9252
B( 12-C , 15-O ) :   0.8410 B( 12-C , 16-C ) :   0.8917 B( 16-C , 17-C ) :   0.9114
B( 16-C , 20-O ) :   0.8332 B( 16-C , 21-H ) :   0.9242 B( 17-C , 18-C ) :   0.9106
B( 17-C , 22-O ) :   0.8857 B( 17-C , 23-H ) :   0.9130 B( 18-C , 19-C ) :   0.9384
B( 18-C , 24-H ) :   0.9375 B( 18-C , 25-H ) :   0.9273 B( 19-C , 20-O ) :   0.8444
B( 19-C , 26-H ) :   0.9347 B( 19-C , 27-H ) :   0.9372 B( 22-O , 28-H ) :   0.7929

FINAL SINGLE POINT ENERGY      -652.855906046167

DIPOLE MOMENT
-------------
                                X             Y             Z
Electronic contribution:     -4.38788      -2.77721       1.88364
Nuclear contribution   :      5.24696       3.31136      -2.90464
                        -----------------------------------------
Total Dipole Moment    :      0.85908       0.53416      -1.02100
                        -----------------------------------------
Magnitude (a.u.)       :      1.43729
Magnitude (Debye)      :      3.65329

Rotational constants in cm-1:     0.051386     0.014865     0.013560
Rotational constants in MHz :  1540.528333   445.636841   406.508248

                             ****ORCA TERMINATED NORMALLY****
TOTAL RUN TIME: 0 days 0 hours 51 minutes 1 seconds 308 msec
