                         Program Version 4.2.0 -  RELEASE  -
|  1> # Test redundant internal optimization
|  2> #
|  3> ! RKS B3LYP  Opt TightSCF SmallPrint
|  4>
|  5> %basis
|  6>         Basis "6-31G"
|  7> end
|  8>
|  9> %geom
| 10> Constraints
| 11> { D 4  0  15  12  180.0   C } # D for Dihedral angle
| 12> { D 0  15  12  16  120.0   C } # D for Dihedral angle
| 13> { D 0  4  3  2   C } # D for Dihedral angle
| 14> { D 4  3  2  1   C } # D for Dihedral angle
| 15> { D 3  2  1  0   C } # D for Dihedral angle
| 16> { D 2  1  0  4   C } # D for Dihedral angle
| 17> { D 1  0  4  3   C } # D for Dihedral angle
| 18> { D 16  20  19  18   C } # D for Dihedral angle
| 19> { D 20  19  18  17   C } # D for Dihedral angle
| 20> { D 19  18  17  16   C } # D for Dihedral angle
| 21> { D 18  17  16  20   C } # D for Dihedral angle
| 22> { D 17  16  20  19   C } # D for Dihedral angle
| 23> { D 15  12  16  20   C } # D for Dihedral angle
| 24> end
| 25> end
| 26>
| 27>
| 28> #%pal
| 29> #nprocs 8
| 30> #end
| 31>
| 32> * xyz 0 1
| 33> C  -21.048   26.222   46.251
| 34> C  -20.361   27.558   45.944
| 35> C  -20.329   28.222   47.341
| 36> C  -20.110   27.022   48.296
| 37> O  -20.473   25.807   47.535
| 38> H  -20.833   25.428   45.533
| 39> H  -19.344   27.382   45.576
| 40> H  -20.898   28.157   45.201
| 41> H  -19.543   28.978   47.434
| 42> H  -21.289   28.710   47.548
| 43> H  -20.733   27.082   49.195
| 44> H  -19.064   26.913   48.597
| 45> C  -23.309   26.834   45.072
| 46> H  -23.809   27.795   45.242
| 47> H  -22.585   26.963   44.257
| 48> O  -22.586   26.394   46.375
| 49> C  -24.374   25.806   44.600
| 50> C  -25.520   25.689   45.611
| 51> C  -26.361   26.944   45.279
| 52> C  -26.206   27.075   43.743
| 53> O  -25.024   26.270   43.370
| 54> H  -23.880   24.861   44.365
| 55> H  -26.097   24.776   45.421
| 56> O  -25.033   25.661   47.086
| 57> H  -27.407   26.848   45.587
| 58> H  -25.942   27.822   45.787
| 59> H  -26.050   28.111   43.424
| 60> H  -27.061   26.664   43.201
| 61> H  -24.453   26.566   47.298
| 62> *
| 63>
| 64>                          ****END OF INPUT****
 Total Charge           Charge          ....    0
 Multiplicity           Mult            ....    1
 Number of Electrons    NEL             ....  102
FINAL SINGLE POINT ENERGY      -652.827928746083
FINAL SINGLE POINT ENERGY      -652.852001868502
FINAL SINGLE POINT ENERGY      -652.858246288859
FINAL SINGLE POINT ENERGY      -652.860712434737
FINAL SINGLE POINT ENERGY      -652.862259765643
FINAL SINGLE POINT ENERGY      -652.863257074563
FINAL SINGLE POINT ENERGY      -652.863806012705
FINAL SINGLE POINT ENERGY      -652.863967268298
FINAL SINGLE POINT ENERGY      -652.863993728286
FINAL SINGLE POINT ENERGY      -652.863998723257
                    ***********************HURRAY********************

CARTESIAN COORDINATES (ANGSTROEM)
---------------------------------
  C    -21.114674   26.239515   46.184969
  C    -20.321626   27.516121   45.918799
  C    -20.384531   28.226697   47.292934
  C    -20.337634   27.051838   48.289277
  O    -20.707365   25.844857   47.495701
  H    -20.920270   25.406017   45.504367
  H    -19.290813   27.244517   45.663591
  H    -20.723878   28.124633   45.104380
  H    -19.558577   28.929383   47.436849
  H    -21.325684   28.776508   47.386245
  H    -21.045670   27.151598   49.114912
  H    -19.336337   26.863921   48.685990
  C    -23.233351   26.921977   45.007199
  H    -23.662301   27.913594   45.182744
  H    -22.527876   26.992149   44.171647
  O    -22.558499   26.496026   46.240759
  C    -24.313650   25.890599   44.664401
  C    -25.436746   25.764097   45.707614
  C    -26.334303   26.984287   45.353371
  C    -26.218515   27.073395   43.818469
  O    -25.002479   26.290764   43.438787
  H    -23.835976   24.927933   44.458276
  H    -25.989582   24.837391   45.510791
  O    -25.024624   25.749948   47.086798
  H    -27.363173   26.844577   45.694781
  H    -25.932555   27.872234   45.852919
  H    -26.104918   28.097390   43.449295
  H    -27.061081   26.604438   43.302481
  H    -24.055311   25.923595   47.150655

 Multiplicity           Mult            ....    1
 Number of Electrons    NEL             ....  102
 Basis Dimension        Dim             ....  149

ORBITAL ENERGIES
----------------

  NO   OCC          E(Eh)            E(eV)
   0   2.0000     -19.161392      -521.4080
   1   2.0000     -19.153267      -521.1869
   2   2.0000     -19.140566      -520.8413
   3   2.0000     -19.108411      -519.9663
   4   2.0000     -10.294614      -280.1307
   5   2.0000     -10.240650      -278.6622
   6   2.0000     -10.234535      -278.4958
   7   2.0000     -10.233609      -278.4707
   8   2.0000     -10.228168      -278.3226
   9   2.0000     -10.225998      -278.2636
  10   2.0000     -10.198854      -277.5249
  11   2.0000     -10.196428      -277.4589
  12   2.0000     -10.177349      -276.9397
  13   2.0000      -1.067134       -29.0382
  14   2.0000      -1.025181       -27.8966
  15   2.0000      -1.007431       -27.4136
  16   2.0000      -0.988310       -26.8933
  17   2.0000      -0.797589       -21.7035
  18   2.0000      -0.773787       -21.0558
  19   2.0000      -0.766978       -20.8705
  20   2.0000      -0.739104       -20.1120
  21   2.0000      -0.681815       -18.5531
  22   2.0000      -0.611515       -16.6402
  23   2.0000      -0.601178       -16.3589
  24   2.0000      -0.595329       -16.1997
  25   2.0000      -0.577236       -15.7074
  26   2.0000      -0.530106       -14.4249
  27   2.0000      -0.522596       -14.2206
  28   2.0000      -0.502793       -13.6817
  29   2.0000      -0.488935       -13.3046
  30   2.0000      -0.475150       -12.9295
  31   2.0000      -0.462614       -12.5884
  32   2.0000      -0.447951       -12.1894
  33   2.0000      -0.432201       -11.7608
  34   2.0000      -0.428033       -11.6474
  35   2.0000      -0.416483       -11.3331
  36   2.0000      -0.411935       -11.2093
  37   2.0000      -0.386724       -10.5233
  38   2.0000      -0.384477       -10.4621
  39   2.0000      -0.371148       -10.0995
  40   2.0000      -0.366648        -9.9770
  41   2.0000      -0.363626        -9.8948
  42   2.0000      -0.347612        -9.4590
  43   2.0000      -0.342730        -9.3262
  44   2.0000      -0.321936        -8.7603
  45   2.0000      -0.319351        -8.6900
  46   2.0000      -0.280512        -7.6331
  47   2.0000      -0.279365        -7.6019
  48   2.0000      -0.271328        -7.3832
  49   2.0000      -0.244849        -6.6627
  50   2.0000      -0.239483        -6.5167
  51   0.0000       0.058691         1.5971
  52   0.0000       0.076658         2.0860
  53   0.0000       0.089849         2.4449
  54   0.0000       0.096642         2.6298
  55   0.0000       0.103606         2.8193

MULLIKEN ATOMIC CHARGES
-----------------------
   0 C :    0.311046
   1 C :   -0.279267
   2 C :   -0.298928
   3 C :   -0.006506
   4 O :   -0.499993
   5 H :    0.153393
   6 H :    0.153717
   7 H :    0.149054
   8 H :    0.147720
   9 H :    0.160892
  10 H :    0.161259
  11 H :    0.148717
  12 C :   -0.033213
  13 H :    0.152030
  14 H :    0.153029
  15 O :   -0.553178
  16 C :    0.056523
  17 C :    0.128798
  18 C :   -0.298252
  19 C :   -0.019238
  20 O :   -0.523989
  21 H :    0.152459
  22 H :    0.142833
  23 O :   -0.644666
  24 H :    0.151319
  25 H :    0.144783
  26 H :    0.139150
  27 H :    0.149179
  28 H :    0.401328
Sum of atomic charges:   -0.0000000

LOEWDIN ATOMIC CHARGES
----------------------
   0 C :    0.184969
   1 C :   -0.230548
   2 C :   -0.215989
   3 C :   -0.024567
   4 O :   -0.299235
   5 H :    0.103461
   6 H :    0.119144
   7 H :    0.116750
   8 H :    0.117434
   9 H :    0.118120
  10 H :    0.113049
  11 H :    0.106444
  12 C :   -0.049002
  13 H :    0.107750
  14 H :    0.109930
  15 O :   -0.348806
  16 C :    0.013204
  17 C :    0.043275
  18 C :   -0.234644
  19 C :   -0.032038
  20 O :   -0.327390
  21 H :    0.112099
  22 H :    0.102390
  23 O :   -0.436332
  24 H :    0.121480
  25 H :    0.111058
  26 H :    0.100544
  27 H :    0.106021
  28 H :    0.291427

  Mayer bond orders larger than 0.100000
B(  0-C ,  1-C ) :   0.9332 B(  0-C ,  4-O ) :   0.9537 B(  0-C ,  5-H ) :   0.9218
B(  0-C , 15-O ) :   0.7881 B(  1-C ,  2-C ) :   0.9491 B(  1-C ,  6-H ) :   0.9331
B(  1-C ,  7-H ) :   0.9313 B(  2-C ,  3-C ) :   0.9556 B(  2-C ,  8-H ) :   0.9444
B(  2-C ,  9-H ) :   0.9449 B(  3-C ,  4-O ) :   0.8259 B(  3-C , 10-H ) :   0.9340
B(  3-C , 11-H ) :   0.9394 B( 12-C , 13-H ) :   0.9307 B( 12-C , 14-H ) :   0.9237
B( 12-C , 15-O ) :   0.7915 B( 12-C , 16-C ) :   0.8897 B( 16-C , 17-C ) :   0.9168
B( 16-C , 20-O ) :   0.8541 B( 16-C , 21-H ) :   0.9316 B( 17-C , 18-C ) :   0.9031
B( 17-C , 22-H ) :   0.9291 B( 17-C , 23-O ) :   0.9355 B( 18-C , 19-C ) :   0.9378
B( 18-C , 24-H ) :   0.9446 B( 18-C , 25-H ) :   0.9435 B( 19-C , 20-O ) :   0.8325
B( 19-C , 26-H ) :   0.9352 B( 19-C , 27-H ) :   0.9385 B( 23-O , 28-H ) :   0.7199

FINAL SINGLE POINT ENERGY      -652.863999463915

DIPOLE MOMENT
-------------
                                X             Y             Z
Electronic contribution:     -0.73859      -4.99669       0.15593
Nuclear contribution   :      1.67610       6.29911      -0.63440
                        -----------------------------------------
Total Dipole Moment    :      0.93751       1.30242      -0.47847
                        -----------------------------------------
Magnitude (a.u.)       :      1.67457
Magnitude (Debye)      :      4.25641

Rotational constants in cm-1:     0.058606     0.013153     0.012146
Rotational constants in MHz :  1756.958801   394.303482   364.119567

                             ****ORCA TERMINATED NORMALLY****
TOTAL RUN TIME: 0 days 0 hours 27 minutes 3 seconds 77 msec
