                         Program Version 4.2.0 -  RELEASE  -
|  1> # Test redundant internal optimization
|  2> #
|  3> ! RKS B3LYP  Opt TightSCF SmallPrint
|  4>
|  5> %basis
|  6>         Basis "6-31G"
|  7> end
|  8>
|  9> %geom
| 10> Constraints
| 11> { D 4  0  15  12  165.0   C } # D for Dihedral angle
| 12> { D 0  15  12  16  240.0   C } # D for Dihedral angle
| 13> { D 0  4  3  2   C } # D for Dihedral angle
| 14> { D 4  3  2  1   C } # D for Dihedral angle
| 15> { D 3  2  1  0   C } # D for Dihedral angle
| 16> { D 2  1  0  4   C } # D for Dihedral angle
| 17> { D 1  0  4  3   C } # D for Dihedral angle
| 18> { D 16  20  19  18   C } # D for Dihedral angle
| 19> { D 20  19  18  17   C } # D for Dihedral angle
| 20> { D 19  18  17  16   C } # D for Dihedral angle
| 21> { D 18  17  16  20   C } # D for Dihedral angle
| 22> { D 17  16  20  19   C } # D for Dihedral angle
| 23> { D 15  12  16  20   C } # D for Dihedral angle
| 24> end
| 25> end
| 26>
| 27>
| 28> #%pal
| 29> #nprocs 8
| 30> #end
| 31>
| 32> * xyz 0 1
| 33> C  -21.048   26.222   46.251
| 34> C  -20.361   27.558   45.944
| 35> C  -20.329   28.222   47.341
| 36> C  -20.110   27.022   48.296
| 37> O  -20.473   25.807   47.535
| 38> H  -20.833   25.428   45.533
| 39> H  -19.344   27.382   45.576
| 40> H  -20.898   28.157   45.201
| 41> H  -19.543   28.978   47.434
| 42> H  -21.289   28.710   47.548
| 43> H  -20.733   27.082   49.195
| 44> H  -19.064   26.913   48.597
| 45> C  -23.260   27.170   45.210
| 46> H  -22.495   27.460   44.478
| 47> H  -23.998   26.536   44.703
| 48> O  -22.586   26.394   46.375
| 49> C  -23.990   28.456   45.688
| 50> C  -24.739   29.132   44.535
| 51> C  -26.013   28.260   44.434
| 52> C  -26.297   27.882   45.909
| 53> O  -25.042   28.119   46.653
| 54> H  -23.277   29.101   46.205
| 55> H  -24.996   30.163   44.805
| 56> O  -23.924   29.162   43.213
| 57> H  -26.852   28.788   43.969
| 58> H  -25.809   27.363   43.837
| 59> H  -26.589   26.832   46.023
| 60> H  -27.066   28.515   46.362
| 61> H  -23.655   28.141   42.921
| 62> *
| 63>
| 64>                          ****END OF INPUT****
 Total Charge           Charge          ....    0
 Multiplicity           Mult            ....    1
 Number of Electrons    NEL             ....  102
FINAL SINGLE POINT ENERGY      -652.820052293842
FINAL SINGLE POINT ENERGY      -652.842960891084
FINAL SINGLE POINT ENERGY      -652.847588556825
FINAL SINGLE POINT ENERGY      -652.848450109781
FINAL SINGLE POINT ENERGY      -652.848674877127
FINAL SINGLE POINT ENERGY      -652.848726087281
FINAL SINGLE POINT ENERGY      -652.848733703880
FINAL SINGLE POINT ENERGY      -652.848734765035
                    ***********************HURRAY********************

CARTESIAN COORDINATES (ANGSTROEM)
---------------------------------
  C    -21.046574   26.248694   46.209358
  C    -20.274608   27.540058   45.937191
  C    -20.359464   28.265127   47.307398
  C    -20.296487   27.093464   48.309437
  O    -20.636519   25.877042   47.529856
  H    -20.798609   25.414038   45.546342
  H    -19.236138   27.279573   45.702074
  H    -20.663132   28.140806   45.110912
  H    -19.545099   28.981959   47.449223
  H    -21.309103   28.799817   47.396640
  H    -21.010729   27.190625   49.130505
  H    -19.292987   26.933602   48.714824
  C    -23.171304   27.102918   45.160602
  H    -22.468364   27.408292   44.375483
  H    -23.878764   26.386270   44.722110
  O    -22.500005   26.415781   46.251253
  C    -23.913189   28.343218   45.662651
  C    -24.686411   29.081755   44.557285
  C    -26.011206   28.261950   44.488759
  C    -26.237664   27.863391   45.963941
  O    -24.934551   28.029754   46.655561
  H    -23.199796   29.000762   46.167365
  H    -24.888826   30.105983   44.878491
  O    -23.982815   29.222322   43.297136
  H    -26.837599   28.843681   44.071355
  H    -25.863274   27.378044   43.853339
  H    -26.572119   26.827955   46.079166
  H    -26.952112   28.522629   46.465569
  H    -24.045550   28.395494   42.777175

 Multiplicity           Mult            ....    1
 Number of Electrons    NEL             ....  102
 Basis Dimension        Dim             ....  149

ORBITAL ENERGIES
----------------

  NO   OCC          E(Eh)            E(eV)
   0   2.0000     -19.153976      -521.2062
   1   2.0000     -19.137347      -520.7537
   2   2.0000     -19.135842      -520.7127
   3   2.0000     -19.133402      -520.6463
   4   2.0000     -10.276908      -279.6489
   5   2.0000     -10.248283      -278.8700
   6   2.0000     -10.231998      -278.4268
   7   2.0000     -10.231145      -278.4036
   8   2.0000     -10.230924      -278.3976
   9   2.0000     -10.221082      -278.1298
  10   2.0000     -10.199312      -277.5374
  11   2.0000     -10.187783      -277.2237
  12   2.0000     -10.185901      -277.1725
  13   2.0000      -1.048343       -28.5269
  14   2.0000      -1.036379       -28.2013
  15   2.0000      -1.017358       -27.6837
  16   2.0000      -0.987449       -26.8699
  17   2.0000      -0.785368       -21.3710
  18   2.0000      -0.784337       -21.3429
  19   2.0000      -0.768742       -20.9185
  20   2.0000      -0.731075       -19.8936
  21   2.0000      -0.683076       -18.5874
  22   2.0000      -0.614605       -16.7242
  23   2.0000      -0.601085       -16.3564
  24   2.0000      -0.590578       -16.0704
  25   2.0000      -0.573738       -15.6122
  26   2.0000      -0.524889       -14.2829
  27   2.0000      -0.511772       -13.9260
  28   2.0000      -0.504052       -13.7159
  29   2.0000      -0.495327       -13.4785
  30   2.0000      -0.465001       -12.6533
  31   2.0000      -0.453748       -12.3471
  32   2.0000      -0.449188       -12.2230
  33   2.0000      -0.434923       -11.8349
  34   2.0000      -0.428324       -11.6553
  35   2.0000      -0.424905       -11.5623
  36   2.0000      -0.405771       -11.0416
  37   2.0000      -0.401962       -10.9379
  38   2.0000      -0.378995       -10.3130
  39   2.0000      -0.375069       -10.2062
  40   2.0000      -0.359125        -9.7723
  41   2.0000      -0.352512        -9.5923
  42   2.0000      -0.351305        -9.5595
  43   2.0000      -0.331518        -9.0211
  44   2.0000      -0.319826        -8.7029
  45   2.0000      -0.307441        -8.3659
  46   2.0000      -0.292831        -7.9683
  47   2.0000      -0.274692        -7.4747
  48   2.0000      -0.261167        -7.1067
  49   2.0000      -0.251902        -6.8546
  50   2.0000      -0.234009        -6.3677
  51   0.0000       0.047649         1.2966
  52   0.0000       0.076803         2.0899
  53   0.0000       0.081683         2.2227
  54   0.0000       0.089371         2.4319
  55   0.0000       0.101903         2.7729

MULLIKEN ATOMIC CHARGES
-----------------------
   0 C :    0.308836
   1 C :   -0.295587
   2 C :   -0.306187
   3 C :    0.000417
   4 O :   -0.497632
   5 H :    0.142071
   6 H :    0.150646
   7 H :    0.148351
   8 H :    0.143003
   9 H :    0.165181
  10 H :    0.159584
  11 H :    0.140584
  12 C :   -0.028337
  13 H :    0.127166
  14 H :    0.134412
  15 O :   -0.501280
  16 C :    0.094005
  17 C :    0.079461
  18 C :   -0.329789
  19 C :   -0.007129
  20 O :   -0.501062
  21 H :    0.156974
  22 H :    0.169309
  23 O :   -0.602265
  24 H :    0.157928
  25 H :    0.135853
  26 H :    0.148251
  27 H :    0.150644
  28 H :    0.356590
Sum of atomic charges:   -0.0000000

LOEWDIN ATOMIC CHARGES
----------------------
   0 C :    0.183975
   1 C :   -0.236365
   2 C :   -0.217864
   3 C :   -0.024883
   4 O :   -0.301171
   5 H :    0.096555
   6 H :    0.118238
   7 H :    0.114601
   8 H :    0.114798
   9 H :    0.115407
  10 H :    0.112255
  11 H :    0.101869
  12 C :   -0.053541
  13 H :    0.097444
  14 H :    0.098655
  15 O :   -0.324823
  16 C :    0.016163
  17 C :    0.032372
  18 C :   -0.242445
  19 C :   -0.028495
  20 O :   -0.311562
  21 H :    0.111712
  22 H :    0.119672
  23 O :   -0.410014
  24 H :    0.122621
  25 H :    0.104565
  26 H :    0.105555
  27 H :    0.106618
  28 H :    0.278088

  Mayer bond orders larger than 0.100000
B(  0-C ,  1-C ) :   0.9282 B(  0-C ,  4-O ) :   0.9395 B(  0-C ,  5-H ) :   0.9233
B(  0-C , 15-O ) :   0.8414 B(  1-C ,  2-C ) :   0.9501 B(  1-C ,  6-H ) :   0.9330
B(  1-C ,  7-H ) :   0.9278 B(  2-C ,  3-C ) :   0.9545 B(  2-C ,  8-H ) :   0.9447
B(  2-C ,  9-H ) :   0.9360 B(  3-C ,  4-O ) :   0.8347 B(  3-C , 10-H ) :   0.9335
B(  3-C , 11-H ) :   0.9400 B( 12-C , 13-H ) :   0.8999 B( 12-C , 14-H ) :   0.9294
B( 12-C , 15-O ) :   0.8593 B( 12-C , 16-C ) :   0.8924 B( 16-C , 17-C ) :   0.8674
B( 16-C , 20-O ) :   0.8772 B( 16-C , 21-H ) :   0.9254 B( 17-C , 18-C ) :   0.9286
B( 17-C , 22-H ) :   0.9315 B( 17-C , 23-O ) :   0.8908 B( 18-C , 19-C ) :   0.9380
B( 18-C , 24-H ) :   0.9416 B( 18-C , 25-H ) :   0.9393 B( 19-C , 20-O ) :   0.8503
B( 19-C , 26-H ) :   0.9313 B( 19-C , 27-H ) :   0.9373 B( 23-O , 28-H ) :   0.7990

FINAL SINGLE POINT ENERGY      -652.848734762235

DIPOLE MOMENT
-------------
                                X             Y             Z
Electronic contribution:     -0.52291      -2.61055       1.19164
Nuclear contribution   :      0.33648       3.17389      -2.32715
                        -----------------------------------------
Total Dipole Moment    :     -0.18643       0.56333      -1.13551
                        -----------------------------------------
Magnitude (a.u.)       :      1.28120
Magnitude (Debye)      :      3.25656

Rotational constants in cm-1:     0.052321     0.013814     0.012707
Rotational constants in MHz :  1568.544639   414.137540   380.938458

                             ****ORCA TERMINATED NORMALLY****
TOTAL RUN TIME: 0 days 0 hours 28 minutes 4 seconds 220 msec
