                         Program Version 4.2.0 -  RELEASE  -
|  1> # Test redundant internal optimization
|  2> #
|  3> ! RKS B3LYP  Opt TightSCF SmallPrint
|  4>
|  5> %basis
|  6>         Basis "6-31G"
|  7> end
|  8>
|  9> %geom
| 10> Constraints
| 11> { D 4  0  15  12  240.0   C } # D for Dihedral angle
| 12> { D 0  15  12  16  330.0   C } # D for Dihedral angle
| 13> { D 0  4  3  2   C } # D for Dihedral angle
| 14> { D 4  3  2  1   C } # D for Dihedral angle
| 15> { D 3  2  1  0   C } # D for Dihedral angle
| 16> { D 2  1  0  4   C } # D for Dihedral angle
| 17> { D 1  0  4  3   C } # D for Dihedral angle
| 18> { D 16  20  19  18   C } # D for Dihedral angle
| 19> { D 20  19  18  17   C } # D for Dihedral angle
| 20> { D 19  18  17  16   C } # D for Dihedral angle
| 21> { D 18  17  16  20   C } # D for Dihedral angle
| 22> { D 17  16  20  19   C } # D for Dihedral angle
| 23> { D 15  12  16  20   C } # D for Dihedral angle
| 24> end
| 25> end
| 26>
| 27>
| 28> #%pal
| 29> #nprocs 8
| 30> #end
| 31>
| 32> * xyz 0 1
| 33> C  -21.048   26.222   46.251
| 34> C  -20.361   27.558   45.944
| 35> C  -20.329   28.222   47.341
| 36> C  -20.110   27.022   48.296
| 37> O  -20.473   25.807   47.535
| 38> H  -20.833   25.428   45.533
| 39> H  -19.344   27.382   45.576
| 40> H  -20.898   28.157   45.201
| 41> H  -19.543   28.978   47.434
| 42> H  -21.289   28.710   47.548
| 43> H  -20.733   27.082   49.195
| 44> H  -19.064   26.913   48.597
| 45> C  -23.430   25.483   45.442
| 46> H  -23.656   24.543   45.962
| 47> H  -24.379   25.970   45.185
| 48> O  -22.586   26.394   46.375
| 49> C  -22.699   25.142   44.114
| 50> C  -23.603   24.340   43.171
| 51> C  -24.497   25.452   42.573
| 52> C  -23.534   26.661   42.472
| 53> O  -22.395   26.367   43.367
| 54> H  -21.745   24.662   44.343
| 55> O  -22.751   23.665   42.061
| 56> H  -24.178   23.562   43.685
| 57> H  -24.925   25.177   41.604
| 58> H  -25.327   25.675   43.255
| 59> H  -24.005   27.599   42.787
| 60> H  -23.129   26.788   41.464
| 61> H  -22.166   24.426   41.533
| 62> *
| 63>
| 64>                          ****END OF INPUT****
 Total Charge           Charge          ....    0
 Multiplicity           Mult            ....    1
 Number of Electrons    NEL             ....  102
FINAL SINGLE POINT ENERGY      -652.827211946653
FINAL SINGLE POINT ENERGY      -652.850588068019
FINAL SINGLE POINT ENERGY      -652.854510891335
FINAL SINGLE POINT ENERGY      -652.856665998642
FINAL SINGLE POINT ENERGY      -652.856850314465
FINAL SINGLE POINT ENERGY      -652.856882200155
                    ***********************HURRAY********************

CARTESIAN COORDINATES (ANGSTROEM)
---------------------------------
  C    -20.906025   26.216184   46.195292
  C    -20.332370   27.618384   45.994443
  C    -20.453798   28.217900   47.414536
  C    -20.185272   27.001975   48.329084
  O    -20.386871   25.802565   47.478409
  H    -20.577750   25.472254   45.470773
  H    -19.280746   27.541540   45.692526
  H    -20.881861   28.170523   45.230638
  H    -19.748500   29.035673   47.590183
  H    -21.469274   28.595540   47.567085
  H    -20.867178   26.946701   49.181700
  H    -19.152435   26.961004   48.689004
  C    -23.220840   25.522534   45.403140
  H    -23.496645   24.597439   45.932592
  H    -24.121162   26.133364   45.291855
  O    -22.350424   26.317205   46.256246
  C    -22.669974   25.133704   44.029250
  C    -23.686347   24.357619   43.176387
  C    -24.553942   25.507089   42.595207
  C    -23.526134   26.648360   42.386089
  O    -22.345156   26.311274   43.217090
  H    -21.750354   24.550848   44.121602
  O    -23.014226   23.604918   42.130864
  H    -24.262913   23.619538   43.734985
  H    -25.036885   25.193045   41.666810
  H    -25.333349   25.794987   43.308497
  H    -23.909564   27.625560   42.693518
  H    -23.181397   26.718716   41.349885
  H    -22.328608   24.170560   41.716309

 Multiplicity           Mult            ....    1
 Number of Electrons    NEL             ....  102
 Basis Dimension        Dim             ....  149

ORBITAL ENERGIES
----------------

  NO   OCC          E(Eh)            E(eV)
   0   2.0000     -19.151593      -521.1413
   1   2.0000     -19.145905      -520.9866
   2   2.0000     -19.134384      -520.6730
   3   2.0000     -19.129344      -520.5359
   4   2.0000     -10.271243      -279.4947
   5   2.0000     -10.250872      -278.9404
   6   2.0000     -10.243122      -278.7295
   7   2.0000     -10.238675      -278.6085
   8   2.0000     -10.235188      -278.5136
   9   2.0000     -10.216202      -277.9970
  10   2.0000     -10.196831      -277.4699
  11   2.0000     -10.176093      -276.9056
  12   2.0000     -10.172794      -276.8158
  13   2.0000      -1.048160       -28.5219
  14   2.0000      -1.039615       -28.2894
  15   2.0000      -1.013839       -27.5880
  16   2.0000      -0.985272       -26.8106
  17   2.0000      -0.792535       -21.5660
  18   2.0000      -0.777688       -21.1620
  19   2.0000      -0.769224       -20.9316
  20   2.0000      -0.730178       -19.8692
  21   2.0000      -0.675542       -18.3824
  22   2.0000      -0.612140       -16.6572
  23   2.0000      -0.610613       -16.6156
  24   2.0000      -0.588671       -16.0186
  25   2.0000      -0.566884       -15.4257
  26   2.0000      -0.533804       -14.5255
  27   2.0000      -0.514005       -13.9868
  28   2.0000      -0.492117       -13.3912
  29   2.0000      -0.486352       -13.2343
  30   2.0000      -0.474548       -12.9131
  31   2.0000      -0.456723       -12.4281
  32   2.0000      -0.452114       -12.3027
  33   2.0000      -0.438876       -11.9424
  34   2.0000      -0.428488       -11.6597
  35   2.0000      -0.410774       -11.1777
  36   2.0000      -0.401813       -10.9339
  37   2.0000      -0.393499       -10.7077
  38   2.0000      -0.379938       -10.3386
  39   2.0000      -0.370272       -10.0756
  40   2.0000      -0.360518        -9.8102
  41   2.0000      -0.349644        -9.5143
  42   2.0000      -0.344409        -9.3718
  43   2.0000      -0.336886        -9.1671
  44   2.0000      -0.317912        -8.6508
  45   2.0000      -0.307701        -8.3730
  46   2.0000      -0.300862        -8.1869
  47   2.0000      -0.279489        -7.6053
  48   2.0000      -0.261328        -7.1111
  49   2.0000      -0.249092        -6.7781
  50   2.0000      -0.237061        -6.4508
  51   0.0000       0.058512         1.5922
  52   0.0000       0.083193         2.2638
  53   0.0000       0.087980         2.3941
  54   0.0000       0.090907         2.4737
  55   0.0000       0.097725         2.6592

MULLIKEN ATOMIC CHARGES
-----------------------
   0 C :    0.289462
   1 C :   -0.247311
   2 C :   -0.300284
   3 C :   -0.000286
   4 O :   -0.509245
   5 H :    0.143661
   6 H :    0.136776
   7 H :    0.160907
   8 H :    0.136119
   9 H :    0.159844
  10 H :    0.147581
  11 H :    0.137252
  12 C :    0.031249
  13 H :    0.135208
  14 H :    0.145025
  15 O :   -0.527746
  16 C :    0.021540
  17 C :    0.078761
  18 C :   -0.297254
  19 C :   -0.025273
  20 O :   -0.523701
  21 H :    0.170921
  22 O :   -0.599771
  23 H :    0.157985
  24 H :    0.165363
  25 H :    0.149132
  26 H :    0.150518
  27 H :    0.148293
  28 H :    0.365275
Sum of atomic charges:   -0.0000000

LOEWDIN ATOMIC CHARGES
----------------------
   0 C :    0.179195
   1 C :   -0.217783
   2 C :   -0.217601
   3 C :   -0.026910
   4 O :   -0.320626
   5 H :    0.099325
   6 H :    0.109844
   7 H :    0.125444
   8 H :    0.111317
   9 H :    0.118000
  10 H :    0.105383
  11 H :    0.099822
  12 C :   -0.032778
  13 H :    0.099904
  14 H :    0.109683
  15 O :   -0.329345
  16 C :   -0.002356
  17 C :    0.038894
  18 C :   -0.240377
  19 C :   -0.035588
  20 O :   -0.332561
  21 H :    0.115362
  22 O :   -0.412282
  23 H :    0.118549
  24 H :    0.128177
  25 H :    0.115040
  26 H :    0.106899
  27 H :    0.103708
  28 H :    0.283659

  Mayer bond orders larger than 0.100000
B(  0-C ,  1-C ) :   0.9442 B(  0-C ,  4-O ) :   0.9162 B(  0-C ,  5-H ) :   0.9130
B(  0-C , 15-O ) :   0.8384 B(  1-C ,  2-C ) :   0.9559 B(  1-C ,  6-H ) :   0.9386
B(  1-C ,  7-H ) :   0.9341 B(  2-C ,  3-C ) :   0.9539 B(  2-C ,  8-H ) :   0.9457
B(  2-C ,  9-H ) :   0.9442 B(  3-C ,  4-O ) :   0.8412 B(  3-C , 10-H ) :   0.9354
B(  3-C , 11-H ) :   0.9402 B( 12-C , 13-H ) :   0.9096 B( 12-C , 14-H ) :   0.9335
B( 12-C , 15-O ) :   0.8591 B( 12-C , 16-C ) :   0.8948 B( 16-C , 17-C ) :   0.8939
B( 16-C , 20-O ) :   0.8468 B( 16-C , 21-H ) :   0.9137 B( 17-C , 18-C ) :   0.9110
B( 17-C , 22-O ) :   0.8943 B( 17-C , 23-H ) :   0.9321 B( 18-C , 19-C ) :   0.9396
B( 18-C , 24-H ) :   0.9370 B( 18-C , 25-H ) :   0.9333 B( 19-C , 20-O ) :   0.8435
B( 19-C , 26-H ) :   0.9348 B( 19-C , 27-H ) :   0.9379 B( 22-O , 28-H ) :   0.7936

FINAL SINGLE POINT ENERGY      -652.856884905108

DIPOLE MOMENT
-------------
                                X             Y             Z
Electronic contribution:      0.79805      -3.95302      -0.56686
Nuclear contribution   :     -1.31596       4.74482       0.00478
                        -----------------------------------------
Total Dipole Moment    :     -0.51791       0.79180      -0.56208
                        -----------------------------------------
Magnitude (a.u.)       :      1.10051
Magnitude (Debye)      :      2.79726

Rotational constants in cm-1:     0.065466     0.012345     0.011721
Rotational constants in MHz :  1962.615970   370.102134   351.396279

                             ****ORCA TERMINATED NORMALLY****
TOTAL RUN TIME: 0 days 0 hours 26 minutes 29 seconds 420 msec
