                         Program Version 4.2.0 -  RELEASE  -
|  1> # Test redundant internal optimization
|  2> #
|  3> ! RKS B3LYP  Opt TightSCF SmallPrint
|  4>
|  5> %basis
|  6>         Basis "6-31G"
|  7> end
|  8>
|  9> %geom
| 10> Constraints
| 11> { D 4  0  15  12  180.0   C } # D for Dihedral angle
| 12> { D 0  15  12  16  180.0   C } # D for Dihedral angle
| 13> { D 0  4  3  2   C } # D for Dihedral angle
| 14> { D 4  3  2  1   C } # D for Dihedral angle
| 15> { D 3  2  1  0   C } # D for Dihedral angle
| 16> { D 2  1  0  4   C } # D for Dihedral angle
| 17> { D 1  0  4  3   C } # D for Dihedral angle
| 18> { D 16  20  19  18   C } # D for Dihedral angle
| 19> { D 20  19  18  17   C } # D for Dihedral angle
| 20> { D 19  18  17  16   C } # D for Dihedral angle
| 21> { D 18  17  16  20   C } # D for Dihedral angle
| 22> { D 17  16  20  19   C } # D for Dihedral angle
| 23> { D 15  12  16  20   C } # D for Dihedral angle
| 24> end
| 25> end
| 26>
| 27>
| 28> #%pal
| 29> #nprocs 8
| 30> #end
| 31>
| 32> * xyz 0 1
| 33> C  -21.048   26.222   46.251
| 34> C  -20.361   27.558   45.944
| 35> C  -20.329   28.222   47.341
| 36> C  -20.110   27.022   48.296
| 37> O  -20.473   25.807   47.535
| 38> H  -20.833   25.428   45.533
| 39> H  -19.344   27.382   45.576
| 40> H  -20.898   28.157   45.201
| 41> H  -19.543   28.978   47.434
| 42> H  -21.289   28.710   47.548
| 43> H  -20.733   27.082   49.195
| 44> H  -19.064   26.913   48.597
| 45> C  -23.309   26.834   45.072
| 46> H  -22.903   27.797   44.741
| 47> H  -23.142   26.099   44.274
| 48> O  -22.586   26.394   46.375
| 49> C  -24.843   26.988   45.260
| 50> C  -25.173   28.120   46.239
| 51> C  -25.001   29.370   45.343
| 52> C  -25.496   28.882   43.959
| 53> O  -25.474   27.404   44.002
| 54> H  -25.270   26.020   45.527
| 55> O  -26.642   27.992   46.726
| 56> H  -24.519   28.134   47.118
| 57> H  -25.565   30.234   45.708
| 58> H  -23.943   29.657   45.297
| 59> H  -24.857   29.227   43.139
| 60> H  -26.527   29.183   43.755
| 61> H  -27.317   27.978   45.861
| 62> *
| 63>
| 64>                          ****END OF INPUT****
 Total Charge           Charge          ....    0
 Multiplicity           Mult            ....    1
 Number of Electrons    NEL             ....  102
FINAL SINGLE POINT ENERGY      -652.833648465113
FINAL SINGLE POINT ENERGY      -652.857020684690
FINAL SINGLE POINT ENERGY      -652.860889156349
FINAL SINGLE POINT ENERGY      -652.861556772748
FINAL SINGLE POINT ENERGY      -652.861662426050
FINAL SINGLE POINT ENERGY      -652.861676878012
                    ***********************HURRAY********************

CARTESIAN COORDINATES (ANGSTROEM)
---------------------------------
  C    -21.140598   26.236381   46.190517
  C    -20.349235   27.511918   45.906671
  C    -20.421457   28.247345   47.269201
  C    -20.376128   27.085979   48.283553
  O    -20.736473   25.867003   47.513615
  H    -20.922393   25.394058   45.525418
  H    -19.315446   27.237925   45.666571
  H    -20.739446   28.107087   45.077047
  H    -19.598300   28.954774   47.406837
  H    -21.364659   28.795993   47.349087
  H    -21.086856   27.200187   49.105508
  H    -19.374860   26.913953   48.688870
  C    -23.220209   26.848793   44.984875
  H    -22.799768   27.785066   44.593400
  H    -23.090990   26.073436   44.216270
  O    -22.582805   26.459588   46.230688
  C    -24.708962   27.020757   45.280495
  C    -25.050074   28.132491   46.282250
  C    -24.967464   29.396431   45.388634
  C    -25.494123   28.897501   44.020000
  O    -25.405806   27.416022   44.050402
  H    -25.130005   26.064827   45.601789
  O    -26.388178   27.948319   46.821846
  H    -24.382151   28.150602   47.141673
  H    -25.569542   30.206082   45.807744
  H    -23.930846   29.744375   45.313399
  H    -24.908058   29.271600   43.174968
  H    -26.544973   29.153464   43.855326
  H    -26.992196   27.672042   46.100346

 Multiplicity           Mult            ....    1
 Number of Electrons    NEL             ....  102
 Basis Dimension        Dim             ....  149

ORBITAL ENERGIES
----------------

  NO   OCC          E(Eh)            E(eV)
   0   2.0000     -19.146581      -521.0049
   1   2.0000     -19.146423      -521.0007
   2   2.0000     -19.143783      -520.9288
   3   2.0000     -19.134735      -520.6826
   4   2.0000     -10.283999      -279.8418
   5   2.0000     -10.236479      -278.5488
   6   2.0000     -10.234451      -278.4936
   7   2.0000     -10.234282      -278.4890
   8   2.0000     -10.233624      -278.4711
   9   2.0000     -10.228420      -278.3294
  10   2.0000     -10.193198      -277.3710
  11   2.0000     -10.192380      -277.3488
  12   2.0000     -10.189709      -277.2761
  13   2.0000      -1.057969       -28.7888
  14   2.0000      -1.037251       -28.2250
  15   2.0000      -1.004799       -27.3420
  16   2.0000      -0.998919       -27.1820
  17   2.0000      -0.791815       -21.5464
  18   2.0000      -0.781647       -21.2697
  19   2.0000      -0.770466       -20.9654
  20   2.0000      -0.733717       -19.9655
  21   2.0000      -0.678567       -18.4648
  22   2.0000      -0.606297       -16.4982
  23   2.0000      -0.605323       -16.4717
  24   2.0000      -0.592964       -16.1354
  25   2.0000      -0.581747       -15.8301
  26   2.0000      -0.526719       -14.3327
  27   2.0000      -0.516695       -14.0600
  28   2.0000      -0.502325       -13.6690
  29   2.0000      -0.494109       -13.4454
  30   2.0000      -0.474992       -12.9252
  31   2.0000      -0.456977       -12.4350
  32   2.0000      -0.452742       -12.3197
  33   2.0000      -0.447221       -12.1695
  34   2.0000      -0.427069       -11.6211
  35   2.0000      -0.416217       -11.3258
  36   2.0000      -0.404619       -11.0102
  37   2.0000      -0.393470       -10.7069
  38   2.0000      -0.380308       -10.3487
  39   2.0000      -0.369324       -10.0498
  40   2.0000      -0.365516        -9.9462
  41   2.0000      -0.359976        -9.7955
  42   2.0000      -0.355696        -9.6790
  43   2.0000      -0.334200        -9.0940
  44   2.0000      -0.318287        -8.6610
  45   2.0000      -0.310284        -8.4432
  46   2.0000      -0.302983        -8.2446
  47   2.0000      -0.272096        -7.4041
  48   2.0000      -0.261594        -7.1183
  49   2.0000      -0.258979        -7.0472
  50   2.0000      -0.248559        -6.7636
  51   0.0000       0.057113         1.5541
  52   0.0000       0.066297         1.8040
  53   0.0000       0.092165         2.5079
  54   0.0000       0.099666         2.7120
  55   0.0000       0.101896         2.7727

MULLIKEN ATOMIC CHARGES
-----------------------
   0 C :    0.315750
   1 C :   -0.286867
   2 C :   -0.297628
   3 C :   -0.002096
   4 O :   -0.500670
   5 H :    0.143797
   6 H :    0.151730
   7 H :    0.141686
   8 H :    0.144616
   9 H :    0.154709
  10 H :    0.157126
  11 H :    0.144376
  12 C :   -0.007426
  13 H :    0.120840
  14 H :    0.146130
  15 O :   -0.519321
  16 C :    0.058744
  17 C :    0.092384
  18 C :   -0.302505
  19 C :   -0.026994
  20 O :   -0.529202
  21 H :    0.170450
  22 O :   -0.603517
  23 H :    0.175339
  24 H :    0.163860
  25 H :    0.139427
  26 H :    0.143981
  27 H :    0.147845
  28 H :    0.363435
Sum of atomic charges:    0.0000000

LOEWDIN ATOMIC CHARGES
----------------------
   0 C :    0.182957
   1 C :   -0.232922
   2 C :   -0.216696
   3 C :   -0.024929
   4 O :   -0.300576
   5 H :    0.098290
   6 H :    0.118189
   7 H :    0.112481
   8 H :    0.115551
   9 H :    0.113751
  10 H :    0.110875
  11 H :    0.103929
  12 C :   -0.042174
  13 H :    0.086265
  14 H :    0.103028
  15 O :   -0.335337
  16 C :    0.020445
  17 C :    0.038510
  18 C :   -0.242558
  19 C :   -0.037637
  20 O :   -0.331290
  21 H :    0.121406
  22 O :   -0.414051
  23 H :    0.126566
  24 H :    0.127369
  25 H :    0.110292
  26 H :    0.102694
  27 H :    0.103664
  28 H :    0.281911

  Mayer bond orders larger than 0.100000
B(  0-C ,  1-C ) :   0.9273 B(  0-C ,  4-O ) :   0.9414 B(  0-C ,  5-H ) :   0.9211
B(  0-C , 15-O ) :   0.8243 B(  1-C ,  2-C ) :   0.9507 B(  1-C ,  6-H ) :   0.9339
B(  1-C ,  7-H ) :   0.9311 B(  2-C ,  3-C ) :   0.9552 B(  2-C ,  8-H ) :   0.9449
B(  2-C ,  9-H ) :   0.9448 B(  3-C ,  4-O ) :   0.8344 B(  3-C , 10-H ) :   0.9341
B(  3-C , 11-H ) :   0.9395 B( 12-C , 13-H ) :   0.9093 B( 12-C , 14-H ) :   0.9151
B( 12-C , 15-O ) :   0.8314 B( 12-C , 16-C ) :   0.9063 B( 16-C , 17-C ) :   0.9147
B( 16-C , 20-O ) :   0.8426 B( 16-C , 21-H ) :   0.9243 B( 17-C , 18-C ) :   0.9121
B( 17-C , 22-O ) :   0.8891 B( 17-C , 23-H ) :   0.9225 B( 18-C , 19-C ) :   0.9423
B( 18-C , 24-H ) :   0.9377 B( 18-C , 25-H ) :   0.9348 B( 19-C , 20-O ) :   0.8434
B( 19-C , 26-H ) :   0.9359 B( 19-C , 27-H ) :   0.9382 B( 22-O , 28-H ) :   0.7950

FINAL SINGLE POINT ENERGY      -652.861679996543

DIPOLE MOMENT
-------------
                                X             Y             Z
Electronic contribution:     -3.74706      -5.58873       0.77583
Nuclear contribution   :      4.64780       6.88496      -1.58161
                        -----------------------------------------
Total Dipole Moment    :      0.90075       1.29622      -0.80578
                        -----------------------------------------
Magnitude (a.u.)       :      1.77224
Magnitude (Debye)      :      4.50466

Rotational constants in cm-1:     0.052064     0.013168     0.012822
Rotational constants in MHz :  1560.844428   394.760389   384.395179

                             ****ORCA TERMINATED NORMALLY****
TOTAL RUN TIME: 0 days 1 hours 9 minutes 14 seconds 940 msec
