                         Program Version 4.2.0 -  RELEASE  -
|  1> # Test redundant internal optimization
|  2> #
|  3> ! RKS B3LYP  Opt TightSCF SmallPrint
|  4>
|  5> %basis
|  6>         Basis "6-31G"
|  7> end
|  8>
|  9> %geom
| 10> Constraints
| 11> { D 4  0  15  12  210.0   C } # D for Dihedral angle
| 12> { D 0  15  12  16  165.0   C } # D for Dihedral angle
| 13> { D 0  4  3  2   C } # D for Dihedral angle
| 14> { D 4  3  2  1   C } # D for Dihedral angle
| 15> { D 3  2  1  0   C } # D for Dihedral angle
| 16> { D 2  1  0  4   C } # D for Dihedral angle
| 17> { D 1  0  4  3   C } # D for Dihedral angle
| 18> { D 16  20  19  18   C } # D for Dihedral angle
| 19> { D 20  19  18  17   C } # D for Dihedral angle
| 20> { D 19  18  17  16   C } # D for Dihedral angle
| 21> { D 18  17  16  20   C } # D for Dihedral angle
| 22> { D 17  16  20  19   C } # D for Dihedral angle
| 23> { D 15  12  16  20   C } # D for Dihedral angle
| 24> end
| 25> end
| 26>
| 27>
| 28> #%pal
| 29> #nprocs 8
| 30> #end
| 31>
| 32> * xyz 0 1
| 33> C  -21.048   26.222   46.251
| 34> C  -20.361   27.558   45.944
| 35> C  -20.329   28.222   47.341
| 36> C  -20.110   27.022   48.296
| 37> O  -20.473   25.807   47.535
| 38> H  -20.833   25.428   45.533
| 39> H  -19.344   27.382   45.576
| 40> H  -20.898   28.157   45.201
| 41> H  -19.543   28.978   47.434
| 42> H  -21.289   28.710   47.548
| 43> H  -20.733   27.082   49.195
| 44> H  -19.064   26.913   48.597
| 45> C  -23.389   26.110   45.076
| 46> H  -23.255   26.946   44.378
| 47> H  -23.024   25.196   44.591
| 48> O  -22.586   26.394   46.375
| 49> C  -24.910   25.932   45.337
| 50> C  -25.541   27.228   45.860
| 51> C  -25.703   28.046   44.556
| 52> C  -26.037   26.962   43.501
| 53> O  -25.619   25.668   44.080
| 54> H  -25.064   25.064   45.980
| 55> H  -26.518   27.017   46.308
| 56> O  -24.663   27.950   46.919
| 57> H  -26.482   28.811   44.630
| 58> H  -24.761   28.550   44.309
| 59> H  -25.508   27.120   42.556
| 60> H  -27.109   26.893   43.299
| 61> H  -23.679   28.172   46.491
| 62> *
| 63>
| 64>                          ****END OF INPUT****
 Total Charge           Charge          ....    0
 Multiplicity           Mult            ....    1
 Number of Electrons    NEL             ....  102
FINAL SINGLE POINT ENERGY      -652.829437634396
FINAL SINGLE POINT ENERGY      -652.854087381081
FINAL SINGLE POINT ENERGY      -652.860377599737
FINAL SINGLE POINT ENERGY      -652.862951060844
FINAL SINGLE POINT ENERGY      -652.864550634823
FINAL SINGLE POINT ENERGY      -652.865585970360
FINAL SINGLE POINT ENERGY      -652.866101226867
FINAL SINGLE POINT ENERGY      -652.866230617906
FINAL SINGLE POINT ENERGY      -652.866252660084
FINAL SINGLE POINT ENERGY      -652.866256866481
                    ***********************HURRAY********************

CARTESIAN COORDINATES (ANGSTROEM)
---------------------------------
  C    -21.097098   26.209171   46.189520
  C    -20.373076   27.519587   45.891633
  C    -20.443711   28.242117   47.257765
  C    -20.319366   27.084604   48.269398
  O    -20.644755   25.849140   47.499035
  H    -20.872605   25.375884   45.516940
  H    -19.334790   27.303193   45.614812
  H    -20.836385   28.089075   45.080857
  H    -19.651516   28.986948   47.377851
  H    -21.406895   28.751910   47.361108
  H    -21.014574   27.161817   49.108443
  H    -19.302132   26.953807   48.648188
  C    -23.277920   26.104755   44.993976
  H    -23.104929   26.893890   44.249104
  H    -22.939645   25.149501   44.573415
  O    -22.545500   26.400320   46.225694
  C    -24.762828   26.003730   45.357344
  C    -25.390297   27.299085   45.900061
  C    -25.642436   28.100036   44.589541
  C    -26.012787   27.000759   43.572635
  O    -25.532338   25.709817   44.151090
  H    -24.903338   25.161166   46.039637
  H    -26.351411   27.050018   46.365356
  O    -24.605049   28.024735   46.867100
  H    -26.430885   28.846941   44.715658
  H    -24.721434   28.625830   44.315358
  H    -25.547514   27.140386   42.592101
  H    -27.093208   26.896214   43.437851
  H    -23.714579   27.605564   46.935527

 Multiplicity           Mult            ....    1
 Number of Electrons    NEL             ....  102
 Basis Dimension        Dim             ....  149

ORBITAL ENERGIES
----------------

  NO   OCC          E(Eh)            E(eV)
   0   2.0000     -19.164390      -521.4896
   1   2.0000     -19.151455      -521.1376
   2   2.0000     -19.141322      -520.8619
   3   2.0000     -19.113124      -520.0945
   4   2.0000     -10.293720      -280.1064
   5   2.0000     -10.242121      -278.7023
   6   2.0000     -10.235324      -278.5173
   7   2.0000     -10.233378      -278.4644
   8   2.0000     -10.230865      -278.3960
   9   2.0000     -10.227510      -278.3047
  10   2.0000     -10.196822      -277.4696
  11   2.0000     -10.194817      -277.4151
  12   2.0000     -10.180285      -277.0196
  13   2.0000      -1.067570       -29.0500
  14   2.0000      -1.026982       -27.9456
  15   2.0000      -1.009983       -27.4830
  16   2.0000      -0.992449       -27.0059
  17   2.0000      -0.796878       -21.6842
  18   2.0000      -0.774954       -21.0876
  19   2.0000      -0.768921       -20.9234
  20   2.0000      -0.737546       -20.0696
  21   2.0000      -0.680844       -18.5267
  22   2.0000      -0.609485       -16.5849
  23   2.0000      -0.603241       -16.4150
  24   2.0000      -0.594832       -16.1862
  25   2.0000      -0.581922       -15.8349
  26   2.0000      -0.530726       -14.4418
  27   2.0000      -0.522256       -14.2113
  28   2.0000      -0.502265       -13.6673
  29   2.0000      -0.489802       -13.3282
  30   2.0000      -0.475884       -12.9495
  31   2.0000      -0.459344       -12.4994
  32   2.0000      -0.449203       -12.2234
  33   2.0000      -0.437464       -11.9040
  34   2.0000      -0.428442       -11.6585
  35   2.0000      -0.419123       -11.4049
  36   2.0000      -0.408867       -11.1258
  37   2.0000      -0.388731       -10.5779
  38   2.0000      -0.383240       -10.4285
  39   2.0000      -0.369742       -10.0612
  40   2.0000      -0.365517        -9.9462
  41   2.0000      -0.365359        -9.9419
  42   2.0000      -0.349748        -9.5171
  43   2.0000      -0.342496        -9.3198
  44   2.0000      -0.323640        -8.8067
  45   2.0000      -0.321400        -8.7458
  46   2.0000      -0.289000        -7.8641
  47   2.0000      -0.276454        -7.5227
  48   2.0000      -0.265501        -7.2246
  49   2.0000      -0.249805        -6.7975
  50   2.0000      -0.243542        -6.6271
  51   0.0000       0.053529         1.4566
  52   0.0000       0.074769         2.0346
  53   0.0000       0.090627         2.4661
  54   0.0000       0.095531         2.5995
  55   0.0000       0.102268         2.7829

MULLIKEN ATOMIC CHARGES
-----------------------
   0 C :    0.310094
   1 C :   -0.266710
   2 C :   -0.307232
   3 C :   -0.009853
   4 O :   -0.499392
   5 H :    0.146953
   6 H :    0.151107
   7 H :    0.147558
   8 H :    0.149239
   9 H :    0.166777
  10 H :    0.161520
  11 H :    0.148216
  12 C :   -0.010844
  13 H :    0.137847
  14 H :    0.153660
  15 O :   -0.556981
  16 C :    0.051795
  17 C :    0.116339
  18 C :   -0.302570
  19 C :   -0.021355
  20 O :   -0.521700
  21 H :    0.166973
  22 H :    0.147029
  23 O :   -0.647964
  24 H :    0.154047
  25 H :    0.143070
  26 H :    0.140524
  27 H :    0.151189
  28 H :    0.400664
Sum of atomic charges:    0.0000000

LOEWDIN ATOMIC CHARGES
----------------------
   0 C :    0.182507
   1 C :   -0.226541
   2 C :   -0.217835
   3 C :   -0.026388
   4 O :   -0.302657
   5 H :    0.102826
   6 H :    0.117433
   7 H :    0.117207
   8 H :    0.118432
   9 H :    0.119946
  10 H :    0.112783
  11 H :    0.106174
  12 C :   -0.042260
  13 H :    0.094221
  14 H :    0.109122
  15 O :   -0.342535
  16 C :    0.019408
  17 C :    0.042129
  18 C :   -0.236655
  19 C :   -0.033094
  20 O :   -0.323738
  21 H :    0.119022
  22 H :    0.104567
  23 O :   -0.439677
  24 H :    0.122231
  25 H :    0.110036
  26 H :    0.101284
  27 H :    0.106897
  28 H :    0.285155

  Mayer bond orders larger than 0.100000
B(  0-C ,  1-C ) :   0.9365 B(  0-C ,  4-O ) :   0.9506 B(  0-C ,  5-H ) :   0.9202
B(  0-C , 15-O ) :   0.7897 B(  1-C ,  2-C ) :   0.9513 B(  1-C ,  6-H ) :   0.9335
B(  1-C ,  7-H ) :   0.9366 B(  2-C ,  3-C ) :   0.9531 B(  2-C ,  8-H ) :   0.9444
B(  2-C ,  9-H ) :   0.9410 B(  3-C ,  4-O ) :   0.8293 B(  3-C , 10-H ) :   0.9335
B(  3-C , 11-H ) :   0.9393 B( 12-C , 13-H ) :   0.9185 B( 12-C , 14-H ) :   0.9204
B( 12-C , 15-O ) :   0.7892 B( 12-C , 16-C ) :   0.9057 B( 16-C , 17-C ) :   0.9158
B( 16-C , 20-O ) :   0.8548 B( 16-C , 21-H ) :   0.9280 B( 17-C , 18-C ) :   0.9030
B( 17-C , 22-H ) :   0.9282 B( 17-C , 23-O ) :   0.9348 B( 18-C , 19-C ) :   0.9404
B( 18-C , 24-H ) :   0.9441 B( 18-C , 25-H ) :   0.9430 B( 19-C , 20-O ) :   0.8333
B( 19-C , 26-H ) :   0.9345 B( 19-C , 27-H ) :   0.9380 B( 23-O , 28-H ) :   0.7120

FINAL SINGLE POINT ENERGY      -652.866257925581

DIPOLE MOMENT
-------------
                                X             Y             Z
Electronic contribution:     -1.68631      -4.73730       1.76430
Nuclear contribution   :      2.65210       5.43349      -2.52640
                        -----------------------------------------
Total Dipole Moment    :      0.96578       0.69619      -0.76209
                        -----------------------------------------
Magnitude (a.u.)       :      1.41358
Magnitude (Debye)      :      3.59303

Rotational constants in cm-1:     0.058511     0.013461     0.012640
Rotational constants in MHz :  1754.111531   403.545024   378.931809

                             ****ORCA TERMINATED NORMALLY****
TOTAL RUN TIME: 0 days 1 hours 24 minutes 54 seconds 489 msec
