                         Program Version 4.2.0 -  RELEASE  -
|  1> # Test redundant internal optimization
|  2> #
|  3> ! RKS B3LYP  Opt TightSCF SmallPrint
|  4>
|  5> %basis
|  6>         Basis "6-31G"
|  7> end
|  8>
|  9> %geom
| 10> Constraints
| 11> { D 4  0  15  12  315.0   C } # D for Dihedral angle
| 12> { D 0  15  12  16  195.0   C } # D for Dihedral angle
| 13> { D 0  4  3  2   C } # D for Dihedral angle
| 14> { D 4  3  2  1   C } # D for Dihedral angle
| 15> { D 3  2  1  0   C } # D for Dihedral angle
| 16> { D 2  1  0  4   C } # D for Dihedral angle
| 17> { D 1  0  4  3   C } # D for Dihedral angle
| 18> { D 16  20  19  18   C } # D for Dihedral angle
| 19> { D 20  19  18  17   C } # D for Dihedral angle
| 20> { D 19  18  17  16   C } # D for Dihedral angle
| 21> { D 18  17  16  20   C } # D for Dihedral angle
| 22> { D 17  16  20  19   C } # D for Dihedral angle
| 23> { D 15  12  16  20   C } # D for Dihedral angle
| 24> end
| 25> end
| 26>
| 27>
| 28> #%pal
| 29> #nprocs 8
| 30> #end
| 31>
| 32> * xyz 0 1
| 33> C  -21.048   26.222   46.251
| 34> C  -20.361   27.558   45.944
| 35> C  -20.329   28.222   47.341
| 36> C  -20.110   27.022   48.296
| 37> O  -20.473   25.807   47.535
| 38> H  -20.833   25.428   45.533
| 39> H  -19.344   27.382   45.576
| 40> H  -20.898   28.157   45.201
| 41> H  -19.543   28.978   47.434
| 42> H  -21.289   28.710   47.548
| 43> H  -20.733   27.082   49.195
| 44> H  -19.064   26.913   48.597
| 45> C  -23.319   25.255   47.135
| 46> H  -22.935   24.286   46.792
| 47> H  -23.136   25.333   48.214
| 48> O  -22.586   26.394   46.375
| 49> C  -24.857   25.277   46.914
| 50> C  -25.453   26.639   47.288
| 51> C  -25.106   27.487   46.041
| 52> C  -25.230   26.470   44.879
| 53> O  -25.172   25.124   45.490
| 54> H  -25.305   24.429   47.434
| 55> H  -26.539   26.554   47.407
| 56> O  -24.861   27.226   48.598
| 57> H  -25.770   28.348   45.914
| 58> H  -24.079   27.864   46.116
| 59> H  -24.421   26.568   44.147
| 60> H  -26.189   26.546   44.358
| 61> H  -23.773   27.320   48.501
| 62> *
| 63>
| 64>                          ****END OF INPUT****
 Total Charge           Charge          ....    0
 Multiplicity           Mult            ....    1
 Number of Electrons    NEL             ....  102
FINAL SINGLE POINT ENERGY      -652.837716209082
FINAL SINGLE POINT ENERGY      -652.861750376032
FINAL SINGLE POINT ENERGY      -652.866223343625
FINAL SINGLE POINT ENERGY      -652.867582626904
FINAL SINGLE POINT ENERGY      -652.867703031048
FINAL SINGLE POINT ENERGY      -652.867721443014
FINAL SINGLE POINT ENERGY      -652.867721945776
                    ***********************HURRAY********************

CARTESIAN COORDINATES (ANGSTROEM)
---------------------------------
  C    -21.067460   26.148279   46.297482
  C    -20.436443   27.500980   45.968323
  C    -20.387211   28.172248   47.358829
  C    -20.102205   26.990686   48.313004
  O    -20.453082   25.761492   47.549154
  H    -20.852899   25.333599   45.598230
  H    -19.428359   27.337976   45.571923
  H    -21.019305   28.063430   45.235719
  H    -19.620319   28.950201   47.423819
  H    -21.355479   28.630814   47.583642
  H    -20.696920   27.019671   49.229804
  H    -19.044200   26.901912   48.574767
  C    -23.199488   25.268130   47.135065
  H    -22.828471   24.289342   46.803618
  H    -23.002935   25.359912   48.209057
  O    -22.500213   26.322095   46.399471
  C    -24.699479   25.338600   46.874559
  C    -25.383340   26.654732   47.284704
  C    -25.151359   27.545504   46.025249
  C    -25.246537   26.525649   44.870315
  O    -25.060576   25.180215   45.472376
  H    -25.145172   24.487013   47.402598
  H    -26.447714   26.483445   47.458315
  O    -24.889162   27.226668   48.520453
  H    -25.893002   28.346122   45.945405
  H    -24.150807   27.980109   46.078024
  H    -24.475147   26.677848   44.110179
  H    -26.230790   26.524067   44.391622
  H    -23.987927   27.580260   48.368293

 Multiplicity           Mult            ....    1
 Number of Electrons    NEL             ....  102
 Basis Dimension        Dim             ....  149

ORBITAL ENERGIES
----------------

  NO   OCC          E(Eh)            E(eV)
   0   2.0000     -19.152321      -521.1611
   1   2.0000     -19.150909      -521.1227
   2   2.0000     -19.138974      -520.7980
   3   2.0000     -19.131137      -520.5847
   4   2.0000     -10.285174      -279.8738
   5   2.0000     -10.234950      -278.5071
   6   2.0000     -10.234790      -278.5028
   7   2.0000     -10.228196      -278.3234
   8   2.0000     -10.226712      -278.2830
   9   2.0000     -10.219698      -278.0921
  10   2.0000     -10.196172      -277.4519
  11   2.0000     -10.193945      -277.3913
  12   2.0000     -10.177811      -276.9523
  13   2.0000      -1.062632       -28.9157
  14   2.0000      -1.025700       -27.9107
  15   2.0000      -1.008245       -27.4358
  16   2.0000      -0.998008       -27.1572
  17   2.0000      -0.797679       -21.7060
  18   2.0000      -0.771657       -20.9979
  19   2.0000      -0.764342       -20.7988
  20   2.0000      -0.735174       -20.0051
  21   2.0000      -0.675541       -18.3824
  22   2.0000      -0.608763       -16.5653
  23   2.0000      -0.600174       -16.3316
  24   2.0000      -0.596884       -16.2420
  25   2.0000      -0.568071       -15.4580
  26   2.0000      -0.526893       -14.3375
  27   2.0000      -0.512812       -13.9543
  28   2.0000      -0.499741       -13.5986
  29   2.0000      -0.491202       -13.3663
  30   2.0000      -0.468076       -12.7370
  31   2.0000      -0.461353       -12.5541
  32   2.0000      -0.445550       -12.1240
  33   2.0000      -0.424077       -11.5397
  34   2.0000      -0.420326       -11.4376
  35   2.0000      -0.417472       -11.3600
  36   2.0000      -0.404066       -10.9952
  37   2.0000      -0.397937       -10.8284
  38   2.0000      -0.384766       -10.4700
  39   2.0000      -0.367101        -9.9893
  40   2.0000      -0.364825        -9.9274
  41   2.0000      -0.356605        -9.7037
  42   2.0000      -0.351387        -9.5617
  43   2.0000      -0.337580        -9.1860
  44   2.0000      -0.321399        -8.7457
  45   2.0000      -0.307269        -8.3612
  46   2.0000      -0.304421        -8.2837
  47   2.0000      -0.271360        -7.3841
  48   2.0000      -0.265463        -7.2236
  49   2.0000      -0.259297        -7.0558
  50   2.0000      -0.237416        -6.4604
  51   0.0000       0.044121         1.2006
  52   0.0000       0.085031         2.3138
  53   0.0000       0.091334         2.4853
  54   0.0000       0.097910         2.6643
  55   0.0000       0.104126         2.8334

MULLIKEN ATOMIC CHARGES
-----------------------
   0 C :    0.298664
   1 C :   -0.265030
   2 C :   -0.300863
   3 C :   -0.011857
   4 O :   -0.511304
   5 H :    0.155914
   6 H :    0.150950
   7 H :    0.157901
   8 H :    0.148849
   9 H :    0.146849
  10 H :    0.147289
  11 H :    0.150680
  12 C :   -0.004004
  13 H :    0.146578
  14 H :    0.150418
  15 O :   -0.546131
  16 C :    0.084972
  17 C :    0.080235
  18 C :   -0.312028
  19 C :   -0.000196
  20 O :   -0.521836
  21 H :    0.150687
  22 H :    0.163303
  23 O :   -0.606913
  24 H :    0.143186
  25 H :    0.160794
  26 H :    0.143995
  27 H :    0.138741
  28 H :    0.360157
Sum of atomic charges:   -0.0000000

LOEWDIN ATOMIC CHARGES
----------------------
   0 C :    0.176051
   1 C :   -0.214541
   2 C :   -0.216595
   3 C :   -0.030488
   4 O :   -0.325291
   5 H :    0.101507
   6 H :    0.117617
   7 H :    0.124272
   8 H :    0.117376
   9 H :    0.109718
  10 H :    0.104630
  11 H :    0.107053
  12 C :   -0.045015
  13 H :    0.108369
  14 H :    0.106633
  15 O :   -0.340165
  16 C :    0.018223
  17 C :    0.036551
  18 C :   -0.243389
  19 C :   -0.024668
  20 O :   -0.323582
  21 H :    0.115247
  22 H :    0.116489
  23 O :   -0.411502
  24 H :    0.114471
  25 H :    0.119053
  26 H :    0.103944
  27 H :    0.099794
  28 H :    0.278238

  Mayer bond orders larger than 0.100000
B(  0-C ,  1-C ) :   0.9500 B(  0-C ,  4-O ) :   0.8978 B(  0-C ,  5-H ) :   0.9191
B(  0-C , 15-O ) :   0.8469 B(  1-C ,  2-C ) :   0.9532 B(  1-C ,  6-H ) :   0.9380
B(  1-C ,  7-H ) :   0.9359 B(  2-C ,  3-C ) :   0.9543 B(  2-C ,  8-H ) :   0.9444
B(  2-C ,  9-H ) :   0.9458 B(  3-C ,  4-O ) :   0.8352 B(  3-C , 10-H ) :   0.9346
B(  3-C , 11-H ) :   0.9399 B( 12-C , 13-H ) :   0.9225 B( 12-C , 14-H ) :   0.9059
B( 12-C , 15-O ) :   0.8120 B( 12-C , 16-C ) :   0.9140 B( 16-C , 17-C ) :   0.8873
B( 16-C , 20-O ) :   0.8766 B( 16-C , 21-H ) :   0.9286 B( 17-C , 18-C ) :   0.9329
B( 17-C , 22-H ) :   0.9355 B( 17-C , 23-O ) :   0.8994 B( 18-C , 19-C ) :   0.9459
B( 18-C , 24-H ) :   0.9410 B( 18-C , 25-H ) :   0.9276 B( 19-C , 20-O ) :   0.8399
B( 19-C , 26-H ) :   0.9328 B( 19-C , 27-H ) :   0.9379 B( 23-O , 28-H ) :   0.7925

FINAL SINGLE POINT ENERGY      -652.867720372289

DIPOLE MOMENT
-------------
                                X             Y             Z
Electronic contribution:     -2.27757      -4.43786       0.38491
Nuclear contribution   :      3.14379       5.44501      -0.60628
                        -----------------------------------------
Total Dipole Moment    :      0.86622       1.00714      -0.22137
                        -----------------------------------------
Magnitude (a.u.)       :      1.34673
Magnitude (Debye)      :      3.42312

Rotational constants in cm-1:     0.046679     0.016095     0.015357
Rotational constants in MHz :  1399.412724   482.518149   460.386904

                             ****ORCA TERMINATED NORMALLY****
TOTAL RUN TIME: 0 days 0 hours 22 minutes 3 seconds 884 msec
