                         Program Version 4.2.0 -  RELEASE  -
|  1> # Test redundant internal optimization
|  2> #
|  3> ! RKS B3LYP  Opt TightSCF SmallPrint
|  4>
|  5> %basis
|  6>         Basis "6-31G"
|  7> end
|  8>
|  9> %geom
| 10> Constraints
| 11> { D 4  0  15  12  300.0   C } # D for Dihedral angle
| 12> { D 0  15  12  16  285.0   C } # D for Dihedral angle
| 13> { D 0  4  3  2   C } # D for Dihedral angle
| 14> { D 4  3  2  1   C } # D for Dihedral angle
| 15> { D 3  2  1  0   C } # D for Dihedral angle
| 16> { D 2  1  0  4   C } # D for Dihedral angle
| 17> { D 1  0  4  3   C } # D for Dihedral angle
| 18> { D 16  20  19  18   C } # D for Dihedral angle
| 19> { D 20  19  18  17   C } # D for Dihedral angle
| 20> { D 19  18  17  16   C } # D for Dihedral angle
| 21> { D 18  17  16  20   C } # D for Dihedral angle
| 22> { D 17  16  20  19   C } # D for Dihedral angle
| 23> { D 15  12  16  20   C } # D for Dihedral angle
| 24> end
| 25> end
| 26>
| 27>
| 28> #%pal
| 29> #nprocs 8
| 30> #end
| 31>
| 32> * xyz 0 1
| 33> C  -21.048   26.222   46.251
| 34> C  -20.361   27.558   45.944
| 35> C  -20.329   28.222   47.341
| 36> C  -20.110   27.022   48.296
| 37> O  -20.473   25.807   47.535
| 38> H  -20.833   25.428   45.533
| 39> H  -19.344   27.382   45.576
| 40> H  -20.898   28.157   45.201
| 41> H  -19.543   28.978   47.434
| 42> H  -21.289   28.710   47.548
| 43> H  -20.733   27.082   49.195
| 44> H  -19.064   26.913   48.597
| 45> C  -23.362   25.116   46.798
| 46> H  -22.840   24.637   47.635
| 47> H  -24.376   25.374   47.128
| 48> O  -22.586   26.394   46.375
| 49> C  -23.489   24.082   45.645
| 50> C  -24.131   24.710   44.402
| 51> C  -22.937   25.478   43.787
| 52> C  -21.728   24.564   44.106
| 53> O  -22.162   23.655   45.190
| 54> H  -24.001   23.193   46.017
| 55> O  -24.621   23.597   43.437
| 56> H  -24.979   25.362   44.638
| 57> H  -23.053   25.656   42.713
| 58> H  -22.823   26.453   44.278
| 59> H  -20.851   25.128   44.440
| 60> H  -21.443   23.937   43.256
| 61> H  -23.788   22.932   43.186
| 62> *
| 63>
| 64>                          ****END OF INPUT****
 Total Charge           Charge          ....    0
 Multiplicity           Mult            ....    1
 Number of Electrons    NEL             ....  102
FINAL SINGLE POINT ENERGY      -652.800448450626
FINAL SINGLE POINT ENERGY      -652.842377072933
FINAL SINGLE POINT ENERGY      -652.859755951672
FINAL SINGLE POINT ENERGY      -652.863177253561
FINAL SINGLE POINT ENERGY      -652.863814797262
FINAL SINGLE POINT ENERGY      -652.863956303403
FINAL SINGLE POINT ENERGY      -652.863999260725
FINAL SINGLE POINT ENERGY      -652.864015891265
FINAL SINGLE POINT ENERGY      -652.864019664472
                    ***********************HURRAY********************

CARTESIAN COORDINATES (ANGSTROEM)
---------------------------------
  C    -20.927178   26.337004   46.319952
  C    -20.337126   27.739667   46.172811
  C    -20.402563   28.262906   47.625272
  C    -20.124790   26.998968   48.468432
  O    -20.372921   25.844563   47.564613
  H    -20.647439   25.601998   45.571344
  H    -19.300781   27.659880   45.825743
  H    -20.903313   28.354651   45.469835
  H    -19.675846   29.057704   47.818915
  H    -21.404523   28.650802   47.829414
  H    -20.777300   26.912977   49.341185
  H    -19.081892   26.922892   48.790135
  C    -23.139768   25.290582   46.695400
  H    -22.671856   24.792348   47.552585
  H    -24.126211   25.656961   46.995885
  O    -22.368216   26.494278   46.401061
  C    -23.332137   24.249831   45.581803
  C    -24.136286   24.683819   44.345535
  C    -23.019823   25.238076   43.421605
  C    -21.816545   24.312942   43.730169
  O    -22.115095   23.651749   45.027125
  H    -23.867488   23.423306   46.068593
  O    -24.829898   23.551176   43.750989
  H    -24.914989   25.413923   44.565254
  H    -23.324719   25.208805   42.372200
  H    -22.800082   26.272341   43.703719
  H    -20.870259   24.855983   43.802978
  H    -21.696126   23.513607   42.992041
  H    -24.209832   22.795260   43.677408

 Multiplicity           Mult            ....    1
 Number of Electrons    NEL             ....  102
 Basis Dimension        Dim             ....  149

ORBITAL ENERGIES
----------------

  NO   OCC          E(Eh)            E(eV)
   0   2.0000     -19.148060      -521.0452
   1   2.0000     -19.145895      -520.9863
   2   2.0000     -19.139540      -520.8134
   3   2.0000     -19.137118      -520.7475
   4   2.0000     -10.274613      -279.5864
   5   2.0000     -10.239431      -278.6291
   6   2.0000     -10.235050      -278.5099
   7   2.0000     -10.233136      -278.4578
   8   2.0000     -10.228325      -278.3269
   9   2.0000     -10.224335      -278.2183
  10   2.0000     -10.186099      -277.1779
  11   2.0000     -10.185500      -277.1615
  12   2.0000     -10.184613      -277.1374
  13   2.0000      -1.053319       -28.6623
  14   2.0000      -1.036587       -28.2070
  15   2.0000      -1.006313       -27.3832
  16   2.0000      -0.991068       -26.9683
  17   2.0000      -0.789974       -21.4963
  18   2.0000      -0.778250       -21.1773
  19   2.0000      -0.768480       -20.9114
  20   2.0000      -0.731388       -19.9021
  21   2.0000      -0.675675       -18.3861
  22   2.0000      -0.605069       -16.4648
  23   2.0000      -0.603273       -16.4159
  24   2.0000      -0.596982       -16.2447
  25   2.0000      -0.570379       -15.5208
  26   2.0000      -0.526142       -14.3170
  27   2.0000      -0.507383       -13.8066
  28   2.0000      -0.498473       -13.5641
  29   2.0000      -0.485420       -13.2090
  30   2.0000      -0.469340       -12.7714
  31   2.0000      -0.460949       -12.5431
  32   2.0000      -0.446844       -12.1592
  33   2.0000      -0.443723       -12.0743
  34   2.0000      -0.417859       -11.3705
  35   2.0000      -0.412197       -11.2165
  36   2.0000      -0.397994       -10.8300
  37   2.0000      -0.394089       -10.7237
  38   2.0000      -0.376632       -10.2487
  39   2.0000      -0.367423        -9.9981
  40   2.0000      -0.363442        -9.8898
  41   2.0000      -0.356071        -9.6892
  42   2.0000      -0.344695        -9.3796
  43   2.0000      -0.332949        -9.0600
  44   2.0000      -0.329620        -8.9694
  45   2.0000      -0.308215        -8.3870
  46   2.0000      -0.297807        -8.1037
  47   2.0000      -0.277443        -7.5496
  48   2.0000      -0.267852        -7.2886
  49   2.0000      -0.255011        -6.9392
  50   2.0000      -0.241282        -6.5656
  51   0.0000       0.062061         1.6888
  52   0.0000       0.084903         2.3103
  53   0.0000       0.095024         2.5857
  54   0.0000       0.102395         2.7863
  55   0.0000       0.110203         2.9988

MULLIKEN ATOMIC CHARGES
-----------------------
   0 C :    0.277622
   1 C :   -0.263288
   2 C :   -0.296799
   3 C :   -0.006055
   4 O :   -0.511653
   5 H :    0.170752
   6 H :    0.144059
   7 H :    0.153885
   8 H :    0.140360
   9 H :    0.162097
  10 H :    0.146277
  11 H :    0.143153
  12 C :   -0.023013
  13 H :    0.166380
  14 H :    0.146122
  15 O :   -0.528323
  16 C :    0.069495
  17 C :    0.081274
  18 C :   -0.294941
  19 C :   -0.038383
  20 O :   -0.521776
  21 H :    0.157635
  22 O :   -0.602704
  23 H :    0.156403
  24 H :    0.157828
  25 H :    0.163782
  26 H :    0.138846
  27 H :    0.148247
  28 H :    0.362716
Sum of atomic charges:   -0.0000000

LOEWDIN ATOMIC CHARGES
----------------------
   0 C :    0.169091
   1 C :   -0.215929
   2 C :   -0.215700
   3 C :   -0.028933
   4 O :   -0.323701
   5 H :    0.108274
   6 H :    0.113681
   7 H :    0.122161
   8 H :    0.113068
   9 H :    0.119034
  10 H :    0.104583
  11 H :    0.103086
  12 C :   -0.046126
  13 H :    0.115204
  14 H :    0.115530
  15 O :   -0.332164
  16 C :    0.003636
  17 C :    0.037567
  18 C :   -0.242465
  19 C :   -0.040312
  20 O :   -0.328754
  21 H :    0.117386
  22 O :   -0.416079
  23 H :    0.118065
  24 H :    0.123802
  25 H :    0.123804
  26 H :    0.097407
  27 H :    0.102904
  28 H :    0.281880

  Mayer bond orders larger than 0.100000
B(  0-C ,  1-C ) :   0.9475 B(  0-C ,  4-O ) :   0.8981 B(  0-C ,  5-H ) :   0.8974
B(  0-C , 15-O ) :   0.8451 B(  1-C ,  2-C ) :   0.9552 B(  1-C ,  6-H ) :   0.9407
B(  1-C ,  7-H ) :   0.9358 B(  2-C ,  3-C ) :   0.9552 B(  2-C ,  8-H ) :   0.9454
B(  2-C ,  9-H ) :   0.9441 B(  3-C ,  4-O ) :   0.8378 B(  3-C , 10-H ) :   0.9359
B(  3-C , 11-H ) :   0.9404 B( 12-C , 13-H ) :   0.9135 B( 12-C , 14-H ) :   0.9312
B( 12-C , 15-O ) :   0.8656 B( 12-C , 16-C ) :   0.8892 B( 16-C , 17-C ) :   0.9040
B( 16-C , 20-O ) :   0.8621 B( 16-C , 21-H ) :   0.9152 B( 17-C , 18-C ) :   0.9217
B( 17-C , 22-O ) :   0.8911 B( 17-C , 23-H ) :   0.9347 B( 18-C , 19-C ) :   0.9421
B( 18-C , 24-H ) :   0.9363 B( 18-C , 25-H ) :   0.9254 B( 19-C , 20-O ) :   0.8440
B( 19-C , 26-H ) :   0.9215 B( 19-C , 27-H ) :   0.9388 B( 22-O , 28-H ) :   0.7965

FINAL SINGLE POINT ENERGY      -652.864018927646

DIPOLE MOMENT
-------------
                                X             Y             Z
Electronic contribution:     -2.39533      -4.86636      -0.15580
Nuclear contribution   :      2.88157       5.71972       0.06032
                        -----------------------------------------
Total Dipole Moment    :      0.48623       0.85336      -0.09548
                        -----------------------------------------
Magnitude (a.u.)       :      0.98680
Magnitude (Debye)      :      2.50824

Rotational constants in cm-1:     0.063306     0.013949     0.013610
Rotational constants in MHz :  1897.871857   418.183816   408.022660

                             ****ORCA TERMINATED NORMALLY****
TOTAL RUN TIME: 0 days 0 hours 27 minutes 14 seconds 358 msec
