                         Program Version 4.2.0 -  RELEASE  -
|  1> # Test redundant internal optimization
|  2> #
|  3> ! RKS B3LYP  Opt TightSCF SmallPrint
|  4>
|  5> %basis
|  6>         Basis "6-31G"
|  7> end
|  8>
|  9> %geom
| 10> Constraints
| 11> { D 4  0  15  12  45.0   C } # D for Dihedral angle
| 12> { D 0  15  12  16  135.0   C } # D for Dihedral angle
| 13> { D 0  4  3  2   C } # D for Dihedral angle
| 14> { D 4  3  2  1   C } # D for Dihedral angle
| 15> { D 3  2  1  0   C } # D for Dihedral angle
| 16> { D 2  1  0  4   C } # D for Dihedral angle
| 17> { D 1  0  4  3   C } # D for Dihedral angle
| 18> { D 16  20  19  18   C } # D for Dihedral angle
| 19> { D 20  19  18  17   C } # D for Dihedral angle
| 20> { D 19  18  17  16   C } # D for Dihedral angle
| 21> { D 18  17  16  20   C } # D for Dihedral angle
| 22> { D 17  16  20  19   C } # D for Dihedral angle
| 23> { D 15  12  16  20   C } # D for Dihedral angle
| 24> end
| 25> end
| 26>
| 27>
| 28> #%pal
| 29> #nprocs 8
| 30> #end
| 31>
| 32> * xyz 0 1
| 33> C  -21.048   26.222   46.251
| 34> C  -20.361   27.558   45.944
| 35> C  -20.329   28.222   47.341
| 36> C  -20.110   27.022   48.296
| 37> O  -20.473   25.807   47.535
| 38> H  -20.833   25.428   45.533
| 39> H  -19.344   27.382   45.576
| 40> H  -20.898   28.157   45.201
| 41> H  -19.543   28.978   47.434
| 42> H  -21.289   28.710   47.548
| 43> H  -20.733   27.082   49.195
| 44> H  -19.064   26.913   48.597
| 45> C  -23.065   27.161   47.638
| 46> H  -23.479   26.447   48.360
| 47> H  -22.223   27.682   48.113
| 48> O  -22.586   26.394   46.375
| 49> C  -24.156   28.221   47.319
| 50> C  -24.521   29.037   48.564
| 51> C  -23.347   30.042   48.636
| 52> C  -23.031   30.320   47.145
| 53> O  -23.642   29.217   46.373
| 54> H  -25.003   27.729   46.836
| 55> O  -25.866   29.780   48.339
| 56> H  -24.611   28.424   49.468
| 57> H  -23.601   30.954   49.185
| 58> H  -22.485   29.580   49.133
| 59> H  -21.954   30.346   46.942
| 60> H  -23.481   31.251   46.789
| 61> H  -25.798   30.400   47.439
| 62> *
| 63>
| 64>                          ****END OF INPUT****
 Total Charge           Charge          ....    0
 Multiplicity           Mult            ....    1
 Number of Electrons    NEL             ....  102
FINAL SINGLE POINT ENERGY      -652.808401078753
FINAL SINGLE POINT ENERGY      -652.837119739805
FINAL SINGLE POINT ENERGY      -652.852131329339
FINAL SINGLE POINT ENERGY      -652.854754107613
FINAL SINGLE POINT ENERGY      -652.855242113281
FINAL SINGLE POINT ENERGY      -652.855316625770
FINAL SINGLE POINT ENERGY      -652.855324431058
                    ***********************HURRAY********************

CARTESIAN COORDINATES (ANGSTROEM)
---------------------------------
  C    -21.195653   26.311115   46.360445
  C    -20.334454   27.501932   45.918639
  C    -19.891763   28.103592   47.281551
  C    -19.727583   26.845468   48.171412
  O    -20.474164   25.759092   47.488180
  H    -21.235495   25.519458   45.610117
  H    -19.471040   27.127269   45.358469
  H    -20.898434   28.202939   45.299909
  H    -18.957549   28.669314   47.206176
  H    -20.656723   28.781261   47.668352
  H    -20.125724   26.970502   49.183479
  H    -18.685640   26.518598   48.239371
  C    -23.091981   27.234315   47.780951
  H    -23.589962   26.483136   48.408645
  H    -22.289599   27.683380   48.373470
  O    -22.592325   26.579324   46.586875
  C    -24.111261   28.283775   47.341580
  C    -24.743337   29.101926   48.477636
  C    -23.677275   30.205472   48.701285
  C    -23.138192   30.468872   47.273146
  O    -23.524486   29.294166   46.452299
  H    -24.880081   27.778103   46.749213
  O    -26.020084   29.662265   48.068774
  H    -24.957299   28.520725   49.375830
  H    -24.127258   31.090474   49.157565
  H    -22.886835   29.840931   49.368074
  H    -22.050321   30.585831   47.245120
  H    -23.593235   31.349286   46.809712
  H    -25.946248   29.993477   47.148728

 Multiplicity           Mult            ....    1
 Number of Electrons    NEL             ....  102
 Basis Dimension        Dim             ....  149

ORBITAL ENERGIES
----------------

  NO   OCC          E(Eh)            E(eV)
   0   2.0000     -19.147791      -521.0379
   1   2.0000     -19.143847      -520.9306
   2   2.0000     -19.141698      -520.8721
   3   2.0000     -19.138170      -520.7761
   4   2.0000     -10.276102      -279.6269
   5   2.0000     -10.246912      -278.8326
   6   2.0000     -10.236379      -278.5460
   7   2.0000     -10.235825      -278.5310
   8   2.0000     -10.234915      -278.5062
   9   2.0000     -10.231932      -278.4250
  10   2.0000     -10.195308      -277.4284
  11   2.0000     -10.193247      -277.3724
  12   2.0000     -10.183161      -277.0979
  13   2.0000      -1.051940       -28.6247
  14   2.0000      -1.039412       -28.2838
  15   2.0000      -1.010160       -27.4878
  16   2.0000      -0.993558       -27.0361
  17   2.0000      -0.790522       -21.5112
  18   2.0000      -0.786329       -21.3971
  19   2.0000      -0.774438       -21.0735
  20   2.0000      -0.734326       -19.9820
  21   2.0000      -0.679749       -18.4969
  22   2.0000      -0.609357       -16.5815
  23   2.0000      -0.604338       -16.4449
  24   2.0000      -0.599174       -16.3044
  25   2.0000      -0.579653       -15.7732
  26   2.0000      -0.528154       -14.3718
  27   2.0000      -0.511522       -13.9192
  28   2.0000      -0.503523       -13.7016
  29   2.0000      -0.490416       -13.3449
  30   2.0000      -0.477671       -12.9981
  31   2.0000      -0.462765       -12.5925
  32   2.0000      -0.454303       -12.3622
  33   2.0000      -0.443506       -12.0684
  34   2.0000      -0.420203       -11.4343
  35   2.0000      -0.418029       -11.3751
  36   2.0000      -0.407198       -11.0804
  37   2.0000      -0.398680       -10.8486
  38   2.0000      -0.378794       -10.3075
  39   2.0000      -0.375881       -10.2283
  40   2.0000      -0.364184        -9.9100
  41   2.0000      -0.358334        -9.7508
  42   2.0000      -0.347524        -9.4566
  43   2.0000      -0.337030        -9.1711
  44   2.0000      -0.319917        -8.7054
  45   2.0000      -0.311909        -8.4875
  46   2.0000      -0.307183        -8.3589
  47   2.0000      -0.274971        -7.4823
  48   2.0000      -0.261631        -7.1193
  49   2.0000      -0.258480        -7.0336
  50   2.0000      -0.241274        -6.5654
  51   0.0000       0.049305         1.3417
  52   0.0000       0.075798         2.0626
  53   0.0000       0.085888         2.3371
  54   0.0000       0.097185         2.6445
  55   0.0000       0.100124         2.7245

MULLIKEN ATOMIC CHARGES
-----------------------
   0 C :    0.299112
   1 C :   -0.264949
   2 C :   -0.328049
   3 C :   -0.016540
   4 O :   -0.508369
   5 H :    0.165731
   6 H :    0.146912
   7 H :    0.172762
   8 H :    0.144659
   9 H :    0.154192
  10 H :    0.141019
  11 H :    0.149967
  12 C :    0.001322
  13 H :    0.146155
  14 H :    0.124862
  15 O :   -0.520189
  16 C :    0.070504
  17 C :    0.077939
  18 C :   -0.302389
  19 C :   -0.031336
  20 O :   -0.516180
  21 H :    0.173480
  22 O :   -0.601143
  23 H :    0.153482
  24 H :    0.166662
  25 H :    0.142163
  26 H :    0.143508
  27 H :    0.147719
  28 H :    0.366992
Sum of atomic charges:   -0.0000000

LOEWDIN ATOMIC CHARGES
----------------------
   0 C :    0.180206
   1 C :   -0.227304
   2 C :   -0.225766
   3 C :   -0.036843
   4 O :   -0.322629
   5 H :    0.112936
   6 H :    0.116700
   7 H :    0.131180
   8 H :    0.115698
   9 H :    0.107634
  10 H :    0.098950
  11 H :    0.106121
  12 C :   -0.036559
  13 H :    0.107413
  14 H :    0.095068
  15 O :   -0.317480
  16 C :    0.014067
  17 C :    0.035612
  18 C :   -0.242614
  19 C :   -0.040673
  20 O :   -0.325054
  21 H :    0.122485
  22 O :   -0.413014
  23 H :    0.116424
  24 H :    0.128538
  25 H :    0.110855
  26 H :    0.099827
  27 H :    0.103686
  28 H :    0.284533

  Mayer bond orders larger than 0.100000
B(  0-C ,  1-C ) :   0.9164 B(  0-C ,  4-O ) :   0.9018 B(  0-C ,  5-H ) :   0.9360
B(  0-C , 15-O ) :   0.8881 B(  1-C ,  2-C ) :   0.9565 B(  1-C ,  6-H ) :   0.9344
B(  1-C ,  7-H ) :   0.9296 B(  2-C ,  3-C ) :   0.9466 B(  2-C ,  8-H ) :   0.9452
B(  2-C ,  9-H ) :   0.9338 B(  3-C ,  4-O ) :   0.8447 B(  3-C , 10-H ) :   0.9317
B(  3-C , 11-H ) :   0.9382 B( 12-C , 13-H ) :   0.9196 B( 12-C , 14-H ) :   0.9125
B( 12-C , 15-O ) :   0.8367 B( 12-C , 16-C ) :   0.8981 B( 16-C , 17-C ) :   0.8971
B( 16-C , 20-O ) :   0.8574 B( 16-C , 21-H ) :   0.9220 B( 17-C , 18-C ) :   0.9099
B( 17-C , 22-O ) :   0.8944 B( 17-C , 23-H ) :   0.9329 B( 18-C , 19-C ) :   0.9414
B( 18-C , 24-H ) :   0.9369 B( 18-C , 25-H ) :   0.9340 B( 19-C , 20-O ) :   0.8532
B( 19-C , 26-H ) :   0.9272 B( 19-C , 27-H ) :   0.9376 B( 22-O , 28-H ) :   0.7932

FINAL SINGLE POINT ENERGY      -652.855324159675

DIPOLE MOMENT
-------------
                                X             Y             Z
Electronic contribution:     -4.67522      -3.93606      -2.49052
Nuclear contribution   :      5.66025       5.01587       2.99435
                        -----------------------------------------
Total Dipole Moment    :      0.98503       1.07980       0.50383
                        -----------------------------------------
Magnitude (a.u.)       :      1.54600
Magnitude (Debye)      :      3.92961

Rotational constants in cm-1:     0.053637     0.015072     0.014178
Rotational constants in MHz :  1608.000298   451.844626   425.042895

                             ****ORCA TERMINATED NORMALLY****
TOTAL RUN TIME: 0 days 0 hours 37 minutes 10 seconds 929 msec
