                         Program Version 4.2.1 -  RELEASE  -
|  1> # Test redundant internal optimization
|  2> #
|  3> ! RKS B3LYP  Opt TightSCF SmallPrint
|  4>
|  5> %basis
|  6>         Basis "6-31G"
|  7> end
|  8>
|  9> %geom
| 10> Constraints
| 11> { D 4  0  19  14  255.0   C } # D for Dihedral angle
| 12> { D 0  19  14  12  15.0   C } # D for Dihedral angle
| 13> { D 0  4  3  2   C } # D for Dihedral angle
| 14> { D 4  3  2  1   C } # D for Dihedral angle
| 15> { D 3  2  1  0   C } # D for Dihedral angle
| 16> { D 2  1  0  4   C } # D for Dihedral angle
| 17> { D 1  0  4  3   C } # D for Dihedral angle
| 18> { D 14  15  16  17   C } # D for Dihedral angle
| 19> { D 15  16  17  12   C } # D for Dihedral angle
| 20> { D 16  17  12  14   C } # D for Dihedral angle
| 21> { D 17  12  14  15   C } # D for Dihedral angle
| 22> { D 12  14  15  16   C } # D for Dihedral angle
| 23> end
| 24> end
| 25>
| 26>
| 27> #%pal
| 28> #nprocs 8
| 29> #end
| 30>
| 31> * xyz 0 1
| 32> C  -21.048   26.222   46.251
| 33> C  -20.361   27.558   45.944
| 34> C  -20.329   28.222   47.341
| 35> C  -20.110   27.022   48.296
| 36> O  -20.473   25.807   47.535
| 37> H  -20.833   25.428   45.533
| 38> H  -19.344   27.382   45.576
| 39> H  -20.898   28.157   45.201
| 40> H  -19.543   28.978   47.434
| 41> H  -21.289   28.710   47.548
| 42> H  -20.733   27.082   49.195
| 43> H  -19.064   26.913   48.597
| 44> C  -22.333   24.116   45.486
| 45> H  -22.807   23.417   44.779
| 46> C  -23.236   25.322   45.767
| 47> C  -24.242   24.732   46.783
| 48> C  -23.375   23.744   47.603
| 49> O  -22.163   23.480   46.797
| 50> H  -21.336   24.371   45.124
| 51> O  -22.472   26.381   46.366
| 52> H  -23.722   25.714   44.867
| 53> H  -24.710   25.497   47.411
| 54> H  -25.042   24.198   46.255
| 55> H  -23.889   22.797   47.799
| 56> H  -23.043   24.170   48.555
| 57> *
| 58>
| 59>                          ****END OF INPUT****
 Total Charge           Charge          ....    0
 Multiplicity           Mult            ....    1
 Number of Electrons    NEL             ....   86
FINAL SINGLE POINT ENERGY      -538.398695043514
FINAL SINGLE POINT ENERGY      -538.426393915920
FINAL SINGLE POINT ENERGY      -538.428125203987
FINAL SINGLE POINT ENERGY      -538.428356539449
FINAL SINGLE POINT ENERGY      -538.428399627681
FINAL SINGLE POINT ENERGY      -538.428407476770
                    ***********************HURRAY********************

CARTESIAN COORDINATES (ANGSTROEM)
---------------------------------
  C    -20.833286   26.212153   46.241064
  C    -20.319784   27.631110   45.988389
  C    -20.458165   28.274730   47.390102
  C    -20.132843   27.101177   48.341443
  O    -20.288008   25.866002   47.535929
  H    -20.472095   25.458524   45.541752
  H    -19.267892   27.587573   45.682370
  H    -20.895401   28.146396   45.216798
  H    -19.786184   29.126295   47.531874
  H    -21.487527   28.615387   47.535386
  H    -20.805349   27.049620   49.201932
  H    -19.097395   27.117970   48.695474
  C    -22.521622   23.890820   45.371077
  H    -23.219126   23.326063   44.732912
  C    -23.155760   25.235783   45.719093
  C    -24.131820   24.838005   46.840845
  C    -23.382070   23.711634   47.589167
  O    -22.328183   23.233372   46.661990
  H    -21.552953   23.927298   44.871109
  O    -22.272977   26.266331   46.282806
  H    -23.661966   25.686755   44.857745
  H    -24.355056   25.699981   47.472465
  H    -25.068979   24.469665   46.406597
  H    -24.033534   22.872203   47.853538
  H    -22.867025   24.075151   48.481142

 Multiplicity           Mult            ....    1
 Number of Electrons    NEL             ....   86
 Basis Dimension        Dim             ....  127

ORBITAL ENERGIES
----------------

  NO   OCC          E(Eh)            E(eV)
   0   2.0000     -19.136820      -520.7393
   1   2.0000     -19.129950      -520.5524
   2   2.0000     -19.127889      -520.4963
   3   2.0000     -10.274346      -279.5792
   4   2.0000     -10.242005      -278.6991
   5   2.0000     -10.227622      -278.3078
   6   2.0000     -10.217996      -278.0458
   7   2.0000     -10.216128      -277.9950
   8   2.0000     -10.181119      -277.0423
   9   2.0000     -10.180141      -277.0157
  10   2.0000     -10.179940      -277.0102
  11   2.0000      -1.045608       -28.4524
  12   2.0000      -1.011780       -27.5319
  13   2.0000      -0.983522       -26.7630
  14   2.0000      -0.789307       -21.4781
  15   2.0000      -0.772839       -21.0300
  16   2.0000      -0.736523       -20.0418
  17   2.0000      -0.720839       -19.6150
  18   2.0000      -0.617684       -16.8080
  19   2.0000      -0.593639       -16.1537
  20   2.0000      -0.591947       -16.1077
  21   2.0000      -0.563534       -15.3345
  22   2.0000      -0.524851       -14.2819
  23   2.0000      -0.498312       -13.5598
  24   2.0000      -0.483125       -13.1465
  25   2.0000      -0.473650       -12.8887
  26   2.0000      -0.447960       -12.1896
  27   2.0000      -0.442887       -12.0516
  28   2.0000      -0.426768       -11.6129
  29   2.0000      -0.412515       -11.2251
  30   2.0000      -0.397690       -10.8217
  31   2.0000      -0.375740       -10.2244
  32   2.0000      -0.372584       -10.1385
  33   2.0000      -0.362417        -9.8619
  34   2.0000      -0.358546        -9.7565
  35   2.0000      -0.350573        -9.5396
  36   2.0000      -0.341587        -9.2951
  37   2.0000      -0.316584        -8.6147
  38   2.0000      -0.304338        -8.2815
  39   2.0000      -0.289401        -7.8750
  40   2.0000      -0.260855        -7.0982
  41   2.0000      -0.240542        -6.5455
  42   2.0000      -0.234520        -6.3816
  43   0.0000       0.080866         2.2005
  44   0.0000       0.100750         2.7416
  45   0.0000       0.104602         2.8464
  46   0.0000       0.106454         2.8968
  47   0.0000       0.117966         3.2100

MULLIKEN ATOMIC CHARGES
-----------------------
   0 C :    0.292363
   1 C :   -0.251098
   2 C :   -0.296488
   3 C :   -0.001608
   4 O :   -0.496628
   5 H :    0.142344
   6 H :    0.141416
   7 H :    0.145395
   8 H :    0.137097
   9 H :    0.159432
  10 H :    0.144548
  11 H :    0.139244
  12 C :   -0.033873
  13 H :    0.133136
  14 C :    0.099782
  15 C :   -0.284097
  16 C :   -0.002012
  17 O :   -0.515017
  18 H :    0.156514
  19 O :   -0.539658
  20 H :    0.133055
  21 H :    0.164466
  22 H :    0.133244
  23 H :    0.134478
  24 H :    0.163968
Sum of atomic charges:    0.0000000

LOEWDIN ATOMIC CHARGES
----------------------
   0 C :    0.176101
   1 C :   -0.217660
   2 C :   -0.216253
   3 C :   -0.028675
   4 O :   -0.317980
   5 H :    0.099428
   6 H :    0.111406
   7 H :    0.118149
   8 H :    0.111669
   9 H :    0.117651
  10 H :    0.103755
  11 H :    0.100808
  12 C :   -0.051237
  13 H :    0.097772
  14 C :    0.046694
  15 C :   -0.225777
  16 C :   -0.028469
  17 O :   -0.326413
  18 H :    0.112432
  19 O :   -0.332774
  20 H :    0.100726
  21 H :    0.128556
  22 H :    0.107700
  23 H :    0.098443
  24 H :    0.113949

  Mayer bond orders larger than 0.100000
B(  0-C ,  1-C ) :   0.9404 B(  0-C ,  4-O ) :   0.9224 B(  0-C ,  5-H ) :   0.9135
B(  0-C , 19-O ) :   0.8477 B(  1-C ,  2-C ) :   0.9588 B(  1-C ,  6-H ) :   0.9392
B(  1-C ,  7-H ) :   0.9388 B(  2-C ,  3-C ) :   0.9530 B(  2-C ,  8-H ) :   0.9459
B(  2-C ,  9-H ) :   0.9444 B(  3-C ,  4-O ) :   0.8449 B(  3-C , 10-H ) :   0.9355
B(  3-C , 11-H ) :   0.9398 B( 12-C , 13-H ) :   0.9075 B( 12-C , 14-C ) :   0.9266
B( 12-C , 17-O ) :   0.8722 B( 12-C , 18-H ) :   0.9227 B( 14-C , 15-C ) :   0.9434
B( 14-C , 19-O ) :   0.8391 B( 14-C , 20-H ) :   0.9281 B( 15-C , 16-C ) :   0.9477
B( 15-C , 21-H ) :   0.9363 B( 15-C , 22-H ) :   0.9389 B( 16-C , 17-O ) :   0.8471
B( 16-C , 23-H ) :   0.9340 B( 16-C , 24-H ) :   0.9329

FINAL SINGLE POINT ENERGY      -538.428408387394

DIPOLE MOMENT
-------------
                                X             Y             Z
Electronic contribution:      0.80496      -3.00954      -0.38977
Nuclear contribution   :     -1.30829       3.85884      -0.14281
                        -----------------------------------------
Total Dipole Moment    :     -0.50333       0.84930      -0.53257
                        -----------------------------------------
Magnitude (a.u.)       :      1.12173
Magnitude (Debye)      :      2.85122

Rotational constants in cm-1:     0.074165     0.023334     0.022243
Rotational constants in MHz :  2223.398500   699.539536   666.835000

                             ****ORCA TERMINATED NORMALLY****
TOTAL RUN TIME: 0 days 0 hours 7 minutes 15 seconds 971 msec
