                         Program Version 4.2.0 -  RELEASE  -
|  1> # Test redundant internal optimization
|  2> #
|  3> ! RKS B3LYP  Opt TightSCF SmallPrint
|  4>
|  5> %basis
|  6>         Basis "6-31G"
|  7> end
|  8>
|  9> %geom
| 10> Constraints
| 11> { D 4  0  15  12  105.0   C } # D for Dihedral angle
| 12> { D 0  15  12  16  195.0   C } # D for Dihedral angle
| 13> { D 0  4  3  2   C } # D for Dihedral angle
| 14> { D 4  3  2  1   C } # D for Dihedral angle
| 15> { D 3  2  1  0   C } # D for Dihedral angle
| 16> { D 2  1  0  4   C } # D for Dihedral angle
| 17> { D 1  0  4  3   C } # D for Dihedral angle
| 18> { D 16  20  19  18   C } # D for Dihedral angle
| 19> { D 20  19  18  17   C } # D for Dihedral angle
| 20> { D 19  18  17  16   C } # D for Dihedral angle
| 21> { D 18  17  16  20   C } # D for Dihedral angle
| 22> { D 17  16  20  19   C } # D for Dihedral angle
| 23> { D 15  12  16  20   C } # D for Dihedral angle
| 24> end
| 25> end
| 26>
| 27>
| 28> #%pal
| 29> #nprocs 8
| 30> #end
| 31>
| 32> * xyz 0 1
| 33> C  -21.048   26.222   46.251
| 34> C  -20.361   27.558   45.944
| 35> C  -20.329   28.222   47.341
| 36> C  -20.110   27.022   48.296
| 37> O  -20.473   25.807   47.535
| 38> H  -20.833   25.428   45.533
| 39> H  -19.344   27.382   45.576
| 40> H  -20.898   28.157   45.201
| 41> H  -19.543   28.978   47.434
| 42> H  -21.289   28.710   47.548
| 43> H  -20.733   27.082   49.195
| 44> H  -19.064   26.913   48.597
| 45> C  -23.085   27.864   46.420
| 46> H  -22.446   28.443   47.099
| 47> H  -23.027   28.320   45.423
| 48> O  -22.586   26.394   46.375
| 49> C  -24.554   27.986   46.911
| 50> C  -24.695   27.525   48.366
| 51> C  -24.173   28.761   49.137
| 52> C  -24.655   29.949   48.266
| 53> O  -24.972   29.391   46.934
| 54> H  -25.210   27.469   46.208
| 55> H  -25.749   27.340   48.601
| 56> O  -23.889   26.235   48.679
| 57> H  -24.554   28.814   50.162
| 58> H  -23.078   28.738   49.188
| 59> H  -23.892   30.726   48.158
| 60> H  -25.571   30.404   48.652
| 61> H  -22.830   26.399   48.451
| 62> *
| 63>
| 64>                          ****END OF INPUT****
 Total Charge           Charge          ....    0
 Multiplicity           Mult            ....    1
 Number of Electrons    NEL             ....  102
FINAL SINGLE POINT ENERGY      -652.801547407119
FINAL SINGLE POINT ENERGY      -652.832982764713
FINAL SINGLE POINT ENERGY      -652.850016400298
FINAL SINGLE POINT ENERGY      -652.854940659475
FINAL SINGLE POINT ENERGY      -652.856903823504
FINAL SINGLE POINT ENERGY      -652.858103843932
FINAL SINGLE POINT ENERGY      -652.858754347022
FINAL SINGLE POINT ENERGY      -652.858962976406
FINAL SINGLE POINT ENERGY      -652.859018591346
FINAL SINGLE POINT ENERGY      -652.859029012349
FINAL SINGLE POINT ENERGY      -652.859032238096
                    ***********************HURRAY********************

CARTESIAN COORDINATES (ANGSTROEM)
---------------------------------
  C    -21.159176   26.357278   46.358818
  C    -20.175829   27.435438   45.886969
  C    -19.871263   28.198995   47.208302
  C    -19.901895   27.066769   48.264913
  O    -20.624768   25.935417   47.628268
  H    -21.166887   25.463281   45.734200
  H    -19.276125   26.937230   45.513209
  H    -20.571606   28.075618   45.093429
  H    -18.897247   28.697120   47.176813
  H    -20.622363   28.964995   47.412793
  H    -20.425289   27.343759   49.183859
  H    -18.903404   26.699588   48.515385
  C    -23.099783   28.066561   46.454614
  H    -22.527353   28.722646   47.117077
  H    -23.081271   28.484134   45.442435
  O    -22.568647   26.700657   46.456505
  C    -24.548138   27.975348   46.950502
  C    -24.717884   27.478707   48.398271
  C    -24.375867   28.763057   49.215214
  C    -24.936075   29.895603   48.329909
  O    -25.117750   29.320596   46.964287
  H    -25.136702   27.384583   46.244014
  H    -25.775572   27.231715   48.549307
  O    -23.947387   26.333793   48.797354
  H    -24.823858   28.739571   50.211572
  H    -23.288625   28.827046   49.336559
  H    -24.271513   30.762937   48.257874
  H    -25.922411   30.235715   48.656725
  H    -23.256312   26.140846   48.121826

 Multiplicity           Mult            ....    1
 Number of Electrons    NEL             ....  102
 Basis Dimension        Dim             ....  149

ORBITAL ENERGIES
----------------

  NO   OCC          E(Eh)            E(eV)
   0   2.0000     -19.163208      -521.4574
   1   2.0000     -19.153089      -521.1820
   2   2.0000     -19.140908      -520.8506
   3   2.0000     -19.108096      -519.9577
   4   2.0000     -10.293656      -280.1046
   5   2.0000     -10.241659      -278.6897
   6   2.0000     -10.237585      -278.5789
   7   2.0000     -10.234207      -278.4869
   8   2.0000     -10.228943      -278.3437
   9   2.0000     -10.227386      -278.3013
  10   2.0000     -10.206165      -277.7239
  11   2.0000     -10.204270      -277.6723
  12   2.0000     -10.179848      -277.0077
  13   2.0000      -1.065704       -28.9993
  14   2.0000      -1.026247       -27.9256
  15   2.0000      -1.009108       -27.4592
  16   2.0000      -0.989325       -26.9209
  17   2.0000      -0.801312       -21.8048
  18   2.0000      -0.779741       -21.2178
  19   2.0000      -0.768278       -20.9059
  20   2.0000      -0.738960       -20.1081
  21   2.0000      -0.684823       -18.6350
  22   2.0000      -0.616879       -16.7861
  23   2.0000      -0.601182       -16.3590
  24   2.0000      -0.596372       -16.2281
  25   2.0000      -0.577644       -15.7185
  26   2.0000      -0.527737       -14.3605
  27   2.0000      -0.520107       -14.1528
  28   2.0000      -0.514113       -13.9897
  29   2.0000      -0.487126       -13.2554
  30   2.0000      -0.477974       -13.0063
  31   2.0000      -0.460747       -12.5376
  32   2.0000      -0.441552       -12.0153
  33   2.0000      -0.439493       -11.9592
  34   2.0000      -0.430615       -11.7176
  35   2.0000      -0.424734       -11.5576
  36   2.0000      -0.412557       -11.2263
  37   2.0000      -0.393831       -10.7167
  38   2.0000      -0.387319       -10.5395
  39   2.0000      -0.373719       -10.1694
  40   2.0000      -0.368356       -10.0235
  41   2.0000      -0.361796        -9.8450
  42   2.0000      -0.349343        -9.5061
  43   2.0000      -0.339131        -9.2282
  44   2.0000      -0.325008        -8.8439
  45   2.0000      -0.309891        -8.4326
  46   2.0000      -0.296086        -8.0569
  47   2.0000      -0.276831        -7.5329
  48   2.0000      -0.266202        -7.2437
  49   2.0000      -0.248087        -6.7508
  50   2.0000      -0.239132        -6.5071
  51   0.0000       0.049707         1.3526
  52   0.0000       0.065210         1.7744
  53   0.0000       0.085954         2.3389
  54   0.0000       0.095073         2.5871
  55   0.0000       0.103135         2.8064

MULLIKEN ATOMIC CHARGES
-----------------------
   0 C :    0.313580
   1 C :   -0.295188
   2 C :   -0.313489
   3 C :   -0.013675
   4 O :   -0.497137
   5 H :    0.173128
   6 H :    0.165079
   7 H :    0.153732
   8 H :    0.151258
   9 H :    0.152587
  10 H :    0.158382
  11 H :    0.153623
  12 C :   -0.016002
  13 H :    0.137640
  14 H :    0.156435
  15 O :   -0.561324
  16 C :    0.054025
  17 C :    0.122678
  18 C :   -0.302752
  19 C :   -0.020727
  20 O :   -0.522492
  21 H :    0.165884
  22 H :    0.146910
  23 O :   -0.638455
  24 H :    0.152709
  25 H :    0.137801
  26 H :    0.138255
  27 H :    0.149725
  28 H :    0.397809
Sum of atomic charges:   -0.0000000

LOEWDIN ATOMIC CHARGES
----------------------
   0 C :    0.177845
   1 C :   -0.227668
   2 C :   -0.221831
   3 C :   -0.032130
   4 O :   -0.314408
   5 H :    0.114787
   6 H :    0.127840
   7 H :    0.120096
   8 H :    0.119157
   9 H :    0.109639
  10 H :    0.109964
  11 H :    0.108699
  12 C :   -0.044014
  13 H :    0.095178
  14 H :    0.109166
  15 O :   -0.335092
  16 C :    0.021114
  17 C :    0.042824
  18 C :   -0.237582
  19 C :   -0.034163
  20 O :   -0.324289
  21 H :    0.118086
  22 H :    0.104808
  23 O :   -0.431659
  24 H :    0.122302
  25 H :    0.106125
  26 H :    0.099494
  27 H :    0.106717
  28 H :    0.288995

  Mayer bond orders larger than 0.100000
B(  0-C ,  1-C ) :   0.9334 B(  0-C ,  4-O ) :   0.9177 B(  0-C ,  5-H ) :   0.9314
B(  0-C , 15-O ) :   0.8417 B(  1-C ,  2-C ) :   0.9504 B(  1-C ,  6-H ) :   0.9333
B(  1-C ,  7-H ) :   0.9326 B(  2-C ,  3-C ) :   0.9470 B(  2-C ,  8-H ) :   0.9441
B(  2-C ,  9-H ) :   0.9363 B(  3-C ,  4-O ) :   0.8354 B(  3-C , 10-H ) :   0.9320
B(  3-C , 11-H ) :   0.9387 B( 12-C , 13-H ) :   0.9038 B( 12-C , 14-H ) :   0.9251
B( 12-C , 15-O ) :   0.7894 B( 12-C , 16-C ) :   0.9036 B( 16-C , 17-C ) :   0.9118
B( 16-C , 20-O ) :   0.8550 B( 16-C , 21-H ) :   0.9277 B( 17-C , 18-C ) :   0.8997
B( 17-C , 22-H ) :   0.9290 B( 17-C , 23-O ) :   0.9433 B( 18-C , 19-C ) :   0.9392
B( 18-C , 24-H ) :   0.9444 B( 18-C , 25-H ) :   0.9441 B( 19-C , 20-O ) :   0.8316
B( 19-C , 26-H ) :   0.9343 B( 19-C , 27-H ) :   0.9388 B( 23-O , 28-H ) :   0.7179

FINAL SINGLE POINT ENERGY      -652.859032809412

DIPOLE MOMENT
-------------
                                X             Y             Z
Electronic contribution:     -3.56532      -4.81054      -1.54556
Nuclear contribution   :      4.89542       6.03937       1.09662
                        -----------------------------------------
Total Dipole Moment    :      1.33011       1.22883      -0.44894
                        -----------------------------------------
Magnitude (a.u.)       :      1.86568
Magnitude (Debye)      :      4.74218

Rotational constants in cm-1:     0.046506     0.016189     0.015519
Rotational constants in MHz :  1394.213125   485.341951   465.242891

                             ****ORCA TERMINATED NORMALLY****
TOTAL RUN TIME: 0 days 1 hours 19 minutes 22 seconds 413 msec
