                         Program Version 4.2.0 -  RELEASE  -
|  1> # Test redundant internal optimization
|  2> #
|  3> ! RKS B3LYP  Opt TightSCF SmallPrint
|  4>
|  5> %basis
|  6>         Basis "6-31G"
|  7> end
|  8>
|  9> %geom
| 10> Constraints
| 11> { D 4  0  15  12  315.0   C } # D for Dihedral angle
| 12> { D 0  15  12  16  270.0   C } # D for Dihedral angle
| 13> { D 0  4  3  2   C } # D for Dihedral angle
| 14> { D 4  3  2  1   C } # D for Dihedral angle
| 15> { D 3  2  1  0   C } # D for Dihedral angle
| 16> { D 2  1  0  4   C } # D for Dihedral angle
| 17> { D 1  0  4  3   C } # D for Dihedral angle
| 18> { D 16  20  19  18   C } # D for Dihedral angle
| 19> { D 20  19  18  17   C } # D for Dihedral angle
| 20> { D 19  18  17  16   C } # D for Dihedral angle
| 21> { D 18  17  16  20   C } # D for Dihedral angle
| 22> { D 17  16  20  19   C } # D for Dihedral angle
| 23> { D 15  12  16  20   C } # D for Dihedral angle
| 24> end
| 25> end
| 26>
| 27>
| 28> #%pal
| 29> #nprocs 8
| 30> #end
| 31>
| 32> * xyz 0 1
| 33> C  -21.048   26.222   46.251
| 34> C  -20.361   27.558   45.944
| 35> C  -20.329   28.222   47.341
| 36> C  -20.110   27.022   48.296
| 37> O  -20.473   25.807   47.535
| 38> H  -20.833   25.428   45.533
| 39> H  -19.344   27.382   45.576
| 40> H  -20.898   28.157   45.201
| 41> H  -19.543   28.978   47.434
| 42> H  -21.289   28.710   47.548
| 43> H  -20.733   27.082   49.195
| 44> H  -19.064   26.913   48.597
| 45> C  -23.319   25.255   47.135
| 46> H  -22.645   24.832   47.891
| 47> H  -24.208   25.645   47.648
| 48> O  -22.586   26.394   46.375
| 49> C  -23.781   24.106   46.196
| 50> C  -24.599   23.059   46.958
| 51> C  -25.982   23.747   47.051
| 52> C  -26.083   24.514   45.709
| 53> O  -24.706   24.617   45.179
| 54> H  -22.913   23.706   45.667
| 55> O  -24.693   21.749   46.129
| 56> H  -24.179   22.816   47.940
| 57> H  -26.802   23.035   47.187
| 58> H  -25.999   24.444   47.897
| 59> H  -26.496   25.522   45.832
| 60> H  -26.676   23.976   44.964
| 61> H  -25.112   21.968   45.141
| 62> *
| 63>
| 64>                          ****END OF INPUT****
 Total Charge           Charge          ....    0
 Multiplicity           Mult            ....    1
 Number of Electrons    NEL             ....  102
FINAL SINGLE POINT ENERGY      -652.836707573660
FINAL SINGLE POINT ENERGY      -652.860073180678
FINAL SINGLE POINT ENERGY      -652.864191129073
FINAL SINGLE POINT ENERGY      -652.864932947635
FINAL SINGLE POINT ENERGY      -652.865042404653
FINAL SINGLE POINT ENERGY      -652.865056510540
                    ***********************HURRAY********************

CARTESIAN COORDINATES (ANGSTROEM)
---------------------------------
  C    -21.104216   26.138151   46.262983
  C    -20.483977   27.498629   45.946256
  C    -20.416960   28.146059   47.346245
  C    -20.112898   26.952272   48.277475
  O    -20.469354   25.731993   47.500299
  H    -20.894880   25.339503   45.544637
  H    -19.482470   27.350143   45.527132
  H    -21.089059   28.066611   45.236721
  H    -19.652826   28.926806   47.412861
  H    -21.386783   28.588797   47.590573
  H    -20.696759   26.965662   49.201388
  H    -19.050991   26.861630   48.523341
  C    -23.260172   25.310251   47.137574
  H    -22.616940   24.898159   47.924349
  H    -24.100055   25.838338   47.597889
  O    -22.533425   26.336507   46.399758
  C    -23.762376   24.189773   46.225632
  C    -24.579539   23.118812   46.961161
  C    -25.982439   23.779253   47.024931
  C    -26.063630   24.553742   45.684605
  O    -24.673502   24.688545   45.189650
  H    -22.917076   23.736347   45.698106
  O    -24.606509   21.875099   46.206431
  H    -24.181765   22.851615   47.941124
  H    -26.761458   23.020226   47.130253
  H    -26.044066   24.458622   47.882619
  H    -26.500393   25.550652   45.797242
  H    -26.628637   24.010609   44.920043
  H    -24.750845   22.083194   45.258718

 Multiplicity           Mult            ....    1
 Number of Electrons    NEL             ....  102
 Basis Dimension        Dim             ....  149

ORBITAL ENERGIES
----------------

  NO   OCC          E(Eh)            E(eV)
   0   2.0000     -19.145234      -520.9683
   1   2.0000     -19.139917      -520.8236
   2   2.0000     -19.138050      -520.7728
   3   2.0000     -19.137040      -520.7453
   4   2.0000     -10.276490      -279.6375
   5   2.0000     -10.241239      -278.6783
   6   2.0000     -10.230740      -278.3926
   7   2.0000     -10.228679      -278.3365
   8   2.0000     -10.228062      -278.3197
   9   2.0000     -10.224796      -278.2308
  10   2.0000     -10.188955      -277.2556
  11   2.0000     -10.185551      -277.1629
  12   2.0000     -10.183756      -277.1141
  13   2.0000      -1.053982       -28.6803
  14   2.0000      -1.033809       -28.1314
  15   2.0000      -1.004116       -27.3234
  16   2.0000      -0.990384       -26.9497
  17   2.0000      -0.790473       -21.5099
  18   2.0000      -0.780336       -21.2340
  19   2.0000      -0.763752       -20.7828
  20   2.0000      -0.732402       -19.9297
  21   2.0000      -0.670827       -18.2541
  22   2.0000      -0.603740       -16.4286
  23   2.0000      -0.601103       -16.3568
  24   2.0000      -0.597135       -16.2489
  25   2.0000      -0.570215       -15.5163
  26   2.0000      -0.524816       -14.2810
  27   2.0000      -0.508693       -13.8422
  28   2.0000      -0.494142       -13.4463
  29   2.0000      -0.491724       -13.3805
  30   2.0000      -0.472854       -12.8670
  31   2.0000      -0.456540       -12.4231
  32   2.0000      -0.451618       -12.2892
  33   2.0000      -0.436064       -11.8659
  34   2.0000      -0.424547       -11.5525
  35   2.0000      -0.407018       -11.0755
  36   2.0000      -0.399293       -10.8653
  37   2.0000      -0.391935       -10.6651
  38   2.0000      -0.372220       -10.1286
  39   2.0000      -0.369006       -10.0412
  40   2.0000      -0.357832        -9.7371
  41   2.0000      -0.355774        -9.6811
  42   2.0000      -0.347397        -9.4532
  43   2.0000      -0.334391        -9.0992
  44   2.0000      -0.329177        -8.9574
  45   2.0000      -0.306845        -8.3497
  46   2.0000      -0.294427        -8.0118
  47   2.0000      -0.270496        -7.3606
  48   2.0000      -0.268399        -7.3035
  49   2.0000      -0.259402        -7.0587
  50   2.0000      -0.235406        -6.4057
  51   0.0000       0.068243         1.8570
  52   0.0000       0.086632         2.3574
  53   0.0000       0.090211         2.4548
  54   0.0000       0.098244         2.6734
  55   0.0000       0.107174         2.9164

MULLIKEN ATOMIC CHARGES
-----------------------
   0 C :    0.286470
   1 C :   -0.260967
   2 C :   -0.299901
   3 C :   -0.009067
   4 O :   -0.515758
   5 H :    0.150030
   6 H :    0.144316
   7 H :    0.164998
   8 H :    0.142584
   9 H :    0.161722
  10 H :    0.144326
  11 H :    0.146630
  12 C :   -0.023375
  13 H :    0.159358
  14 H :    0.141666
  15 O :   -0.510626
  16 C :    0.061824
  17 C :    0.076359
  18 C :   -0.294429
  19 C :   -0.032162
  20 O :   -0.511173
  21 H :    0.160860
  22 O :   -0.599654
  23 H :    0.151700
  24 H :    0.162675
  25 H :    0.141440
  26 H :    0.150357
  27 H :    0.145800
  28 H :    0.363995
Sum of atomic charges:   -0.0000000

LOEWDIN ATOMIC CHARGES
----------------------
   0 C :    0.173626
   1 C :   -0.213284
   2 C :   -0.216738
   3 C :   -0.029420
   4 O :   -0.328751
   5 H :    0.097129
   6 H :    0.113704
   7 H :    0.128414
   8 H :    0.114371
   9 H :    0.118942
  10 H :    0.103596
  11 H :    0.104801
  12 C :   -0.050799
  13 H :    0.113057
  14 H :    0.107981
  15 O :   -0.319979
  16 C :    0.007786
  17 C :    0.035180
  18 C :   -0.240924
  19 C :   -0.039515
  20 O :   -0.324392
  21 H :    0.114496
  22 O :   -0.414065
  23 H :    0.115568
  24 H :    0.126788
  25 H :    0.111794
  26 H :    0.105918
  27 H :    0.102018
  28 H :    0.282701

  Mayer bond orders larger than 0.100000
B(  0-C ,  1-C ) :   0.9488 B(  0-C ,  4-O ) :   0.8934 B(  0-C ,  5-H ) :   0.9184
B(  0-C , 15-O ) :   0.8615 B(  1-C ,  2-C ) :   0.9544 B(  1-C ,  6-H ) :   0.9395
B(  1-C ,  7-H ) :   0.9344 B(  2-C ,  3-C ) :   0.9562 B(  2-C ,  8-H ) :   0.9450
B(  2-C ,  9-H ) :   0.9443 B(  3-C ,  4-O ) :   0.8322 B(  3-C , 10-H ) :   0.9361
B(  3-C , 11-H ) :   0.9406 B( 12-C , 13-H ) :   0.9013 B( 12-C , 14-H ) :   0.9398
B( 12-C , 15-O ) :   0.8556 B( 12-C , 16-C ) :   0.8818 B( 16-C , 17-C ) :   0.8996
B( 16-C , 20-O ) :   0.8627 B( 16-C , 21-H ) :   0.9262 B( 17-C , 18-C ) :   0.9120
B( 17-C , 22-O ) :   0.8939 B( 17-C , 23-H ) :   0.9330 B( 18-C , 19-C ) :   0.9404
B( 18-C , 24-H ) :   0.9375 B( 18-C , 25-H ) :   0.9350 B( 19-C , 20-O ) :   0.8511
B( 19-C , 26-H ) :   0.9334 B( 19-C , 27-H ) :   0.9373 B( 22-O , 28-H ) :   0.7944

FINAL SINGLE POINT ENERGY      -652.865058803730

DIPOLE MOMENT
-------------
                                X             Y             Z
Electronic contribution:     -0.31831      -3.75479      -2.55711
Nuclear contribution   :      0.23913       4.55344       3.06280
                        -----------------------------------------
Total Dipole Moment    :     -0.07918       0.79865       0.50569
                        -----------------------------------------
Magnitude (a.u.)       :      0.94860
Magnitude (Debye)      :      2.41114

Rotational constants in cm-1:     0.064211     0.011901     0.011292
Rotational constants in MHz :  1925.005528   356.786561   338.533078

                             ****ORCA TERMINATED NORMALLY****
TOTAL RUN TIME: 0 days 0 hours 20 minutes 58 seconds 271 msec
