                         Program Version 4.2.0 -  RELEASE  -
|  1> # Test redundant internal optimization
|  2> #
|  3> ! RKS B3LYP  Opt TightSCF SmallPrint
|  4>
|  5> %basis
|  6>         Basis "6-31G"
|  7> end
|  8>
|  9> %geom
| 10> Constraints
| 11> { D 4  0  15  12  225.0   C } # D for Dihedral angle
| 12> { D 0  15  12  16  135.0   C } # D for Dihedral angle
| 13> { D 0  4  3  2   C } # D for Dihedral angle
| 14> { D 4  3  2  1   C } # D for Dihedral angle
| 15> { D 3  2  1  0   C } # D for Dihedral angle
| 16> { D 2  1  0  4   C } # D for Dihedral angle
| 17> { D 1  0  4  3   C } # D for Dihedral angle
| 18> { D 16  20  19  18   C } # D for Dihedral angle
| 19> { D 20  19  18  17   C } # D for Dihedral angle
| 20> { D 19  18  17  16   C } # D for Dihedral angle
| 21> { D 18  17  16  20   C } # D for Dihedral angle
| 22> { D 17  16  20  19   C } # D for Dihedral angle
| 23> { D 15  12  16  20   C } # D for Dihedral angle
| 24> end
| 25> end
| 26>
| 27>
| 28> #%pal
| 29> #nprocs 8
| 30> #end
| 31>
| 32> * xyz 0 1
| 33> C  -21.048   26.222   46.251
| 34> C  -20.361   27.558   45.944
| 35> C  -20.329   28.222   47.341
| 36> C  -20.110   27.022   48.296
| 37> O  -20.473   25.807   47.535
| 38> H  -20.833   25.428   45.533
| 39> H  -19.344   27.382   45.576
| 40> H  -20.898   28.157   45.201
| 41> H  -19.543   28.978   47.434
| 42> H  -21.289   28.710   47.548
| 43> H  -20.733   27.082   49.195
| 44> H  -19.064   26.913   48.597
| 45> C  -23.415   25.773   45.218
| 46> H  -23.771   26.573   44.557
| 47> H  -22.795   25.089   44.624
| 48> O  -22.586   26.394   46.375
| 49> C  -24.648   24.973   45.724
| 50> C  -25.375   24.280   44.567
| 51> C  -24.477   23.043   44.328
| 52> C  -23.998   22.675   45.755
| 53> O  -24.222   23.872   46.594
| 54> H  -25.279   25.631   46.326
| 55> H  -26.379   23.973   44.882
| 56> O  -25.511   25.177   43.307
| 57> H  -25.009   22.219   43.842
| 58> H  -23.625   23.313   43.693
| 59> H  -22.935   22.410   45.785
| 60> H  -24.580   21.860   46.194
| 61> H  -24.518   25.496   42.971
| 62> *
| 63>
| 64>                          ****END OF INPUT****
 Total Charge           Charge          ....    0
 Multiplicity           Mult            ....    1
 Number of Electrons    NEL             ....  102
FINAL SINGLE POINT ENERGY      -652.824965762396
FINAL SINGLE POINT ENERGY      -652.848274209438
FINAL SINGLE POINT ENERGY      -652.852505427864
FINAL SINGLE POINT ENERGY      -652.853274103997
FINAL SINGLE POINT ENERGY      -652.853429439316
FINAL SINGLE POINT ENERGY      -652.853465296776
FINAL SINGLE POINT ENERGY      -652.853472278612
FINAL SINGLE POINT ENERGY      -652.853473371041
                    ***********************HURRAY********************

CARTESIAN COORDINATES (ANGSTROEM)
---------------------------------
  C    -21.015216   26.212359   46.174938
  C    -20.369340   27.580409   45.962692
  C    -20.452731   28.198107   47.379704
  C    -20.245058   26.975378   48.299503
  O    -20.515288   25.785222   47.452486
  H    -20.741171   25.442873   45.445049
  H    -19.324173   27.449234   45.656536
  H    -20.885960   28.173557   45.203749
  H    -19.704545   28.978980   47.544623
  H    -21.446558   28.629359   47.532886
  H    -20.927230   26.956922   49.152671
  H    -19.214527   26.879894   48.654887
  C    -23.236676   25.802495   45.137180
  H    -23.601764   26.619419   44.499994
  H    -22.605072   25.139398   44.524674
  O    -22.458152   26.346349   46.230408
  C    -24.429318   25.032405   45.705404
  C    -25.311551   24.367048   44.636463
  C    -24.537694   23.042529   44.360735
  C    -23.971748   22.684332   45.752583
  O    -24.024316   23.926718   46.565330
  H    -24.997426   25.713571   46.345202
  H    -26.294083   24.151200   45.061775
  O    -25.591058   25.171113   43.464262
  H    -25.184387   22.263468   43.948064
  H    -23.733511   23.232998   43.636452
  H    -22.938501   22.325750   45.716379
  H    -24.584621   21.939294   46.268184
  H    -24.806325   25.211620   42.880187

 Multiplicity           Mult            ....    1
 Number of Electrons    NEL             ....  102
 Basis Dimension        Dim             ....  149

ORBITAL ENERGIES
----------------

  NO   OCC          E(Eh)            E(eV)
   0   2.0000     -19.150180      -521.1029
   1   2.0000     -19.136343      -520.7264
   2   2.0000     -19.133935      -520.6608
   3   2.0000     -19.133489      -520.6487
   4   2.0000     -10.276839      -279.6470
   5   2.0000     -10.244820      -278.7757
   6   2.0000     -10.232913      -278.4517
   7   2.0000     -10.228251      -278.3249
   8   2.0000     -10.227831      -278.3134
   9   2.0000     -10.219149      -278.0772
  10   2.0000     -10.196134      -277.4509
  11   2.0000     -10.182011      -277.0666
  12   2.0000     -10.181462      -277.0517
  13   2.0000      -1.048562       -28.5328
  14   2.0000      -1.032949       -28.1080
  15   2.0000      -1.014070       -27.5943
  16   2.0000      -0.990321       -26.9480
  17   2.0000      -0.784295       -21.3417
  18   2.0000      -0.780761       -21.2456
  19   2.0000      -0.765727       -20.8365
  20   2.0000      -0.727541       -19.7974
  21   2.0000      -0.679673       -18.4948
  22   2.0000      -0.610882       -16.6229
  23   2.0000      -0.594886       -16.1877
  24   2.0000      -0.588371       -16.0104
  25   2.0000      -0.578893       -15.7525
  26   2.0000      -0.528738       -14.3877
  27   2.0000      -0.509526       -13.8649
  28   2.0000      -0.498264       -13.5584
  29   2.0000      -0.485743       -13.2177
  30   2.0000      -0.464688       -12.6448
  31   2.0000      -0.457303       -12.4438
  32   2.0000      -0.448721       -12.2103
  33   2.0000      -0.431563       -11.7434
  34   2.0000      -0.428343       -11.6558
  35   2.0000      -0.416285       -11.3277
  36   2.0000      -0.405079       -11.0228
  37   2.0000      -0.394091       -10.7237
  38   2.0000      -0.379401       -10.3240
  39   2.0000      -0.367334        -9.9957
  40   2.0000      -0.354116        -9.6360
  41   2.0000      -0.350813        -9.5461
  42   2.0000      -0.346925        -9.4403
  43   2.0000      -0.330449        -8.9920
  44   2.0000      -0.313282        -8.5248
  45   2.0000      -0.307881        -8.3779
  46   2.0000      -0.304975        -8.2988
  47   2.0000      -0.270641        -7.3645
  48   2.0000      -0.260462        -7.0875
  49   2.0000      -0.246695        -6.7129
  50   2.0000      -0.234123        -6.3708
  51   0.0000       0.049407         1.3444
  52   0.0000       0.071477         1.9450
  53   0.0000       0.089300         2.4300
  54   0.0000       0.095389         2.5957
  55   0.0000       0.108602         2.9552

MULLIKEN ATOMIC CHARGES
-----------------------
   0 C :    0.294028
   1 C :   -0.256420
   2 C :   -0.300699
   3 C :   -0.000504
   4 O :   -0.496335
   5 H :    0.132672
   6 H :    0.139742
   7 H :    0.141535
   8 H :    0.139492
   9 H :    0.163467
  10 H :    0.156197
  11 H :    0.138228
  12 C :   -0.010225
  13 H :    0.136179
  14 H :    0.108246
  15 O :   -0.508310
  16 C :    0.103723
  17 C :    0.080192
  18 C :   -0.327020
  19 C :   -0.012475
  20 O :   -0.499461
  21 H :    0.166105
  22 H :    0.170137
  23 O :   -0.599684
  24 H :    0.158480
  25 H :    0.130424
  26 H :    0.147218
  27 H :    0.151374
  28 H :    0.353696
Sum of atomic charges:    0.0000000

LOEWDIN ATOMIC CHARGES
----------------------
   0 C :    0.180546
   1 C :   -0.225796
   2 C :   -0.216953
   3 C :   -0.025689
   4 O :   -0.306746
   5 H :    0.093629
   6 H :    0.110875
   7 H :    0.114996
   8 H :    0.113003
   9 H :    0.119829
  10 H :    0.110252
  11 H :    0.100566
  12 C :   -0.045897
  13 H :    0.099342
  14 H :    0.084691
  15 O :   -0.322350
  16 C :    0.018773
  17 C :    0.033658
  18 C :   -0.242897
  19 C :   -0.030709
  20 O :   -0.309354
  21 H :    0.120909
  22 H :    0.120482
  23 O :   -0.407518
  24 H :    0.122846
  25 H :    0.101919
  26 H :    0.104379
  27 H :    0.106887
  28 H :    0.276327

  Mayer bond orders larger than 0.100000
B(  0-C ,  1-C ) :   0.9356 B(  0-C ,  4-O ) :   0.9391 B(  0-C ,  5-H ) :   0.9178
B(  0-C , 15-O ) :   0.8407 B(  1-C ,  2-C ) :   0.9574 B(  1-C ,  6-H ) :   0.9356
B(  1-C ,  7-H ) :   0.9394 B(  2-C ,  3-C ) :   0.9543 B(  2-C ,  8-H ) :   0.9454
B(  2-C ,  9-H ) :   0.9433 B(  3-C ,  4-O ) :   0.8385 B(  3-C , 10-H ) :   0.9339
B(  3-C , 11-H ) :   0.9398 B( 12-C , 13-H ) :   0.9099 B( 12-C , 14-H ) :   0.9156
B( 12-C , 15-O ) :   0.8564 B( 12-C , 16-C ) :   0.8989 B( 16-C , 17-C ) :   0.8720
B( 16-C , 20-O ) :   0.8750 B( 16-C , 21-H ) :   0.9297 B( 17-C , 18-C ) :   0.9241
B( 17-C , 22-H ) :   0.9321 B( 17-C , 23-O ) :   0.8928 B( 18-C , 19-C ) :   0.9386
B( 18-C , 24-H ) :   0.9419 B( 18-C , 25-H ) :   0.9405 B( 19-C , 20-O ) :   0.8519
B( 19-C , 26-H ) :   0.9307 B( 19-C , 27-H ) :   0.9374 B( 23-O , 28-H ) :   0.7998

FINAL SINGLE POINT ENERGY      -652.853473584541

DIPOLE MOMENT
-------------
                                X             Y             Z
Electronic contribution:     -2.82854      -1.46981       1.31282
Nuclear contribution   :      3.45742       1.54547      -2.43655
                        -----------------------------------------
Total Dipole Moment    :      0.62887       0.07566      -1.12373
                        -----------------------------------------
Magnitude (a.u.)       :      1.28995
Magnitude (Debye)      :      3.27880

Rotational constants in cm-1:     0.058178     0.012547     0.011283
Rotational constants in MHz :  1744.133490   376.146183   338.268612

                             ****ORCA TERMINATED NORMALLY****
TOTAL RUN TIME: 0 days 1 hours 13 minutes 16 seconds 512 msec
