                         Program Version 4.2.0 -  RELEASE  -
|  1> # Test redundant internal optimization
|  2> #
|  3> ! RKS B3LYP  Opt TightSCF SmallPrint
|  4>
|  5> %basis
|  6>         Basis "6-31G"
|  7> end
|  8>
|  9> %geom
| 10> Constraints
| 11> { D 4  0  15  12  285.0   C } # D for Dihedral angle
| 12> { D 0  15  12  16  120.0   C } # D for Dihedral angle
| 13> { D 0  4  3  2   C } # D for Dihedral angle
| 14> { D 4  3  2  1   C } # D for Dihedral angle
| 15> { D 3  2  1  0   C } # D for Dihedral angle
| 16> { D 2  1  0  4   C } # D for Dihedral angle
| 17> { D 1  0  4  3   C } # D for Dihedral angle
| 18> { D 16  20  19  18   C } # D for Dihedral angle
| 19> { D 20  19  18  17   C } # D for Dihedral angle
| 20> { D 19  18  17  16   C } # D for Dihedral angle
| 21> { D 18  17  16  20   C } # D for Dihedral angle
| 22> { D 17  16  20  19   C } # D for Dihedral angle
| 23> { D 15  12  16  20   C } # D for Dihedral angle
| 24> end
| 25> end
| 26>
| 27>
| 28> #%pal
| 29> #nprocs 8
| 30> #end
| 31>
| 32> * xyz 0 1
| 33> C  -21.048   26.222   46.251
| 34> C  -20.361   27.558   45.944
| 35> C  -20.329   28.222   47.341
| 36> C  -20.110   27.022   48.296
| 37> O  -20.473   25.807   47.535
| 38> H  -20.833   25.428   45.533
| 39> H  -19.344   27.382   45.576
| 40> H  -20.898   28.157   45.201
| 41> H  -19.543   28.978   47.434
| 42> H  -21.289   28.710   47.548
| 43> H  -20.733   27.082   49.195
| 44> H  -19.064   26.913   48.597
| 45> C  -23.396   25.070   46.435
| 46> H  -24.090   25.031   45.586
| 47> H  -22.723   24.205   46.368
| 48> O  -22.586   26.394   46.375
| 49> C  -24.219   24.928   47.746
| 50> C  -23.323   25.063   48.983
| 51> C  -23.148   26.598   49.077
| 52> C  -24.519   27.138   48.598
| 53> O  -25.177   26.031   47.871
| 54> H  -24.798   24.004   47.707
| 55> H  -23.843   24.679   49.867
| 56> O  -21.971   24.311   48.843
| 57> H  -22.896   26.936   50.087
| 58> H  -22.347   26.928   48.404
| 59> H  -24.421   27.999   47.929
| 60> H  -25.174   27.411   49.431
| 61> H  -21.433   24.681   47.963
| 62> *
| 63>
| 64>                          ****END OF INPUT****
 Total Charge           Charge          ....    0
 Multiplicity           Mult            ....    1
 Number of Electrons    NEL             ....  102
FINAL SINGLE POINT ENERGY      -652.824413135720
FINAL SINGLE POINT ENERGY      -652.852280198694
FINAL SINGLE POINT ENERGY      -652.868059447032
FINAL SINGLE POINT ENERGY      -652.871008052172
FINAL SINGLE POINT ENERGY      -652.871449093389
FINAL SINGLE POINT ENERGY      -652.871513471478
FINAL SINGLE POINT ENERGY      -652.871635279397
FINAL SINGLE POINT ENERGY      -652.871640005528
                    ***********************HURRAY********************

CARTESIAN COORDINATES (ANGSTROEM)
---------------------------------
  C    -21.041944   26.219435   46.223626
  C    -20.345474   27.521171   45.809812
  C    -20.217905   28.254365   47.167770
  C    -19.969448   27.103674   48.173022
  O    -20.409200   25.855414   47.483103
  H    -20.830913   25.374026   45.558843
  H    -19.360904   27.283160   45.394423
  H    -20.927856   28.074067   45.071012
  H    -19.405191   28.986808   47.179424
  H    -21.153145   28.775753   47.395803
  H    -20.521222   27.210070   49.108325
  H    -18.908806   26.964096   48.398684
  C    -23.259653   25.180954   46.395061
  H    -23.916275   25.187083   45.518802
  H    -22.596125   24.308546   46.335371
  O    -22.461426   26.418497   46.293179
  C    -24.139103   25.026576   47.633239
  C    -23.432639   24.996678   48.999769
  C    -23.331330   26.513945   49.341865
  C    -24.638441   27.082457   48.747997
  O    -25.139867   26.076218   47.778183
  H    -24.697428   24.095515   47.469682
  H    -24.082742   24.493609   49.720454
  O    -22.193560   24.266804   49.027216
  H    -23.238754   26.688998   50.417535
  H    -22.470988   26.939871   48.830271
  H    -24.487803   28.029534   48.221508
  H    -25.421757   27.212195   49.501779
  H    -21.489101   24.748480   48.525242

 Multiplicity           Mult            ....    1
 Number of Electrons    NEL             ....  102
 Basis Dimension        Dim             ....  149

ORBITAL ENERGIES
----------------

  NO   OCC          E(Eh)            E(eV)
   0   2.0000     -19.170650      -521.6599
   1   2.0000     -19.158597      -521.3319
   2   2.0000     -19.129433      -520.5383
   3   2.0000     -19.112800      -520.0857
   4   2.0000     -10.294117      -280.1172
   5   2.0000     -10.243364      -278.7361
   6   2.0000     -10.231280      -278.4073
   7   2.0000     -10.226400      -278.2745
   8   2.0000     -10.225372      -278.2465
   9   2.0000     -10.218645      -278.0635
  10   2.0000     -10.200452      -277.5684
  11   2.0000     -10.198863      -277.5252
  12   2.0000     -10.175762      -276.8966
  13   2.0000      -1.070550       -29.1311
  14   2.0000      -1.019469       -27.7412
  15   2.0000      -1.009038       -27.4573
  16   2.0000      -0.990814       -26.9614
  17   2.0000      -0.802290       -21.8314
  18   2.0000      -0.770928       -20.9780
  19   2.0000      -0.762875       -20.7589
  20   2.0000      -0.740568       -20.1519
  21   2.0000      -0.677006       -18.4223
  22   2.0000      -0.614822       -16.7302
  23   2.0000      -0.604414       -16.4469
  24   2.0000      -0.595277       -16.1983
  25   2.0000      -0.573355       -15.6018
  26   2.0000      -0.524885       -14.2828
  27   2.0000      -0.513027       -13.9602
  28   2.0000      -0.508269       -13.8307
  29   2.0000      -0.485643       -13.2150
  30   2.0000      -0.475660       -12.9434
  31   2.0000      -0.464203       -12.6316
  32   2.0000      -0.442442       -12.0395
  33   2.0000      -0.432161       -11.7597
  34   2.0000      -0.423185       -11.5155
  35   2.0000      -0.415176       -11.2975
  36   2.0000      -0.405231       -11.0269
  37   2.0000      -0.397517       -10.8170
  38   2.0000      -0.375761       -10.2250
  39   2.0000      -0.371445       -10.1075
  40   2.0000      -0.367988       -10.0135
  41   2.0000      -0.361097        -9.8259
  42   2.0000      -0.346840        -9.4380
  43   2.0000      -0.344775        -9.3818
  44   2.0000      -0.322608        -8.7786
  45   2.0000      -0.314685        -8.5630
  46   2.0000      -0.297697        -8.1008
  47   2.0000      -0.278682        -7.5833
  48   2.0000      -0.272441        -7.4135
  49   2.0000      -0.248226        -6.7546
  50   2.0000      -0.230898        -6.2830
  51   0.0000       0.065451         1.7810
  52   0.0000       0.084109         2.2887
  53   0.0000       0.088662         2.4126
  54   0.0000       0.095213         2.5909
  55   0.0000       0.106657         2.9023

MULLIKEN ATOMIC CHARGES
-----------------------
   0 C :    0.284871
   1 C :   -0.261941
   2 C :   -0.305388
   3 C :   -0.013107
   4 O :   -0.538261
   5 H :    0.154252
   6 H :    0.153006
   7 H :    0.168070
   8 H :    0.151469
   9 H :    0.167038
  10 H :    0.151721
  11 H :    0.156454
  12 C :   -0.032742
  13 H :    0.161475
  14 H :    0.143945
  15 O :   -0.512740
  16 C :    0.098862
  17 C :    0.090201
  18 C :   -0.326204
  19 C :   -0.007431
  20 O :   -0.522075
  21 H :    0.146161
  22 H :    0.155888
  23 O :   -0.645325
  24 H :    0.141103
  25 H :    0.158084
  26 H :    0.143753
  27 H :    0.142064
  28 H :    0.396795
Sum of atomic charges:    0.0000000

LOEWDIN ATOMIC CHARGES
----------------------
   0 C :    0.169626
   1 C :   -0.211097
   2 C :   -0.215197
   3 C :   -0.032541
   4 O :   -0.329042
   5 H :    0.097926
   6 H :    0.118680
   7 H :    0.130454
   8 H :    0.118905
   9 H :    0.119781
  10 H :    0.106441
  11 H :    0.110337
  12 C :   -0.047482
  13 H :    0.117124
  14 H :    0.109166
  15 O :   -0.322437
  16 C :    0.013457
  17 C :    0.039577
  18 C :   -0.245861
  19 C :   -0.026433
  20 O :   -0.325406
  21 H :    0.114920
  22 H :    0.111927
  23 O :   -0.436444
  24 H :    0.114762
  25 H :    0.114445
  26 H :    0.102871
  27 H :    0.100790
  28 H :    0.280749

  Mayer bond orders larger than 0.100000
B(  0-C ,  1-C ) :   0.9437 B(  0-C ,  4-O ) :   0.8443 B(  0-C ,  5-H ) :   0.9182
B(  0-C , 15-O ) :   0.9026 B(  1-C ,  2-C ) :   0.9546 B(  1-C ,  6-H ) :   0.9390
B(  1-C ,  7-H ) :   0.9357 B(  2-C ,  3-C ) :   0.9569 B(  2-C ,  8-H ) :   0.9447
B(  2-C ,  9-H ) :   0.9423 B(  3-C ,  4-O ) :   0.8048 B(  3-C , 10-H ) :   0.9236
B(  3-C , 11-H ) :   0.9403 B(  4-O , 28-H ) :   0.1020 B( 12-C , 13-H ) :   0.9321
B( 12-C , 14-H ) :   0.9041 B( 12-C , 15-O ) :   0.8266 B( 12-C , 16-C ) :   0.9116
B( 16-C , 17-C ) :   0.8817 B( 16-C , 20-O ) :   0.8745 B( 16-C , 21-H ) :   0.9210
B( 17-C , 18-C ) :   0.9260 B( 17-C , 22-H ) :   0.9363 B( 17-C , 23-O ) :   0.9407
B( 18-C , 19-C ) :   0.9435 B( 18-C , 24-H ) :   0.9433 B( 18-C , 25-H ) :   0.9193
B( 19-C , 20-O ) :   0.8393 B( 19-C , 26-H ) :   0.9327 B( 19-C , 27-H ) :   0.9378
B( 23-O , 28-H ) :   0.7068

FINAL SINGLE POINT ENERGY      -652.871638997503

DIPOLE MOMENT
-------------
                                X             Y             Z
Electronic contribution:     -2.73596      -4.12028      -0.97563
Nuclear contribution   :      3.78159       5.18004       0.57924
                        -----------------------------------------
Total Dipole Moment    :      1.04563       1.05975      -0.39639
                        -----------------------------------------
Magnitude (a.u.)       :      1.54063
Magnitude (Debye)      :      3.91597

Rotational constants in cm-1:     0.042668     0.019345     0.018608
Rotational constants in MHz :  1279.144428   579.963480   557.863563

                             ****ORCA TERMINATED NORMALLY****
TOTAL RUN TIME: 0 days 0 hours 49 minutes 13 seconds 395 msec
