                         Program Version 4.2.0 -  RELEASE  -
|  1> # Test redundant internal optimization
|  2> #
|  3> ! RKS B3LYP  Opt TightSCF SmallPrint
|  4>
|  5> %basis
|  6>         Basis "6-31G"
|  7> end
|  8>
|  9> %geom
| 10> Constraints
| 11> { D 4  0  15  12  285.0   C } # D for Dihedral angle
| 12> { D 0  15  12  16  135.0   C } # D for Dihedral angle
| 13> { D 0  4  3  2   C } # D for Dihedral angle
| 14> { D 4  3  2  1   C } # D for Dihedral angle
| 15> { D 3  2  1  0   C } # D for Dihedral angle
| 16> { D 2  1  0  4   C } # D for Dihedral angle
| 17> { D 1  0  4  3   C } # D for Dihedral angle
| 18> { D 16  20  19  18   C } # D for Dihedral angle
| 19> { D 20  19  18  17   C } # D for Dihedral angle
| 20> { D 19  18  17  16   C } # D for Dihedral angle
| 21> { D 18  17  16  20   C } # D for Dihedral angle
| 22> { D 17  16  20  19   C } # D for Dihedral angle
| 23> { D 15  12  16  20   C } # D for Dihedral angle
| 24> end
| 25> end
| 26>
| 27>
| 28> #%pal
| 29> #nprocs 8
| 30> #end
| 31>
| 32> * xyz 0 1
| 33> C  -21.048   26.222   46.251
| 34> C  -20.361   27.558   45.944
| 35> C  -20.329   28.222   47.341
| 36> C  -20.110   27.022   48.296
| 37> O  -20.473   25.807   47.535
| 38> H  -20.833   25.428   45.533
| 39> H  -19.344   27.382   45.576
| 40> H  -20.898   28.157   45.201
| 41> H  -19.543   28.978   47.434
| 42> H  -21.289   28.710   47.548
| 43> H  -20.733   27.082   49.195
| 44> H  -19.064   26.913   48.597
| 45> C  -23.396   25.070   46.435
| 46> H  -23.885   24.901   45.468
| 47> H  -22.730   24.221   46.636
| 48> O  -22.586   26.394   46.375
| 49> C  -24.489   25.084   47.540
| 50> C  -25.189   23.725   47.648
| 51> C  -24.159   22.906   48.462
| 52> C  -23.558   23.957   49.428
| 53> O  -23.881   25.283   48.860
| 54> H  -25.162   25.927   47.366
| 55> H  -26.127   23.827   48.204
| 56> O  -25.506   23.090   46.266
| 57> H  -24.611   22.062   48.992
| 58> H  -23.384   22.507   47.796
| 59> H  -22.471   23.864   49.526
| 60> H  -24.009   23.914   50.424
| 61> H  -24.580   22.977   45.691
| 62> *
| 63>
| 64>                          ****END OF INPUT****
 Total Charge           Charge          ....    0
 Multiplicity           Mult            ....    1
 Number of Electrons    NEL             ....  102
FINAL SINGLE POINT ENERGY      -652.831191576946
FINAL SINGLE POINT ENERGY      -652.856305991197
FINAL SINGLE POINT ENERGY      -652.861161661610
FINAL SINGLE POINT ENERGY      -652.861973100705
FINAL SINGLE POINT ENERGY      -652.862113197598
FINAL SINGLE POINT ENERGY      -652.862144728997
FINAL SINGLE POINT ENERGY      -652.862151176311
FINAL SINGLE POINT ENERGY      -652.862152399143
                    ***********************HURRAY********************

CARTESIAN COORDINATES (ANGSTROEM)
---------------------------------
  C    -21.039371   26.154753   46.198441
  C    -20.490220   27.566878   45.996974
  C    -20.540620   28.133566   47.433863
  C    -20.212278   26.903030   48.307875
  O    -20.447669   25.717112   47.444570
  H    -20.769486   25.410287   45.443368
  H    -19.458185   27.506562   45.632256
  H    -21.087516   28.140033   45.285099
  H    -19.832539   28.953835   47.586554
  H    -21.549411   28.495521   47.649052
  H    -20.859201   26.821928   49.183704
  H    -19.162528   26.863235   48.614176
  C    -23.226036   25.049332   46.333674
  H    -23.727478   24.918195   45.365777
  H    -22.547891   24.205237   46.511470
  O    -22.470472   26.290601   46.314035
  C    -24.268378   25.142238   47.448225
  C    -25.099911   23.860184   47.621251
  C    -24.150502   22.978047   48.486434
  C    -23.456261   24.015291   49.396530
  O    -23.650001   25.341204   48.755574
  H    -24.888893   26.024437   47.270680
  H    -26.014680   24.089832   48.171876
  O    -25.558586   23.244089   46.392461
  H    -24.694219   22.212868   49.046808
  H    -23.426693   22.469927   47.834754
  H    -22.383221   23.834931   49.506075
  H    -23.915055   24.068792   50.388105
  H    -24.820700   22.778053   45.948341

 Multiplicity           Mult            ....    1
 Number of Electrons    NEL             ....  102
 Basis Dimension        Dim             ....  149

ORBITAL ENERGIES
----------------

  NO   OCC          E(Eh)            E(eV)
   0   2.0000     -19.148471      -521.0564
   1   2.0000     -19.137858      -520.7676
   2   2.0000     -19.133918      -520.6604
   3   2.0000     -19.132057      -520.6097
   4   2.0000     -10.273876      -279.5664
   5   2.0000     -10.242922      -278.7241
   6   2.0000     -10.226983      -278.2904
   7   2.0000     -10.226630      -278.2807
   8   2.0000     -10.225717      -278.2559
   9   2.0000     -10.215389      -277.9749
  10   2.0000     -10.193436      -277.3775
  11   2.0000     -10.178797      -276.9792
  12   2.0000     -10.176292      -276.9110
  13   2.0000      -1.049304       -28.5530
  14   2.0000      -1.031032       -28.0558
  15   2.0000      -1.012276       -27.5454
  16   2.0000      -0.986844       -26.8534
  17   2.0000      -0.783994       -21.3336
  18   2.0000      -0.778439       -21.1824
  19   2.0000      -0.761875       -20.7317
  20   2.0000      -0.724190       -19.7062
  21   2.0000      -0.675532       -18.3822
  22   2.0000      -0.608731       -16.5644
  23   2.0000      -0.590718       -16.0742
  24   2.0000      -0.584606       -15.9079
  25   2.0000      -0.576783       -15.6951
  26   2.0000      -0.527205       -14.3460
  27   2.0000      -0.509116       -13.8538
  28   2.0000      -0.491175       -13.3655
  29   2.0000      -0.482251       -13.1227
  30   2.0000      -0.468151       -12.7390
  31   2.0000      -0.454137       -12.3577
  32   2.0000      -0.440643       -11.9905
  33   2.0000      -0.430984       -11.7277
  34   2.0000      -0.421602       -11.4724
  35   2.0000      -0.415154       -11.2969
  36   2.0000      -0.398449       -10.8424
  37   2.0000      -0.394445       -10.7334
  38   2.0000      -0.377341       -10.2680
  39   2.0000      -0.369389       -10.0516
  40   2.0000      -0.349407        -9.5079
  41   2.0000      -0.346161        -9.4195
  42   2.0000      -0.339215        -9.2305
  43   2.0000      -0.327950        -8.9240
  44   2.0000      -0.322324        -8.7709
  45   2.0000      -0.312809        -8.5120
  46   2.0000      -0.294536        -8.0147
  47   2.0000      -0.270418        -7.3584
  48   2.0000      -0.263369        -7.1666
  49   2.0000      -0.245384        -6.6772
  50   2.0000      -0.235406        -6.4057
  51   0.0000       0.051686         1.4065
  52   0.0000       0.080115         2.1800
  53   0.0000       0.092397         2.5142
  54   0.0000       0.102570         2.7911
  55   0.0000       0.107957         2.9377

MULLIKEN ATOMIC CHARGES
-----------------------
   0 C :    0.279079
   1 C :   -0.258652
   2 C :   -0.297506
   3 C :   -0.001679
   4 O :   -0.514510
   5 H :    0.136696
   6 H :    0.140240
   7 H :    0.154425
   8 H :    0.135631
   9 H :    0.170355
  10 H :    0.162862
  11 H :    0.134374
  12 C :   -0.011812
  13 H :    0.135474
  14 H :    0.132589
  15 O :   -0.511804
  16 C :    0.100184
  17 C :    0.079769
  18 C :   -0.323277
  19 C :   -0.012289
  20 O :   -0.507721
  21 H :    0.162566
  22 H :    0.168436
  23 O :   -0.599828
  24 H :    0.155019
  25 H :    0.133360
  26 H :    0.158100
  27 H :    0.145469
  28 H :    0.354451
Sum of atomic charges:   -0.0000000

LOEWDIN ATOMIC CHARGES
----------------------
   0 C :    0.171982
   1 C :   -0.215148
   2 C :   -0.214888
   3 C :   -0.026975
   4 O :   -0.332443
   5 H :    0.094047
   6 H :    0.111345
   7 H :    0.122831
   8 H :    0.110782
   9 H :    0.123319
  10 H :    0.113589
  11 H :    0.098695
  12 C :   -0.050991
  13 H :    0.100840
  14 H :    0.097847
  15 O :   -0.318935
  16 C :    0.021231
  17 C :    0.033489
  18 C :   -0.240813
  19 C :   -0.031041
  20 O :   -0.315380
  21 H :    0.118997
  22 H :    0.119339
  23 O :   -0.408040
  24 H :    0.121677
  25 H :    0.103812
  26 H :    0.109815
  27 H :    0.104178
  28 H :    0.276840

  Mayer bond orders larger than 0.100000
B(  0-C ,  1-C ) :   0.9523 B(  0-C ,  4-O ) :   0.9067 B(  0-C ,  5-H ) :   0.9202
B(  0-C , 15-O ) :   0.8676 B(  1-C ,  2-C ) :   0.9572 B(  1-C ,  6-H ) :   0.9412
B(  1-C ,  7-H ) :   0.9367 B(  2-C ,  3-C ) :   0.9575 B(  2-C ,  8-H ) :   0.9456
B(  2-C ,  9-H ) :   0.9420 B(  3-C ,  4-O ) :   0.8314 B(  3-C , 10-H ) :   0.9310
B(  3-C , 11-H ) :   0.9404 B( 12-C , 13-H ) :   0.9132 B( 12-C , 14-H ) :   0.9173
B( 12-C , 15-O ) :   0.8407 B( 12-C , 16-C ) :   0.9024 B( 16-C , 17-C ) :   0.8736
B( 16-C , 20-O ) :   0.8718 B( 16-C , 21-H ) :   0.9309 B( 17-C , 18-C ) :   0.9232
B( 17-C , 22-H ) :   0.9329 B( 17-C , 23-O ) :   0.8945 B( 18-C , 19-C ) :   0.9404
B( 18-C , 24-H ) :   0.9427 B( 18-C , 25-H ) :   0.9405 B( 19-C , 20-O ) :   0.8475
B( 19-C , 26-H ) :   0.9278 B( 19-C , 27-H ) :   0.9374 B( 23-O , 28-H ) :   0.7990

FINAL SINGLE POINT ENERGY      -652.862152589750

DIPOLE MOMENT
-------------
                                X             Y             Z
Electronic contribution:     -2.83103      -0.90353      -1.23020
Nuclear contribution   :      3.41639       0.45540       1.16868
                        -----------------------------------------
Total Dipole Moment    :      0.58536      -0.44813      -0.06153
                        -----------------------------------------
Magnitude (a.u.)       :      0.73977
Magnitude (Debye)      :      1.88034

Rotational constants in cm-1:     0.054482     0.015005     0.013275
Rotational constants in MHz :  1633.327756   449.843071   397.986857

                             ****ORCA TERMINATED NORMALLY****
TOTAL RUN TIME: 0 days 0 hours 29 minutes 3 seconds 298 msec
