                         Program Version 4.2.0 -  RELEASE  -
|  1> # Test redundant internal optimization
|  2> #
|  3> ! RKS B3LYP  Opt TightSCF SmallPrint
|  4>
|  5> %basis
|  6>         Basis "6-31G"
|  7> end
|  8>
|  9> %geom
| 10> Constraints
| 11> { D 4  0  15  12  180.0   C } # D for Dihedral angle
| 12> { D 0  15  12  16  195.0   C } # D for Dihedral angle
| 13> { D 0  4  3  2   C } # D for Dihedral angle
| 14> { D 4  3  2  1   C } # D for Dihedral angle
| 15> { D 3  2  1  0   C } # D for Dihedral angle
| 16> { D 2  1  0  4   C } # D for Dihedral angle
| 17> { D 1  0  4  3   C } # D for Dihedral angle
| 18> { D 16  20  19  18   C } # D for Dihedral angle
| 19> { D 20  19  18  17   C } # D for Dihedral angle
| 20> { D 19  18  17  16   C } # D for Dihedral angle
| 21> { D 18  17  16  20   C } # D for Dihedral angle
| 22> { D 17  16  20  19   C } # D for Dihedral angle
| 23> { D 15  12  16  20   C } # D for Dihedral angle
| 24> end
| 25> end
| 26>
| 27>
| 28> #%pal
| 29> #nprocs 8
| 30> #end
| 31>
| 32> * xyz 0 1
| 33> C  -21.048   26.222   46.251
| 34> C  -20.361   27.558   45.944
| 35> C  -20.329   28.222   47.341
| 36> C  -20.110   27.022   48.296
| 37> O  -20.473   25.807   47.535
| 38> H  -20.833   25.428   45.533
| 39> H  -19.344   27.382   45.576
| 40> H  -20.898   28.157   45.201
| 41> H  -19.543   28.978   47.434
| 42> H  -21.289   28.710   47.548
| 43> H  -20.733   27.082   49.195
| 44> H  -19.064   26.913   48.597
| 45> C  -23.309   26.834   45.072
| 46> H  -22.737   27.640   44.596
| 47> H  -23.372   25.995   44.367
| 48> O  -22.586   26.394   46.375
| 49> C  -24.753   27.345   45.330
| 50> C  -25.589   26.299   46.077
| 51> C  -25.098   26.488   47.533
| 52> C  -24.836   28.012   47.621
| 53> O  -24.734   28.503   46.229
| 54> H  -25.188   27.679   44.386
| 55> O  -27.099   26.641   45.960
| 56> H  -25.436   25.280   45.707
| 57> H  -25.826   26.146   48.275
| 58> H  -24.169   25.927   47.692
| 59> H  -23.910   28.249   48.154
| 60> H  -25.663   28.551   48.092
| 61> H  -27.276   27.658   46.327
| 62> *
| 63>
| 64>                          ****END OF INPUT****
 Total Charge           Charge          ....    0
 Multiplicity           Mult            ....    1
 Number of Electrons    NEL             ....  102
FINAL SINGLE POINT ENERGY      -652.834702258181
FINAL SINGLE POINT ENERGY      -652.857166989369
FINAL SINGLE POINT ENERGY      -652.861579574292
FINAL SINGLE POINT ENERGY      -652.862531541686
FINAL SINGLE POINT ENERGY      -652.862654134421
FINAL SINGLE POINT ENERGY      -652.862670625922
                    ***********************HURRAY********************

CARTESIAN COORDINATES (ANGSTROEM)
---------------------------------
  C    -21.083666   26.249324   46.162580
  C    -20.346558   27.560080   45.895177
  C    -20.405513   28.250799   47.280132
  C    -20.289970   27.064892   48.258723
  O    -20.629024   25.854381   47.463263
  H    -20.859796   25.432754   45.468221
  H    -19.312230   27.329808   45.614077
  H    -20.784440   28.168396   45.100341
  H    -19.605266   28.984237   47.416308
  H    -21.366972   28.760705   47.392910
  H    -20.980246   27.130305   49.103410
  H    -19.272631   26.916501   48.631909
  C    -23.240594   26.830353   45.065471
  H    -22.719210   27.656283   44.565686
  H    -23.313459   25.989491   44.356756
  O    -22.529501   26.425576   46.264068
  C    -24.639480   27.319253   45.433761
  C    -25.561171   26.315216   46.141631
  C    -25.114070   26.465181   47.620076
  C    -24.771042   27.970699   47.731050
  O    -24.589829   28.464981   46.343297
  H    -25.115929   27.671127   44.510746
  O    -26.958284   26.672870   45.938815
  H    -25.470901   25.296082   45.765220
  H    -25.914277   26.158973   48.300067
  H    -24.225512   25.856455   47.793112
  H    -23.847615   28.144497   48.289256
  H    -25.577209   28.562813   48.177408
  H    -27.081604   27.619967   46.160531

 Multiplicity           Mult            ....    1
 Number of Electrons    NEL             ....  102
 Basis Dimension        Dim             ....  149

ORBITAL ENERGIES
----------------

  NO   OCC          E(Eh)            E(eV)
   0   2.0000     -19.147176      -521.0212
   1   2.0000     -19.144865      -520.9583
   2   2.0000     -19.138520      -520.7856
   3   2.0000     -19.133589      -520.6514
   4   2.0000     -10.285103      -279.8719
   5   2.0000     -10.236115      -278.5389
   6   2.0000     -10.234547      -278.4962
   7   2.0000     -10.234315      -278.4899
   8   2.0000     -10.228683      -278.3366
   9   2.0000     -10.222213      -278.1606
  10   2.0000     -10.191203      -277.3167
  11   2.0000     -10.188998      -277.2567
  12   2.0000     -10.172440      -276.8062
  13   2.0000      -1.059114       -28.8200
  14   2.0000      -1.031591       -28.0710
  15   2.0000      -1.003746       -27.3133
  16   2.0000      -0.995178       -27.0802
  17   2.0000      -0.790267       -21.5043
  18   2.0000      -0.777415       -21.1545
  19   2.0000      -0.762820       -20.7574
  20   2.0000      -0.734638       -19.9905
  21   2.0000      -0.676349       -18.4044
  22   2.0000      -0.605091       -16.4654
  23   2.0000      -0.597858       -16.2686
  24   2.0000      -0.594685       -16.1822
  25   2.0000      -0.574586       -15.6353
  26   2.0000      -0.528812       -14.3897
  27   2.0000      -0.504708       -13.7338
  28   2.0000      -0.500208       -13.6113
  29   2.0000      -0.487310       -13.2604
  30   2.0000      -0.477402       -12.9908
  31   2.0000      -0.457913       -12.4604
  32   2.0000      -0.449822       -12.2403
  33   2.0000      -0.442934       -12.0529
  34   2.0000      -0.418047       -11.3756
  35   2.0000      -0.411973       -11.2104
  36   2.0000      -0.405103       -11.0234
  37   2.0000      -0.386650       -10.5213
  38   2.0000      -0.378481       -10.2990
  39   2.0000      -0.367723       -10.0063
  40   2.0000      -0.359022        -9.7695
  41   2.0000      -0.357135        -9.7181
  42   2.0000      -0.353742        -9.6258
  43   2.0000      -0.328306        -8.9336
  44   2.0000      -0.316002        -8.5989
  45   2.0000      -0.308018        -8.3816
  46   2.0000      -0.299906        -8.1608
  47   2.0000      -0.267434        -7.2773
  48   2.0000      -0.263143        -7.1605
  49   2.0000      -0.258563        -7.0359
  50   2.0000      -0.243142        -6.6162
  51   0.0000       0.062299         1.6952
  52   0.0000       0.080737         2.1970
  53   0.0000       0.095068         2.5869
  54   0.0000       0.101493         2.7618
  55   0.0000       0.103635         2.8200

MULLIKEN ATOMIC CHARGES
-----------------------
   0 C :    0.311974
   1 C :   -0.282948
   2 C :   -0.304187
   3 C :   -0.002642
   4 O :   -0.503465
   5 H :    0.143003
   6 H :    0.149463
   7 H :    0.149921
   8 H :    0.143998
   9 H :    0.172494
  10 H :    0.150567
  11 H :    0.144156
  12 C :   -0.000196
  13 H :    0.137143
  14 H :    0.128798
  15 O :   -0.522456
  16 C :    0.067554
  17 C :    0.076482
  18 C :   -0.290463
  19 C :   -0.022857
  20 O :   -0.529482
  21 H :    0.154826
  22 O :   -0.603243
  23 H :    0.152347
  24 H :    0.145670
  25 H :    0.191331
  26 H :    0.145461
  27 H :    0.135165
  28 H :    0.361584
Sum of atomic charges:   -0.0000000

LOEWDIN ATOMIC CHARGES
----------------------
   0 C :    0.183021
   1 C :   -0.231031
   2 C :   -0.217494
   3 C :   -0.025449
   4 O :   -0.304018
   5 H :    0.097823
   6 H :    0.116943
   7 H :    0.116504
   8 H :    0.115606
   9 H :    0.122041
  10 H :    0.107063
  11 H :    0.103836
  12 C :   -0.041085
  13 H :    0.098665
  14 H :    0.094659
  15 O :   -0.334103
  16 C :    0.015678
  17 C :    0.040160
  18 C :   -0.242668
  19 C :   -0.033699
  20 O :   -0.332751
  21 H :    0.115365
  22 O :   -0.417717
  23 H :    0.116688
  24 H :    0.117383
  25 H :    0.138251
  26 H :    0.103542
  27 H :    0.095453
  28 H :    0.281334

  Mayer bond orders larger than 0.100000
B(  0-C ,  1-C ) :   0.9313 B(  0-C ,  4-O ) :   0.9401 B(  0-C ,  5-H ) :   0.9218
B(  0-C , 15-O ) :   0.8213 B(  1-C ,  2-C ) :   0.9499 B(  1-C ,  6-H ) :   0.9336
B(  1-C ,  7-H ) :   0.9285 B(  2-C ,  3-C ) :   0.9562 B(  2-C ,  8-H ) :   0.9446
B(  2-C ,  9-H ) :   0.9385 B(  3-C ,  4-O ) :   0.8329 B(  3-C , 10-H ) :   0.9344
B(  3-C , 11-H ) :   0.9395 B( 12-C , 13-H ) :   0.9066 B( 12-C , 14-H ) :   0.9093
B( 12-C , 15-O ) :   0.8458 B( 12-C , 16-C ) :   0.9072 B( 16-C , 17-C ) :   0.9094
B( 16-C , 20-O ) :   0.8735 B( 16-C , 21-H ) :   0.9224 B( 17-C , 18-C ) :   0.9243
B( 17-C , 22-O ) :   0.8916 B( 17-C , 23-H ) :   0.9361 B( 18-C , 19-C ) :   0.9464
B( 18-C , 24-H ) :   0.9375 B( 18-C , 25-H ) :   0.9138 B( 19-C , 20-O ) :   0.8385
B( 19-C , 26-H ) :   0.9319 B( 19-C , 27-H ) :   0.9369 B( 22-O , 28-H ) :   0.7968

FINAL SINGLE POINT ENERGY      -652.862670995287

DIPOLE MOMENT
-------------
                                X             Y             Z
Electronic contribution:     -3.19567      -2.26406      -1.37748
Nuclear contribution   :      4.12733       2.90481       1.21002
                        -----------------------------------------
Total Dipole Moment    :      0.93166       0.64075      -0.16746
                        -----------------------------------------
Magnitude (a.u.)       :      1.14306
Magnitude (Debye)      :      2.90544

Rotational constants in cm-1:     0.055606     0.014881     0.014398
Rotational constants in MHz :  1667.039401   446.131655   431.626578

                             ****ORCA TERMINATED NORMALLY****
TOTAL RUN TIME: 0 days 0 hours 29 minutes 16 seconds 119 msec
