                         Program Version 4.2.0 -  RELEASE  -
|  1> # Test redundant internal optimization
|  2> #
|  3> ! RKS B3LYP  Opt TightSCF SmallPrint
|  4>
|  5> %basis
|  6>         Basis "6-31G"
|  7> end
|  8>
|  9> %geom
| 10> Constraints
| 11> { D 4  0  15  12  270.0   C } # D for Dihedral angle
| 12> { D 0  15  12  16  330.0   C } # D for Dihedral angle
| 13> { D 0  4  3  2   C } # D for Dihedral angle
| 14> { D 4  3  2  1   C } # D for Dihedral angle
| 15> { D 3  2  1  0   C } # D for Dihedral angle
| 16> { D 2  1  0  4   C } # D for Dihedral angle
| 17> { D 1  0  4  3   C } # D for Dihedral angle
| 18> { D 16  20  19  18   C } # D for Dihedral angle
| 19> { D 20  19  18  17   C } # D for Dihedral angle
| 20> { D 19  18  17  16   C } # D for Dihedral angle
| 21> { D 18  17  16  20   C } # D for Dihedral angle
| 22> { D 17  16  20  19   C } # D for Dihedral angle
| 23> { D 15  12  16  20   C } # D for Dihedral angle
| 24> end
| 25> end
| 26>
| 27>
| 28> #%pal
| 29> #nprocs 8
| 30> #end
| 31>
| 32> * xyz 0 1
| 33> C  -21.048   26.222   46.251
| 34> C  -20.361   27.558   45.944
| 35> C  -20.329   28.222   47.341
| 36> C  -20.110   27.022   48.296
| 37> O  -20.473   25.807   47.535
| 38> H  -20.833   25.428   45.533
| 39> H  -19.344   27.382   45.576
| 40> H  -20.898   28.157   45.201
| 41> H  -19.543   28.978   47.434
| 42> H  -21.289   28.710   47.548
| 43> H  -20.733   27.082   49.195
| 44> H  -19.064   26.913   48.597
| 45> C  -23.420   25.119   46.072
| 46> H  -23.571   24.556   47.002
| 47> H  -24.405   25.390   45.671
| 48> O  -22.586   26.394   46.375
| 49> C  -22.731   24.182   45.041
| 50> C  -21.418   23.616   45.593
| 51> C  -21.928   22.482   46.515
| 52> C  -23.170   21.947   45.759
| 53> O  -23.559   22.997   44.793
| 54> H  -22.633   24.708   44.090
| 55> O  -20.559   23.038   44.436
| 56> H  -20.819   24.361   46.128
| 57> H  -21.177   21.705   46.686
| 58> H  -22.215   22.892   47.491
| 59> H  -24.013   21.745   46.428
| 60> H  -22.951   21.044   45.183
| 61> H  -21.139   22.288   43.885
| 62> *
| 63>
| 64>                          ****END OF INPUT****
 Total Charge           Charge          ....    0
 Multiplicity           Mult            ....    1
 Number of Electrons    NEL             ....  102
FINAL SINGLE POINT ENERGY      -652.792942841033
FINAL SINGLE POINT ENERGY      -652.833726375707
FINAL SINGLE POINT ENERGY      -652.852583512573
FINAL SINGLE POINT ENERGY      -652.855348941699
FINAL SINGLE POINT ENERGY      -652.855813452324
FINAL SINGLE POINT ENERGY      -652.855901224786
FINAL SINGLE POINT ENERGY      -652.855912052681
FINAL SINGLE POINT ENERGY      -652.855919969178
                    ***********************HURRAY********************

CARTESIAN COORDINATES (ANGSTROEM)
---------------------------------
  C    -20.800897   26.325989   46.255263
  C    -20.384015   27.784186   46.049738
  C    -20.570096   28.372901   47.470647
  C    -20.168488   27.193840   48.386242
  O    -20.237015   25.977317   47.541891
  H    -20.389004   25.637309   45.521280
  H    -19.331230   27.819634   45.746531
  H    -20.992841   28.280308   45.292064
  H    -19.954794   29.260707   47.642508
  H    -21.619683   28.639591   47.621968
  H    -20.839412   27.068004   49.240219
  H    -19.137631   27.267970   48.745791
  C    -23.065586   25.147263   45.975686
  H    -23.306485   24.652109   46.925745
  H    -23.992025   25.566330   45.577922
  O    -22.236698   26.313501   46.278468
  C    -22.592522   24.060282   44.987218
  C    -21.355456   23.224223   45.364870
  C    -21.938477   22.256884   46.441450
  C    -23.375801   22.000518   45.921157
  O    -23.685065   23.080408   44.958219
  H    -22.490047   24.464100   43.975473
  O    -20.866386   22.507503   44.196090
  H    -20.499687   23.773980   45.741311
  H    -21.337433   21.347329   46.504598
  H    -21.938999   22.746336   47.420532
  H    -24.126612   22.011574   46.717389
  H    -23.459732   21.053783   45.378364
  H    -21.626884   22.111120   43.720365

 Multiplicity           Mult            ....    1
 Number of Electrons    NEL             ....  102
 Basis Dimension        Dim             ....  149

ORBITAL ENERGIES
----------------

  NO   OCC          E(Eh)            E(eV)
   0   2.0000     -19.150200      -521.1034
   1   2.0000     -19.141051      -520.8545
   2   2.0000     -19.140190      -520.8310
   3   2.0000     -19.137648      -520.7619
   4   2.0000     -10.278649      -279.6962
   5   2.0000     -10.242182      -278.7040
   6   2.0000     -10.240831      -278.6672
   7   2.0000     -10.234258      -278.4883
   8   2.0000     -10.230986      -278.3993
   9   2.0000     -10.223691      -278.2008
  10   2.0000     -10.189174      -277.2615
  11   2.0000     -10.182369      -277.0763
  12   2.0000     -10.181899      -277.0635
  13   2.0000      -1.050776       -28.5931
  14   2.0000      -1.041652       -28.3448
  15   2.0000      -1.009511       -27.4702
  16   2.0000      -0.991183       -26.9715
  17   2.0000      -0.786657       -21.4060
  18   2.0000      -0.778286       -21.1782
  19   2.0000      -0.767149       -20.8752
  20   2.0000      -0.735808       -20.0223
  21   2.0000      -0.675978       -18.3943
  22   2.0000      -0.607021       -16.5179
  23   2.0000      -0.604065       -16.4375
  24   2.0000      -0.595557       -16.2059
  25   2.0000      -0.576619       -15.6906
  26   2.0000      -0.524246       -14.2655
  27   2.0000      -0.521999       -14.2043
  28   2.0000      -0.498465       -13.5639
  29   2.0000      -0.479365       -13.0442
  30   2.0000      -0.470028       -12.7901
  31   2.0000      -0.459678       -12.5085
  32   2.0000      -0.450889       -12.2693
  33   2.0000      -0.429687       -11.6924
  34   2.0000      -0.425274       -11.5723
  35   2.0000      -0.421177       -11.4608
  36   2.0000      -0.399590       -10.8734
  37   2.0000      -0.394612       -10.7379
  38   2.0000      -0.373882       -10.1738
  39   2.0000      -0.370688       -10.0869
  40   2.0000      -0.364703        -9.9241
  41   2.0000      -0.353418        -9.6170
  42   2.0000      -0.346134        -9.4188
  43   2.0000      -0.332573        -9.0498
  44   2.0000      -0.320381        -8.7180
  45   2.0000      -0.311634        -8.4800
  46   2.0000      -0.302296        -8.2259
  47   2.0000      -0.273525        -7.4430
  48   2.0000      -0.268883        -7.3167
  49   2.0000      -0.247970        -6.7476
  50   2.0000      -0.245618        -6.6836
  51   0.0000       0.063289         1.7222
  52   0.0000       0.075116         2.0440
  53   0.0000       0.093771         2.5516
  54   0.0000       0.097887         2.6636
  55   0.0000       0.104492         2.8434

MULLIKEN ATOMIC CHARGES
-----------------------
   0 C :    0.278241
   1 C :   -0.250169
   2 C :   -0.295923
   3 C :   -0.000894
   4 O :   -0.518576
   5 H :    0.145970
   6 H :    0.142188
   7 H :    0.152636
   8 H :    0.137837
   9 H :    0.163551
  10 H :    0.147109
  11 H :    0.141513
  12 C :    0.023033
  13 H :    0.135850
  14 H :    0.165269
  15 O :   -0.534469
  16 C :    0.018964
  17 C :    0.079092
  18 C :   -0.304154
  19 C :   -0.033023
  20 O :   -0.522836
  21 H :    0.161758
  22 O :   -0.603838
  23 H :    0.181492
  24 H :    0.164971
  25 H :    0.162479
  26 H :    0.151727
  27 H :    0.145971
  28 H :    0.364228
Sum of atomic charges:   -0.0000000

LOEWDIN ATOMIC CHARGES
----------------------
   0 C :    0.168377
   1 C :   -0.214037
   2 C :   -0.215319
   3 C :   -0.026212
   4 O :   -0.333974
   5 H :    0.098735
   6 H :    0.111734
   7 H :    0.122143
   8 H :    0.112286
   9 H :    0.119904
  10 H :    0.105076
  11 H :    0.101893
  12 C :   -0.036508
  13 H :    0.098421
  14 H :    0.121699
  15 O :   -0.330944
  16 C :    0.004218
  17 C :    0.030823
  18 C :   -0.240182
  19 C :   -0.040218
  20 O :   -0.324991
  21 H :    0.114253
  22 O :   -0.415123
  23 H :    0.126317
  24 H :    0.128145
  25 H :    0.122266
  26 H :    0.106142
  27 H :    0.102651
  28 H :    0.282425

  Mayer bond orders larger than 0.100000
B(  0-C ,  1-C ) :   0.9447 B(  0-C ,  4-O ) :   0.9061 B(  0-C ,  5-H ) :   0.9085
B(  0-C , 15-O ) :   0.8631 B(  1-C ,  2-C ) :   0.9579 B(  1-C ,  6-H ) :   0.9409
B(  1-C ,  7-H ) :   0.9376 B(  2-C ,  3-C ) :   0.9547 B(  2-C ,  8-H ) :   0.9461
B(  2-C ,  9-H ) :   0.9435 B(  3-C ,  4-O ) :   0.8354 B(  3-C , 10-H ) :   0.9359
B(  3-C , 11-H ) :   0.9403 B( 12-C , 13-H ) :   0.9245 B( 12-C , 14-H ) :   0.9310
B( 12-C , 15-O ) :   0.8372 B( 12-C , 16-C ) :   0.8841 B( 16-C , 17-C ) :   0.9053
B( 16-C , 20-O ) :   0.8292 B( 16-C , 21-H ) :   0.9233 B( 17-C , 18-C ) :   0.9091
B( 17-C , 22-O ) :   0.8851 B( 17-C , 23-H ) :   0.9131 B( 18-C , 19-C ) :   0.9417
B( 18-C , 24-H ) :   0.9375 B( 18-C , 25-H ) :   0.9304 B( 19-C , 20-O ) :   0.8341
B( 19-C , 26-H ) :   0.9348 B( 19-C , 27-H ) :   0.9385 B( 22-O , 28-H ) :   0.7946

FINAL SINGLE POINT ENERGY      -652.855945390753

DIPOLE MOMENT
-------------
                                X             Y             Z
Electronic contribution:     -1.19925      -2.60670      -3.11990
Nuclear contribution   :      1.12664       2.83003       3.50471
                        -----------------------------------------
Total Dipole Moment    :     -0.07261       0.22333       0.38481
                        -----------------------------------------
Magnitude (a.u.)       :      0.45081
Magnitude (Debye)      :      1.14586

Rotational constants in cm-1:     0.055493     0.013498     0.013088
Rotational constants in MHz :  1663.636122   404.656479   392.356446

                             ****ORCA TERMINATED NORMALLY****
TOTAL RUN TIME: 0 days 1 hours 18 minutes 39 seconds 698 msec
