                         Program Version 4.2.1 -  RELEASE  -
|  1> # Test redundant internal optimization
|  2> #
|  3> ! RKS B3LYP  Opt TightSCF SmallPrint
|  4>
|  5> %basis
|  6>         Basis "6-31G"
|  7> end
|  8>
|  9> %geom
| 10> Constraints
| 11> { D 4  0  19  14  180.0   C } # D for Dihedral angle
| 12> { D 0  19  14  12  210.0   C } # D for Dihedral angle
| 13> { D 0  4  3  2   C } # D for Dihedral angle
| 14> { D 4  3  2  1   C } # D for Dihedral angle
| 15> { D 3  2  1  0   C } # D for Dihedral angle
| 16> { D 2  1  0  4   C } # D for Dihedral angle
| 17> { D 1  0  4  3   C } # D for Dihedral angle
| 18> { D 14  15  16  17   C } # D for Dihedral angle
| 19> { D 15  16  17  12   C } # D for Dihedral angle
| 20> { D 16  17  12  14   C } # D for Dihedral angle
| 21> { D 17  12  14  15   C } # D for Dihedral angle
| 22> { D 12  14  15  16   C } # D for Dihedral angle
| 23> end
| 24> end
| 25>
| 26>
| 27> #%pal
| 28> #nprocs 8
| 29> #end
| 30>
| 31> * xyz 0 1
| 32> C  -21.048   26.222   46.251
| 33> C  -20.361   27.558   45.944
| 34> C  -20.329   28.222   47.341
| 35> C  -20.110   27.022   48.296
| 36> O  -20.473   25.807   47.535
| 37> H  -20.833   25.428   45.533
| 38> H  -19.344   27.382   45.576
| 39> H  -20.898   28.157   45.201
| 40> H  -19.543   28.978   47.434
| 41> H  -21.289   28.710   47.548
| 42> H  -20.733   27.082   49.195
| 43> H  -19.064   26.913   48.597
| 44> C  -24.369   27.619   45.476
| 45> H  -25.037   27.697   44.604
| 46> C  -23.122   26.788   45.152
| 47> C  -22.254   27.811   44.383
| 48> C  -22.577   29.150   45.092
| 49> O  -23.840   28.940   45.834
| 50> H  -24.941   27.261   46.334
| 51> O  -22.472   26.381   46.366
| 52> H  -23.345   25.892   44.562
| 53> H  -21.187   27.569   44.411
| 54> H  -22.560   27.849   43.329
| 55> H  -22.708   29.978   44.387
| 56> H  -21.814   29.427   45.827
| 57> *
| 58>
| 59>                          ****END OF INPUT****
 Total Charge           Charge          ....    0
 Multiplicity           Mult            ....    1
 Number of Electrons    NEL             ....   86
FINAL SINGLE POINT ENERGY      -538.318022304460
FINAL SINGLE POINT ENERGY      -538.413337312815
FINAL SINGLE POINT ENERGY      -538.417975321521
FINAL SINGLE POINT ENERGY      -538.419417864602
FINAL SINGLE POINT ENERGY      -538.419864330564
FINAL SINGLE POINT ENERGY      -538.420006867516
FINAL SINGLE POINT ENERGY      -538.420029005631
FINAL SINGLE POINT ENERGY      -538.420035860898
                    ***********************HURRAY********************

CARTESIAN COORDINATES (ANGSTROEM)
---------------------------------
  C    -20.833160   26.212896   46.230017
  C    -20.013795   27.498276   46.100559
  C    -20.228482   28.164634   47.488404
  C    -20.290848   26.945875   48.431806
  O    -20.568332   25.775364   47.568351
  H    -20.546919   25.404871   45.549358
  H    -18.960395   27.216024   45.974179
  H    -20.286442   28.145636   45.270725
  H    -19.424134   28.858786   47.748098
  H    -21.180303   28.704657   47.494300
  H    -21.084908   27.021950   49.178995
  H    -19.338262   26.746255   48.932523
  C    -24.268183   27.618600   45.677668
  H    -25.138113   27.603232   45.005593
  C    -23.086355   26.867481   45.063235
  C    -22.536614   27.912039   44.077013
  C    -22.770863   29.259655   44.805805
  O    -23.779407   28.993524   45.856991
  H    -24.538531   27.229303   46.658174
  O    -22.279355   26.418237   46.196652
  H    -23.413912   25.969409   44.519510
  H    -21.503104   27.745289   43.770171
  H    -23.153682   27.857850   43.172952
  H    -23.151512   30.034635   44.130942
  H    -21.875389   29.638523   45.305979

 Multiplicity           Mult            ....    1
 Number of Electrons    NEL             ....   86
 Basis Dimension        Dim             ....  127

ORBITAL ENERGIES
----------------

  NO   OCC          E(Eh)            E(eV)
   0   2.0000     -19.136868      -520.7407
   1   2.0000     -19.134068      -520.6645
   2   2.0000     -19.133219      -520.6413
   3   2.0000     -10.281232      -279.7666
   4   2.0000     -10.243687      -278.7449
   5   2.0000     -10.228583      -278.3339
   6   2.0000     -10.221344      -278.1369
   7   2.0000     -10.221188      -278.1327
   8   2.0000     -10.196137      -277.4510
   9   2.0000     -10.187000      -277.2024
  10   2.0000     -10.183383      -277.1039
  11   2.0000      -1.049954       -28.5707
  12   2.0000      -1.016404       -27.6577
  13   2.0000      -0.982652       -26.7393
  14   2.0000      -0.789069       -21.4717
  15   2.0000      -0.783970       -21.3329
  16   2.0000      -0.748441       -20.3661
  17   2.0000      -0.720405       -19.6032
  18   2.0000      -0.616958       -16.7883
  19   2.0000      -0.605839       -16.4857
  20   2.0000      -0.594895       -16.1879
  21   2.0000      -0.570145       -15.5144
  22   2.0000      -0.514320       -13.9953
  23   2.0000      -0.504096       -13.7171
  24   2.0000      -0.493207       -13.4209
  25   2.0000      -0.487519       -13.2661
  26   2.0000      -0.454000       -12.3540
  27   2.0000      -0.446446       -12.1484
  28   2.0000      -0.419314       -11.4101
  29   2.0000      -0.418939       -11.3999
  30   2.0000      -0.407657       -11.0929
  31   2.0000      -0.391683       -10.6582
  32   2.0000      -0.378854       -10.3091
  33   2.0000      -0.370503       -10.0819
  34   2.0000      -0.364843        -9.9279
  35   2.0000      -0.351310        -9.5596
  36   2.0000      -0.346015        -9.4156
  37   2.0000      -0.312060        -8.4916
  38   2.0000      -0.307324        -8.3627
  39   2.0000      -0.290423        -7.9028
  40   2.0000      -0.255438        -6.9508
  41   2.0000      -0.249184        -6.7806
  42   2.0000      -0.240163        -6.5352
  43   0.0000       0.074734         2.0336
  44   0.0000       0.085102         2.3157
  45   0.0000       0.099751         2.7144
  46   0.0000       0.107722         2.9313
  47   0.0000       0.115384         3.1398

MULLIKEN ATOMIC CHARGES
-----------------------
   0 C :    0.310561
   1 C :   -0.280307
   2 C :   -0.312830
   3 C :    0.000956
   4 O :   -0.496470
   5 H :    0.137623
   6 H :    0.145589
   7 H :    0.135932
   8 H :    0.139807
   9 H :    0.181427
  10 H :    0.156567
  11 H :    0.140601
  12 C :   -0.002715
  13 H :    0.124703
  14 C :    0.100417
  15 C :   -0.323614
  16 C :   -0.005020
  17 O :   -0.521791
  18 H :    0.176883
  19 O :   -0.526990
  20 H :    0.131215
  21 H :    0.149176
  22 H :    0.151426
  23 H :    0.140151
  24 H :    0.146702
Sum of atomic charges:    0.0000000

LOEWDIN ATOMIC CHARGES
----------------------
   0 C :    0.189774
   1 C :   -0.234125
   2 C :   -0.220465
   3 C :   -0.024717
   4 O :   -0.300931
   5 H :    0.095555
   6 H :    0.114982
   7 H :    0.111455
   8 H :    0.113574
   9 H :    0.125445
  10 H :    0.110415
  11 H :    0.101315
  12 C :   -0.033581
  13 H :    0.090792
  14 C :    0.043818
  15 C :   -0.242174
  16 C :   -0.032919
  17 O :   -0.331179
  18 H :    0.127867
  19 O :   -0.339780
  20 H :    0.096592
  21 H :    0.116907
  22 H :    0.120731
  23 H :    0.100055
  24 H :    0.100595

  Mayer bond orders larger than 0.100000
B(  0-C ,  1-C ) :   0.9279 B(  0-C ,  4-O ) :   0.9405 B(  0-C ,  5-H ) :   0.9221
B(  0-C , 19-O ) :   0.8302 B(  1-C ,  2-C ) :   0.9507 B(  1-C ,  6-H ) :   0.9326
B(  1-C ,  7-H ) :   0.9196 B(  2-C ,  3-C ) :   0.9531 B(  2-C ,  8-H ) :   0.9443
B(  2-C ,  9-H ) :   0.9325 B(  3-C ,  4-O ) :   0.8310 B(  3-C , 10-H ) :   0.9347
B(  3-C , 11-H ) :   0.9398 B( 12-C , 13-H ) :   0.9161 B( 12-C , 14-C ) :   0.9262
B( 12-C , 17-O ) :   0.8611 B( 12-C , 18-H ) :   0.9294 B( 14-C , 15-C ) :   0.9285
B( 14-C , 19-O ) :   0.8512 B( 14-C , 20-H ) :   0.9244 B( 15-C , 16-C ) :   0.9417
B( 15-C , 21-H ) :   0.9295 B( 15-C , 22-H ) :   0.9320 B( 16-C , 17-O ) :   0.8625
B( 16-C , 23-H ) :   0.9321 B( 16-C , 24-H ) :   0.9262

FINAL SINGLE POINT ENERGY      -538.420036862083

DIPOLE MOMENT
-------------
                                X             Y             Z
Electronic contribution:     -2.03793      -3.51718       1.98007
Nuclear contribution   :      2.61591       3.96398      -3.11291
                        -----------------------------------------
Total Dipole Moment    :      0.57798       0.44680      -1.13284
                        -----------------------------------------
Magnitude (a.u.)       :      1.34796
Magnitude (Debye)      :      3.42625

Rotational constants in cm-1:     0.066963     0.025401     0.024056
Rotational constants in MHz :  2007.486564   761.515807   721.187199

                             ****ORCA TERMINATED NORMALLY****
TOTAL RUN TIME: 0 days 0 hours 20 minutes 41 seconds 437 msec
