                         Program Version 4.2.0 -  RELEASE  -
|  1> # Test redundant internal optimization
|  2> #
|  3> ! RKS B3LYP  Opt TightSCF SmallPrint
|  4>
|  5> %basis
|  6>         Basis "6-31G"
|  7> end
|  8>
|  9> %geom
| 10> Constraints
| 11> { D 4  0  15  12  330.0   C } # D for Dihedral angle
| 12> { D 0  15  12  16  180.0   C } # D for Dihedral angle
| 13> { D 0  4  3  2   C } # D for Dihedral angle
| 14> { D 4  3  2  1   C } # D for Dihedral angle
| 15> { D 3  2  1  0   C } # D for Dihedral angle
| 16> { D 2  1  0  4   C } # D for Dihedral angle
| 17> { D 1  0  4  3   C } # D for Dihedral angle
| 18> { D 16  20  19  18   C } # D for Dihedral angle
| 19> { D 20  19  18  17   C } # D for Dihedral angle
| 20> { D 19  18  17  16   C } # D for Dihedral angle
| 21> { D 18  17  16  20   C } # D for Dihedral angle
| 22> { D 17  16  20  19   C } # D for Dihedral angle
| 23> { D 15  12  16  20   C } # D for Dihedral angle
| 24> end
| 25> end
| 26>
| 27>
| 28> #%pal
| 29> #nprocs 8
| 30> #end
| 31>
| 32> * xyz 0 1
| 33> C  -21.048   26.222   46.251
| 34> C  -20.361   27.558   45.944
| 35> C  -20.329   28.222   47.341
| 36> C  -20.110   27.022   48.296
| 37> O  -20.473   25.807   47.535
| 38> H  -20.833   25.428   45.533
| 39> H  -19.344   27.382   45.576
| 40> H  -20.898   28.157   45.201
| 41> H  -19.543   28.978   47.434
| 42> H  -21.289   28.710   47.548
| 43> H  -20.733   27.082   49.195
| 44> H  -19.064   26.913   48.597
| 45> C  -23.271   25.476   47.424
| 46> H  -23.084   24.426   47.163
| 47> H  -22.857   25.659   48.424
| 48> O  -22.586   26.394   46.375
| 49> C  -24.807   25.694   47.501
| 50> C  -25.148   27.164   47.775
| 51> C  -24.974   27.792   46.371
| 52> C  -25.458   26.668   45.421
| 53> O  -25.431   25.414   46.204
| 54> H  -25.233   24.991   48.220
| 55> H  -26.186   27.252   48.112
| 56> O  -24.228   27.815   48.843
| 57> H  -25.545   28.718   46.246
| 58> H  -23.918   28.022   46.190
| 59> H  -24.815   26.556   44.541
| 60> H  -26.490   26.817   45.088
| 61> H  -23.183   27.738   48.526
| 62> *
| 63>
| 64>                          ****END OF INPUT****
 Total Charge           Charge          ....    0
 Multiplicity           Mult            ....    1
 Number of Electrons    NEL             ....  102
FINAL SINGLE POINT ENERGY      -652.835505376440
FINAL SINGLE POINT ENERGY      -652.858668088481
FINAL SINGLE POINT ENERGY      -652.863144772953
FINAL SINGLE POINT ENERGY      -652.864420616713
FINAL SINGLE POINT ENERGY      -652.864548650737
FINAL SINGLE POINT ENERGY      -652.864571968555
FINAL SINGLE POINT ENERGY      -652.864572072963
                    ***********************HURRAY********************

CARTESIAN COORDINATES (ANGSTROEM)
---------------------------------
  C    -21.065340   26.148854   46.319251
  C    -20.450284   27.504378   45.971885
  C    -20.374805   28.181201   47.358987
  C    -20.061501   27.005133   48.310671
  O    -20.422080   25.770783   47.556939
  H    -20.851499   25.338204   45.615768
  H    -19.449226   27.347172   45.555688
  H    -21.051808   28.060471   45.249545
  H    -19.611678   28.964122   47.404322
  H    -21.338507   28.640708   47.603736
  H    -20.636714   27.031730   49.240246
  H    -18.997648   26.923418   48.548924
  C    -23.173853   25.460268   47.427014
  H    -23.001844   24.402110   47.190736
  H    -22.770670   25.653498   48.426685
  O    -22.506652   26.297699   46.431192
  C    -24.674605   25.728058   47.426075
  C    -25.098194   27.170874   47.755476
  C    -25.008884   27.858954   46.357414
  C    -25.453285   26.731562   45.399751
  O    -25.320238   25.457151   46.149509
  H    -25.110650   25.021531   48.142959
  H    -26.122025   27.178981   48.135298
  O    -24.310936   27.809252   48.791216
  H    -25.646998   28.745152   46.293951
  H    -23.971602   28.141623   46.166172
  H    -24.832261   26.674265   44.501839
  H    -26.504326   26.818797   45.108334
  H    -23.420888   28.011051   48.435419

 Multiplicity           Mult            ....    1
 Number of Electrons    NEL             ....  102
 Basis Dimension        Dim             ....  149

ORBITAL ENERGIES
----------------

  NO   OCC          E(Eh)            E(eV)
   0   2.0000     -19.154790      -521.2283
   1   2.0000     -19.149442      -521.0828
   2   2.0000     -19.140735      -520.8459
   3   2.0000     -19.130301      -520.5619
   4   2.0000     -10.286147      -279.9003
   5   2.0000     -10.238305      -278.5985
   6   2.0000     -10.235407      -278.5196
   7   2.0000     -10.227942      -278.3164
   8   2.0000     -10.225973      -278.2629
   9   2.0000     -10.218707      -278.0652
  10   2.0000     -10.200585      -277.5720
  11   2.0000     -10.195728      -277.4399
  12   2.0000     -10.177889      -276.9544
  13   2.0000      -1.062803       -28.9203
  14   2.0000      -1.026282       -27.9265
  15   2.0000      -1.008783       -27.4504
  16   2.0000      -0.997420       -27.1412
  17   2.0000      -0.800229       -21.7753
  18   2.0000      -0.772301       -21.0154
  19   2.0000      -0.764581       -20.8053
  20   2.0000      -0.736836       -20.0503
  21   2.0000      -0.675483       -18.3808
  22   2.0000      -0.611898       -16.6506
  23   2.0000      -0.600274       -16.3343
  24   2.0000      -0.598220       -16.2784
  25   2.0000      -0.566047       -15.4029
  26   2.0000      -0.526536       -14.3278
  27   2.0000      -0.515493       -14.0273
  28   2.0000      -0.502947       -13.6859
  29   2.0000      -0.491401       -13.3717
  30   2.0000      -0.470357       -12.7991
  31   2.0000      -0.459948       -12.5158
  32   2.0000      -0.445603       -12.1255
  33   2.0000      -0.424499       -11.5512
  34   2.0000      -0.421189       -11.4611
  35   2.0000      -0.417976       -11.3737
  36   2.0000      -0.404534       -11.0079
  37   2.0000      -0.398483       -10.8433
  38   2.0000      -0.384236       -10.4556
  39   2.0000      -0.369942       -10.0666
  40   2.0000      -0.366725        -9.9791
  41   2.0000      -0.358858        -9.7650
  42   2.0000      -0.352474        -9.5913
  43   2.0000      -0.338944        -9.2231
  44   2.0000      -0.322161        -8.7665
  45   2.0000      -0.307952        -8.3798
  46   2.0000      -0.306163        -8.3311
  47   2.0000      -0.269905        -7.3445
  48   2.0000      -0.264669        -7.2020
  49   2.0000      -0.258679        -7.0390
  50   2.0000      -0.236808        -6.4439
  51   0.0000       0.036658         0.9975
  52   0.0000       0.083422         2.2700
  53   0.0000       0.091781         2.4975
  54   0.0000       0.096909         2.6370
  55   0.0000       0.101805         2.7702

MULLIKEN ATOMIC CHARGES
-----------------------
   0 C :    0.304277
   1 C :   -0.264206
   2 C :   -0.307566
   3 C :   -0.017140
   4 O :   -0.509521
   5 H :    0.156955
   6 H :    0.151541
   7 H :    0.159662
   8 H :    0.152905
   9 H :    0.142681
  10 H :    0.149970
  11 H :    0.154216
  12 C :   -0.004109
  13 H :    0.150415
  14 H :    0.146497
  15 O :   -0.549943
  16 C :    0.082267
  17 C :    0.080100
  18 C :   -0.310442
  19 C :    0.001707
  20 O :   -0.520955
  21 H :    0.152473
  22 H :    0.162117
  23 O :   -0.612207
  24 H :    0.141143
  25 H :    0.158227
  26 H :    0.145798
  27 H :    0.138431
  28 H :    0.364706
Sum of atomic charges:   -0.0000000

LOEWDIN ATOMIC CHARGES
----------------------
   0 C :    0.179275
   1 C :   -0.215909
   2 C :   -0.217104
   3 C :   -0.032155
   4 O :   -0.320590
   5 H :    0.102411
   6 H :    0.117892
   7 H :    0.124789
   8 H :    0.119685
   9 H :    0.104652
  10 H :    0.105125
  11 H :    0.109148
  12 C :   -0.044033
  13 H :    0.108297
  14 H :    0.104852
  15 O :   -0.343833
  16 C :    0.018185
  17 C :    0.037721
  18 C :   -0.242932
  19 C :   -0.023989
  20 O :   -0.322869
  21 H :    0.115615
  22 H :    0.115981
  23 O :   -0.411475
  24 H :    0.113741
  25 H :    0.117808
  26 H :    0.105198
  27 H :    0.099725
  28 H :    0.274790

  Mayer bond orders larger than 0.100000
B(  0-C ,  1-C ) :   0.9448 B(  0-C ,  4-O ) :   0.9025 B(  0-C ,  5-H ) :   0.9219
B(  0-C , 15-O ) :   0.8406 B(  1-C ,  2-C ) :   0.9521 B(  1-C ,  6-H ) :   0.9366
B(  1-C ,  7-H ) :   0.9354 B(  2-C ,  3-C ) :   0.9528 B(  2-C ,  8-H ) :   0.9435
B(  2-C ,  9-H ) :   0.9404 B(  3-C ,  4-O ) :   0.8334 B(  3-C , 10-H ) :   0.9323
B(  3-C , 11-H ) :   0.9396 B( 12-C , 13-H ) :   0.9232 B( 12-C , 14-H ) :   0.9023
B( 12-C , 15-O ) :   0.8138 B( 12-C , 16-C ) :   0.9156 B( 16-C , 17-C ) :   0.8860
B( 16-C , 20-O ) :   0.8764 B( 16-C , 21-H ) :   0.9283 B( 17-C , 18-C ) :   0.9336
B( 17-C , 22-H ) :   0.9363 B( 17-C , 23-O ) :   0.8978 B( 18-C , 19-C ) :   0.9471
B( 18-C , 24-H ) :   0.9410 B( 18-C , 25-H ) :   0.9277 B( 19-C , 20-O ) :   0.8398
B( 19-C , 26-H ) :   0.9325 B( 19-C , 27-H ) :   0.9381 B( 23-O , 28-H ) :   0.7830

FINAL SINGLE POINT ENERGY      -652.864557964493

DIPOLE MOMENT
-------------
                                X             Y             Z
Electronic contribution:     -2.22075      -4.39406       0.55081
Nuclear contribution   :      3.14693       5.35579      -0.85459
                        -----------------------------------------
Total Dipole Moment    :      0.92618       0.96173      -0.30378
                        -----------------------------------------
Magnitude (a.u.)       :      1.36931
Magnitude (Debye)      :      3.48051

Rotational constants in cm-1:     0.046479     0.016864     0.016005
Rotational constants in MHz :  1393.409514   505.568742   479.810482

                             ****ORCA TERMINATED NORMALLY****
TOTAL RUN TIME: 0 days 0 hours 23 minutes 8 seconds 947 msec
