                         Program Version 4.2.0 -  RELEASE  -
|  1> # Test redundant internal optimization
|  2> #
|  3> ! RKS B3LYP  Opt TightSCF SmallPrint
|  4>
|  5> %basis
|  6>         Basis "6-31G"
|  7> end
|  8>
|  9> %geom
| 10> Constraints
| 11> { D 4  0  15  12  30.0   C } # D for Dihedral angle
| 12> { D 0  15  12  16  120.0   C } # D for Dihedral angle
| 13> { D 0  4  3  2   C } # D for Dihedral angle
| 14> { D 4  3  2  1   C } # D for Dihedral angle
| 15> { D 3  2  1  0   C } # D for Dihedral angle
| 16> { D 2  1  0  4   C } # D for Dihedral angle
| 17> { D 1  0  4  3   C } # D for Dihedral angle
| 18> { D 16  20  19  18   C } # D for Dihedral angle
| 19> { D 20  19  18  17   C } # D for Dihedral angle
| 20> { D 19  18  17  16   C } # D for Dihedral angle
| 21> { D 18  17  16  20   C } # D for Dihedral angle
| 22> { D 17  16  20  19   C } # D for Dihedral angle
| 23> { D 15  12  16  20   C } # D for Dihedral angle
| 24> end
| 25> end
| 26>
| 27>
| 28> #%pal
| 29> #nprocs 8
| 30> #end
| 31>
| 32> * xyz 0 1
| 33> C  -21.048   26.222   46.251
| 34> C  -20.361   27.558   45.944
| 35> C  -20.329   28.222   47.341
| 36> C  -20.110   27.022   48.296
| 37> O  -20.473   25.807   47.535
| 38> H  -20.833   25.428   45.533
| 39> H  -19.344   27.382   45.576
| 40> H  -20.898   28.157   45.201
| 41> H  -19.543   28.978   47.434
| 42> H  -21.289   28.710   47.548
| 43> H  -20.733   27.082   49.195
| 44> H  -19.064   26.913   48.597
| 45> C  -23.091   26.824   47.779
| 46> H  -23.767   26.054   48.172
| 47> H  -22.249   26.928   48.475
| 48> O  -22.586   26.394   46.375
| 49> C  -23.854   28.177   47.755
| 50> C  -25.147   28.073   46.937
| 51> C  -26.098   27.378   47.941
| 52> C  -25.658   27.966   49.305
| 53> O  -24.308   28.534   49.103
| 54> H  -23.174   28.966   47.427
| 55> O  -25.667   29.492   46.580
| 56> H  -25.024   27.507   46.007
| 57> H  -27.154   27.568   47.726
| 58> H  -25.941   26.293   47.918
| 59> H  -25.613   27.207   50.094
| 60> H  -26.306   28.782   49.637
| 61> H  -25.799   30.078   47.497
| 62> *
| 63>
| 64>                          ****END OF INPUT****
 Total Charge           Charge          ....    0
 Multiplicity           Mult            ....    1
 Number of Electrons    NEL             ....  102
FINAL SINGLE POINT ENERGY      -652.825885968147
FINAL SINGLE POINT ENERGY      -652.850056735296
FINAL SINGLE POINT ENERGY      -652.857481005817
FINAL SINGLE POINT ENERGY      -652.859631996521
FINAL SINGLE POINT ENERGY      -652.859915908679
FINAL SINGLE POINT ENERGY      -652.859972013248
FINAL SINGLE POINT ENERGY      -652.859977927840
                    ***********************HURRAY********************

CARTESIAN COORDINATES (ANGSTROEM)
---------------------------------
  C    -21.176527   26.318355   46.394685
  C    -20.473252   27.608129   45.957919
  C    -20.123992   28.262299   47.322547
  C    -19.806814   27.040277   48.217003
  O    -20.403941   25.864901   47.525511
  H    -21.126528   25.524835   45.646858
  H    -19.562761   27.347431   45.406655
  H    -21.107821   28.231925   45.324497
  H    -19.276045   28.950320   47.253319
  H    -20.978083   28.827249   47.709511
  H    -20.226175   27.113852   49.224507
  H    -18.733241   26.843091   48.292412
  C    -23.136661   26.797377   47.944488
  H    -23.794424   25.975486   48.250869
  H    -22.352578   26.885949   48.698826
  O    -22.603121   26.459531   46.632380
  C    -23.918688   28.107761   47.849526
  C    -25.147381   28.062552   46.929743
  C    -26.197360   27.384930   47.845053
  C    -25.849452   27.932959   49.251994
  O    -24.462730   28.459199   49.166849
  H    -23.249829   28.921331   47.553001
  O    -25.551215   29.404154   46.537820
  H    -24.960377   27.526365   46.000666
  H    -27.210949   27.641605   47.527347
  H    -26.090513   26.295396   47.803579
  H    -25.890190   27.165585   50.031063
  H    -26.492380   28.767378   49.549970
  H    -25.557973   29.981779   47.330401

 Multiplicity           Mult            ....    1
 Number of Electrons    NEL             ....  102
 Basis Dimension        Dim             ....  149

ORBITAL ENERGIES
----------------

  NO   OCC          E(Eh)            E(eV)
   0   2.0000     -19.150730      -521.1179
   1   2.0000     -19.145585      -520.9778
   2   2.0000     -19.142157      -520.8846
   3   2.0000     -19.135323      -520.6986
   4   2.0000     -10.281185      -279.7653
   5   2.0000     -10.235244      -278.5152
   6   2.0000     -10.234345      -278.4907
   7   2.0000     -10.232586      -278.4428
   8   2.0000     -10.232312      -278.4354
   9   2.0000     -10.230096      -278.3751
  10   2.0000     -10.194619      -277.4097
  11   2.0000     -10.188362      -277.2394
  12   2.0000     -10.187613      -277.2190
  13   2.0000      -1.055512       -28.7219
  14   2.0000      -1.036032       -28.1919
  15   2.0000      -1.004545       -27.3350
  16   2.0000      -0.996338       -27.1117
  17   2.0000      -0.791385       -21.5347
  18   2.0000      -0.781312       -21.2606
  19   2.0000      -0.770469       -20.9655
  20   2.0000      -0.734655       -19.9910
  21   2.0000      -0.676037       -18.3959
  22   2.0000      -0.606159       -16.4944
  23   2.0000      -0.604470       -16.4485
  24   2.0000      -0.598417       -16.2838
  25   2.0000      -0.575954       -15.6725
  26   2.0000      -0.528097       -14.3702
  27   2.0000      -0.509283       -13.8583
  28   2.0000      -0.502084       -13.6624
  29   2.0000      -0.494441       -13.4544
  30   2.0000      -0.473671       -12.8892
  31   2.0000      -0.459157       -12.4943
  32   2.0000      -0.448830       -12.2133
  33   2.0000      -0.437684       -11.9100
  34   2.0000      -0.425448       -11.5770
  35   2.0000      -0.418559       -11.3896
  36   2.0000      -0.404480       -11.0065
  37   2.0000      -0.392489       -10.6802
  38   2.0000      -0.380258       -10.3474
  39   2.0000      -0.366876        -9.9832
  40   2.0000      -0.362720        -9.8701
  41   2.0000      -0.355934        -9.6854
  42   2.0000      -0.351454        -9.5636
  43   2.0000      -0.337823        -9.1926
  44   2.0000      -0.323904        -8.8139
  45   2.0000      -0.314491        -8.5577
  46   2.0000      -0.303258        -8.2521
  47   2.0000      -0.274364        -7.4658
  48   2.0000      -0.266244        -7.2449
  49   2.0000      -0.258657        -7.0384
  50   2.0000      -0.239265        -6.5107
  51   0.0000       0.064563         1.7568
  52   0.0000       0.066387         1.8065
  53   0.0000       0.087456         2.3798
  54   0.0000       0.098954         2.6927
  55   0.0000       0.100447         2.7333

MULLIKEN ATOMIC CHARGES
-----------------------
   0 C :    0.302190
   1 C :   -0.264143
   2 C :   -0.319370
   3 C :   -0.024601
   4 O :   -0.507261
   5 H :    0.164195
   6 H :    0.149764
   7 H :    0.158968
   8 H :    0.151120
   9 H :    0.157248
  10 H :    0.150582
  11 H :    0.152933
  12 C :   -0.015173
  13 H :    0.141651
  14 H :    0.159842
  15 O :   -0.538166
  16 C :    0.058105
  17 C :    0.089331
  18 C :   -0.301709
  19 C :   -0.037303
  20 O :   -0.528343
  21 H :    0.155836
  22 O :   -0.603738
  23 H :    0.176934
  24 H :    0.160691
  25 H :    0.153484
  26 H :    0.149727
  27 H :    0.147269
  28 H :    0.359937
Sum of atomic charges:   -0.0000000

LOEWDIN ATOMIC CHARGES
----------------------
   0 C :    0.182167
   1 C :   -0.226952
   2 C :   -0.223375
   3 C :   -0.035649
   4 O :   -0.316894
   5 H :    0.111003
   6 H :    0.117437
   7 H :    0.124078
   8 H :    0.119342
   9 H :    0.112397
  10 H :    0.103291
  11 H :    0.107300
  12 C :   -0.038276
  13 H :    0.103251
  14 H :    0.113266
  15 O :   -0.336947
  16 C :    0.009295
  17 C :    0.037540
  18 C :   -0.241964
  19 C :   -0.039897
  20 O :   -0.333622
  21 H :    0.108717
  22 O :   -0.415170
  23 H :    0.128351
  24 H :    0.126271
  25 H :    0.117289
  26 H :    0.105349
  27 H :    0.102418
  28 H :    0.279984

  Mayer bond orders larger than 0.100000
B(  0-C ,  1-C ) :   0.9180 B(  0-C ,  4-O ) :   0.9155 B(  0-C ,  5-H ) :   0.9346
B(  0-C , 15-O ) :   0.8621 B(  1-C ,  2-C ) :   0.9542 B(  1-C ,  6-H ) :   0.9340
B(  1-C ,  7-H ) :   0.9358 B(  2-C ,  3-C ) :   0.9495 B(  2-C ,  8-H ) :   0.9444
B(  2-C ,  9-H ) :   0.9365 B(  3-C ,  4-O ) :   0.8327 B(  3-C , 10-H ) :   0.9285
B(  3-C , 11-H ) :   0.9391 B( 12-C , 13-H ) :   0.9334 B( 12-C , 14-H ) :   0.9104
B( 12-C , 15-O ) :   0.8230 B( 12-C , 16-C ) :   0.8886 B( 16-C , 17-C ) :   0.9106
B( 16-C , 20-O ) :   0.8422 B( 16-C , 21-H ) :   0.9195 B( 17-C , 18-C ) :   0.9140
B( 17-C , 22-O ) :   0.8871 B( 17-C , 23-H ) :   0.9240 B( 18-C , 19-C ) :   0.9418
B( 18-C , 24-H ) :   0.9378 B( 18-C , 25-H ) :   0.9329 B( 19-C , 20-O ) :   0.8435
B( 19-C , 26-H ) :   0.9350 B( 19-C , 27-H ) :   0.9376 B( 22-O , 28-H ) :   0.7979

FINAL SINGLE POINT ENERGY      -652.859978891659

DIPOLE MOMENT
-------------
                                X             Y             Z
Electronic contribution:     -1.10145      -1.20925      -0.92934
Nuclear contribution   :      1.35975       1.46274       1.34417
                        -----------------------------------------
Total Dipole Moment    :      0.25830       0.25348       0.41483
                        -----------------------------------------
Magnitude (a.u.)       :      0.55050
Magnitude (Debye)      :      1.39926

Rotational constants in cm-1:     0.053113     0.013904     0.013404
Rotational constants in MHz :  1592.282767   416.838719   401.838132

                             ****ORCA TERMINATED NORMALLY****
TOTAL RUN TIME: 0 days 0 hours 24 minutes 48 seconds 338 msec
