                         Program Version 4.2.0 -  RELEASE  -
|  1> # Test redundant internal optimization
|  2> #
|  3> ! RKS B3LYP  Opt TightSCF SmallPrint
|  4>
|  5> %basis
|  6>         Basis "6-31G"
|  7> end
|  8>
|  9> %geom
| 10> Constraints
| 11> { D 4  0  15  12  315.0   C } # D for Dihedral angle
| 12> { D 0  15  12  16  285.0   C } # D for Dihedral angle
| 13> { D 0  4  3  2   C } # D for Dihedral angle
| 14> { D 4  3  2  1   C } # D for Dihedral angle
| 15> { D 3  2  1  0   C } # D for Dihedral angle
| 16> { D 2  1  0  4   C } # D for Dihedral angle
| 17> { D 1  0  4  3   C } # D for Dihedral angle
| 18> { D 16  20  19  18   C } # D for Dihedral angle
| 19> { D 20  19  18  17   C } # D for Dihedral angle
| 20> { D 19  18  17  16   C } # D for Dihedral angle
| 21> { D 18  17  16  20   C } # D for Dihedral angle
| 22> { D 17  16  20  19   C } # D for Dihedral angle
| 23> { D 15  12  16  20   C } # D for Dihedral angle
| 24> end
| 25> end
| 26>
| 27>
| 28> #%pal
| 29> #nprocs 8
| 30> #end
| 31>
| 32> * xyz 0 1
| 33> C  -21.048   26.222   46.251
| 34> C  -20.361   27.558   45.944
| 35> C  -20.329   28.222   47.341
| 36> C  -20.110   27.022   48.296
| 37> O  -20.473   25.807   47.535
| 38> H  -20.833   25.428   45.533
| 39> H  -19.344   27.382   45.576
| 40> H  -20.898   28.157   45.201
| 41> H  -19.543   28.978   47.434
| 42> H  -21.289   28.710   47.548
| 43> H  -20.733   27.082   49.195
| 44> H  -19.064   26.913   48.597
| 45> C  -23.319   25.255   47.135
| 46> H  -22.764   25.015   48.051
| 47> H  -24.330   25.572   47.420
| 48> O  -22.586   26.394   46.375
| 49> C  -23.451   23.957   46.290
| 50> C  -24.140   24.234   44.949
| 51> C  -22.981   24.839   44.120
| 52> C  -21.743   24.057   44.625
| 53> O  -22.126   23.451   45.918
| 54> H  -23.931   23.185   46.893
| 55> H  -24.484   23.295   44.503
| 56> O  -25.355   25.193   45.073
| 57> H  -23.130   24.733   43.041
| 58> H  -22.879   25.909   44.341
| 59> H  -20.871   24.703   44.775
| 60> H  -21.464   23.238   43.955
| 61> H  -25.033   26.140   45.518
| 62> *
| 63>
| 64>                          ****END OF INPUT****
 Total Charge           Charge          ....    0
 Multiplicity           Mult            ....    1
 Number of Electrons    NEL             ....  102
FINAL SINGLE POINT ENERGY      -652.791679117076
FINAL SINGLE POINT ENERGY      -652.838329118025
FINAL SINGLE POINT ENERGY      -652.857601961248
FINAL SINGLE POINT ENERGY      -652.861290390204
FINAL SINGLE POINT ENERGY      -652.861786907172
FINAL SINGLE POINT ENERGY      -652.861930510950
FINAL SINGLE POINT ENERGY      -652.861966437449
FINAL SINGLE POINT ENERGY      -652.861982829295
FINAL SINGLE POINT ENERGY      -652.861987531756
                    ***********************HURRAY********************

CARTESIAN COORDINATES (ANGSTROEM)
---------------------------------
  C    -20.947397   26.367253   46.311536
  C    -20.390712   27.779817   46.135663
  C    -20.395556   28.304026   47.589576
  C    -20.054993   27.047875   48.419132
  O    -20.326826   25.887296   47.525277
  H    -20.682350   25.650566   45.537409
  H    -19.371351   27.717474   45.738210
  H    -21.000986   28.383693   45.460295
  H    -19.674941   29.112259   47.747031
  H    -21.392917   28.675547   47.841309
  H    -20.663500   26.948257   49.321614
  H    -18.996867   26.987931   48.689318
  C    -23.121882   25.391855   47.066431
  H    -22.608603   25.136169   47.999310
  H    -24.105428   25.808114   47.300563
  O    -22.390589   26.491134   46.434869
  C    -23.336165   24.100620   46.267087
  C    -24.194395   24.248200   44.997484
  C    -23.114795   24.552733   43.911855
  C    -21.914916   23.701982   44.383029
  O    -22.159989   23.372158   45.811077
  H    -23.833481   23.424281   46.975591
  H    -24.709939   23.309716   44.782892
  O    -25.244514   25.238911   45.087275
  H    -23.449798   24.293902   42.904149
  H    -22.879954   25.622809   43.942614
  H    -20.953443   24.214680   44.285442
  H    -21.850104   22.747552   43.852032
  H    -24.845610   26.134191   45.114930

 Multiplicity           Mult            ....    1
 Number of Electrons    NEL             ....  102
 Basis Dimension        Dim             ....  149

ORBITAL ENERGIES
----------------

  NO   OCC          E(Eh)            E(eV)
   0   2.0000     -19.147540      -521.0310
   1   2.0000     -19.143759      -520.9282
   2   2.0000     -19.141292      -520.8610
   3   2.0000     -19.139819      -520.8210
   4   2.0000     -10.278361      -279.6884
   5   2.0000     -10.237847      -278.5860
   6   2.0000     -10.229255      -278.3522
   7   2.0000     -10.228974      -278.3445
   8   2.0000     -10.227417      -278.3022
   9   2.0000     -10.224836      -278.2319
  10   2.0000     -10.187274      -277.2098
  11   2.0000     -10.187160      -277.2067
  12   2.0000     -10.187081      -277.2046
  13   2.0000      -1.055017       -28.7085
  14   2.0000      -1.029243       -28.0071
  15   2.0000      -1.012210       -27.5436
  16   2.0000      -0.992414       -27.0050
  17   2.0000      -0.790955       -21.5230
  18   2.0000      -0.774565       -21.0770
  19   2.0000      -0.767214       -20.8769
  20   2.0000      -0.732934       -19.9442
  21   2.0000      -0.678034       -18.4503
  22   2.0000      -0.606557       -16.5052
  23   2.0000      -0.604166       -16.4402
  24   2.0000      -0.598857       -16.2957
  25   2.0000      -0.561256       -15.2725
  26   2.0000      -0.528909       -14.3923
  27   2.0000      -0.508110       -13.8264
  28   2.0000      -0.498837       -13.5740
  29   2.0000      -0.486724       -13.2444
  30   2.0000      -0.466478       -12.6935
  31   2.0000      -0.461534       -12.5590
  32   2.0000      -0.440855       -11.9963
  33   2.0000      -0.435941       -11.8626
  34   2.0000      -0.425311       -11.5733
  35   2.0000      -0.410900       -11.1812
  36   2.0000      -0.405168       -11.0252
  37   2.0000      -0.392975       -10.6934
  38   2.0000      -0.379890       -10.3373
  39   2.0000      -0.368096       -10.0164
  40   2.0000      -0.359316        -9.7775
  41   2.0000      -0.357681        -9.7330
  42   2.0000      -0.346676        -9.4335
  43   2.0000      -0.332435        -9.0460
  44   2.0000      -0.328832        -8.9480
  45   2.0000      -0.309986        -8.4351
  46   2.0000      -0.297338        -8.0910
  47   2.0000      -0.273944        -7.4544
  48   2.0000      -0.262933        -7.1548
  49   2.0000      -0.259711        -7.0671
  50   2.0000      -0.237441        -6.4611
  51   0.0000       0.068208         1.8560
  52   0.0000       0.078796         2.1442
  53   0.0000       0.094075         2.5599
  54   0.0000       0.096441         2.6243
  55   0.0000       0.102887         2.7997

MULLIKEN ATOMIC CHARGES
-----------------------
   0 C :    0.293726
   1 C :   -0.262690
   2 C :   -0.296172
   3 C :   -0.010896
   4 O :   -0.504988
   5 H :    0.155459
   6 H :    0.145295
   7 H :    0.153567
   8 H :    0.142122
   9 H :    0.159884
  10 H :    0.146682
  11 H :    0.146886
  12 C :   -0.046451
  13 H :    0.167639
  14 H :    0.152800
  15 O :   -0.544812
  16 C :    0.092819
  17 C :    0.092469
  18 C :   -0.314629
  19 C :   -0.017721
  20 O :   -0.514481
  21 H :    0.151402
  22 H :    0.162371
  23 O :   -0.607878
  24 H :    0.149194
  25 H :    0.152073
  26 H :    0.139796
  27 H :    0.149346
  28 H :    0.367186
Sum of atomic charges:    0.0000000

LOEWDIN ATOMIC CHARGES
----------------------
   0 C :    0.174995
   1 C :   -0.216307
   2 C :   -0.216105
   3 C :   -0.029646
   4 O :   -0.316951
   5 H :    0.101273
   6 H :    0.114036
   7 H :    0.122461
   8 H :    0.114204
   9 H :    0.118047
  10 H :    0.104522
  11 H :    0.105077
  12 C :   -0.057647
  13 H :    0.115816
  14 H :    0.117251
  15 O :   -0.344456
  16 C :    0.007452
  17 C :    0.035781
  18 C :   -0.241856
  19 C :   -0.030826
  20 O :   -0.317338
  21 H :    0.116309
  22 H :    0.116302
  23 O :   -0.410019
  24 H :    0.118886
  25 H :    0.113725
  26 H :    0.095561
  27 H :    0.105387
  28 H :    0.284067

  Mayer bond orders larger than 0.100000
B(  0-C ,  1-C ) :   0.9454 B(  0-C ,  4-O ) :   0.9119 B(  0-C ,  5-H ) :   0.9017
B(  0-C , 15-O ) :   0.8351 B(  1-C ,  2-C ) :   0.9550 B(  1-C ,  6-H ) :   0.9394
B(  1-C ,  7-H ) :   0.9360 B(  2-C ,  3-C ) :   0.9545 B(  2-C ,  8-H ) :   0.9451
B(  2-C ,  9-H ) :   0.9446 B(  3-C ,  4-O ) :   0.8348 B(  3-C , 10-H ) :   0.9354
B(  3-C , 11-H ) :   0.9403 B( 12-C , 13-H ) :   0.9173 B( 12-C , 14-H ) :   0.9213
B( 12-C , 15-O ) :   0.8507 B( 12-C , 16-C ) :   0.8931 B( 16-C , 17-C ) :   0.8811
B( 16-C , 20-O ) :   0.8741 B( 16-C , 21-H ) :   0.9210 B( 17-C , 18-C ) :   0.9270
B( 17-C , 22-H ) :   0.9368 B( 17-C , 23-O ) :   0.9027 B( 18-C , 19-C ) :   0.9410
B( 18-C , 24-H ) :   0.9422 B( 18-C , 25-H ) :   0.9340 B( 19-C , 20-O ) :   0.8435
B( 19-C , 26-H ) :   0.9158 B( 19-C , 27-H ) :   0.9382 B( 23-O , 28-H ) :   0.7904

FINAL SINGLE POINT ENERGY      -652.861986939476

DIPOLE MOMENT
-------------
                                X             Y             Z
Electronic contribution:     -2.48651      -3.71036       0.55923
Nuclear contribution   :      3.01874       4.64972      -0.84735
                        -----------------------------------------
Total Dipole Moment    :      0.53223       0.93936      -0.28813
                        -----------------------------------------
Magnitude (a.u.)       :      1.11745
Magnitude (Debye)      :      2.84032

Rotational constants in cm-1:     0.050629     0.015938     0.015087
Rotational constants in MHz :  1517.822577   477.808204   452.282281

                             ****ORCA TERMINATED NORMALLY****
TOTAL RUN TIME: 0 days 0 hours 26 minutes 40 seconds 757 msec
