                         Program Version 4.2.1 -  RELEASE  -
|  1> # Test redundant internal optimization
|  2> #
|  3> ! RKS B3LYP  Opt TightSCF SmallPrint
|  4>
|  5> %basis
|  6>         Basis "6-31G"
|  7> end
|  8>
|  9> %geom
| 10> Constraints
| 11> { D 4  0  19  14  255.0   C } # D for Dihedral angle
| 12> { D 0  19  14  12  45.0   C } # D for Dihedral angle
| 13> { D 0  4  3  2   C } # D for Dihedral angle
| 14> { D 4  3  2  1   C } # D for Dihedral angle
| 15> { D 3  2  1  0   C } # D for Dihedral angle
| 16> { D 2  1  0  4   C } # D for Dihedral angle
| 17> { D 1  0  4  3   C } # D for Dihedral angle
| 18> { D 14  15  16  17   C } # D for Dihedral angle
| 19> { D 15  16  17  12   C } # D for Dihedral angle
| 20> { D 16  17  12  14   C } # D for Dihedral angle
| 21> { D 17  12  14  15   C } # D for Dihedral angle
| 22> { D 12  14  15  16   C } # D for Dihedral angle
| 23> end
| 24> end
| 25>
| 26>
| 27> #%pal
| 28> #nprocs 8
| 29> #end
| 30>
| 31> * xyz 0 1
| 32> C  -21.048   26.222   46.251
| 33> C  -20.361   27.558   45.944
| 34> C  -20.329   28.222   47.341
| 35> C  -20.110   27.022   48.296
| 36> O  -20.473   25.807   47.535
| 37> H  -20.833   25.428   45.533
| 38> H  -19.344   27.382   45.576
| 39> H  -20.898   28.157   45.201
| 40> H  -19.543   28.978   47.434
| 41> H  -21.289   28.710   47.548
| 42> H  -20.733   27.082   49.195
| 43> H  -19.064   26.913   48.597
| 44> C  -22.640   23.963   46.148
| 45> H  -23.010   23.163   45.488
| 46> C  -23.236   25.322   45.767
| 47> C  -24.643   25.237   46.403
| 48> C  -24.396   24.426   47.699
| 49> O  -23.096   23.741   47.525
| 50> H  -21.549   23.936   46.165
| 51> O  -22.472   26.381   46.366
| 52> H  -23.269   25.489   44.685
| 53> H  -25.080   26.221   46.603
| 54> H  -25.327   24.698   45.735
| 55> H  -25.174   23.677   47.882
| 56> H  -24.306   25.067   48.582
| 57> *
| 58>
| 59>                          ****END OF INPUT****
 Total Charge           Charge          ....    0
 Multiplicity           Mult            ....    1
 Number of Electrons    NEL             ....   86
FINAL SINGLE POINT ENERGY      -538.423391986189
FINAL SINGLE POINT ENERGY      -538.430252511681
FINAL SINGLE POINT ENERGY      -538.430937909471
FINAL SINGLE POINT ENERGY      -538.431081604690
FINAL SINGLE POINT ENERGY      -538.431094713264
FINAL SINGLE POINT ENERGY      -538.431099343181
                    ***********************HURRAY********************

CARTESIAN COORDINATES (ANGSTROEM)
---------------------------------
  C    -20.912831   26.191758   46.245703
  C    -20.364118   27.590759   45.962965
  C    -20.440428   28.253156   47.360603
  C    -20.122898   27.079340   48.314198
  O    -20.341338   25.843416   47.523975
  H    -20.603667   25.420887   45.536157
  H    -19.323536   27.512570   45.626316
  H    -20.946100   28.116155   45.202957
  H    -19.738372   29.084742   47.472624
  H    -21.453927   28.626912   47.533303
  H    -20.771251   27.053028   49.193458
  H    -19.077107   27.064817   48.636052
  C    -22.757542   23.807354   46.081639
  H    -23.272764   23.105384   45.408623
  C    -23.187421   25.234479   45.749469
  C    -24.556525   25.316974   46.447871
  C    -24.363594   24.456550   47.719966
  O    -23.172954   23.614973   47.472714
  H    -21.684313   23.616820   46.044033
  O    -22.353745   26.294670   46.313980
  H    -23.263156   25.392126   44.664095
  H    -24.815160   26.355186   46.667574
  H    -25.327804   24.894055   45.793696
  H    -25.225195   23.811675   47.924822
  H    -24.147252   25.064214   48.602207

 Multiplicity           Mult            ....    1
 Number of Electrons    NEL             ....   86
 Basis Dimension        Dim             ....  127

ORBITAL ENERGIES
----------------

  NO   OCC          E(Eh)            E(eV)
   0   2.0000     -19.139275      -520.8062
   1   2.0000     -19.132263      -520.6153
   2   2.0000     -19.124986      -520.4173
   3   2.0000     -10.276083      -279.6264
   4   2.0000     -10.240688      -278.6633
   5   2.0000     -10.222140      -278.1586
   6   2.0000     -10.219322      -278.0819
   7   2.0000     -10.216872      -278.0152
   8   2.0000     -10.183981      -277.1202
   9   2.0000     -10.181625      -277.0561
  10   2.0000     -10.181234      -277.0455
  11   2.0000      -1.048618       -28.5343
  12   2.0000      -1.010350       -27.4930
  13   2.0000      -0.986552       -26.8454
  14   2.0000      -0.789571       -21.4853
  15   2.0000      -0.773910       -21.0592
  16   2.0000      -0.734901       -19.9977
  17   2.0000      -0.721757       -19.6400
  18   2.0000      -0.614146       -16.7118
  19   2.0000      -0.594051       -16.1649
  20   2.0000      -0.592491       -16.1225
  21   2.0000      -0.567948       -15.4547
  22   2.0000      -0.523773       -14.2526
  23   2.0000      -0.497834       -13.5468
  24   2.0000      -0.484501       -13.1839
  25   2.0000      -0.473549       -12.8859
  26   2.0000      -0.448051       -12.1921
  27   2.0000      -0.438477       -11.9316
  28   2.0000      -0.434134       -11.8134
  29   2.0000      -0.411230       -11.1901
  30   2.0000      -0.400890       -10.9088
  31   2.0000      -0.377567       -10.2741
  32   2.0000      -0.367791       -10.0081
  33   2.0000      -0.363423        -9.8892
  34   2.0000      -0.357293        -9.7224
  35   2.0000      -0.351891        -9.5755
  36   2.0000      -0.342352        -9.3159
  37   2.0000      -0.318965        -8.6795
  38   2.0000      -0.301842        -8.2135
  39   2.0000      -0.294962        -8.0263
  40   2.0000      -0.261674        -7.1205
  41   2.0000      -0.244101        -6.6423
  42   2.0000      -0.231390        -6.2964
  43   0.0000       0.082160         2.2357
  44   0.0000       0.097623         2.6565
  45   0.0000       0.104140         2.8338
  46   0.0000       0.115557         3.1445
  47   0.0000       0.122898         3.3442

MULLIKEN ATOMIC CHARGES
-----------------------
   0 C :    0.287164
   1 C :   -0.253818
   2 C :   -0.298505
   3 C :    0.000816
   4 O :   -0.500423
   5 H :    0.136463
   6 H :    0.141506
   7 H :    0.146930
   8 H :    0.138500
   9 H :    0.160462
  10 H :    0.150249
  11 H :    0.139626
  12 C :   -0.013472
  13 H :    0.125623
  14 C :    0.082053
  15 C :   -0.298652
  16 C :    0.007547
  17 O :   -0.513701
  18 H :    0.168113
  19 O :   -0.524428
  20 H :    0.128202
  21 H :    0.164657
  22 H :    0.139328
  23 H :    0.132527
  24 H :    0.153233
Sum of atomic charges:   -0.0000000

LOEWDIN ATOMIC CHARGES
----------------------
   0 C :    0.172908
   1 C :   -0.217090
   2 C :   -0.216270
   3 C :   -0.026105
   4 O :   -0.317344
   5 H :    0.095739
   6 H :    0.111474
   7 H :    0.118774
   8 H :    0.112350
   9 H :    0.118230
  10 H :    0.107146
  11 H :    0.101228
  12 C :   -0.050103
  13 H :    0.093875
  14 C :    0.040526
  15 C :   -0.224819
  16 C :   -0.026648
  17 O :   -0.325043
  18 H :    0.120179
  19 O :   -0.328636
  20 H :    0.094167
  21 H :    0.128711
  22 H :    0.111119
  23 H :    0.097151
  24 H :    0.108482

  Mayer bond orders larger than 0.100000
B(  0-C ,  1-C ) :   0.9451 B(  0-C ,  4-O ) :   0.9215 B(  0-C ,  5-H ) :   0.9186
B(  0-C , 19-O ) :   0.8468 B(  1-C ,  2-C ) :   0.9589 B(  1-C ,  6-H ) :   0.9391
B(  1-C ,  7-H ) :   0.9384 B(  2-C ,  3-C ) :   0.9534 B(  2-C ,  8-H ) :   0.9455
B(  2-C ,  9-H ) :   0.9443 B(  3-C ,  4-O ) :   0.8409 B(  3-C , 10-H ) :   0.9348
B(  3-C , 11-H ) :   0.9400 B( 12-C , 13-H ) :   0.9068 B( 12-C , 14-C ) :   0.9175
B( 12-C , 17-O ) :   0.8749 B( 12-C , 18-H ) :   0.9234 B( 14-C , 15-C ) :   0.9555
B( 14-C , 19-O ) :   0.8411 B( 14-C , 20-H ) :   0.9226 B( 15-C , 16-C ) :   0.9463
B( 15-C , 21-H ) :   0.9361 B( 15-C , 22-H ) :   0.9410 B( 16-C , 17-O ) :   0.8581
B( 16-C , 23-H ) :   0.9333 B( 16-C , 24-H ) :   0.9363

FINAL SINGLE POINT ENERGY      -538.431099524014

DIPOLE MOMENT
-------------
                                X             Y             Z
Electronic contribution:      0.63134      -3.14226       0.57104
Nuclear contribution   :     -0.87725       3.98669      -1.44613
                        -----------------------------------------
Total Dipole Moment    :     -0.24591       0.84443      -0.87509
                        -----------------------------------------
Magnitude (a.u.)       :      1.24069
Magnitude (Debye)      :      3.15359

Rotational constants in cm-1:     0.074331     0.022606     0.021537
Rotational constants in MHz :  2228.393218   677.698228   645.670806

                             ****ORCA TERMINATED NORMALLY****
TOTAL RUN TIME: 0 days 0 hours 7 minutes 14 seconds 736 msec
