                         Program Version 4.2.1 -  RELEASE  -
|  1> # Test redundant internal optimization
|  2> #
|  3> ! RKS B3LYP  Opt TightSCF SmallPrint
|  4>
|  5> %basis
|  6>         Basis "6-31G"
|  7> end
|  8>
|  9> %geom
| 10> Constraints
| 11> { D 4  0  19  14  225.0   C } # D for Dihedral angle
| 12> { D 0  19  14  12  300.0   C } # D for Dihedral angle
| 13> { D 0  4  3  2   C } # D for Dihedral angle
| 14> { D 4  3  2  1   C } # D for Dihedral angle
| 15> { D 3  2  1  0   C } # D for Dihedral angle
| 16> { D 2  1  0  4   C } # D for Dihedral angle
| 17> { D 1  0  4  3   C } # D for Dihedral angle
| 18> { D 14  15  16  17   C } # D for Dihedral angle
| 19> { D 15  16  17  12   C } # D for Dihedral angle
| 20> { D 16  17  12  14   C } # D for Dihedral angle
| 21> { D 17  12  14  15   C } # D for Dihedral angle
| 22> { D 12  14  15  16   C } # D for Dihedral angle
| 23> end
| 24> end
| 25>
| 26>
| 27> #%pal
| 28> #nprocs 8
| 29> #end
| 30>
| 31> * xyz 0 1
| 32> C  -21.048   26.222   46.251
| 33> C  -20.361   27.558   45.944
| 34> C  -20.329   28.222   47.341
| 35> C  -20.110   27.022   48.296
| 36> O  -20.473   25.807   47.535
| 37> H  -20.833   25.428   45.533
| 38> H  -19.344   27.382   45.576
| 39> H  -20.898   28.157   45.201
| 40> H  -19.543   28.978   47.434
| 41> H  -21.289   28.710   47.548
| 42> H  -20.733   27.082   49.195
| 43> H  -19.064   26.913   48.597
| 44> C  -22.814   26.444   43.957
| 45> H  -23.555   26.240   43.168
| 46> C  -23.222   25.800   45.287
| 47> C  -22.806   24.328   45.063
| 48> C  -21.523   24.450   44.205
| 49> O  -21.530   25.813   43.629
| 50> H  -22.636   27.519   44.010
| 51> O  -22.472   26.381   46.366
| 52> H  -24.289   25.912   45.509
| 53> H  -22.632   23.788   46.000
| 54> H  -23.590   23.794   44.511
| 55> H  -21.489   23.717   43.391
| 56> H  -20.610   24.358   44.802
| 57> *
| 58>
| 59>                          ****END OF INPUT****
 Total Charge           Charge          ....    0
 Multiplicity           Mult            ....    1
 Number of Electrons    NEL             ....   86
FINAL SINGLE POINT ENERGY      -538.399755273491
FINAL SINGLE POINT ENERGY      -538.426536997758
FINAL SINGLE POINT ENERGY      -538.429114586845
FINAL SINGLE POINT ENERGY      -538.429565938344
FINAL SINGLE POINT ENERGY      -538.429644482471
FINAL SINGLE POINT ENERGY      -538.429669849690
FINAL SINGLE POINT ENERGY      -538.429665943410
FINAL SINGLE POINT ENERGY      -538.429665299063
                    ***********************HURRAY********************

CARTESIAN COORDINATES (ANGSTROEM)
---------------------------------
  C    -20.775795   26.293990   46.282145
  C    -20.209638   27.698308   46.074992
  C    -20.394778   28.328787   47.476894
  C    -20.150049   27.134243   48.424716
  O    -20.305367   25.917350   47.589440
  H    -20.420814   25.548100   45.575699
  H    -19.146323   27.625526   45.817109
  H    -20.723134   28.245872   45.281987
  H    -19.705121   29.157594   47.661160
  H    -21.419534   28.697433   47.580890
  H    -20.865553   27.086200   49.249809
  H    -19.132162   27.111719   48.826115
  C    -22.819403   26.352268   43.868314
  H    -23.717546   26.231166   43.245625
  C    -23.054909   25.774336   45.268098
  C    -22.874847   24.263862   45.011915
  C    -21.766551   24.204788   43.932820
  O    -21.704820   25.561884   43.324225
  H    -22.515058   27.400001   43.871537
  O    -22.233550   26.353861   46.317088
  H    -24.066840   25.993923   45.620635
  H    -22.610971   23.732184   45.930010
  H    -23.815290   23.850816   44.631971
  H    -21.986163   23.480578   43.140981
  H    -20.778783   23.980211   44.344825

 Multiplicity           Mult            ....    1
 Number of Electrons    NEL             ....   86
 Basis Dimension        Dim             ....  127

ORBITAL ENERGIES
----------------

  NO   OCC          E(Eh)            E(eV)
   0   2.0000     -19.138705      -520.7906
   1   2.0000     -19.136463      -520.7296
   2   2.0000     -19.133340      -520.6447
   3   2.0000     -10.272560      -279.5306
   4   2.0000     -10.242369      -278.7090
   5   2.0000     -10.228257      -278.3250
   6   2.0000     -10.226731      -278.2835
   7   2.0000     -10.219514      -278.0871
   8   2.0000     -10.188880      -277.2535
   9   2.0000     -10.180054      -277.0133
  10   2.0000     -10.178791      -276.9790
  11   2.0000      -1.047409       -28.5015
  12   2.0000      -1.017767       -27.6949
  13   2.0000      -0.986404       -26.8414
  14   2.0000      -0.788153       -21.4467
  15   2.0000      -0.775123       -21.0922
  16   2.0000      -0.745237       -20.2789
  17   2.0000      -0.720517       -19.6063
  18   2.0000      -0.616383       -16.7726
  19   2.0000      -0.605251       -16.4697
  20   2.0000      -0.592433       -16.1209
  21   2.0000      -0.567064       -15.4306
  22   2.0000      -0.522118       -14.2076
  23   2.0000      -0.503808       -13.7093
  24   2.0000      -0.481203       -13.0942
  25   2.0000      -0.476890       -12.9768
  26   2.0000      -0.451458       -12.2848
  27   2.0000      -0.442722       -12.0471
  28   2.0000      -0.428068       -11.6483
  29   2.0000      -0.413312       -11.2468
  30   2.0000      -0.403070       -10.9681
  31   2.0000      -0.396021       -10.7763
  32   2.0000      -0.375425       -10.2158
  33   2.0000      -0.367072        -9.9885
  34   2.0000      -0.356160        -9.6916
  35   2.0000      -0.350604        -9.5404
  36   2.0000      -0.344552        -9.3757
  37   2.0000      -0.318014        -8.6536
  38   2.0000      -0.307690        -8.3727
  39   2.0000      -0.292360        -7.9555
  40   2.0000      -0.263663        -7.1746
  41   2.0000      -0.249469        -6.7884
  42   2.0000      -0.236477        -6.4349
  43   0.0000       0.073805         2.0083
  44   0.0000       0.090298         2.4571
  45   0.0000       0.100388         2.7317
  46   0.0000       0.104351         2.8395
  47   0.0000       0.111874         3.0442

MULLIKEN ATOMIC CHARGES
-----------------------
   0 C :    0.278408
   1 C :   -0.252147
   2 C :   -0.298710
   3 C :   -0.000875
   4 O :   -0.506258
   5 H :    0.161662
   6 H :    0.143683
   7 H :    0.145630
   8 H :    0.138176
   9 H :    0.159352
  10 H :    0.150151
  11 H :    0.139069
  12 C :   -0.025611
  13 H :    0.133861
  14 C :    0.090579
  15 C :   -0.303362
  16 C :   -0.028091
  17 O :   -0.526111
  18 H :    0.159735
  19 O :   -0.523611
  20 H :    0.147891
  21 H :    0.173755
  22 H :    0.147576
  23 H :    0.144254
  24 H :    0.150993
Sum of atomic charges:   -0.0000000

LOEWDIN ATOMIC CHARGES
----------------------
   0 C :    0.175122
   1 C :   -0.218746
   2 C :   -0.217500
   3 C :   -0.026463
   4 O :   -0.314565
   5 H :    0.108808
   6 H :    0.113194
   7 H :    0.115569
   8 H :    0.112575
   9 H :    0.117843
  10 H :    0.106784
  11 H :    0.100721
  12 C :   -0.052919
  13 H :    0.097362
  14 C :    0.043611
  15 C :   -0.238430
  16 C :   -0.039403
  17 O :   -0.339774
  18 H :    0.115242
  19 O :   -0.327841
  20 H :    0.113905
  21 H :    0.131937
  22 H :    0.118488
  23 H :    0.102697
  24 H :    0.101781

  Mayer bond orders larger than 0.100000
B(  0-C ,  1-C ) :   0.9396 B(  0-C ,  4-O ) :   0.9242 B(  0-C ,  5-H ) :   0.9043
B(  0-C , 19-O ) :   0.8221 B(  1-C ,  2-C ) :   0.9544 B(  1-C ,  6-H ) :   0.9367
B(  1-C ,  7-H ) :   0.9367 B(  2-C ,  3-C ) :   0.9541 B(  2-C ,  8-H ) :   0.9456
B(  2-C ,  9-H ) :   0.9439 B(  3-C ,  4-O ) :   0.8382 B(  3-C , 10-H ) :   0.9351
B(  3-C , 11-H ) :   0.9400 B( 12-C , 13-H ) :   0.9140 B( 12-C , 14-C ) :   0.9121
B( 12-C , 17-O ) :   0.8555 B( 12-C , 18-H ) :   0.9299 B( 14-C , 15-C ) :   0.9225
B( 14-C , 19-O ) :   0.8877 B( 14-C , 20-H ) :   0.9379 B( 15-C , 16-C ) :   0.9451
B( 15-C , 21-H ) :   0.9339 B( 15-C , 22-H ) :   0.9383 B( 16-C , 17-O ) :   0.8480
B( 16-C , 23-H ) :   0.9350 B( 16-C , 24-H ) :   0.9274

FINAL SINGLE POINT ENERGY      -538.429666169566

DIPOLE MOMENT
-------------
                                X             Y             Z
Electronic contribution:     -0.21010      -1.48523      -0.00527
Nuclear contribution   :     -0.20916       1.70572      -0.07696
                        -----------------------------------------
Total Dipole Moment    :     -0.41926       0.22049      -0.08223
                        -----------------------------------------
Magnitude (a.u.)       :      0.48078
Magnitude (Debye)      :      1.22206

Rotational constants in cm-1:     0.078169     0.022743     0.021530
Rotational constants in MHz :  2343.447437   681.826988   645.461156

                             ****ORCA TERMINATED NORMALLY****
TOTAL RUN TIME: 0 days 0 hours 10 minutes 19 seconds 444 msec
