                         Program Version 4.2.0 -  RELEASE  -
|  1> # Test redundant internal optimization
|  2> #
|  3> ! RKS B3LYP  Opt TightSCF SmallPrint
|  4>
|  5> %basis
|  6>         Basis "6-31G"
|  7> end
|  8>
|  9> %geom
| 10> Constraints
| 11> { D 4  0  15  12  45.0   C } # D for Dihedral angle
| 12> { D 0  15  12  16  150.0   C } # D for Dihedral angle
| 13> { D 0  4  3  2   C } # D for Dihedral angle
| 14> { D 4  3  2  1   C } # D for Dihedral angle
| 15> { D 3  2  1  0   C } # D for Dihedral angle
| 16> { D 2  1  0  4   C } # D for Dihedral angle
| 17> { D 1  0  4  3   C } # D for Dihedral angle
| 18> { D 16  20  19  18   C } # D for Dihedral angle
| 19> { D 20  19  18  17   C } # D for Dihedral angle
| 20> { D 19  18  17  16   C } # D for Dihedral angle
| 21> { D 18  17  16  20   C } # D for Dihedral angle
| 22> { D 17  16  20  19   C } # D for Dihedral angle
| 23> { D 15  12  16  20   C } # D for Dihedral angle
| 24> end
| 25> end
| 26>
| 27>
| 28> #%pal
| 29> #nprocs 8
| 30> #end
| 31>
| 32> * xyz 0 1
| 33> C  -21.048   26.222   46.251
| 34> C  -20.361   27.558   45.944
| 35> C  -20.329   28.222   47.341
| 36> C  -20.110   27.022   48.296
| 37> O  -20.473   25.807   47.535
| 38> H  -20.833   25.428   45.533
| 39> H  -19.344   27.382   45.576
| 40> H  -20.898   28.157   45.201
| 41> H  -19.543   28.978   47.434
| 42> H  -21.289   28.710   47.548
| 43> H  -20.733   27.082   49.195
| 44> H  -19.064   26.913   48.597
| 45> C  -23.065   27.161   47.638
| 46> H  -23.226   26.448   48.455
| 47> H  -22.305   27.885   47.959
| 48> O  -22.586   26.394   46.375
| 49> C  -24.389   27.940   47.401
| 50> C  -25.552   26.985   47.112
| 51> C  -25.915   26.494   48.534
| 52> C  -25.659   27.743   49.414
| 53> O  -24.794   28.644   48.622
| 54> H  -24.225   28.699   46.634
| 55> H  -26.389   27.536   46.668
| 56> O  -25.166   25.825   46.154
| 57> H  -26.946   26.135   48.609
| 58> H  -25.252   25.671   48.828
| 59> H  -25.155   27.497   50.354
| 60> H  -26.578   28.291   49.637
| 61> H  -24.329   25.260   46.579
| 62> *
| 63>
| 64>                          ****END OF INPUT****
 Total Charge           Charge          ....    0
 Multiplicity           Mult            ....    1
 Number of Electrons    NEL             ....  102
FINAL SINGLE POINT ENERGY      -652.811480362539
FINAL SINGLE POINT ENERGY      -652.839873601503
FINAL SINGLE POINT ENERGY      -652.854686284872
FINAL SINGLE POINT ENERGY      -652.858488919419
FINAL SINGLE POINT ENERGY      -652.860202726802
FINAL SINGLE POINT ENERGY      -652.861224156912
FINAL SINGLE POINT ENERGY      -652.861669793864
FINAL SINGLE POINT ENERGY      -652.861789459095
FINAL SINGLE POINT ENERGY      -652.861807648112
FINAL SINGLE POINT ENERGY      -652.861811876294
                    ***********************HURRAY********************

CARTESIAN COORDINATES (ANGSTROEM)
---------------------------------
  C    -21.186844   26.313227   46.456532
  C    -20.411126   27.525474   45.926516
  C    -20.003148   28.248941   47.241800
  C    -19.749953   27.070797   48.212887
  O    -20.428232   25.891464   47.606976
  H    -21.188536   25.472947   45.760328
  H    -19.527422   27.163500   45.390521
  H    -21.006859   28.145725   45.252560
  H    -19.106499   28.863701   47.113950
  H    -20.802006   28.908500   47.589914
  H    -20.156112   27.234229   49.214916
  H    -18.689987   26.814270   48.292268
  C    -23.116774   27.208594   47.884949
  H    -23.247455   26.487633   48.699030
  H    -22.437554   27.991271   48.226238
  O    -22.604323   26.500732   46.705595
  C    -24.444659   27.860446   47.484091
  C    -25.561823   26.879199   47.090501
  C    -26.068733   26.403451   48.484057
  C    -25.924593   27.664515   49.359225
  O    -24.983416   28.575943   48.638901
  H    -24.257407   28.605188   46.705457
  H    -26.357600   27.441699   46.588648
  O    -25.182621   25.803278   46.212905
  H    -27.096613   26.034619   48.435801
  H    -25.433449   25.581281   48.831642
  H    -25.518585   27.459911   50.354793
  H    -26.864456   28.213240   49.467607
  H    -24.199216   25.725224   46.195391

 Multiplicity           Mult            ....    1
 Number of Electrons    NEL             ....  102
 Basis Dimension        Dim             ....  149

ORBITAL ENERGIES
----------------

  NO   OCC          E(Eh)            E(eV)
   0   2.0000     -19.163287      -521.4595
   1   2.0000     -19.156387      -521.2718
   2   2.0000     -19.140712      -520.8452
   3   2.0000     -19.110838      -520.0323
   4   2.0000     -10.292758      -280.0802
   5   2.0000     -10.240112      -278.6476
   6   2.0000     -10.238608      -278.6067
   7   2.0000     -10.234136      -278.4850
   8   2.0000     -10.229134      -278.3489
   9   2.0000     -10.226143      -278.2675
  10   2.0000     -10.201781      -277.6046
  11   2.0000     -10.198927      -277.5269
  12   2.0000     -10.177730      -276.9501
  13   2.0000      -1.065976       -29.0067
  14   2.0000      -1.025685       -27.9103
  15   2.0000      -1.008794       -27.4507
  16   2.0000      -0.990605       -26.9557
  17   2.0000      -0.798803       -21.7365
  18   2.0000      -0.779386       -21.2082
  19   2.0000      -0.767671       -20.8894
  20   2.0000      -0.738405       -20.0930
  21   2.0000      -0.682299       -18.5663
  22   2.0000      -0.614325       -16.7166
  23   2.0000      -0.601979       -16.3807
  24   2.0000      -0.595113       -16.1938
  25   2.0000      -0.577737       -15.7210
  26   2.0000      -0.535461       -14.5706
  27   2.0000      -0.512301       -13.9404
  28   2.0000      -0.509947       -13.8764
  29   2.0000      -0.487798       -13.2737
  30   2.0000      -0.476222       -12.9587
  31   2.0000      -0.461115       -12.5476
  32   2.0000      -0.443633       -12.0719
  33   2.0000      -0.433434       -11.7943
  34   2.0000      -0.426273       -11.5995
  35   2.0000      -0.425096       -11.5674
  36   2.0000      -0.409908       -11.1542
  37   2.0000      -0.390730       -10.6323
  38   2.0000      -0.387736       -10.5508
  39   2.0000      -0.370648       -10.0858
  40   2.0000      -0.368385       -10.0243
  41   2.0000      -0.357364        -9.7244
  42   2.0000      -0.352399        -9.5893
  43   2.0000      -0.340455        -9.2642
  44   2.0000      -0.330318        -8.9884
  45   2.0000      -0.320263        -8.7148
  46   2.0000      -0.290458        -7.9038
  47   2.0000      -0.272433        -7.4133
  48   2.0000      -0.268999        -7.3198
  49   2.0000      -0.249184        -6.7807
  50   2.0000      -0.239742        -6.5237
  51   0.0000       0.056102         1.5266
  52   0.0000       0.070190         1.9100
  53   0.0000       0.089277         2.4293
  54   0.0000       0.097834         2.6622
  55   0.0000       0.101727         2.7681

MULLIKEN ATOMIC CHARGES
-----------------------
   0 C :    0.311336
   1 C :   -0.267408
   2 C :   -0.323257
   3 C :   -0.017311
   4 O :   -0.504194
   5 H :    0.169576
   6 H :    0.158012
   7 H :    0.157139
   8 H :    0.151709
   9 H :    0.160152
  10 H :    0.151340
  11 H :    0.155491
  12 C :   -0.019463
  13 H :    0.157602
  14 H :    0.151713
  15 O :   -0.569742
  16 C :    0.058556
  17 C :    0.116503
  18 C :   -0.300967
  19 C :   -0.024679
  20 O :   -0.523711
  21 H :    0.154413
  22 H :    0.146955
  23 O :   -0.637760
  24 H :    0.151311
  25 H :    0.147937
  26 H :    0.142744
  27 H :    0.150488
  28 H :    0.395515
Sum of atomic charges:   -0.0000000

LOEWDIN ATOMIC CHARGES
----------------------
   0 C :    0.181024
   1 C :   -0.225062
   2 C :   -0.224326
   3 C :   -0.033829
   4 O :   -0.316062
   5 H :    0.114946
   6 H :    0.122560
   7 H :    0.123320
   8 H :    0.119169
   9 H :    0.113033
  10 H :    0.106032
  11 H :    0.109302
  12 C :   -0.044485
  13 H :    0.107710
  14 H :    0.108315
  15 O :   -0.338296
  16 C :    0.017573
  17 C :    0.041719
  18 C :   -0.237540
  19 C :   -0.033024
  20 O :   -0.327075
  21 H :    0.112659
  22 H :    0.105008
  23 O :   -0.433258
  24 H :    0.121608
  25 H :    0.112539
  26 H :    0.101998
  27 H :    0.106249
  28 H :    0.288192

  Mayer bond orders larger than 0.100000
B(  0-C ,  1-C ) :   0.9221 B(  0-C ,  4-O ) :   0.9234 B(  0-C ,  5-H ) :   0.9351
B(  0-C , 15-O ) :   0.8367 B(  1-C ,  2-C ) :   0.9531 B(  1-C ,  6-H ) :   0.9336
B(  1-C ,  7-H ) :   0.9361 B(  2-C ,  3-C ) :   0.9480 B(  2-C ,  8-H ) :   0.9433
B(  2-C ,  9-H ) :   0.9370 B(  3-C ,  4-O ) :   0.8341 B(  3-C , 10-H ) :   0.9328
B(  3-C , 11-H ) :   0.9382 B( 12-C , 13-H ) :   0.9254 B( 12-C , 14-H ) :   0.9113
B( 12-C , 15-O ) :   0.7743 B( 12-C , 16-C ) :   0.9006 B( 16-C , 17-C ) :   0.9150
B( 16-C , 20-O ) :   0.8569 B( 16-C , 21-H ) :   0.9290 B( 17-C , 18-C ) :   0.9019
B( 17-C , 22-H ) :   0.9300 B( 17-C , 23-O ) :   0.9383 B( 18-C , 19-C ) :   0.9384
B( 18-C , 24-H ) :   0.9445 B( 18-C , 25-H ) :   0.9426 B( 19-C , 20-O ) :   0.8304
B( 19-C , 26-H ) :   0.9340 B( 19-C , 27-H ) :   0.9385 B( 23-O , 28-H ) :   0.7234

FINAL SINGLE POINT ENERGY      -652.861812626206

DIPOLE MOMENT
-------------
                                X             Y             Z
Electronic contribution:     -1.71563      -2.26857      -1.89926
Nuclear contribution   :      2.81515       3.01678       2.25907
                        -----------------------------------------
Total Dipole Moment    :      1.09952       0.74822       0.35981
                        -----------------------------------------
Magnitude (a.u.)       :      1.37777
Magnitude (Debye)      :      3.50201

Rotational constants in cm-1:     0.051829     0.014314     0.012966
Rotational constants in MHz :  1553.784194   429.115924   388.714925

                             ****ORCA TERMINATED NORMALLY****
TOTAL RUN TIME: 0 days 0 hours 35 minutes 44 seconds 435 msec
