                         Program Version 4.2.1 -  RELEASE  -
|  1> # Test redundant internal optimization
|  2> #
|  3> ! RKS B3LYP  Opt TightSCF SmallPrint
|  4>
|  5> %basis
|  6>         Basis "6-31G"
|  7> end
|  8>
|  9> %geom
| 10> Constraints
| 11> { D 4  0  19  14  210.0   C } # D for Dihedral angle
| 12> { D 0  19  14  12  120.0   C } # D for Dihedral angle
| 13> { D 0  4  3  2   C } # D for Dihedral angle
| 14> { D 4  3  2  1   C } # D for Dihedral angle
| 15> { D 3  2  1  0   C } # D for Dihedral angle
| 16> { D 2  1  0  4   C } # D for Dihedral angle
| 17> { D 1  0  4  3   C } # D for Dihedral angle
| 18> { D 14  15  16  17   C } # D for Dihedral angle
| 19> { D 15  16  17  12   C } # D for Dihedral angle
| 20> { D 16  17  12  14   C } # D for Dihedral angle
| 21> { D 17  12  14  15   C } # D for Dihedral angle
| 22> { D 12  14  15  16   C } # D for Dihedral angle
| 23> end
| 24> end
| 25>
| 26>
| 27> #%pal
| 28> #nprocs 8
| 29> #end
| 30>
| 31> * xyz 0 1
| 32> C  -21.048   26.222   46.251
| 33> C  -20.361   27.558   45.944
| 34> C  -20.329   28.222   47.341
| 35> C  -20.110   27.022   48.296
| 36> O  -20.473   25.807   47.535
| 37> H  -20.833   25.428   45.533
| 38> H  -19.344   27.382   45.576
| 39> H  -20.898   28.157   45.201
| 40> H  -19.543   28.978   47.434
| 41> H  -21.289   28.710   47.548
| 42> H  -20.733   27.082   49.195
| 43> H  -19.064   26.913   48.597
| 44> C  -24.189   24.966   45.378
| 45> H  -24.542   24.550   44.421
| 46> C  -23.197   26.114   45.155
| 47> C  -24.146   27.288   44.817
| 48> C  -25.383   27.008   45.708
| 49> O  -25.301   25.586   46.107
| 50> H  -23.810   24.156   46.003
| 51> O  -22.472   26.381   46.366
| 52> H  -22.475   25.909   44.358
| 53> H  -23.700   28.267   45.017
| 54> H  -24.421   27.257   43.755
| 55> H  -26.328   27.179   45.181
| 56> H  -25.378   27.602   46.627
| 57> *
| 58>
| 59>                          ****END OF INPUT****
 Total Charge           Charge          ....    0
 Multiplicity           Mult            ....    1
 Number of Electrons    NEL             ....   86
FINAL SINGLE POINT ENERGY      -538.427365176778
FINAL SINGLE POINT ENERGY      -538.429338440435
FINAL SINGLE POINT ENERGY      -538.429549224609
FINAL SINGLE POINT ENERGY      -538.429580913955
FINAL SINGLE POINT ENERGY      -538.429591523215
                    ***********************HURRAY********************

CARTESIAN COORDINATES (ANGSTROEM)
---------------------------------
  C    -20.993235   26.214138   46.222530
  C    -20.312277   27.552802   45.945110
  C    -20.358768   28.231176   47.335659
  C    -20.173037   27.043119   48.303434
  O    -20.488879   25.826830   47.508696
  H    -20.750919   25.410586   45.518995
  H    -19.275910   27.376461   45.632037
  H    -20.816602   28.131564   45.166377
  H    -19.585888   28.995832   47.457367
  H    -21.337176   28.697528   47.484372
  H    -20.843989   27.078775   49.164790
  H    -19.141019   26.931507   48.648733
  C    -24.203527   24.966842   45.372846
  H    -24.591589   24.559827   44.426527
  C    -23.210579   26.099851   45.109199
  C    -24.156105   27.283549   44.820459
  C    -25.353993   27.018387   45.764305
  O    -25.269997   25.594365   46.152073
  H    -23.780814   24.164200   45.978691
  O    -22.437199   26.374631   46.316181
  H    -22.539892   25.884341   44.267292
  H    -23.665461   28.240654   45.014378
  H    -24.468185   27.258202   43.769706
  H    -26.318751   27.204194   45.279330
  H    -25.293209   27.604637   46.684913

 Multiplicity           Mult            ....    1
 Number of Electrons    NEL             ....   86
 Basis Dimension        Dim             ....  127

ORBITAL ENERGIES
----------------

  NO   OCC          E(Eh)            E(eV)
   0   2.0000     -19.139614      -520.8154
   1   2.0000     -19.137847      -520.7673
   2   2.0000     -19.125805      -520.4396
   3   2.0000     -10.280837      -279.7558
   4   2.0000     -10.242653      -278.7168
   5   2.0000     -10.224081      -278.2114
   6   2.0000     -10.219140      -278.0769
   7   2.0000     -10.219046      -278.0744
   8   2.0000     -10.187331      -277.2114
   9   2.0000     -10.187122      -277.2057
  10   2.0000     -10.186389      -277.1857
  11   2.0000      -1.052781       -28.6476
  12   2.0000      -1.013474       -27.5780
  13   2.0000      -0.989185       -26.9171
  14   2.0000      -0.789233       -21.4761
  15   2.0000      -0.779542       -21.2124
  16   2.0000      -0.739012       -20.1095
  17   2.0000      -0.722327       -19.6555
  18   2.0000      -0.608519       -16.5587
  19   2.0000      -0.597968       -16.2715
  20   2.0000      -0.597080       -16.2474
  21   2.0000      -0.579279       -15.7630
  22   2.0000      -0.521418       -14.1885
  23   2.0000      -0.503666       -13.7054
  24   2.0000      -0.485706       -13.2167
  25   2.0000      -0.478318       -13.0157
  26   2.0000      -0.449732       -12.2378
  27   2.0000      -0.442670       -12.0457
  28   2.0000      -0.433661       -11.8005
  29   2.0000      -0.413339       -11.2475
  30   2.0000      -0.410154       -11.1609
  31   2.0000      -0.383636       -10.4393
  32   2.0000      -0.372982       -10.1494
  33   2.0000      -0.362585        -9.8665
  34   2.0000      -0.357556        -9.7296
  35   2.0000      -0.357365        -9.7244
  36   2.0000      -0.349735        -9.5168
  37   2.0000      -0.314689        -8.5631
  38   2.0000      -0.307073        -8.3559
  39   2.0000      -0.299838        -8.1590
  40   2.0000      -0.261659        -7.1201
  41   2.0000      -0.249878        -6.7995
  42   2.0000      -0.229584        -6.2473
  43   0.0000       0.073292         1.9944
  44   0.0000       0.086116         2.3433
  45   0.0000       0.096191         2.6175
  46   0.0000       0.113395         3.0856
  47   0.0000       0.121729         3.3124

MULLIKEN ATOMIC CHARGES
-----------------------
   0 C :    0.290249
   1 C :   -0.261698
   2 C :   -0.299352
   3 C :   -0.000735
   4 O :   -0.501314
   5 H :    0.136763
   6 H :    0.142721
   7 H :    0.140443
   8 H :    0.141690
   9 H :    0.160241
  10 H :    0.156899
  11 H :    0.141061
  12 C :    0.014898
  13 H :    0.118419
  14 C :    0.050748
  15 C :   -0.284823
  16 C :    0.007057
  17 O :   -0.516950
  18 H :    0.167388
  19 O :   -0.502220
  20 H :    0.123108
  21 H :    0.151108
  22 H :    0.138659
  23 H :    0.131438
  24 H :    0.154202
Sum of atomic charges:   -0.0000000

LOEWDIN ATOMIC CHARGES
----------------------
   0 C :    0.179198
   1 C :   -0.228470
   2 C :   -0.216845
   3 C :   -0.024625
   4 O :   -0.305480
   5 H :    0.095052
   6 H :    0.112524
   7 H :    0.113079
   8 H :    0.114199
   9 H :    0.118135
  10 H :    0.110810
  11 H :    0.102065
  12 C :   -0.039499
  13 H :    0.088627
  14 C :    0.036099
  15 C :   -0.228857
  16 C :   -0.026857
  17 O :   -0.326887
  18 H :    0.122818
  19 O :   -0.328464
  20 H :    0.096097
  21 H :    0.120791
  22 H :    0.111099
  23 H :    0.096751
  24 H :    0.108641

  Mayer bond orders larger than 0.100000
B(  0-C ,  1-C ) :   0.9310 B(  0-C ,  4-O ) :   0.9389 B(  0-C ,  5-H ) :   0.9189
B(  0-C , 19-O ) :   0.8402 B(  1-C ,  2-C ) :   0.9549 B(  1-C ,  6-H ) :   0.9340
B(  1-C ,  7-H ) :   0.9381 B(  2-C ,  3-C ) :   0.9551 B(  2-C ,  8-H ) :   0.9450
B(  2-C ,  9-H ) :   0.9437 B(  3-C ,  4-O ) :   0.8356 B(  3-C , 10-H ) :   0.9340
B(  3-C , 11-H ) :   0.9397 B( 12-C , 13-H ) :   0.9110 B( 12-C , 14-C ) :   0.9260
B( 12-C , 17-O ) :   0.8735 B( 12-C , 18-H ) :   0.9313 B( 14-C , 15-C ) :   0.9463
B( 14-C , 19-O ) :   0.8330 B( 14-C , 20-H ) :   0.9179 B( 15-C , 16-C ) :   0.9473
B( 15-C , 21-H ) :   0.9398 B( 15-C , 22-H ) :   0.9394 B( 16-C , 17-O ) :   0.8586
B( 16-C , 23-H ) :   0.9337 B( 16-C , 24-H ) :   0.9354

FINAL SINGLE POINT ENERGY      -538.429592638085

DIPOLE MOMENT
-------------
                                X             Y             Z
Electronic contribution:     -1.15469      -4.34637       1.92113
Nuclear contribution   :      1.89113       5.41990      -3.05818
                        -----------------------------------------
Total Dipole Moment    :      0.73644       1.07353      -1.13705
                        -----------------------------------------
Magnitude (a.u.)       :      1.72849
Magnitude (Debye)      :      4.39348

Rotational constants in cm-1:     0.079042     0.020137     0.019218
Rotational constants in MHz :  2369.604625   603.700842   576.136948

                             ****ORCA TERMINATED NORMALLY****
TOTAL RUN TIME: 0 days 0 hours 5 minutes 49 seconds 669 msec
