                         Program Version 4.2.0 -  RELEASE  -
|  1> # Test redundant internal optimization
|  2> #
|  3> ! RKS B3LYP  Opt TightSCF SmallPrint
|  4>
|  5> %basis
|  6>         Basis "6-31G"
|  7> end
|  8>
|  9> %geom
| 10> Constraints
| 11> { D 4  0  15  12  240.0   C } # D for Dihedral angle
| 12> { D 0  15  12  16  345.0   C } # D for Dihedral angle
| 13> { D 0  4  3  2   C } # D for Dihedral angle
| 14> { D 4  3  2  1   C } # D for Dihedral angle
| 15> { D 3  2  1  0   C } # D for Dihedral angle
| 16> { D 2  1  0  4   C } # D for Dihedral angle
| 17> { D 1  0  4  3   C } # D for Dihedral angle
| 18> { D 16  20  19  18   C } # D for Dihedral angle
| 19> { D 20  19  18  17   C } # D for Dihedral angle
| 20> { D 19  18  17  16   C } # D for Dihedral angle
| 21> { D 18  17  16  20   C } # D for Dihedral angle
| 22> { D 17  16  20  19   C } # D for Dihedral angle
| 23> { D 15  12  16  20   C } # D for Dihedral angle
| 24> end
| 25> end
| 26>
| 27>
| 28> #%pal
| 29> #nprocs 8
| 30> #end
| 31>
| 32> * xyz 0 1
| 33> C  -21.048   26.222   46.251
| 34> C  -20.361   27.558   45.944
| 35> C  -20.329   28.222   47.341
| 36> C  -20.110   27.022   48.296
| 37> O  -20.473   25.807   47.535
| 38> H  -20.833   25.428   45.533
| 39> H  -19.344   27.382   45.576
| 40> H  -20.898   28.157   45.201
| 41> H  -19.543   28.978   47.434
| 42> H  -21.289   28.710   47.548
| 43> H  -20.733   27.082   49.195
| 44> H  -19.064   26.913   48.597
| 45> C  -23.430   25.483   45.442
| 46> H  -23.880   24.677   46.035
| 47> H  -24.239   26.057   44.973
| 48> O  -22.586   26.394   46.375
| 49> C  -22.586   24.841   44.306
| 50> C  -21.532   23.881   44.870
| 51> C  -22.380   22.621   45.162
| 52> C  -23.421   22.623   44.014
| 53> O  -23.430   23.993   43.458
| 54> H  -22.184   25.631   43.669
| 55> O  -20.456   23.580   43.791
| 56> H  -21.028   24.270   45.760
| 57> H  -21.784   21.703   45.183
| 58> H  -22.877   22.719   46.134
| 59> H  -24.428   22.369   44.360
| 60> H  -23.146   21.946   43.200
| 61> H  -20.938   23.188   42.888
| 62> *
| 63>
| 64>                          ****END OF INPUT****
 Total Charge           Charge          ....    0
 Multiplicity           Mult            ....    1
 Number of Electrons    NEL             ....  102
FINAL SINGLE POINT ENERGY      -652.789740605141
FINAL SINGLE POINT ENERGY      -652.830041235421
FINAL SINGLE POINT ENERGY      -652.847463256353
FINAL SINGLE POINT ENERGY      -652.849948698835
FINAL SINGLE POINT ENERGY      -652.850373975873
FINAL SINGLE POINT ENERGY      -652.850450403997
FINAL SINGLE POINT ENERGY      -652.850456053338
FINAL SINGLE POINT ENERGY      -652.850457419353
                    ***********************HURRAY********************

CARTESIAN COORDINATES (ANGSTROEM)
---------------------------------
  C    -20.760136   26.301207   46.312831
  C    -20.249441   27.727122   46.098594
  C    -20.540949   28.382178   47.472474
  C    -20.292476   27.222798   48.462908
  O    -20.343776   25.979476   47.656216
  H    -20.316181   25.563688   45.650522
  H    -19.170943   27.702450   45.901034
  H    -20.752456   28.225141   45.267123
  H    -19.900490   29.246220   47.671285
  H    -21.585390   28.704032   47.510170
  H    -21.049265   27.161233   49.249734
  H    -19.298342   27.259678   48.919337
  C    -23.050001   25.489074   45.389557
  H    -23.568260   24.782322   46.050715
  H    -23.804629   26.163884   44.975974
  O    -22.202294   26.324466   46.237638
  C    -22.468179   24.691064   44.203811
  C    -21.467500   23.562133   44.516985
  C    -22.408594   22.437034   45.046504
  C    -23.682732   22.628932   44.184892
  O    -23.614120   23.992096   43.613171
  H    -22.065415   25.360086   43.437332
  O    -20.767389   23.164360   43.305713
  H    -20.685477   23.805280   45.229210
  H    -21.945104   21.456428   44.913606
  H    -22.613024   22.584957   46.111733
  H    -24.605497   22.535721   44.765071
  H    -23.728808   21.930381   43.343585
  H    -21.413131   23.073558   42.573273

 Multiplicity           Mult            ....    1
 Number of Electrons    NEL             ....  102
 Basis Dimension        Dim             ....  149

ORBITAL ENERGIES
----------------

  NO   OCC          E(Eh)            E(eV)
   0   2.0000     -19.152861      -521.1758
   1   2.0000     -19.143376      -520.9177
   2   2.0000     -19.137120      -520.7475
   3   2.0000     -19.135319      -520.6985
   4   2.0000     -10.278904      -279.7032
   5   2.0000     -10.246323      -278.8166
   6   2.0000     -10.243499      -278.7398
   7   2.0000     -10.236948      -278.5615
   8   2.0000     -10.233526      -278.4684
   9   2.0000     -10.221581      -278.1434
  10   2.0000     -10.193352      -277.3752
  11   2.0000     -10.181471      -277.0519
  12   2.0000     -10.181145      -277.0430
  13   2.0000      -1.048845       -28.5405
  14   2.0000      -1.043541       -28.3962
  15   2.0000      -1.012868       -27.5615
  16   2.0000      -0.988430       -26.8966
  17   2.0000      -0.785642       -21.3784
  18   2.0000      -0.781004       -21.2522
  19   2.0000      -0.769333       -20.9346
  20   2.0000      -0.735728       -20.0202
  21   2.0000      -0.677695       -18.4410
  22   2.0000      -0.610247       -16.6057
  23   2.0000      -0.605922       -16.4880
  24   2.0000      -0.594862       -16.1870
  25   2.0000      -0.576913       -15.6986
  26   2.0000      -0.527337       -14.3496
  27   2.0000      -0.520898       -14.1744
  28   2.0000      -0.499633       -13.5957
  29   2.0000      -0.480082       -13.0637
  30   2.0000      -0.473676       -12.8894
  31   2.0000      -0.460122       -12.5205
  32   2.0000      -0.449301       -12.2261
  33   2.0000      -0.432477       -11.7683
  34   2.0000      -0.428281       -11.6541
  35   2.0000      -0.421389       -11.4666
  36   2.0000      -0.399202       -10.8628
  37   2.0000      -0.397796       -10.8246
  38   2.0000      -0.374457       -10.1895
  39   2.0000      -0.373955       -10.1758
  40   2.0000      -0.365399        -9.9430
  41   2.0000      -0.352961        -9.6046
  42   2.0000      -0.347744        -9.4626
  43   2.0000      -0.334861        -9.1120
  44   2.0000      -0.314735        -8.5644
  45   2.0000      -0.312974        -8.5165
  46   2.0000      -0.304917        -8.2972
  47   2.0000      -0.276257        -7.5173
  48   2.0000      -0.263113        -7.1597
  49   2.0000      -0.250744        -6.8231
  50   2.0000      -0.241059        -6.5595
  51   0.0000       0.059496         1.6190
  52   0.0000       0.073946         2.0122
  53   0.0000       0.093093         2.5332
  54   0.0000       0.095567         2.6005
  55   0.0000       0.099486         2.7072

MULLIKEN ATOMIC CHARGES
-----------------------
   0 C :    0.275899
   1 C :   -0.247918
   2 C :   -0.296327
   3 C :   -0.001952
   4 O :   -0.505287
   5 H :    0.144109
   6 H :    0.142379
   7 H :    0.143474
   8 H :    0.137893
   9 H :    0.163597
  10 H :    0.150463
  11 H :    0.140322
  12 C :    0.021353
  13 H :    0.137974
  14 H :    0.163549
  15 O :   -0.539785
  16 C :    0.022087
  17 C :    0.077973
  18 C :   -0.309450
  19 C :   -0.029809
  20 O :   -0.522474
  21 H :    0.161176
  22 O :   -0.601653
  23 H :    0.180334
  24 H :    0.165380
  25 H :    0.162218
  26 H :    0.149921
  27 H :    0.149883
  28 H :    0.364668
Sum of atomic charges:   -0.0000000

LOEWDIN ATOMIC CHARGES
----------------------
   0 C :    0.173885
   1 C :   -0.219732
   2 C :   -0.215925
   3 C :   -0.026725
   4 O :   -0.320554
   5 H :    0.099387
   6 H :    0.111431
   7 H :    0.117174
   8 H :    0.112460
   9 H :    0.119941
  10 H :    0.106849
  11 H :    0.101223
  12 C :   -0.034446
  13 H :    0.100000
  14 H :    0.118245
  15 O :   -0.339702
  16 C :    0.003615
  17 C :    0.030577
  18 C :   -0.241849
  19 C :   -0.039101
  20 O :   -0.323693
  21 H :    0.113679
  22 O :   -0.413580
  23 H :    0.123472
  24 H :    0.128350
  25 H :    0.121675
  26 H :    0.106107
  27 H :    0.104199
  28 H :    0.283035

  Mayer bond orders larger than 0.100000
B(  0-C ,  1-C ) :   0.9388 B(  0-C ,  4-O ) :   0.9307 B(  0-C ,  5-H ) :   0.9037
B(  0-C , 15-O ) :   0.8460 B(  1-C ,  2-C ) :   0.9584 B(  1-C ,  6-H ) :   0.9375
B(  1-C ,  7-H ) :   0.9397 B(  2-C ,  3-C ) :   0.9541 B(  2-C ,  8-H ) :   0.9458
B(  2-C ,  9-H ) :   0.9432 B(  3-C ,  4-O ) :   0.8366 B(  3-C , 10-H ) :   0.9352
B(  3-C , 11-H ) :   0.9399 B( 12-C , 13-H ) :   0.9247 B( 12-C , 14-H ) :   0.9254
B( 12-C , 15-O ) :   0.8401 B( 12-C , 16-C ) :   0.8872 B( 16-C , 17-C ) :   0.9017
B( 16-C , 20-O ) :   0.8275 B( 16-C , 21-H ) :   0.9231 B( 17-C , 18-C ) :   0.9083
B( 17-C , 22-O ) :   0.8878 B( 17-C , 23-H ) :   0.9133 B( 18-C , 19-C ) :   0.9409
B( 18-C , 24-H ) :   0.9372 B( 18-C , 25-H ) :   0.9313 B( 19-C , 20-O ) :   0.8364
B( 19-C , 26-H ) :   0.9354 B( 19-C , 27-H ) :   0.9373 B( 22-O , 28-H ) :   0.7941

FINAL SINGLE POINT ENERGY      -652.850457192322

DIPOLE MOMENT
-------------
                                X             Y             Z
Electronic contribution:     -0.59997      -2.02834      -2.45589
Nuclear contribution   :      0.39427       2.13695       2.45955
                        -----------------------------------------
Total Dipole Moment    :     -0.20569       0.10861       0.00366
                        -----------------------------------------
Magnitude (a.u.)       :      0.23263
Magnitude (Debye)      :      0.59131

Rotational constants in cm-1:     0.057862     0.012801     0.012375
Rotational constants in MHz :  1734.669035   383.775375   371.006449

                             ****ORCA TERMINATED NORMALLY****
TOTAL RUN TIME: 0 days 0 hours 25 minutes 37 seconds 720 msec
