                         Program Version 4.2.0 -  RELEASE  -
|  1> # Test redundant internal optimization
|  2> #
|  3> ! RKS B3LYP  Opt TightSCF SmallPrint
|  4>
|  5> %basis
|  6>         Basis "6-31G"
|  7> end
|  8>
|  9> %geom
| 10> Constraints
| 11> { D 4  0  15  12  195.0   C } # D for Dihedral angle
| 12> { D 0  15  12  16  135.0   C } # D for Dihedral angle
| 13> { D 0  4  3  2   C } # D for Dihedral angle
| 14> { D 4  3  2  1   C } # D for Dihedral angle
| 15> { D 3  2  1  0   C } # D for Dihedral angle
| 16> { D 2  1  0  4   C } # D for Dihedral angle
| 17> { D 1  0  4  3   C } # D for Dihedral angle
| 18> { D 16  20  19  18   C } # D for Dihedral angle
| 19> { D 20  19  18  17   C } # D for Dihedral angle
| 20> { D 19  18  17  16   C } # D for Dihedral angle
| 21> { D 18  17  16  20   C } # D for Dihedral angle
| 22> { D 17  16  20  19   C } # D for Dihedral angle
| 23> { D 15  12  16  20   C } # D for Dihedral angle
| 24> end
| 25> end
| 26>
| 27>
| 28> #%pal
| 29> #nprocs 8
| 30> #end
| 31>
| 32> * xyz 0 1
| 33> C  -21.048   26.222   46.251
| 34> C  -20.361   27.558   45.944
| 35> C  -20.329   28.222   47.341
| 36> C  -20.110   27.022   48.296
| 37> O  -20.473   25.807   47.535
| 38> H  -20.833   25.428   45.533
| 39> H  -19.344   27.382   45.576
| 40> H  -20.898   28.157   45.201
| 41> H  -19.543   28.978   47.434
| 42> H  -21.289   28.710   47.548
| 43> H  -20.733   27.082   49.195
| 44> H  -19.064   26.913   48.597
| 45> C  -23.353   26.472   45.026
| 46> H  -23.644   27.513   44.835
| 47> H  -22.712   26.138   44.200
| 48> O  -22.586   26.394   46.375
| 49> C  -24.635   25.595   45.013
| 50> C  -24.317   24.137   45.363
| 51> C  -24.193   24.204   46.904
| 52> C  -25.252   25.264   47.296
| 53> O  -25.561   26.025   46.066
| 54> H  -25.150   25.729   44.060
| 55> O  -25.499   23.219   44.948
| 56> H  -23.406   23.767   44.880
| 57> H  -24.371   23.238   47.387
| 58> H  -23.188   24.540   47.187
| 59> H  -24.891   25.955   48.065
| 60> H  -26.188   24.813   47.638
| 61> H  -26.422   23.571   45.421
| 62> *
| 63>
| 64>                          ****END OF INPUT****
 Total Charge           Charge          ....    0
 Multiplicity           Mult            ....    1
 Number of Electrons    NEL             ....  102
FINAL SINGLE POINT ENERGY      -652.834249249242
FINAL SINGLE POINT ENERGY      -652.856878907790
FINAL SINGLE POINT ENERGY      -652.860682910579
FINAL SINGLE POINT ENERGY      -652.862003706895
FINAL SINGLE POINT ENERGY      -652.862133754638
FINAL SINGLE POINT ENERGY      -652.862155442349
                    ***********************HURRAY********************

CARTESIAN COORDINATES (ANGSTROEM)
---------------------------------
  C    -21.074302   26.234050   46.192037
  C    -20.358882   27.551164   45.900465
  C    -20.388325   28.245214   47.283486
  C    -20.234023   27.065035   48.264657
  O    -20.581716   25.847315   47.481180
  H    -20.860939   25.418407   45.492309
  H    -19.328759   27.341919   45.588168
  H    -20.843590   28.139502   45.116189
  H    -19.593895   28.988867   47.396422
  H    -21.352337   28.741863   47.426846
  H    -20.904474   27.126288   49.124838
  H    -19.205906   26.927657   48.611304
  C    -23.261877   26.481601   45.061539
  H    -23.548766   27.522856   44.874203
  H    -22.641443   26.135207   44.220107
  O    -22.514998   26.418582   46.311471
  C    -24.527537   25.626581   45.129984
  C    -24.335682   24.126765   45.400377
  C    -24.224555   24.094483   46.949084
  C    -25.196985   25.215447   47.389853
  O    -25.424670   26.068331   46.196924
  H    -25.069130   25.769058   44.186330
  O    -25.478486   23.370910   44.907743
  H    -23.471548   23.693787   44.894828
  H    -24.508897   23.110583   47.333206
  H    -23.205288   24.329588   47.258194
  H    -24.778554   25.835838   48.186241
  H    -26.175420   24.836691   47.703192
  H    -26.302016   23.791408   45.233823

 Multiplicity           Mult            ....    1
 Number of Electrons    NEL             ....  102
 Basis Dimension        Dim             ....  149

ORBITAL ENERGIES
----------------

  NO   OCC          E(Eh)            E(eV)
   0   2.0000     -19.147822      -521.0387
   1   2.0000     -19.146594      -521.0053
   2   2.0000     -19.134547      -520.6775
   3   2.0000     -19.132490      -520.6215
   4   2.0000     -10.286834      -279.9190
   5   2.0000     -10.236096      -278.5383
   6   2.0000     -10.233788      -278.4755
   7   2.0000     -10.231698      -278.4187
   8   2.0000     -10.230105      -278.3753
   9   2.0000     -10.217532      -278.0332
  10   2.0000     -10.191892      -277.3355
  11   2.0000     -10.190583      -277.2999
  12   2.0000     -10.169854      -276.7358
  13   2.0000      -1.060187       -28.8491
  14   2.0000      -1.029620       -28.0174
  15   2.0000      -1.003248       -27.2998
  16   2.0000      -0.994734       -27.0681
  17   2.0000      -0.791725       -21.5439
  18   2.0000      -0.774784       -21.0829
  19   2.0000      -0.760655       -20.6985
  20   2.0000      -0.735183       -20.0054
  21   2.0000      -0.675020       -18.3682
  22   2.0000      -0.605761       -16.4836
  23   2.0000      -0.599134       -16.3033
  24   2.0000      -0.592501       -16.1228
  25   2.0000      -0.574954       -15.6453
  26   2.0000      -0.527463       -14.3530
  27   2.0000      -0.504061       -13.7162
  28   2.0000      -0.501756       -13.6535
  29   2.0000      -0.488174       -13.2839
  30   2.0000      -0.474305       -12.9065
  31   2.0000      -0.455717       -12.4007
  32   2.0000      -0.448757       -12.2113
  33   2.0000      -0.436201       -11.8696
  34   2.0000      -0.426969       -11.6184
  35   2.0000      -0.409942       -11.1551
  36   2.0000      -0.403583       -10.9821
  37   2.0000      -0.382865       -10.4183
  38   2.0000      -0.379449       -10.3253
  39   2.0000      -0.363885        -9.9018
  40   2.0000      -0.361635        -9.8406
  41   2.0000      -0.355029        -9.6608
  42   2.0000      -0.354183        -9.6378
  43   2.0000      -0.327184        -8.9031
  44   2.0000      -0.317054        -8.6275
  45   2.0000      -0.311945        -8.4884
  46   2.0000      -0.299842        -8.1591
  47   2.0000      -0.267733        -7.2854
  48   2.0000      -0.262987        -7.1562
  49   2.0000      -0.259488        -7.0610
  50   2.0000      -0.236287        -6.4297
  51   0.0000       0.068023         1.8510
  52   0.0000       0.079180         2.1546
  53   0.0000       0.089829         2.4444
  54   0.0000       0.103659         2.8207
  55   0.0000       0.112271         3.0551

MULLIKEN ATOMIC CHARGES
-----------------------
   0 C :    0.297279
   1 C :   -0.268383
   2 C :   -0.298777
   3 C :   -0.002722
   4 O :   -0.508142
   5 H :    0.140245
   6 H :    0.146432
   7 H :    0.146483
   8 H :    0.144364
   9 H :    0.164671
  10 H :    0.155677
  11 H :    0.144433
  12 C :   -0.005437
  13 H :    0.151942
  14 H :    0.120590
  15 O :   -0.513062
  16 C :    0.075117
  17 C :    0.074835
  18 C :   -0.284015
  19 C :   -0.019892
  20 O :   -0.528208
  21 H :    0.149559
  22 O :   -0.606100
  23 H :    0.142975
  24 H :    0.143345
  25 H :    0.185981
  26 H :    0.154931
  27 H :    0.132818
  28 H :    0.363060
Sum of atomic charges:   -0.0000000

LOEWDIN ATOMIC CHARGES
----------------------
   0 C :    0.177582
   1 C :   -0.228951
   2 C :   -0.216279
   3 C :   -0.024146
   4 O :   -0.306532
   5 H :    0.095437
   6 H :    0.114830
   7 H :    0.115955
   8 H :    0.115694
   9 H :    0.120547
  10 H :    0.110302
  11 H :    0.103864
  12 C :   -0.040457
  13 H :    0.108574
  14 H :    0.095224
  15 O :   -0.333412
  16 C :    0.012390
  17 C :    0.038526
  18 C :   -0.240643
  19 C :   -0.032035
  20 O :   -0.331551
  21 H :    0.113246
  22 O :   -0.418454
  23 H :    0.111731
  24 H :    0.116400
  25 H :    0.135129
  26 H :    0.110057
  27 H :    0.094864
  28 H :    0.282108

  Mayer bond orders larger than 0.100000
B(  0-C ,  1-C ) :   0.9308 B(  0-C ,  4-O ) :   0.9305 B(  0-C ,  5-H ) :   0.9177
B(  0-C , 15-O ) :   0.8258 B(  1-C ,  2-C ) :   0.9524 B(  1-C ,  6-H ) :   0.9338
B(  1-C ,  7-H ) :   0.9363 B(  2-C ,  3-C ) :   0.9561 B(  2-C ,  8-H ) :   0.9448
B(  2-C ,  9-H ) :   0.9434 B(  3-C ,  4-O ) :   0.8304 B(  3-C , 10-H ) :   0.9347
B(  3-C , 11-H ) :   0.9396 B( 12-C , 13-H ) :   0.9220 B( 12-C , 14-H ) :   0.9095
B( 12-C , 15-O ) :   0.8450 B( 12-C , 16-C ) :   0.9029 B( 16-C , 17-C ) :   0.9066
B( 16-C , 20-O ) :   0.8762 B( 16-C , 21-H ) :   0.9206 B( 17-C , 18-C ) :   0.9233
B( 17-C , 22-O ) :   0.8887 B( 17-C , 23-H ) :   0.9371 B( 18-C , 19-C ) :   0.9438
B( 18-C , 24-H ) :   0.9382 B( 18-C , 25-H ) :   0.9137 B( 19-C , 20-O ) :   0.8360
B( 19-C , 26-H ) :   0.9344 B( 19-C , 27-H ) :   0.9381 B( 22-O , 28-H ) :   0.7958

FINAL SINGLE POINT ENERGY      -652.862156038505

DIPOLE MOMENT
-------------
                                X             Y             Z
Electronic contribution:     -3.66284      -2.82659      -1.21641
Nuclear contribution   :      4.58869       3.75574       1.12824
                        -----------------------------------------
Total Dipole Moment    :      0.92585       0.92915      -0.08817
                        -----------------------------------------
Magnitude (a.u.)       :      1.31465
Magnitude (Debye)      :      3.34157

Rotational constants in cm-1:     0.057324     0.013845     0.013417
Rotational constants in MHz :  1718.528035   415.067706   402.216974

                             ****ORCA TERMINATED NORMALLY****
TOTAL RUN TIME: 0 days 0 hours 39 minutes 54 seconds 935 msec
