                         Program Version 4.2.0 -  RELEASE  -
|  1> # Test redundant internal optimization
|  2> #
|  3> ! RKS B3LYP  Opt TightSCF SmallPrint
|  4>
|  5> %basis
|  6>         Basis "6-31G"
|  7> end
|  8>
|  9> %geom
| 10> Constraints
| 11> { D 4  0  15  12  195.0   C } # D for Dihedral angle
| 12> { D 0  15  12  16  225.0   C } # D for Dihedral angle
| 13> { D 0  4  3  2   C } # D for Dihedral angle
| 14> { D 4  3  2  1   C } # D for Dihedral angle
| 15> { D 3  2  1  0   C } # D for Dihedral angle
| 16> { D 2  1  0  4   C } # D for Dihedral angle
| 17> { D 1  0  4  3   C } # D for Dihedral angle
| 18> { D 16  20  19  18   C } # D for Dihedral angle
| 19> { D 20  19  18  17   C } # D for Dihedral angle
| 20> { D 19  18  17  16   C } # D for Dihedral angle
| 21> { D 18  17  16  20   C } # D for Dihedral angle
| 22> { D 17  16  20  19   C } # D for Dihedral angle
| 23> { D 15  12  16  20   C } # D for Dihedral angle
| 24> end
| 25> end
| 26>
| 27>
| 28> #%pal
| 29> #nprocs 8
| 30> #end
| 31>
| 32> * xyz 0 1
| 33> C  -21.048   26.222   46.251
| 34> C  -20.361   27.558   45.944
| 35> C  -20.329   28.222   47.341
| 36> C  -20.110   27.022   48.296
| 37> O  -20.473   25.807   47.535
| 38> H  -20.833   25.428   45.533
| 39> H  -19.344   27.382   45.576
| 40> H  -20.898   28.157   45.201
| 41> H  -19.543   28.978   47.434
| 42> H  -21.289   28.710   47.548
| 43> H  -20.733   27.082   49.195
| 44> H  -19.064   26.913   48.597
| 45> C  -23.353   26.472   45.026
| 46> H  -22.638   26.649   44.213
| 47> H  -23.874   25.527   44.825
| 48> O  -22.586   26.394   46.375
| 49> C  -24.411   27.610   45.002
| 50> C  -23.749   28.988   45.106
| 51> C  -23.254   29.208   43.657
| 52> C  -24.358   28.537   42.802
| 53> O  -25.103   27.638   43.709
| 54> H  -25.166   27.412   45.765
| 55> O  -24.806   30.058   45.494
| 56> H  -22.939   29.023   45.843
| 57> H  -23.120   30.266   43.411
| 58> H  -22.290   28.706   43.509
| 59> H  -23.948   27.951   41.974
| 60> H  -25.074   29.260   42.404
| 61> H  -25.629   30.043   44.769
| 62> *
| 63>
| 64>                          ****END OF INPUT****
 Total Charge           Charge          ....    0
 Multiplicity           Mult            ....    1
 Number of Electrons    NEL             ....  102
FINAL SINGLE POINT ENERGY      -652.832133429117
FINAL SINGLE POINT ENERGY      -652.854339947280
FINAL SINGLE POINT ENERGY      -652.857919791805
FINAL SINGLE POINT ENERGY      -652.858521203901
FINAL SINGLE POINT ENERGY      -652.858599666101
FINAL SINGLE POINT ENERGY      -652.858609141630
                    ***********************HURRAY********************

CARTESIAN COORDINATES (ANGSTROEM)
---------------------------------
  C    -21.108208   26.216003   46.212109
  C    -20.352217   27.502958   45.885393
  C    -20.378281   28.248512   47.244829
  C    -20.268776   27.094843   48.263962
  O    -20.640664   25.864954   47.518562
  H    -20.892825   25.372400   45.548079
  H    -19.323887   27.250581   45.601234
  H    -20.798107   28.078921   45.070684
  H    -19.561840   28.970480   47.340692
  H    -21.325052   28.781950   47.368162
  H    -20.946118   27.203815   49.114182
  H    -19.248358   26.943168   48.627449
  C    -23.285406   26.445390   45.033143
  H    -22.595267   26.545212   44.182945
  H    -23.833495   25.504521   44.909222
  O    -22.552340   26.412957   46.294148
  C    -24.286533   27.604095   45.028050
  C    -23.699900   29.019705   45.131369
  C    -23.243583   29.279823   43.670731
  C    -24.325731   28.553002   42.832944
  O    -25.002726   27.604736   43.747890
  H    -25.029433   27.443581   45.814575
  O    -24.719072   29.969288   45.548198
  H    -22.903418   29.105289   45.867100
  H    -23.194716   30.352225   43.466841
  H    -22.251276   28.851195   43.492089
  H    -23.907930   27.996967   41.988192
  H    -25.091555   29.236926   42.453806
  H    -25.556287   29.769504   45.078419

 Multiplicity           Mult            ....    1
 Number of Electrons    NEL             ....  102
 Basis Dimension        Dim             ....  149

ORBITAL ENERGIES
----------------

  NO   OCC          E(Eh)            E(eV)
   0   2.0000     -19.149389      -521.0814
   1   2.0000     -19.143606      -520.9240
   2   2.0000     -19.142847      -520.9034
   3   2.0000     -19.139864      -520.8222
   4   2.0000     -10.284099      -279.8446
   5   2.0000     -10.242578      -278.7147
   6   2.0000     -10.236701      -278.5548
   7   2.0000     -10.236517      -278.5498
   8   2.0000     -10.234611      -278.4979
   9   2.0000     -10.227636      -278.3081
  10   2.0000     -10.194251      -277.3997
  11   2.0000     -10.193313      -277.3742
  12   2.0000     -10.191225      -277.3173
  13   2.0000      -1.056022       -28.7358
  14   2.0000      -1.041408       -28.3382
  15   2.0000      -1.009301       -27.4645
  16   2.0000      -0.997012       -27.1301
  17   2.0000      -0.791053       -21.5257
  18   2.0000      -0.784186       -21.3388
  19   2.0000      -0.771965       -21.0062
  20   2.0000      -0.735372       -20.0105
  21   2.0000      -0.679516       -18.4906
  22   2.0000      -0.608845       -16.5675
  23   2.0000      -0.605457       -16.4753
  24   2.0000      -0.595011       -16.1911
  25   2.0000      -0.586180       -15.9508
  26   2.0000      -0.527206       -14.3460
  27   2.0000      -0.520245       -14.1566
  28   2.0000      -0.500210       -13.6114
  29   2.0000      -0.494839       -13.4653
  30   2.0000      -0.478082       -13.0093
  31   2.0000      -0.458802       -12.4846
  32   2.0000      -0.456802       -12.4302
  33   2.0000      -0.441516       -12.0143
  34   2.0000      -0.425226       -11.5710
  35   2.0000      -0.420001       -11.4288
  36   2.0000      -0.411030       -11.1847
  37   2.0000      -0.397184       -10.8079
  38   2.0000      -0.378534       -10.3004
  39   2.0000      -0.376047       -10.2328
  40   2.0000      -0.364020        -9.9055
  41   2.0000      -0.360203        -9.8016
  42   2.0000      -0.357748        -9.7348
  43   2.0000      -0.334707        -9.1078
  44   2.0000      -0.315620        -8.5885
  45   2.0000      -0.311444        -8.4748
  46   2.0000      -0.308046        -8.3824
  47   2.0000      -0.275568        -7.4986
  48   2.0000      -0.263543        -7.1714
  49   2.0000      -0.262447        -7.1415
  50   2.0000      -0.243302        -6.6206
  51   0.0000       0.058430         1.5900
  52   0.0000       0.065787         1.7902
  53   0.0000       0.085440         2.3249
  54   0.0000       0.094494         2.5713
  55   0.0000       0.099326         2.7028

MULLIKEN ATOMIC CHARGES
-----------------------
   0 C :    0.302888
   1 C :   -0.283837
   2 C :   -0.309603
   3 C :   -0.001653
   4 O :   -0.500356
   5 H :    0.142194
   6 H :    0.149553
   7 H :    0.141116
   8 H :    0.145457
   9 H :    0.171804
  10 H :    0.158318
  11 H :    0.143593
  12 C :   -0.011905
  13 H :    0.119655
  14 H :    0.159560
  15 O :   -0.514710
  16 C :    0.061558
  17 C :    0.074689
  18 C :   -0.307144
  19 C :   -0.026758
  20 O :   -0.525551
  21 H :    0.172615
  22 O :   -0.602233
  23 H :    0.170572
  24 H :    0.166072
  25 H :    0.143633
  26 H :    0.146163
  27 H :    0.148957
  28 H :    0.365352
Sum of atomic charges:   -0.0000000

LOEWDIN ATOMIC CHARGES
----------------------
   0 C :    0.182750
   1 C :   -0.234077
   2 C :   -0.217745
   3 C :   -0.024114
   4 O :   -0.300617
   5 H :    0.097038
   6 H :    0.117033
   7 H :    0.109890
   8 H :    0.116171
   9 H :    0.117521
  10 H :    0.111432
  11 H :    0.103320
  12 C :   -0.039295
  13 H :    0.090736
  14 H :    0.113129
  15 O :   -0.340288
  16 C :    0.015738
  17 C :    0.035206
  18 C :   -0.243458
  19 C :   -0.037395
  20 O :   -0.329099
  21 H :    0.120882
  22 O :   -0.413109
  23 H :    0.120326
  24 H :    0.128203
  25 H :    0.108902
  26 H :    0.103861
  27 H :    0.103917
  28 H :    0.283142

  Mayer bond orders larger than 0.100000
B(  0-C ,  1-C ) :   0.9259 B(  0-C ,  4-O ) :   0.9420 B(  0-C ,  5-H ) :   0.9215
B(  0-C , 15-O ) :   0.8339 B(  1-C ,  2-C ) :   0.9510 B(  1-C ,  6-H ) :   0.9329
B(  1-C ,  7-H ) :   0.9265 B(  2-C ,  3-C ) :   0.9528 B(  2-C ,  8-H ) :   0.9444
B(  2-C ,  9-H ) :   0.9327 B(  3-C ,  4-O ) :   0.8339 B(  3-C , 10-H ) :   0.9339
B(  3-C , 11-H ) :   0.9395 B( 12-C , 13-H ) :   0.9228 B( 12-C , 14-H ) :   0.9226
B( 12-C , 15-O ) :   0.8337 B( 12-C , 16-C ) :   0.8992 B( 16-C , 17-C ) :   0.9114
B( 16-C , 20-O ) :   0.8393 B( 16-C , 21-H ) :   0.9237 B( 17-C , 18-C ) :   0.9109
B( 17-C , 22-O ) :   0.8915 B( 17-C , 23-H ) :   0.9145 B( 18-C , 19-C ) :   0.9388
B( 18-C , 24-H ) :   0.9375 B( 18-C , 25-H ) :   0.9273 B( 19-C , 20-O ) :   0.8430
B( 19-C , 26-H ) :   0.9356 B( 19-C , 27-H ) :   0.9379 B( 22-O , 28-H ) :   0.7936

FINAL SINGLE POINT ENERGY      -652.858611010896

DIPOLE MOMENT
-------------
                                X             Y             Z
Electronic contribution:     -4.35656      -3.49915       1.95706
Nuclear contribution   :      5.23456       4.16870      -2.99441
                        -----------------------------------------
Total Dipole Moment    :      0.87800       0.66955      -1.03735
                        -----------------------------------------
Magnitude (a.u.)       :      1.51502
Magnitude (Debye)      :      3.85087

Rotational constants in cm-1:     0.051447     0.014622     0.013519
Rotational constants in MHz :  1542.346311   438.356816   405.294409

                             ****ORCA TERMINATED NORMALLY****
TOTAL RUN TIME: 0 days 0 hours 48 minutes 41 seconds 391 msec
