                         Program Version 4.2.0 -  RELEASE  -
|  1> # Test redundant internal optimization
|  2> #
|  3> ! RKS B3LYP  Opt TightSCF SmallPrint
|  4>
|  5> %basis
|  6>         Basis "6-31G"
|  7> end
|  8>
|  9> %geom
| 10> Constraints
| 11> { D 4  0  15  12  240.0   C } # D for Dihedral angle
| 12> { D 0  15  12  16  90.0   C } # D for Dihedral angle
| 13> { D 0  4  3  2   C } # D for Dihedral angle
| 14> { D 4  3  2  1   C } # D for Dihedral angle
| 15> { D 3  2  1  0   C } # D for Dihedral angle
| 16> { D 2  1  0  4   C } # D for Dihedral angle
| 17> { D 1  0  4  3   C } # D for Dihedral angle
| 18> { D 16  20  19  18   C } # D for Dihedral angle
| 19> { D 20  19  18  17   C } # D for Dihedral angle
| 20> { D 19  18  17  16   C } # D for Dihedral angle
| 21> { D 18  17  16  20   C } # D for Dihedral angle
| 22> { D 17  16  20  19   C } # D for Dihedral angle
| 23> { D 15  12  16  20   C } # D for Dihedral angle
| 24> end
| 25> end
| 26>
| 27>
| 28> #%pal
| 29> #nprocs 8
| 30> #end
| 31>
| 32> * xyz 0 1
| 33> C  -21.048   26.222   46.251
| 34> C  -20.361   27.558   45.944
| 35> C  -20.329   28.222   47.341
| 36> C  -20.110   27.022   48.296
| 37> O  -20.473   25.807   47.535
| 38> H  -20.833   25.428   45.533
| 39> H  -19.344   27.382   45.576
| 40> H  -20.898   28.157   45.201
| 41> H  -19.543   28.978   47.434
| 42> H  -21.289   28.710   47.548
| 43> H  -20.733   27.082   49.195
| 44> H  -19.064   26.913   48.597
| 45> C  -23.430   25.483   45.442
| 46> H  -24.364   25.996   45.183
| 47> H  -22.884   25.274   44.513
| 48> O  -22.586   26.394   46.375
| 49> C  -23.787   24.120   46.097
| 50> C  -22.529   23.382   46.569
| 51> C  -22.217   24.113   47.897
| 52> C  -23.624   24.440   48.458
| 53> O  -24.565   24.328   47.322
| 54> H  -24.416   23.548   45.412
| 55> H  -22.759   22.327   46.754
| 56> O  -21.358   23.457   45.551
| 57> H  -21.624   23.505   48.588
| 58> H  -21.657   25.034   47.697
| 59> H  -23.684   25.449   48.877
| 60> H  -23.948   23.721   49.216
| 61> H  -21.111   24.506   45.352
| 62> *
| 63>
| 64>                          ****END OF INPUT****
 Total Charge           Charge          ....    0
 Multiplicity           Mult            ....    1
 Number of Electrons    NEL             ....  102
FINAL SINGLE POINT ENERGY      -652.751493141038
FINAL SINGLE POINT ENERGY      -652.826922415590
FINAL SINGLE POINT ENERGY      -652.849411371210
FINAL SINGLE POINT ENERGY      -652.855348125189
FINAL SINGLE POINT ENERGY      -652.856824894865
FINAL SINGLE POINT ENERGY      -652.857561452647
FINAL SINGLE POINT ENERGY      -652.858013758795
FINAL SINGLE POINT ENERGY      -652.858476805799
FINAL SINGLE POINT ENERGY      -652.859008036986
FINAL SINGLE POINT ENERGY      -652.859507113178
FINAL SINGLE POINT ENERGY      -652.859890738231
FINAL SINGLE POINT ENERGY      -652.860243542186
FINAL SINGLE POINT ENERGY      -652.860618289506
FINAL SINGLE POINT ENERGY      -652.860978017668
FINAL SINGLE POINT ENERGY      -652.861206627490
FINAL SINGLE POINT ENERGY      -652.861217325983
FINAL SINGLE POINT ENERGY      -652.861271418656
FINAL SINGLE POINT ENERGY      -652.861268137251
                    ***********************HURRAY********************

CARTESIAN COORDINATES (ANGSTROEM)
---------------------------------
  C    -20.956877   26.407791   46.222297
  C    -20.352927   27.767215   45.862373
  C    -20.381167   28.500312   47.226777
  C    -20.099973   27.362945   48.235338
  O    -20.381298   26.097375   47.512466
  H    -20.712107   25.576955   45.559171
  H    -19.322210   27.630655   45.513451
  H    -20.927497   28.276677   45.086279
  H    -19.643585   29.305885   47.292028
  H    -21.376249   28.922613   47.393413
  H    -20.737406   27.410003   49.121894
  H    -19.051333   27.320267   48.545348
  C    -23.253888   25.672782   45.542079
  H    -24.153798   26.270136   45.370121
  H    -22.785093   25.459856   44.571585
  O    -22.396971   26.559524   46.323442
  C    -23.723450   24.341005   46.139607
  C    -22.685507   23.267881   46.495187
  C    -22.300943   23.664074   47.950648
  C    -23.638137   24.190735   48.521343
  O    -24.502611   24.492987   47.358509
  H    -24.424601   23.949110   45.388721
  H    -23.165032   22.280224   46.471064
  O    -21.591550   23.309834   45.536380
  H    -21.924240   22.808758   48.524196
  H    -21.538654   24.444974   47.931452
  H    -23.505455   25.104183   49.109014
  H    -24.166037   23.446282   49.126557
  H    -20.869405   22.716961   45.823260

 Multiplicity           Mult            ....    1
 Number of Electrons    NEL             ....  102
 Basis Dimension        Dim             ....  149

ORBITAL ENERGIES
----------------

  NO   OCC          E(Eh)            E(eV)
   0   2.0000     -19.146271      -520.9965
   1   2.0000     -19.140364      -520.8358
   2   2.0000     -19.133057      -520.6370
   3   2.0000     -19.126146      -520.4489
   4   2.0000     -10.269060      -279.4353
   5   2.0000     -10.236734      -278.5557
   6   2.0000     -10.225189      -278.2415
   7   2.0000     -10.223707      -278.2012
   8   2.0000     -10.220015      -278.1007
   9   2.0000     -10.214615      -277.9538
  10   2.0000     -10.181660      -277.0571
  11   2.0000     -10.179663      -277.0027
  12   2.0000     -10.166260      -276.6380
  13   2.0000      -1.045916       -28.4608
  14   2.0000      -1.025691       -27.9105
  15   2.0000      -1.007710       -27.4212
  16   2.0000      -0.986534       -26.8450
  17   2.0000      -0.782303       -21.2876
  18   2.0000      -0.766497       -20.8575
  19   2.0000      -0.757597       -20.6153
  20   2.0000      -0.726696       -19.7744
  21   2.0000      -0.669475       -18.2173
  22   2.0000      -0.597149       -16.2493
  23   2.0000      -0.593877       -16.1602
  24   2.0000      -0.588597       -16.0165
  25   2.0000      -0.557399       -15.1676
  26   2.0000      -0.517739       -14.0884
  27   2.0000      -0.508461       -13.8359
  28   2.0000      -0.489079       -13.3085
  29   2.0000      -0.484816       -13.1925
  30   2.0000      -0.462824       -12.5941
  31   2.0000      -0.448658       -12.2086
  32   2.0000      -0.436466       -11.8768
  33   2.0000      -0.424951       -11.5635
  34   2.0000      -0.421706       -11.4752
  35   2.0000      -0.408402       -11.1132
  36   2.0000      -0.397763       -10.8237
  37   2.0000      -0.390117       -10.6156
  38   2.0000      -0.364996        -9.9320
  39   2.0000      -0.355763        -9.6808
  40   2.0000      -0.354440        -9.6448
  41   2.0000      -0.349423        -9.5083
  42   2.0000      -0.343510        -9.3474
  43   2.0000      -0.326113        -8.8740
  44   2.0000      -0.317010        -8.6263
  45   2.0000      -0.293514        -7.9869
  46   2.0000      -0.289154        -7.8683
  47   2.0000      -0.273433        -7.4405
  48   2.0000      -0.259566        -7.0632
  49   2.0000      -0.251588        -6.8461
  50   2.0000      -0.225478        -6.1356
  51   0.0000       0.059143         1.6094
  52   0.0000       0.083972         2.2850
  53   0.0000       0.096652         2.6300
  54   0.0000       0.107567         2.9271
  55   0.0000       0.119450         3.2504

MULLIKEN ATOMIC CHARGES
-----------------------
   0 C :    0.275060
   1 C :   -0.248715
   2 C :   -0.301939
   3 C :    0.002761
   4 O :   -0.517888
   5 H :    0.173006
   6 H :    0.138693
   7 H :    0.150070
   8 H :    0.139214
   9 H :    0.166296
  10 H :    0.147860
  11 H :    0.139255
  12 C :   -0.008709
  13 H :    0.159154
  14 H :    0.139212
  15 O :   -0.522836
  16 C :    0.099520
  17 C :    0.088275
  18 C :   -0.362063
  19 C :   -0.005025
  20 O :   -0.521850
  21 H :    0.142322
  22 H :    0.135304
  23 O :   -0.616810
  24 H :    0.123096
  25 H :    0.235148
  26 H :    0.149833
  27 H :    0.135593
  28 H :    0.366163
Sum of atomic charges:    0.0000000

LOEWDIN ATOMIC CHARGES
----------------------
   0 C :    0.168138
   1 C :   -0.218168
   2 C :   -0.216525
   3 C :   -0.027087
   4 O :   -0.319307
   5 H :    0.112482
   6 H :    0.110155
   7 H :    0.120238
   8 H :    0.112752
   9 H :    0.121353
  10 H :    0.105758
  11 H :    0.100754
  12 C :   -0.036246
  13 H :    0.118483
  14 H :    0.104436
  15 O :   -0.333467
  16 C :    0.023343
  17 C :    0.033967
  18 C :   -0.264563
  19 C :   -0.023156
  20 O :   -0.323303
  21 H :    0.111650
  22 H :    0.095742
  23 O :   -0.421229
  24 H :    0.105189
  25 H :    0.148822
  26 H :    0.106020
  27 H :    0.096837
  28 H :    0.286935

  Mayer bond orders larger than 0.100000
B(  0-C ,  1-C ) :   0.9426 B(  0-C ,  4-O ) :   0.8773 B(  0-C ,  5-H ) :   0.9020
B(  0-C , 15-O ) :   0.8459 B(  1-C ,  2-C ) :   0.9554 B(  1-C ,  6-H ) :   0.9383
B(  1-C ,  7-H ) :   0.9399 B(  2-C ,  3-C ) :   0.9553 B(  2-C ,  8-H ) :   0.9456
B(  2-C ,  9-H ) :   0.9428 B(  3-C ,  4-O ) :   0.8299 B(  3-C , 10-H ) :   0.9357
B(  3-C , 11-H ) :   0.9407 B( 12-C , 13-H ) :   0.9346 B( 12-C , 14-H ) :   0.9105
B( 12-C , 15-O ) :   0.8756 B( 12-C , 16-C ) :   0.8969 B( 16-C , 17-C ) :   0.9234
B( 16-C , 20-O ) :   0.8823 B( 16-C , 21-H ) :   0.9199 B( 17-C , 18-C ) :   0.9297
B( 17-C , 22-H ) :   0.9243 B( 17-C , 23-O ) :   0.8660 B( 18-C , 19-C ) :   0.9468
B( 18-C , 24-H ) :   0.9437 B( 18-C , 25-H ) :   0.8747 B( 19-C , 20-O ) :   0.8404
B( 19-C , 26-H ) :   0.9322 B( 19-C , 27-H ) :   0.9381 B( 23-O , 28-H ) :   0.8001

FINAL SINGLE POINT ENERGY      -652.861272817135

DIPOLE MOMENT
-------------
                                X             Y             Z
Electronic contribution:     -2.66298      -3.01808      -1.40510
Nuclear contribution   :      3.69111       2.84657       1.37519
                        -----------------------------------------
Total Dipole Moment    :      1.02813      -0.17151      -0.02991
                        -----------------------------------------
Magnitude (a.u.)       :      1.04277
Magnitude (Debye)      :      2.65051

Rotational constants in cm-1:     0.044953     0.017481     0.017011
Rotational constants in MHz :  1347.652167   524.074455   509.984831

                             ****ORCA TERMINATED NORMALLY****
TOTAL RUN TIME: 0 days 2 hours 1 minutes 9 seconds 315 msec
