                         Program Version 4.2.1 -  RELEASE  -
|  1> # Test redundant internal optimization
|  2> #
|  3> ! RKS B3LYP  Opt TightSCF SmallPrint
|  4>
|  5> %basis
|  6>         Basis "6-31G"
|  7> end
|  8>
|  9> %geom
| 10> Constraints
| 11> { D 4  0  19  14  180.0   C } # D for Dihedral angle
| 12> { D 0  19  14  12  0.0   C } # D for Dihedral angle
| 13> { D 0  4  3  2   C } # D for Dihedral angle
| 14> { D 4  3  2  1   C } # D for Dihedral angle
| 15> { D 3  2  1  0   C } # D for Dihedral angle
| 16> { D 2  1  0  4   C } # D for Dihedral angle
| 17> { D 1  0  4  3   C } # D for Dihedral angle
| 18> { D 14  15  16  17   C } # D for Dihedral angle
| 19> { D 15  16  17  12   C } # D for Dihedral angle
| 20> { D 16  17  12  14   C } # D for Dihedral angle
| 21> { D 17  12  14  15   C } # D for Dihedral angle
| 22> { D 12  14  15  16   C } # D for Dihedral angle
| 23> end
| 24> end
| 25>
| 26>
| 27> #%pal
| 28> #nprocs 8
| 29> #end
| 30>
| 31> * xyz 0 1
| 32> C  -21.048   26.222   46.251
| 33> C  -20.361   27.558   45.944
| 34> C  -20.329   28.222   47.341
| 35> C  -20.110   27.022   48.296
| 36> O  -20.473   25.807   47.535
| 37> H  -20.833   25.428   45.533
| 38> H  -19.344   27.382   45.576
| 39> H  -20.898   28.157   45.201
| 40> H  -19.543   28.978   47.434
| 41> H  -21.289   28.710   47.548
| 42> H  -20.733   27.082   49.195
| 43> H  -19.064   26.913   48.597
| 44> C  -22.090   26.946   44.030
| 45> H  -22.499   27.525   43.187
| 46> C  -23.122   26.788   45.152
| 47> C  -24.012   25.649   44.601
| 48> C  -23.004   24.747   43.846
| 49> O  -21.797   25.571   43.611
| 50> H  -21.145   27.392   44.344
| 51> O  -22.472   26.381   46.366
| 52> H  -23.684   27.707   45.351
| 53> H  -24.548   25.110   45.388
| 54> H  -24.759   26.056   43.907
| 55> H  -23.391   24.396   42.884
| 56> H  -22.692   23.882   44.440
| 57> *
| 58>
| 59>                          ****END OF INPUT****
 Total Charge           Charge          ....    0
 Multiplicity           Mult            ....    1
 Number of Electrons    NEL             ....   86
FINAL SINGLE POINT ENERGY      -538.372598696348
FINAL SINGLE POINT ENERGY      -538.419387749074
FINAL SINGLE POINT ENERGY      -538.422227897222
FINAL SINGLE POINT ENERGY      -538.422678724368
FINAL SINGLE POINT ENERGY      -538.422775994869
FINAL SINGLE POINT ENERGY      -538.422801429263
                    ***********************HURRAY********************

CARTESIAN COORDINATES (ANGSTROEM)
---------------------------------
  C    -20.829833   26.214723   46.268980
  C    -20.048329   27.515049   46.064760
  C    -20.264130   28.246324   47.422022
  C    -20.279741   27.071915   48.423466
  O    -20.534776   25.854960   47.623232
  H    -20.537368   25.388507   45.617421
  H    -18.989366   27.265103   45.925079
  H    -20.365091   28.121507   45.218253
  H    -19.474334   28.971974   47.636660
  H    -21.226636   28.765817   47.416203
  H    -21.063567   27.161963   49.180354
  H    -19.314411   26.925989   48.918409
  C    -22.337037   27.003649   43.737340
  H    -23.010048   27.533191   43.045072
  C    -23.074209   26.777390   45.059055
  C    -23.976775   25.577153   44.707441
  C    -23.109772   24.744102   43.735859
  O    -22.044668   25.653813   43.242582
  H    -21.395039   27.541223   43.780951
  O    -22.282521   26.399396   46.236603
  H    -23.652499   27.658307   45.358659
  H    -24.251238   25.036551   45.614600
  H    -24.891769   25.927731   44.215232
  H    -23.676236   24.367334   42.878177
  H    -22.610607   23.907328   44.231592

 Multiplicity           Mult            ....    1
 Number of Electrons    NEL             ....   86
 Basis Dimension        Dim             ....  127

ORBITAL ENERGIES
----------------

  NO   OCC          E(Eh)            E(eV)
   0   2.0000     -19.137110      -520.7472
   1   2.0000     -19.136228      -520.7232
   2   2.0000     -19.130959      -520.5799
   3   2.0000     -10.276617      -279.6410
   4   2.0000     -10.242977      -278.7256
   5   2.0000     -10.230867      -278.3960
   6   2.0000     -10.223398      -278.1928
   7   2.0000     -10.222053      -278.1562
   8   2.0000     -10.185564      -277.1633
   9   2.0000     -10.185326      -277.1568
  10   2.0000     -10.182901      -277.0908
  11   2.0000      -1.048171       -28.5222
  12   2.0000      -1.018823       -27.7236
  13   2.0000      -0.981144       -26.6983
  14   2.0000      -0.786858       -21.4115
  15   2.0000      -0.779478       -21.2107
  16   2.0000      -0.741107       -20.1666
  17   2.0000      -0.726367       -19.7654
  18   2.0000      -0.618320       -16.8254
  19   2.0000      -0.603280       -16.4161
  20   2.0000      -0.594222       -16.1696
  21   2.0000      -0.565427       -15.3860
  22   2.0000      -0.517929       -14.0936
  23   2.0000      -0.500783       -13.6270
  24   2.0000      -0.488487       -13.2924
  25   2.0000      -0.485238       -13.2040
  26   2.0000      -0.451128       -12.2758
  27   2.0000      -0.447666       -12.1816
  28   2.0000      -0.431244       -11.7347
  29   2.0000      -0.411622       -11.2008
  30   2.0000      -0.407183       -11.0800
  31   2.0000      -0.386563       -10.5189
  32   2.0000      -0.373704       -10.1690
  33   2.0000      -0.367335        -9.9957
  34   2.0000      -0.362517        -9.8646
  35   2.0000      -0.349977        -9.5234
  36   2.0000      -0.348479        -9.4826
  37   2.0000      -0.318255        -8.6602
  38   2.0000      -0.305731        -8.3194
  39   2.0000      -0.289202        -7.8696
  40   2.0000      -0.254781        -6.9330
  41   2.0000      -0.247075        -6.7232
  42   2.0000      -0.241537        -6.5726
  43   0.0000       0.075183         2.0458
  44   0.0000       0.090499         2.4626
  45   0.0000       0.098582         2.6826
  46   0.0000       0.107336         2.9208
  47   0.0000       0.117801         3.2055

MULLIKEN ATOMIC CHARGES
-----------------------
   0 C :    0.309799
   1 C :   -0.282100
   2 C :   -0.299786
   3 C :    0.002445
   4 O :   -0.499964
   5 H :    0.161297
   6 H :    0.150553
   7 H :    0.139230
   8 H :    0.141096
   9 H :    0.154687
  10 H :    0.151810
  11 H :    0.141299
  12 C :   -0.041397
  13 H :    0.136389
  14 C :    0.088792
  15 C :   -0.282949
  16 C :   -0.009560
  17 O :   -0.527369
  18 H :    0.159100
  19 O :   -0.534892
  20 H :    0.139434
  21 H :    0.173545
  22 H :    0.134794
  23 H :    0.139654
  24 H :    0.154095
Sum of atomic charges:   -0.0000000

LOEWDIN ATOMIC CHARGES
----------------------
   0 C :    0.188160
   1 C :   -0.233125
   2 C :   -0.217534
   3 C :   -0.025618
   4 O :   -0.300374
   5 H :    0.106690
   6 H :    0.117524
   7 H :    0.110211
   8 H :    0.113840
   9 H :    0.114734
  10 H :    0.107862
  11 H :    0.101691
  12 C :   -0.055577
  13 H :    0.099246
  14 C :    0.042753
  15 C :   -0.227837
  16 C :   -0.031168
  17 O :   -0.336993
  18 H :    0.113910
  19 O :   -0.344384
  20 H :    0.105418
  21 H :    0.132908
  22 H :    0.108753
  23 H :    0.101259
  24 H :    0.107651

  Mayer bond orders larger than 0.100000
B(  0-C ,  1-C ) :   0.9291 B(  0-C ,  4-O ) :   0.9284 B(  0-C ,  5-H ) :   0.9147
B(  0-C , 19-O ) :   0.8214 B(  1-C ,  2-C ) :   0.9474 B(  1-C ,  6-H ) :   0.9333
B(  1-C ,  7-H ) :   0.9252 B(  2-C ,  3-C ) :   0.9549 B(  2-C ,  8-H ) :   0.9447
B(  2-C ,  9-H ) :   0.9458 B(  3-C ,  4-O ) :   0.8353 B(  3-C , 10-H ) :   0.9352
B(  3-C , 11-H ) :   0.9397 B( 12-C , 13-H ) :   0.9106 B( 12-C , 14-C ) :   0.9241
B( 12-C , 17-O ) :   0.8580 B( 12-C , 18-H ) :   0.9183 B( 14-C , 15-C ) :   0.9323
B( 14-C , 19-O ) :   0.8530 B( 14-C , 20-H ) :   0.9292 B( 15-C , 16-C ) :   0.9474
B( 15-C , 21-H ) :   0.9348 B( 15-C , 22-H ) :   0.9382 B( 16-C , 17-O ) :   0.8449
B( 16-C , 23-H ) :   0.9350 B( 16-C , 24-H ) :   0.9368

FINAL SINGLE POINT ENERGY      -538.422803815227

DIPOLE MOMENT
-------------
                                X             Y             Z
Electronic contribution:      0.25639      -2.96664       0.28552
Nuclear contribution   :     -0.55597       3.99876      -0.47405
                        -----------------------------------------
Total Dipole Moment    :     -0.29958       1.03212      -0.18853
                        -----------------------------------------
Magnitude (a.u.)       :      1.09113
Magnitude (Debye)      :      2.77343

Rotational constants in cm-1:     0.082039     0.021923     0.020793
Rotational constants in MHz :  2459.468653   657.230338   623.372232

                             ****ORCA TERMINATED NORMALLY****
TOTAL RUN TIME: 0 days 0 hours 8 minutes 50 seconds 448 msec
