                         Program Version 4.2.0 -  RELEASE  -
|  1> # Test redundant internal optimization
|  2> #
|  3> ! RKS B3LYP  Opt TightSCF SmallPrint
|  4>
|  5> %basis
|  6>         Basis "6-31G"
|  7> end
|  8>
|  9> %geom
| 10> Constraints
| 11> { D 4  0  15  12  15.0   C } # D for Dihedral angle
| 12> { D 0  15  12  16  270.0   C } # D for Dihedral angle
| 13> { D 0  4  3  2   C } # D for Dihedral angle
| 14> { D 4  3  2  1   C } # D for Dihedral angle
| 15> { D 3  2  1  0   C } # D for Dihedral angle
| 16> { D 2  1  0  4   C } # D for Dihedral angle
| 17> { D 1  0  4  3   C } # D for Dihedral angle
| 18> { D 16  20  19  18   C } # D for Dihedral angle
| 19> { D 20  19  18  17   C } # D for Dihedral angle
| 20> { D 19  18  17  16   C } # D for Dihedral angle
| 21> { D 18  17  16  20   C } # D for Dihedral angle
| 22> { D 17  16  20  19   C } # D for Dihedral angle
| 23> { D 15  12  16  20   C } # D for Dihedral angle
| 24> end
| 25> end
| 26>
| 27>
| 28> #%pal
| 29> #nprocs 8
| 30> #end
| 31>
| 32> * xyz 0 1
| 33> C  -21.048   26.222   46.251
| 34> C  -20.361   27.558   45.944
| 35> C  -20.329   28.222   47.341
| 36> C  -20.110   27.022   48.296
| 37> O  -20.473   25.807   47.535
| 38> H  -20.833   25.428   45.533
| 39> H  -19.344   27.382   45.576
| 40> H  -20.898   28.157   45.201
| 41> H  -19.543   28.978   47.434
| 42> H  -21.289   28.710   47.548
| 43> H  -20.733   27.082   49.195
| 44> H  -19.064   26.913   48.597
| 45> C  -23.128   26.462   47.829
| 46> H  -22.365   26.910   48.479
| 47> H  -24.028   27.089   47.875
| 48> O  -22.586   26.394   46.375
| 49> C  -23.496   25.064   48.399
| 50> C  -22.256   24.173   48.531
| 51> C  -21.622   24.709   49.837
| 52> C  -22.855   25.081   50.699
| 53> O  -24.000   25.187   49.771
| 54> H  -24.300   24.634   47.800
| 55> O  -22.682   22.689   48.697
| 56> H  -21.581   24.243   47.671
| 57> H  -20.976   23.975   50.328
| 58> H  -21.017   25.598   49.623
| 59> H  -22.728   26.034   51.223
| 60> H  -23.102   24.306   51.430
| 61> H  -23.359   22.594   49.555
| 62> *
| 63>
| 64>                          ****END OF INPUT****
 Total Charge           Charge          ....    0
 Multiplicity           Mult            ....    1
 Number of Electrons    NEL             ....  102
FINAL SINGLE POINT ENERGY      -652.810722339606
FINAL SINGLE POINT ENERGY      -652.840171606645
FINAL SINGLE POINT ENERGY      -652.855734435103
FINAL SINGLE POINT ENERGY      -652.858199233895
FINAL SINGLE POINT ENERGY      -652.858634967021
FINAL SINGLE POINT ENERGY      -652.858705700294
FINAL SINGLE POINT ENERGY      -652.858711878374
                    ***********************HURRAY********************

CARTESIAN COORDINATES (ANGSTROEM)
---------------------------------
  C    -21.031827   26.316399   46.321319
  C    -20.466581   27.667288   45.872601
  C    -20.217066   28.373670   47.229543
  C    -19.784699   27.213512   48.153592
  O    -20.235293   25.963843   47.475557
  H    -20.881671   25.516035   45.593717
  H    -19.525038   27.503589   45.335882
  H    -21.161126   28.204237   45.223761
  H    -19.453130   29.154413   47.165205
  H    -21.141986   28.837798   47.588362
  H    -20.234140   27.260521   49.149350
  H    -18.698509   27.134367   48.255732
  C    -23.102251   26.397105   47.837731
  H    -22.506051   26.967049   48.561714
  H    -24.044634   26.927047   47.684831
  O    -22.465551   26.365038   46.528265
  C    -23.419478   25.002456   48.407604
  C    -22.276145   24.012273   48.677076
  C    -21.737731   24.517229   50.042399
  C    -23.019093   25.003337   50.765789
  O    -24.052364   25.188980   49.720452
  H    -24.164400   24.525307   47.761893
  O    -22.808017   22.659095   48.772846
  H    -21.511452   23.981533   47.907078
  H    -21.227409   23.713429   50.579089
  H    -21.028958   25.330809   49.876692
  H    -22.877456   25.949452   51.299131
  H    -23.407293   24.263131   51.472929
  H    -23.626653   22.674058   49.312859

 Multiplicity           Mult            ....    1
 Number of Electrons    NEL             ....  102
 Basis Dimension        Dim             ....  149

ORBITAL ENERGIES
----------------

  NO   OCC          E(Eh)            E(eV)
   0   2.0000     -19.160650      -521.3878
   1   2.0000     -19.141716      -520.8726
   2   2.0000     -19.140787      -520.8473
   3   2.0000     -19.127872      -520.4959
   4   2.0000     -10.285813      -279.8912
   5   2.0000     -10.241645      -278.6893
   6   2.0000     -10.232884      -278.4509
   7   2.0000     -10.227533      -278.3053
   8   2.0000     -10.226941      -278.2892
   9   2.0000     -10.226067      -278.2654
  10   2.0000     -10.198754      -277.5222
  11   2.0000     -10.191430      -277.3229
  12   2.0000     -10.178941      -276.9831
  13   2.0000      -1.060587       -28.8601
  14   2.0000      -1.031073       -28.0569
  15   2.0000      -1.000074       -27.2134
  16   2.0000      -0.996237       -27.1090
  17   2.0000      -0.797216       -21.6933
  18   2.0000      -0.773077       -21.0365
  19   2.0000      -0.766126       -20.8473
  20   2.0000      -0.737269       -20.0621
  21   2.0000      -0.676438       -18.4068
  22   2.0000      -0.612072       -16.6553
  23   2.0000      -0.600201       -16.3323
  24   2.0000      -0.595102       -16.1936
  25   2.0000      -0.571884       -15.5618
  26   2.0000      -0.525850       -14.3091
  27   2.0000      -0.510202       -13.8833
  28   2.0000      -0.509488       -13.8639
  29   2.0000      -0.482274       -13.1233
  30   2.0000      -0.477932       -13.0052
  31   2.0000      -0.456053       -12.4098
  32   2.0000      -0.454237       -12.3604
  33   2.0000      -0.432260       -11.7624
  34   2.0000      -0.422115       -11.4863
  35   2.0000      -0.414356       -11.2752
  36   2.0000      -0.410194       -11.1619
  37   2.0000      -0.386151       -10.5077
  38   2.0000      -0.381166       -10.3721
  39   2.0000      -0.369282       -10.0487
  40   2.0000      -0.360216        -9.8020
  41   2.0000      -0.356442        -9.6993
  42   2.0000      -0.351947        -9.5770
  43   2.0000      -0.336930        -9.1683
  44   2.0000      -0.323623        -8.8062
  45   2.0000      -0.312892        -8.5142
  46   2.0000      -0.299213        -8.1420
  47   2.0000      -0.273095        -7.4313
  48   2.0000      -0.267872        -7.2892
  49   2.0000      -0.257578        -7.0091
  50   2.0000      -0.234851        -6.3906
  51   0.0000       0.057923         1.5762
  52   0.0000       0.071177         1.9368
  53   0.0000       0.087367         2.3774
  54   0.0000       0.095245         2.5918
  55   0.0000       0.107671         2.9299

MULLIKEN ATOMIC CHARGES
-----------------------
   0 C :    0.307096
   1 C :   -0.258703
   2 C :   -0.314742
   3 C :   -0.018642
   4 O :   -0.518488
   5 H :    0.164911
   6 H :    0.148287
   7 H :    0.163562
   8 H :    0.151624
   9 H :    0.156447
  10 H :    0.141308
  11 H :    0.157198
  12 C :   -0.010242
  13 H :    0.123492
  14 H :    0.167744
  15 O :   -0.538325
  16 C :    0.057118
  17 C :    0.086329
  18 C :   -0.303602
  19 C :   -0.034528
  20 O :   -0.529652
  21 H :    0.161955
  22 O :   -0.605634
  23 H :    0.185132
  24 H :    0.157144
  25 H :    0.157579
  26 H :    0.138837
  27 H :    0.146191
  28 H :    0.360603
Sum of atomic charges:   -0.0000000

LOEWDIN ATOMIC CHARGES
----------------------
   0 C :    0.181162
   1 C :   -0.221149
   2 C :   -0.220790
   3 C :   -0.035056
   4 O :   -0.320942
   5 H :    0.109290
   6 H :    0.115862
   7 H :    0.127063
   8 H :    0.119650
   9 H :    0.114324
  10 H :    0.097985
  11 H :    0.109636
  12 C :   -0.034291
  13 H :    0.092158
  14 H :    0.122166
  15 O :   -0.338161
  16 C :    0.007600
  17 C :    0.037226
  18 C :   -0.241610
  19 C :   -0.040737
  20 O :   -0.333348
  21 H :    0.114864
  22 O :   -0.417893
  23 H :    0.131361
  24 H :    0.124523
  25 H :    0.118227
  26 H :    0.099647
  27 H :    0.101555
  28 H :    0.279676

  Mayer bond orders larger than 0.100000
B(  0-C ,  1-C ) :   0.9266 B(  0-C ,  4-O ) :   0.8892 B(  0-C ,  5-H ) :   0.9311
B(  0-C , 15-O ) :   0.8579 B(  1-C ,  2-C ) :   0.9526 B(  1-C ,  6-H ) :   0.9346
B(  1-C ,  7-H ) :   0.9366 B(  2-C ,  3-C ) :   0.9516 B(  2-C ,  8-H ) :   0.9437
B(  2-C ,  9-H ) :   0.9444 B(  3-C ,  4-O ) :   0.8267 B(  3-C , 10-H ) :   0.9251
B(  3-C , 11-H ) :   0.9388 B( 12-C , 13-H ) :   0.9226 B( 12-C , 14-H ) :   0.9340
B( 12-C , 15-O ) :   0.8340 B( 12-C , 16-C ) :   0.8811 B( 16-C , 17-C ) :   0.9166
B( 16-C , 20-O ) :   0.8289 B( 16-C , 21-H ) :   0.9259 B( 17-C , 18-C ) :   0.9162
B( 17-C , 22-O ) :   0.8770 B( 17-C , 23-H ) :   0.9173 B( 18-C , 19-C ) :   0.9424
B( 18-C , 24-H ) :   0.9389 B( 18-C , 25-H ) :   0.9221 B( 19-C , 20-O ) :   0.8423
B( 19-C , 26-H ) :   0.9362 B( 19-C , 27-H ) :   0.9378 B( 22-O , 28-H ) :   0.7961

FINAL SINGLE POINT ENERGY      -652.858713722878

DIPOLE MOMENT
-------------
                                X             Y             Z
Electronic contribution:     -3.84218      -4.66083      -1.81793
Nuclear contribution   :      4.72679       6.02250       2.20167
                        -----------------------------------------
Total Dipole Moment    :      0.88460       1.36167       0.38374
                        -----------------------------------------
Magnitude (a.u.)       :      1.66851
Magnitude (Debye)      :      4.24101

Rotational constants in cm-1:     0.048908     0.016403     0.015992
Rotational constants in MHz :  1466.236117   491.764367   479.427639

                             ****ORCA TERMINATED NORMALLY****
TOTAL RUN TIME: 0 days 0 hours 19 minutes 52 seconds 520 msec
