                         Program Version 4.2.1 -  RELEASE  -
|  1> # Test redundant internal optimization
|  2> #
|  3> ! RKS B3LYP  Opt TightSCF SmallPrint
|  4>
|  5> %basis
|  6>         Basis "6-31G"
|  7> end
|  8>
|  9> %geom
| 10> Constraints
| 11> { D 4  0  19  14  300.0   C } # D for Dihedral angle
| 12> { D 0  19  14  12  270.0   C } # D for Dihedral angle
| 13> { D 0  4  3  2   C } # D for Dihedral angle
| 14> { D 4  3  2  1   C } # D for Dihedral angle
| 15> { D 3  2  1  0   C } # D for Dihedral angle
| 16> { D 2  1  0  4   C } # D for Dihedral angle
| 17> { D 1  0  4  3   C } # D for Dihedral angle
| 18> { D 14  15  16  17   C } # D for Dihedral angle
| 19> { D 15  16  17  12   C } # D for Dihedral angle
| 20> { D 16  17  12  14   C } # D for Dihedral angle
| 21> { D 17  12  14  15   C } # D for Dihedral angle
| 22> { D 12  14  15  16   C } # D for Dihedral angle
| 23> end
| 24> end
| 25>
| 26>
| 27> #%pal
| 28> #nprocs 8
| 29> #end
| 30>
| 31> * xyz 0 1
| 32> C  -21.048   26.222   46.251
| 33> C  -20.361   27.558   45.944
| 34> C  -20.329   28.222   47.341
| 35> C  -20.110   27.022   48.296
| 36> O  -20.473   25.807   47.535
| 37> H  -20.833   25.428   45.533
| 38> H  -19.344   27.382   45.576
| 39> H  -20.898   28.157   45.201
| 40> H  -19.543   28.978   47.434
| 41> H  -21.289   28.710   47.548
| 42> H  -20.733   27.082   49.195
| 43> H  -19.064   26.913   48.597
| 44> C  -23.580   24.387   45.516
| 45> H  -24.352   23.640   45.758
| 46> C  -23.171   25.189   46.758
| 47> C  -22.215   24.203   47.468
| 48> C  -21.506   23.489   46.290
| 49> O  -22.342   23.724   45.091
| 50> H  -23.921   24.995   44.677
| 51> O  -22.472   26.381   46.366
| 52> H  -24.024   25.478   47.382
| 53> H  -21.509   24.703   48.138
| 54> H  -22.790   23.483   48.065
| 55> H  -21.404   22.411   46.450
| 56> H  -20.518   23.911   46.080
| 57> *
| 58>
| 59>                          ****END OF INPUT****
 Total Charge           Charge          ....    0
 Multiplicity           Mult            ....    1
 Number of Electrons    NEL             ....   86
FINAL SINGLE POINT ENERGY      -538.398554600689
FINAL SINGLE POINT ENERGY      -538.432120648736
FINAL SINGLE POINT ENERGY      -538.434774106698
FINAL SINGLE POINT ENERGY      -538.435308285033
FINAL SINGLE POINT ENERGY      -538.435362037850
FINAL SINGLE POINT ENERGY      -538.435373853406
                    ***********************HURRAY********************

CARTESIAN COORDINATES (ANGSTROEM)
---------------------------------
  C    -20.863359   26.320389   46.194564
  C    -20.433777   27.769526   45.956306
  C    -20.402076   28.330031   47.397348
  C    -19.914596   27.124920   48.233465
  O    -20.137272   25.923353   47.386016
  H    -20.577054   25.605920   45.418445
  H    -19.435462   27.778379   45.504369
  H    -21.128842   28.298744   45.301890
  H    -19.742543   29.197149   47.498623
  H    -21.411717   28.623522   47.697430
  H    -20.464082   27.004645   49.171134
  H    -18.842242   27.160448   48.447278
  C    -23.501821   24.393000   45.456418
  H    -24.411185   23.801190   45.641545
  C    -23.066296   25.140858   46.720444
  C    -22.360559   24.023009   47.513552
  C    -21.688798   23.167786   46.414639
  O    -22.368155   23.514842   45.140117
  H    -23.658943   25.057455   44.606154
  O    -22.297841   26.337519   46.356436
  H    -23.919266   25.550764   47.268142
  H    -21.644094   24.406768   48.238063
  H    -23.132575   23.447373   48.037887
  H    -21.798266   22.091617   46.591059
  H    -20.628180   23.405791   46.298677

 Multiplicity           Mult            ....    1
 Number of Electrons    NEL             ....   86
 Basis Dimension        Dim             ....  127

ORBITAL ENERGIES
----------------

  NO   OCC          E(Eh)            E(eV)
   0   2.0000     -19.143271      -520.9149
   1   2.0000     -19.139056      -520.8002
   2   2.0000     -19.128284      -520.5071
   3   2.0000     -10.275667      -279.6151
   4   2.0000     -10.236988      -278.5626
   5   2.0000     -10.227179      -278.2957
   6   2.0000     -10.216856      -278.0148
   7   2.0000     -10.216418      -278.0029
   8   2.0000     -10.184731      -277.1406
   9   2.0000     -10.183023      -277.0941
  10   2.0000     -10.178791      -276.9790
  11   2.0000      -1.050738       -28.5920
  12   2.0000      -1.010508       -27.4973
  13   2.0000      -0.987029       -26.8584
  14   2.0000      -0.791853       -21.5474
  15   2.0000      -0.772540       -21.0219
  16   2.0000      -0.740816       -20.1586
  17   2.0000      -0.717046       -19.5118
  18   2.0000      -0.614696       -16.7267
  19   2.0000      -0.598024       -16.2731
  20   2.0000      -0.594073       -16.1655
  21   2.0000      -0.563198       -15.3254
  22   2.0000      -0.518832       -14.1181
  23   2.0000      -0.496069       -13.4987
  24   2.0000      -0.482322       -13.1246
  25   2.0000      -0.478013       -13.0074
  26   2.0000      -0.448898       -12.2151
  27   2.0000      -0.445919       -12.1341
  28   2.0000      -0.413211       -11.2440
  29   2.0000      -0.412367       -11.2211
  30   2.0000      -0.404226       -10.9995
  31   2.0000      -0.390394       -10.6232
  32   2.0000      -0.369606       -10.0575
  33   2.0000      -0.364370        -9.9150
  34   2.0000      -0.356529        -9.7017
  35   2.0000      -0.353399        -9.6165
  36   2.0000      -0.342076        -9.3084
  37   2.0000      -0.324807        -8.8385
  38   2.0000      -0.304646        -8.2898
  39   2.0000      -0.291089        -7.9209
  40   2.0000      -0.263606        -7.1731
  41   2.0000      -0.254851        -6.9348
  42   2.0000      -0.231833        -6.3085
  43   0.0000       0.079223         2.1558
  44   0.0000       0.098527         2.6811
  45   0.0000       0.104871         2.8537
  46   0.0000       0.113761         3.0956
  47   0.0000       0.115067         3.1311

MULLIKEN ATOMIC CHARGES
-----------------------
   0 C :    0.293363
   1 C :   -0.260518
   2 C :   -0.296868
   3 C :   -0.009165
   4 O :   -0.519283
   5 H :    0.165688
   6 H :    0.145589
   7 H :    0.160079
   8 H :    0.140331
   9 H :    0.160870
  10 H :    0.142716
  11 H :    0.146080
  12 C :   -0.005127
  13 H :    0.122258
  14 C :    0.080856
  15 C :   -0.307438
  16 C :   -0.026726
  17 O :   -0.527910
  18 H :    0.161885
  19 O :   -0.536031
  20 H :    0.143491
  21 H :    0.186910
  22 H :    0.137371
  23 H :    0.138663
  24 H :    0.162915
Sum of atomic charges:   -0.0000000

LOEWDIN ATOMIC CHARGES
----------------------
   0 C :    0.174869
   1 C :   -0.212870
   2 C :   -0.215541
   3 C :   -0.030382
   4 O :   -0.330394
   5 H :    0.105072
   6 H :    0.114098
   7 H :    0.126001
   8 H :    0.113338
   9 H :    0.118634
  10 H :    0.102422
  11 H :    0.104037
  12 C :   -0.045871
  13 H :    0.090552
  14 C :    0.043040
  15 C :   -0.240570
  16 C :   -0.037567
  17 O :   -0.339505
  18 H :    0.118209
  19 O :   -0.328610
  20 H :    0.110055
  21 H :    0.138720
  22 H :    0.113179
  23 H :    0.099857
  24 H :    0.109225

  Mayer bond orders larger than 0.100000
B(  0-C ,  1-C ) :   0.9454 B(  0-C ,  4-O ) :   0.8807 B(  0-C ,  5-H ) :   0.9119
B(  0-C , 19-O ) :   0.8564 B(  1-C ,  2-C ) :   0.9558 B(  1-C ,  6-H ) :   0.9407
B(  1-C ,  7-H ) :   0.9364 B(  2-C ,  3-C ) :   0.9567 B(  2-C ,  8-H ) :   0.9453
B(  2-C ,  9-H ) :   0.9442 B(  3-C ,  4-O ) :   0.8333 B(  3-C , 10-H ) :   0.9356
B(  3-C , 11-H ) :   0.9402 B( 12-C , 13-H ) :   0.9132 B( 12-C , 14-C ) :   0.9168
B( 12-C , 17-O ) :   0.8650 B( 12-C , 18-H ) :   0.9332 B( 14-C , 15-C ) :   0.9419
B( 14-C , 19-O ) :   0.8553 B( 14-C , 20-H ) :   0.9358 B( 15-C , 16-C ) :   0.9489
B( 15-C , 21-H ) :   0.9158 B( 15-C , 22-H ) :   0.9347 B( 16-C , 17-O ) :   0.8471
B( 16-C , 23-H ) :   0.9350 B( 16-C , 24-H ) :   0.9284

FINAL SINGLE POINT ENERGY      -538.435374885317

DIPOLE MOMENT
-------------
                                X             Y             Z
Electronic contribution:     -0.83392      -1.83261      -2.17366
Nuclear contribution   :      0.80671       2.46768       2.95837
                        -----------------------------------------
Total Dipole Moment    :     -0.02720       0.63508       0.78471
                        -----------------------------------------
Magnitude (a.u.)       :      1.00987
Magnitude (Debye)      :      2.56688

Rotational constants in cm-1:     0.077946     0.024249     0.022380
Rotational constants in MHz :  2336.758770   726.961143   670.935737

                             ****ORCA TERMINATED NORMALLY****
TOTAL RUN TIME: 0 days 0 hours 7 minutes 46 seconds 783 msec
