                         Program Version 4.2.0 -  RELEASE  -
|  1> # Test redundant internal optimization
|  2> #
|  3> ! RKS B3LYP  Opt TightSCF SmallPrint
|  4>
|  5> %basis
|  6>         Basis "6-31G"
|  7> end
|  8>
|  9> %geom
| 10> Constraints
| 11> { D 4  0  15  12  135.0   C } # D for Dihedral angle
| 12> { D 0  15  12  16  120.0   C } # D for Dihedral angle
| 13> { D 0  4  3  2   C } # D for Dihedral angle
| 14> { D 4  3  2  1   C } # D for Dihedral angle
| 15> { D 3  2  1  0   C } # D for Dihedral angle
| 16> { D 2  1  0  4   C } # D for Dihedral angle
| 17> { D 1  0  4  3   C } # D for Dihedral angle
| 18> { D 16  20  19  18   C } # D for Dihedral angle
| 19> { D 20  19  18  17   C } # D for Dihedral angle
| 20> { D 19  18  17  16   C } # D for Dihedral angle
| 21> { D 18  17  16  20   C } # D for Dihedral angle
| 22> { D 17  16  20  19   C } # D for Dihedral angle
| 23> { D 15  12  16  20   C } # D for Dihedral angle
| 24> end
| 25> end
| 26>
| 27>
| 28> #%pal
| 29> #nprocs 8
| 30> #end
| 31>
| 32> * xyz 0 1
| 33> C  -21.048   26.222   46.251
| 34> C  -20.361   27.558   45.944
| 35> C  -20.329   28.222   47.341
| 36> C  -20.110   27.022   48.296
| 37> O  -20.473   25.807   47.535
| 38> H  -20.833   25.428   45.533
| 39> H  -19.344   27.382   45.576
| 40> H  -20.898   28.157   45.201
| 41> H  -19.543   28.978   47.434
| 42> H  -21.289   28.710   47.548
| 43> H  -20.733   27.082   49.195
| 44> H  -19.064   26.913   48.597
| 45> C  -23.162   27.680   45.721
| 46> H  -23.653   28.289   46.490
| 47> H  -22.356   28.277   45.273
| 48> O  -22.586   26.394   46.375
| 49> C  -24.198   27.373   44.604
| 50> C  -24.658   28.656   43.904
| 51> C  -23.475   28.930   42.944
| 52> C  -23.021   27.508   42.531
| 53> O  -23.582   26.579   43.536
| 54> H  -25.008   26.772   45.024
| 55> H  -25.578   28.469   43.339
| 56> O  -24.918   29.829   44.888
| 57> H  -23.761   29.543   42.083
| 58> H  -22.672   29.453   43.476
| 59> H  -21.930   27.404   42.516
| 60> H  -23.420   27.208   41.558
| 61> H  -24.010   30.037   45.464
| 62> *
| 63>
| 64>                          ****END OF INPUT****
 Total Charge           Charge          ....    0
 Multiplicity           Mult            ....    1
 Number of Electrons    NEL             ....  102
FINAL SINGLE POINT ENERGY      -652.810857983091
FINAL SINGLE POINT ENERGY      -652.835451600650
FINAL SINGLE POINT ENERGY      -652.845161101737
FINAL SINGLE POINT ENERGY      -652.846856351619
FINAL SINGLE POINT ENERGY      -652.847161418789
FINAL SINGLE POINT ENERGY      -652.847232303433
FINAL SINGLE POINT ENERGY      -652.847239835377
FINAL SINGLE POINT ENERGY      -652.847240457986
                    ***********************HURRAY********************

CARTESIAN COORDINATES (ANGSTROEM)
---------------------------------
  C    -21.067635   26.304675   46.258891
  C    -20.115287   27.480003   46.027894
  C    -20.085707   28.153334   47.426258
  C    -20.189959   26.943235   48.382344
  O    -20.707218   25.821839   47.565900
  H    -20.935704   25.466544   45.573085
  H    -19.130162   27.067143   45.783481
  H    -20.395173   28.156399   45.217304
  H    -19.174814   28.737352   47.588772
  H    -20.943907   28.823913   47.547906
  H    -20.871930   27.116386   49.219162
  H    -19.216289   26.629793   48.770396
  C    -23.078847   27.812462   45.722742
  H    -23.616386   28.330791   46.527114
  H    -22.319429   28.493268   45.319437
  O    -22.490427   26.612456   46.275778
  C    -24.071730   27.403714   44.632403
  C    -24.761519   28.572350   43.909548
  C    -23.691103   28.965881   42.847923
  C    -23.067232   27.604282   42.470422
  O    -23.420707   26.656084   43.558228
  H    -24.790217   26.711403   45.079604
  H    -25.669441   28.212927   43.421267
  O    -25.210418   29.655121   44.760255
  H    -24.128266   29.486316   41.991860
  H    -22.949898   29.636279   43.304784
  H    -21.977545   27.646559   42.370393
  H    -23.487602   27.200470   41.545063
  H    -24.448450   30.181021   45.078787

 Multiplicity           Mult            ....    1
 Number of Electrons    NEL             ....  102
 Basis Dimension        Dim             ....  149

ORBITAL ENERGIES
----------------

  NO   OCC          E(Eh)            E(eV)
   0   2.0000     -19.152086      -521.1548
   1   2.0000     -19.140144      -520.8298
   2   2.0000     -19.135523      -520.7041
   3   2.0000     -19.132957      -520.6342
   4   2.0000     -10.277181      -279.6563
   5   2.0000     -10.247139      -278.8388
   6   2.0000     -10.234108      -278.4842
   7   2.0000     -10.233900      -278.4786
   8   2.0000     -10.229152      -278.3494
   9   2.0000     -10.225316      -278.2450
  10   2.0000     -10.199443      -277.5409
  11   2.0000     -10.194226      -277.3990
  12   2.0000     -10.193886      -277.3897
  13   2.0000      -1.048307       -28.5259
  14   2.0000      -1.035464       -28.1764
  15   2.0000      -1.017916       -27.6989
  16   2.0000      -0.988148       -26.8889
  17   2.0000      -0.790284       -21.5047
  18   2.0000      -0.785675       -21.3793
  19   2.0000      -0.770836       -20.9755
  20   2.0000      -0.733019       -19.9465
  21   2.0000      -0.686341       -18.6763
  22   2.0000      -0.614504       -16.7215
  23   2.0000      -0.605075       -16.4649
  24   2.0000      -0.595862       -16.2142
  25   2.0000      -0.570950       -15.5363
  26   2.0000      -0.531314       -14.4578
  27   2.0000      -0.508228       -13.8296
  28   2.0000      -0.506314       -13.7775
  29   2.0000      -0.495181       -13.4745
  30   2.0000      -0.472459       -12.8563
  31   2.0000      -0.461921       -12.5695
  32   2.0000      -0.446031       -12.1371
  33   2.0000      -0.439377       -11.9561
  34   2.0000      -0.429180       -11.6786
  35   2.0000      -0.419763       -11.4223
  36   2.0000      -0.407678       -11.0935
  37   2.0000      -0.401977       -10.9383
  38   2.0000      -0.382514       -10.4087
  39   2.0000      -0.380946       -10.3661
  40   2.0000      -0.363430        -9.8894
  41   2.0000      -0.354563        -9.6481
  42   2.0000      -0.354134        -9.6365
  43   2.0000      -0.333519        -9.0755
  44   2.0000      -0.317391        -8.6366
  45   2.0000      -0.311547        -8.4776
  46   2.0000      -0.290076        -7.8934
  47   2.0000      -0.272764        -7.4223
  48   2.0000      -0.263712        -7.1760
  49   2.0000      -0.254349        -6.9212
  50   2.0000      -0.234591        -6.3835
  51   0.0000       0.043641         1.1875
  52   0.0000       0.061413         1.6711
  53   0.0000       0.084984         2.3125
  54   0.0000       0.091803         2.4981
  55   0.0000       0.102669         2.7938

MULLIKEN ATOMIC CHARGES
-----------------------
   0 C :    0.322238
   1 C :   -0.302876
   2 C :   -0.305319
   3 C :    0.001151
   4 O :   -0.493436
   5 H :    0.164970
   6 H :    0.156293
   7 H :    0.141002
   8 H :    0.144140
   9 H :    0.148075
  10 H :    0.150530
  11 H :    0.142933
  12 C :   -0.014279
  13 H :    0.144062
  14 H :    0.106850
  15 O :   -0.519320
  16 C :    0.097397
  17 C :    0.085901
  18 C :   -0.327413
  19 C :   -0.012136
  20 O :   -0.508611
  21 H :    0.172094
  22 H :    0.168880
  23 O :   -0.598635
  24 H :    0.160299
  25 H :    0.129997
  26 H :    0.140677
  27 H :    0.150452
  28 H :    0.354082
Sum of atomic charges:   -0.0000000

LOEWDIN ATOMIC CHARGES
----------------------
   0 C :    0.188434
   1 C :   -0.233539
   2 C :   -0.220091
   3 C :   -0.027948
   4 O :   -0.308083
   5 H :    0.110304
   6 H :    0.122455
   7 H :    0.110672
   8 H :    0.115210
   9 H :    0.109196
  10 H :    0.107042
  11 H :    0.103016
  12 C :   -0.047875
  13 H :    0.105178
  14 H :    0.084591
  15 O :   -0.323483
  16 C :    0.014878
  17 C :    0.035224
  18 C :   -0.243059
  19 C :   -0.031604
  20 O :   -0.316813
  21 H :    0.123402
  22 H :    0.120565
  23 O :   -0.406489
  24 H :    0.123760
  25 H :    0.101565
  26 H :    0.100062
  27 H :    0.106862
  28 H :    0.276568

  Mayer bond orders larger than 0.100000
B(  0-C ,  1-C ) :   0.9323 B(  0-C ,  4-O ) :   0.9192 B(  0-C ,  5-H ) :   0.9259
B(  0-C , 15-O ) :   0.8550 B(  1-C ,  2-C ) :   0.9487 B(  1-C ,  6-H ) :   0.9336
B(  1-C ,  7-H ) :   0.9263 B(  2-C ,  3-C ) :   0.9521 B(  2-C ,  8-H ) :   0.9457
B(  2-C ,  9-H ) :   0.9454 B(  3-C ,  4-O ) :   0.8458 B(  3-C , 10-H ) :   0.9340
B(  3-C , 11-H ) :   0.9395 B( 12-C , 13-H ) :   0.9145 B( 12-C , 14-H ) :   0.9078
B( 12-C , 15-O ) :   0.8622 B( 12-C , 16-C ) :   0.8949 B( 16-C , 17-C ) :   0.8680
B( 16-C , 20-O ) :   0.8634 B( 16-C , 21-H ) :   0.9285 B( 17-C , 18-C ) :   0.9216
B( 17-C , 22-H ) :   0.9324 B( 17-C , 23-O ) :   0.8970 B( 18-C , 19-C ) :   0.9398
B( 18-C , 24-H ) :   0.9418 B( 18-C , 25-H ) :   0.9410 B( 19-C , 20-O ) :   0.8528
B( 19-C , 26-H ) :   0.9312 B( 19-C , 27-H ) :   0.9379 B( 23-O , 28-H ) :   0.7994

FINAL SINGLE POINT ENERGY      -652.847240304866

DIPOLE MOMENT
-------------
                                X             Y             Z
Electronic contribution:     -4.04296      -4.92601       0.92358
Nuclear contribution   :      5.13294       6.68626      -1.59077
                        -----------------------------------------
Total Dipole Moment    :      1.08998       1.76025      -0.66719
                        -----------------------------------------
Magnitude (a.u.)       :      2.17524
Magnitude (Debye)      :      5.52902

Rotational constants in cm-1:     0.052480     0.013453     0.012732
Rotational constants in MHz :  1573.315558   403.319817   381.685456

                             ****ORCA TERMINATED NORMALLY****
TOTAL RUN TIME: 0 days 0 hours 28 minutes 0 seconds 331 msec
