                         Program Version 4.2.0 -  RELEASE  -
|  1> # Test redundant internal optimization
|  2> #
|  3> ! RKS B3LYP  Opt TightSCF SmallPrint
|  4>
|  5> %basis
|  6>         Basis "6-31G"
|  7> end
|  8>
|  9> %geom
| 10> Constraints
| 11> { D 4  0  15  12  105.0   C } # D for Dihedral angle
| 12> { D 0  15  12  16  195.0   C } # D for Dihedral angle
| 13> { D 0  4  3  2   C } # D for Dihedral angle
| 14> { D 4  3  2  1   C } # D for Dihedral angle
| 15> { D 3  2  1  0   C } # D for Dihedral angle
| 16> { D 2  1  0  4   C } # D for Dihedral angle
| 17> { D 1  0  4  3   C } # D for Dihedral angle
| 18> { D 16  20  19  18   C } # D for Dihedral angle
| 19> { D 20  19  18  17   C } # D for Dihedral angle
| 20> { D 19  18  17  16   C } # D for Dihedral angle
| 21> { D 18  17  16  20   C } # D for Dihedral angle
| 22> { D 17  16  20  19   C } # D for Dihedral angle
| 23> { D 15  12  16  20   C } # D for Dihedral angle
| 24> end
| 25> end
| 26>
| 27>
| 28> #%pal
| 29> #nprocs 8
| 30> #end
| 31>
| 32> * xyz 0 1
| 33> C  -21.048   26.222   46.251
| 34> C  -20.361   27.558   45.944
| 35> C  -20.329   28.222   47.341
| 36> C  -20.110   27.022   48.296
| 37> O  -20.473   25.807   47.535
| 38> H  -20.833   25.428   45.533
| 39> H  -19.344   27.382   45.576
| 40> H  -20.898   28.157   45.201
| 41> H  -19.543   28.978   47.434
| 42> H  -21.289   28.710   47.548
| 43> H  -20.733   27.082   49.195
| 44> H  -19.064   26.913   48.597
| 45> C  -23.085   27.864   46.420
| 46> H  -22.446   28.443   47.099
| 47> H  -23.027   28.320   45.423
| 48> O  -22.586   26.394   46.375
| 49> C  -24.554   27.986   46.911
| 50> C  -25.498   27.127   46.060
| 51> C  -25.255   25.717   46.649
| 52> C  -25.018   26.000   48.153
| 53> O  -24.689   27.438   48.264
| 54> H  -24.828   29.041   46.963
| 55> H  -26.535   27.439   46.219
| 56> O  -25.190   27.205   44.540
| 57> H  -26.095   25.036   46.480
| 58> H  -24.363   25.268   46.196
| 59> H  -24.194   25.410   48.567
| 60> H  -25.914   25.828   48.757
| 61> H  -24.155   26.897   44.357
| 62> *
| 63>
| 64>                          ****END OF INPUT****
 Total Charge           Charge          ....    0
 Multiplicity           Mult            ....    1
 Number of Electrons    NEL             ....  102
FINAL SINGLE POINT ENERGY      -652.808450807249
FINAL SINGLE POINT ENERGY      -652.837311704458
FINAL SINGLE POINT ENERGY      -652.852193446878
FINAL SINGLE POINT ENERGY      -652.855083823983
FINAL SINGLE POINT ENERGY      -652.855483609489
FINAL SINGLE POINT ENERGY      -652.855538229675
FINAL SINGLE POINT ENERGY      -652.855545430202
FINAL SINGLE POINT ENERGY      -652.855545434579
                    ***********************HURRAY********************

CARTESIAN COORDINATES (ANGSTROEM)
---------------------------------
  C    -21.164616   26.399991   46.376780
  C    -20.235192   27.547246   45.959186
  C    -19.982060   28.272336   47.313379
  C    -19.961897   27.096399   48.321821
  O    -20.617424   25.956795   47.634695
  H    -21.101381   25.529491   45.720964
  H    -19.305983   27.114813   45.575658
  H    -20.657231   28.198395   45.188060
  H    -19.035887   28.822683   47.311959
  H    -20.776222   28.986115   47.542624
  H    -20.504229   27.313083   49.246009
  H    -18.946119   26.774006   48.567033
  C    -23.172139   27.991038   46.473081
  H    -22.656395   28.628468   47.197191
  H    -23.119957   28.463016   45.482528
  O    -22.589300   26.656409   46.441262
  C    -24.633489   27.904309   46.910358
  C    -25.546462   27.055283   46.007824
  C    -25.311766   25.620427   46.571210
  C    -25.126109   25.876754   48.081825
  O    -24.809446   27.322799   48.230441
  H    -24.999010   28.936841   46.975126
  H    -26.585737   27.367053   46.130970
  O    -25.274191   27.194027   44.590890
  H    -26.152961   24.953923   46.357170
  H    -24.399878   25.210052   46.133638
  H    -24.302975   25.297795   48.507682
  H    -26.039675   25.695130   48.656429
  H    -24.449268   26.709322   44.378205

 Multiplicity           Mult            ....    1
 Number of Electrons    NEL             ....  102
 Basis Dimension        Dim             ....  149

ORBITAL ENERGIES
----------------

  NO   OCC          E(Eh)            E(eV)
   0   2.0000     -19.149970      -521.0972
   1   2.0000     -19.142821      -520.9026
   2   2.0000     -19.137897      -520.7687
   3   2.0000     -19.129799      -520.5483
   4   2.0000     -10.285644      -279.8866
   5   2.0000     -10.233884      -278.4782
   6   2.0000     -10.233310      -278.4625
   7   2.0000     -10.230078      -278.3746
   8   2.0000     -10.229144      -278.3492
   9   2.0000     -10.215673      -277.9826
  10   2.0000     -10.199580      -277.5447
  11   2.0000     -10.197271      -277.4819
  12   2.0000     -10.174166      -276.8531
  13   2.0000      -1.055114       -28.7111
  14   2.0000      -1.024566       -27.8799
  15   2.0000      -1.007168       -27.4064
  16   2.0000      -0.997565       -27.1451
  17   2.0000      -0.793815       -21.6008
  18   2.0000      -0.775231       -21.0951
  19   2.0000      -0.763125       -20.7657
  20   2.0000      -0.734506       -19.9869
  21   2.0000      -0.680905       -18.5284
  22   2.0000      -0.609991       -16.5987
  23   2.0000      -0.600876       -16.3507
  24   2.0000      -0.597435       -16.2570
  25   2.0000      -0.561861       -15.2890
  26   2.0000      -0.527705       -14.3596
  27   2.0000      -0.509499       -13.8642
  28   2.0000      -0.503376       -13.6976
  29   2.0000      -0.487236       -13.2584
  30   2.0000      -0.471073       -12.8186
  31   2.0000      -0.458580       -12.4786
  32   2.0000      -0.444341       -12.0911
  33   2.0000      -0.428844       -11.6694
  34   2.0000      -0.422512       -11.4971
  35   2.0000      -0.417677       -11.3656
  36   2.0000      -0.403440       -10.9782
  37   2.0000      -0.397920       -10.8280
  38   2.0000      -0.389239       -10.5917
  39   2.0000      -0.368398       -10.0246
  40   2.0000      -0.364371        -9.9150
  41   2.0000      -0.356463        -9.6998
  42   2.0000      -0.346570        -9.4307
  43   2.0000      -0.323611        -8.8059
  44   2.0000      -0.315229        -8.5778
  45   2.0000      -0.305949        -8.3253
  46   2.0000      -0.296259        -8.0616
  47   2.0000      -0.275682        -7.5017
  48   2.0000      -0.258892        -7.0448
  49   2.0000      -0.257515        -7.0073
  50   2.0000      -0.235620        -6.4116
  51   0.0000       0.060867         1.6563
  52   0.0000       0.084564         2.3011
  53   0.0000       0.089470         2.4346
  54   0.0000       0.094730         2.5777
  55   0.0000       0.102851         2.7987

MULLIKEN ATOMIC CHARGES
-----------------------
   0 C :    0.316313
   1 C :   -0.295880
   2 C :   -0.312159
   3 C :   -0.008012
   4 O :   -0.496116
   5 H :    0.157974
   6 H :    0.159867
   7 H :    0.146967
   8 H :    0.147467
   9 H :    0.154034
  10 H :    0.156340
  11 H :    0.146780
  12 C :   -0.016498
  13 H :    0.147527
  14 H :    0.134878
  15 O :   -0.543477
  16 C :    0.092848
  17 C :    0.086933
  18 C :   -0.309752
  19 C :   -0.004337
  20 O :   -0.522835
  21 H :    0.145991
  22 H :    0.158265
  23 O :   -0.609538
  24 H :    0.141531
  25 H :    0.166873
  26 H :    0.159130
  27 H :    0.137802
  28 H :    0.361085
Sum of atomic charges:   -0.0000000

LOEWDIN ATOMIC CHARGES
----------------------
   0 C :    0.177601
   1 C :   -0.230131
   2 C :   -0.221575
   3 C :   -0.030924
   4 O :   -0.315335
   5 H :    0.106855
   6 H :    0.124931
   7 H :    0.116402
   8 H :    0.116910
   9 H :    0.110739
  10 H :    0.109641
  11 H :    0.104864
  12 C :   -0.048050
  13 H :    0.103576
  14 H :    0.097774
  15 O :   -0.333526
  16 C :    0.020358
  17 C :    0.037761
  18 C :   -0.241843
  19 C :   -0.024243
  20 O :   -0.323146
  21 H :    0.112445
  22 H :    0.114806
  23 O :   -0.413934
  24 H :    0.113396
  25 H :    0.122957
  26 H :    0.111829
  27 H :    0.099318
  28 H :    0.280544

  Mayer bond orders larger than 0.100000
B(  0-C ,  1-C ) :   0.9296 B(  0-C ,  4-O ) :   0.9199 B(  0-C ,  5-H ) :   0.9356
B(  0-C , 15-O ) :   0.8734 B(  1-C ,  2-C ) :   0.9529 B(  1-C ,  6-H ) :   0.9345
B(  1-C ,  7-H ) :   0.9331 B(  2-C ,  3-C ) :   0.9487 B(  2-C ,  8-H ) :   0.9446
B(  2-C ,  9-H ) :   0.9360 B(  3-C ,  4-O ) :   0.8429 B(  3-C , 10-H ) :   0.9331
B(  3-C , 11-H ) :   0.9391 B( 12-C , 13-H ) :   0.9061 B( 12-C , 14-H ) :   0.9051
B( 12-C , 15-O ) :   0.8279 B( 12-C , 16-C ) :   0.9057 B( 16-C , 17-C ) :   0.8880
B( 16-C , 20-O ) :   0.8881 B( 16-C , 21-H ) :   0.9285 B( 17-C , 18-C ) :   0.9337
B( 17-C , 22-H ) :   0.9370 B( 17-C , 23-O ) :   0.8976 B( 18-C , 19-C ) :   0.9465
B( 18-C , 24-H ) :   0.9412 B( 18-C , 25-H ) :   0.9262 B( 19-C , 20-O ) :   0.8321
B( 19-C , 26-H ) :   0.9305 B( 19-C , 27-H ) :   0.9378 B( 23-O , 28-H ) :   0.7939

FINAL SINGLE POINT ENERGY      -652.855544235067

DIPOLE MOMENT
-------------
                                X             Y             Z
Electronic contribution:     -3.04609      -1.65293      -0.10208
Nuclear contribution   :      4.09824       2.08213      -0.25407
                        -----------------------------------------
Total Dipole Moment    :      1.05215       0.42920      -0.35615
                        -----------------------------------------
Magnitude (a.u.)       :      1.19083
Magnitude (Debye)      :      3.02685

Rotational constants in cm-1:     0.048857     0.015845     0.014525
Rotational constants in MHz :  1464.694719   475.016314   435.453880

                             ****ORCA TERMINATED NORMALLY****
TOTAL RUN TIME: 0 days 0 hours 30 minutes 27 seconds 205 msec
