                         Program Version 4.2.0 -  RELEASE  -
|  1> # Test redundant internal optimization
|  2> #
|  3> ! RKS B3LYP  Opt TightSCF SmallPrint
|  4>
|  5> %basis
|  6>         Basis "6-31G"
|  7> end
|  8>
|  9> %geom
| 10> Constraints
| 11> { D 4  0  15  12  270.0   C } # D for Dihedral angle
| 12> { D 0  15  12  16  195.0   C } # D for Dihedral angle
| 13> { D 0  4  3  2   C } # D for Dihedral angle
| 14> { D 4  3  2  1   C } # D for Dihedral angle
| 15> { D 3  2  1  0   C } # D for Dihedral angle
| 16> { D 2  1  0  4   C } # D for Dihedral angle
| 17> { D 1  0  4  3   C } # D for Dihedral angle
| 18> { D 16  20  19  18   C } # D for Dihedral angle
| 19> { D 20  19  18  17   C } # D for Dihedral angle
| 20> { D 19  18  17  16   C } # D for Dihedral angle
| 21> { D 18  17  16  20   C } # D for Dihedral angle
| 22> { D 17  16  20  19   C } # D for Dihedral angle
| 23> { D 15  12  16  20   C } # D for Dihedral angle
| 24> end
| 25> end
| 26>
| 27>
| 28> #%pal
| 29> #nprocs 8
| 30> #end
| 31>
| 32> * xyz 0 1
| 33> C  -21.048   26.222   46.251
| 34> C  -20.361   27.558   45.944
| 35> C  -20.329   28.222   47.341
| 36> C  -20.110   27.022   48.296
| 37> O  -20.473   25.807   47.535
| 38> H  -20.833   25.428   45.533
| 39> H  -19.344   27.382   45.576
| 40> H  -20.898   28.157   45.201
| 41> H  -19.543   28.978   47.434
| 42> H  -21.289   28.710   47.548
| 43> H  -20.733   27.082   49.195
| 44> H  -19.064   26.913   48.597
| 45> C  -23.420   25.119   46.072
| 46> H  -23.027   24.636   45.169
| 47> H  -23.345   24.405   46.903
| 48> O  -22.586   26.394   46.375
| 49> C  -24.926   25.426   45.846
| 50> C  -25.524   26.185   47.037
| 51> C  -25.032   27.627   46.767
| 52> C  -25.062   27.726   45.222
| 53> O  -25.099   26.338   44.712
| 54> H  -25.446   24.500   45.594
| 55> O  -27.075   26.117   46.987
| 56> H  -25.192   25.797   48.006
| 57> H  -25.659   28.386   47.246
| 58> H  -24.009   27.752   47.143
| 59> H  -24.180   28.235   44.817
| 60> H  -25.961   28.229   44.853
| 61> H  -27.430   26.502   46.024
| 62> *
| 63>
| 64>                          ****END OF INPUT****
 Total Charge           Charge          ....    0
 Multiplicity           Mult            ....    1
 Number of Electrons    NEL             ....  102
FINAL SINGLE POINT ENERGY      -652.839227510479
FINAL SINGLE POINT ENERGY      -652.862627608910
FINAL SINGLE POINT ENERGY      -652.866831060398
FINAL SINGLE POINT ENERGY      -652.867882848808
FINAL SINGLE POINT ENERGY      -652.868002152335
FINAL SINGLE POINT ENERGY      -652.868016628641
                    ***********************HURRAY********************

CARTESIAN COORDINATES (ANGSTROEM)
---------------------------------
  C    -21.089011   26.144412   46.239262
  C    -20.455377   27.499927   45.923949
  C    -20.428671   28.170654   47.318054
  C    -20.155984   26.983109   48.268889
  O    -20.491730   25.759839   47.498691
  H    -20.869938   25.341690   45.528871
  H    -19.438625   27.342614   45.546429
  H    -21.027718   28.059249   45.181351
  H    -19.663365   28.949003   47.396521
  H    -21.401812   28.623462   47.531129
  H    -20.767759   27.008901   49.174169
  H    -19.101760   26.897321   48.548439
  C    -23.327731   25.148355   46.105138
  H    -22.961539   24.645788   45.198779
  H    -23.245869   24.448832   46.949388
  O    -22.516003   26.332381   46.352263
  C    -24.788138   25.527342   45.886089
  C    -25.497391   26.256260   47.037569
  C    -25.080556   27.728684   46.782955
  C    -25.032312   27.815261   45.237527
  O    -24.955214   26.421343   44.739788
  H    -25.328038   24.603332   45.645605
  O    -26.938198   26.065170   46.952353
  H    -25.218292   25.891859   48.026340
  H    -25.803304   28.418244   47.227475
  H    -24.091596   27.903908   47.208407
  H    -24.157371   28.364006   44.878756
  H    -25.935272   28.261006   44.806571
  H    -27.229429   26.243048   46.033240

 Multiplicity           Mult            ....    1
 Number of Electrons    NEL             ....  102
 Basis Dimension        Dim             ....  149

ORBITAL ENERGIES
----------------

  NO   OCC          E(Eh)            E(eV)
   0   2.0000     -19.150340      -521.1073
   1   2.0000     -19.141548      -520.8680
   2   2.0000     -19.137720      -520.7638
   3   2.0000     -19.134202      -520.6681
   4   2.0000     -10.282448      -279.7996
   5   2.0000     -10.235795      -278.5302
   6   2.0000     -10.234153      -278.4855
   7   2.0000     -10.233779      -278.4753
   8   2.0000     -10.227551      -278.3058
   9   2.0000     -10.223048      -278.1833
  10   2.0000     -10.189037      -277.2578
  11   2.0000     -10.188185      -277.2346
  12   2.0000     -10.175848      -276.8989
  13   2.0000      -1.058125       -28.7930
  14   2.0000      -1.031989       -28.0818
  15   2.0000      -1.003792       -27.3146
  16   2.0000      -0.995903       -27.0999
  17   2.0000      -0.791901       -21.5487
  18   2.0000      -0.776028       -21.1168
  19   2.0000      -0.764197       -20.7949
  20   2.0000      -0.732311       -19.9272
  21   2.0000      -0.673862       -18.3367
  22   2.0000      -0.601901       -16.3786
  23   2.0000      -0.597178       -16.2500
  24   2.0000      -0.596002       -16.2180
  25   2.0000      -0.580805       -15.8045
  26   2.0000      -0.526786       -14.3346
  27   2.0000      -0.506307       -13.7773
  28   2.0000      -0.497441       -13.5361
  29   2.0000      -0.486142       -13.2286
  30   2.0000      -0.473864       -12.8945
  31   2.0000      -0.462283       -12.5794
  32   2.0000      -0.447859       -12.1869
  33   2.0000      -0.433081       -11.7847
  34   2.0000      -0.426220       -11.5980
  35   2.0000      -0.408731       -11.1221
  36   2.0000      -0.402950       -10.9648
  37   2.0000      -0.386791       -10.5251
  38   2.0000      -0.379949       -10.3389
  39   2.0000      -0.365965        -9.9584
  40   2.0000      -0.359564        -9.7842
  41   2.0000      -0.355932        -9.6854
  42   2.0000      -0.349653        -9.5145
  43   2.0000      -0.332589        -9.0502
  44   2.0000      -0.321706        -8.7541
  45   2.0000      -0.308569        -8.3966
  46   2.0000      -0.300258        -8.1704
  47   2.0000      -0.273964        -7.4549
  48   2.0000      -0.265155        -7.2152
  49   2.0000      -0.253667        -6.9026
  50   2.0000      -0.242573        -6.6008
  51   0.0000       0.063411         1.7255
  52   0.0000       0.083634         2.2758
  53   0.0000       0.087441         2.3794
  54   0.0000       0.103296         2.8108
  55   0.0000       0.106401         2.8953

MULLIKEN ATOMIC CHARGES
-----------------------
   0 C :    0.292813
   1 C :   -0.259800
   2 C :   -0.303686
   3 C :   -0.001269
   4 O :   -0.508876
   5 H :    0.144376
   6 H :    0.147291
   7 H :    0.155019
   8 H :    0.143572
   9 H :    0.159068
  10 H :    0.147642
  11 H :    0.143605
  12 C :    0.008005
  13 H :    0.139808
  14 H :    0.145430
  15 O :   -0.528835
  16 C :    0.059261
  17 C :    0.079275
  18 C :   -0.288780
  19 C :   -0.018805
  20 O :   -0.527180
  21 H :    0.157881
  22 O :   -0.603365
  23 H :    0.152082
  24 H :    0.147325
  25 H :    0.174752
  26 H :    0.146881
  27 H :    0.134084
  28 H :    0.362425
Sum of atomic charges:   -0.0000000

LOEWDIN ATOMIC CHARGES
----------------------
   0 C :    0.174548
   1 C :   -0.215868
   2 C :   -0.216782
   3 C :   -0.027226
   4 O :   -0.326582
   5 H :    0.099592
   6 H :    0.115380
   7 H :    0.122402
   8 H :    0.114573
   9 H :    0.115469
  10 H :    0.105791
  11 H :    0.103254
  12 C :   -0.035825
  13 H :    0.102265
  14 H :    0.103957
  15 O :   -0.328732
  16 C :    0.013824
  17 C :    0.040750
  18 C :   -0.241852
  19 C :   -0.033100
  20 O :   -0.330894
  21 H :    0.117140
  22 O :   -0.417367
  23 H :    0.116575
  24 H :    0.118196
  25 H :    0.128192
  26 H :    0.105187
  27 H :    0.095433
  28 H :    0.281700

  Mayer bond orders larger than 0.100000
B(  0-C ,  1-C ) :   0.9471 B(  0-C ,  4-O ) :   0.9180 B(  0-C ,  5-H ) :   0.9176
B(  0-C , 15-O ) :   0.8495 B(  1-C ,  2-C ) :   0.9569 B(  1-C ,  6-H ) :   0.9391
B(  1-C ,  7-H ) :   0.9362 B(  2-C ,  3-C ) :   0.9542 B(  2-C ,  8-H ) :   0.9449
B(  2-C ,  9-H ) :   0.9435 B(  3-C ,  4-O ) :   0.8385 B(  3-C , 10-H ) :   0.9355
B(  3-C , 11-H ) :   0.9400 B( 12-C , 13-H ) :   0.9169 B( 12-C , 14-H ) :   0.9102
B( 12-C , 15-O ) :   0.8367 B( 12-C , 16-C ) :   0.9088 B( 16-C , 17-C ) :   0.9090
B( 16-C , 20-O ) :   0.8707 B( 16-C , 21-H ) :   0.9215 B( 17-C , 18-C ) :   0.9241
B( 17-C , 22-O ) :   0.8913 B( 17-C , 23-H ) :   0.9362 B( 18-C , 19-C ) :   0.9447
B( 18-C , 24-H ) :   0.9376 B( 18-C , 25-H ) :   0.9175 B( 19-C , 20-O ) :   0.8400
B( 19-C , 26-H ) :   0.9343 B( 19-C , 27-H ) :   0.9373 B( 22-O , 28-H ) :   0.7962

FINAL SINGLE POINT ENERGY      -652.868016924745

DIPOLE MOMENT
-------------
                                X             Y             Z
Electronic contribution:     -3.27719      -4.40661      -1.18486
Nuclear contribution   :      4.08009       5.13616       1.04640
                        -----------------------------------------
Total Dipole Moment    :      0.80291       0.72955      -0.13846
                        -----------------------------------------
Magnitude (a.u.)       :      1.09365
Magnitude (Debye)      :      2.77985

Rotational constants in cm-1:     0.053634     0.013940     0.013690
Rotational constants in MHz :  1607.898382   417.920415   410.428003

                             ****ORCA TERMINATED NORMALLY****
TOTAL RUN TIME: 0 days 0 hours 18 minutes 25 seconds 88 msec
