                         Program Version 4.2.0 -  RELEASE  -
|  1> # Test redundant internal optimization
|  2> #
|  3> ! RKS B3LYP  Opt TightSCF SmallPrint
|  4>
|  5> %basis
|  6>         Basis "6-31G"
|  7> end
|  8>
|  9> %geom
| 10> Constraints
| 11> { D 4  0  15  12  90.0   C } # D for Dihedral angle
| 12> { D 0  15  12  16  120.0   C } # D for Dihedral angle
| 13> { D 0  4  3  2   C } # D for Dihedral angle
| 14> { D 4  3  2  1   C } # D for Dihedral angle
| 15> { D 3  2  1  0   C } # D for Dihedral angle
| 16> { D 2  1  0  4   C } # D for Dihedral angle
| 17> { D 1  0  4  3   C } # D for Dihedral angle
| 18> { D 16  20  19  18   C } # D for Dihedral angle
| 19> { D 20  19  18  17   C } # D for Dihedral angle
| 20> { D 19  18  17  16   C } # D for Dihedral angle
| 21> { D 18  17  16  20   C } # D for Dihedral angle
| 22> { D 17  16  20  19   C } # D for Dihedral angle
| 23> { D 15  12  16  20   C } # D for Dihedral angle
| 24> end
| 25> end
| 26>
| 27>
| 28> #%pal
| 29> #nprocs 8
| 30> #end
| 31>
| 32> * xyz 0 1
| 33> C  -21.048   26.222   46.251
| 34> C  -20.361   27.558   45.944
| 35> C  -20.329   28.222   47.341
| 36> C  -20.110   27.022   48.296
| 37> O  -20.473   25.807   47.535
| 38> H  -20.833   25.428   45.533
| 39> H  -19.344   27.382   45.576
| 40> H  -20.898   28.157   45.201
| 41> H  -19.543   28.978   47.434
| 42> H  -21.289   28.710   47.548
| 43> H  -20.733   27.082   49.195
| 44> H  -19.064   26.913   48.597
| 45> C  -23.061   27.816   46.783
| 46> H  -23.613   27.755   47.730
| 47> H  -22.200   28.481   46.930
| 48> O  -22.586   26.394   46.375
| 49> C  -23.986   28.468   45.719
| 50> C  -24.341   29.910   46.099
| 51> C  -23.061   30.670   45.676
| 52> C  -22.602   29.907   44.409
| 53> O  -23.284   28.595   44.438
| 54> H  -24.848   27.820   45.549
| 55> H  -25.203   30.252   45.517
| 56> O  -24.671   30.080   47.607
| 57> H  -23.242   31.732   45.482
| 58> H  -22.303   30.599   46.466
| 59> H  -21.518   29.747   44.385
| 60> H  -22.906   30.409   43.486
| 61> H  -23.821   29.745   48.212
| 62> *
| 63>
| 64>                          ****END OF INPUT****
 Total Charge           Charge          ....    0
 Multiplicity           Mult            ....    1
 Number of Electrons    NEL             ....  102
FINAL SINGLE POINT ENERGY      -652.782871472982
FINAL SINGLE POINT ENERGY      -652.823133329421
FINAL SINGLE POINT ENERGY      -652.843359317812
FINAL SINGLE POINT ENERGY      -652.847560405595
FINAL SINGLE POINT ENERGY      -652.848143066591
FINAL SINGLE POINT ENERGY      -652.848323951520
FINAL SINGLE POINT ENERGY      -652.848348817063
FINAL SINGLE POINT ENERGY      -652.848352086770
                    ***********************HURRAY********************

CARTESIAN COORDINATES (ANGSTROEM)
---------------------------------
  C    -21.163980   26.314431   46.386073
  C    -20.155140   27.402070   45.985898
  C    -19.793792   28.035669   47.362587
  C    -19.837851   26.809499   48.312703
  O    -20.607851   25.763782   47.605060
  H    -21.181878   25.478016   45.685990
  H    -19.278025   26.917057   45.546975
  H    -20.573198   28.104016   45.261221
  H    -18.803678   28.503440   47.354934
  H    -20.512451   28.803229   47.660230
  H    -20.319186   27.025736   49.271803
  H    -18.841375   26.399346   48.501724
  C    -23.106644   27.928511   46.871093
  H    -23.760393   27.753122   47.733370
  H    -22.325500   28.636184   47.164597
  O    -22.559435   26.647790   46.463248
  C    -23.932537   28.490211   45.713309
  C    -24.569623   29.867130   45.971075
  C    -23.394101   30.829974   45.628956
  C    -22.684333   30.106927   44.464578
  O    -23.132788   28.688706   44.504294
  H    -24.679347   27.737535   45.445781
  H    -25.399672   30.016663   45.277701
  O    -25.154187   30.051348   47.282154
  H    -23.742242   31.830583   45.361205
  H    -22.735541   30.925745   46.503486
  H    -21.592269   30.141028   44.542954
  H    -22.977774   30.505186   43.489011
  H    -24.456207   30.148067   47.961988

 Multiplicity           Mult            ....    1
 Number of Electrons    NEL             ....  102
 Basis Dimension        Dim             ....  149

ORBITAL ENERGIES
----------------

  NO   OCC          E(Eh)            E(eV)
   0   2.0000     -19.154034      -521.2078
   1   2.0000     -19.144844      -520.9577
   2   2.0000     -19.138233      -520.7778
   3   2.0000     -19.135606      -520.7063
   4   2.0000     -10.274667      -279.5879
   5   2.0000     -10.249617      -278.9062
   6   2.0000     -10.237501      -278.5766
   7   2.0000     -10.234095      -278.4839
   8   2.0000     -10.231993      -278.4267
   9   2.0000     -10.227343      -278.3001
  10   2.0000     -10.201432      -277.5951
  11   2.0000     -10.195013      -277.4204
  12   2.0000     -10.188518      -277.2437
  13   2.0000      -1.047540       -28.5050
  14   2.0000      -1.037275       -28.2257
  15   2.0000      -1.020523       -27.7699
  16   2.0000      -0.992461       -27.0062
  17   2.0000      -0.788651       -21.4603
  18   2.0000      -0.787068       -21.4172
  19   2.0000      -0.775040       -21.0899
  20   2.0000      -0.732861       -19.9422
  21   2.0000      -0.687900       -18.7187
  22   2.0000      -0.617062       -16.7911
  23   2.0000      -0.604116       -16.4388
  24   2.0000      -0.600038       -16.3279
  25   2.0000      -0.572525       -15.5792
  26   2.0000      -0.530213       -14.4278
  27   2.0000      -0.512693       -13.9511
  28   2.0000      -0.506574       -13.7846
  29   2.0000      -0.491583       -13.3766
  30   2.0000      -0.469464       -12.7748
  31   2.0000      -0.462123       -12.5750
  32   2.0000      -0.451070       -12.2742
  33   2.0000      -0.437890       -11.9156
  34   2.0000      -0.430006       -11.7011
  35   2.0000      -0.421320       -11.4647
  36   2.0000      -0.413045       -11.2395
  37   2.0000      -0.404130       -10.9969
  38   2.0000      -0.384209       -10.4549
  39   2.0000      -0.380619       -10.3572
  40   2.0000      -0.361454        -9.8357
  41   2.0000      -0.358691        -9.7605
  42   2.0000      -0.347439        -9.4543
  43   2.0000      -0.336771        -9.1640
  44   2.0000      -0.319911        -8.7052
  45   2.0000      -0.311835        -8.4855
  46   2.0000      -0.291857        -7.9418
  47   2.0000      -0.275296        -7.4912
  48   2.0000      -0.266460        -7.2507
  49   2.0000      -0.256250        -6.9729
  50   2.0000      -0.240114        -6.5338
  51   0.0000       0.041399         1.1265
  52   0.0000       0.057176         1.5559
  53   0.0000       0.082435         2.2432
  54   0.0000       0.088630         2.4117
  55   0.0000       0.099597         2.7102

MULLIKEN ATOMIC CHARGES
-----------------------
   0 C :    0.313296
   1 C :   -0.301969
   2 C :   -0.316907
   3 C :   -0.005070
   4 O :   -0.500613
   5 H :    0.169354
   6 H :    0.156813
   7 H :    0.171117
   8 H :    0.143489
   9 H :    0.139844
  10 H :    0.141140
  11 H :    0.146670
  12 C :   -0.020906
  13 H :    0.154595
  14 H :    0.109518
  15 O :   -0.516765
  16 C :    0.097379
  17 C :    0.081760
  18 C :   -0.320786
  19 C :   -0.017329
  20 O :   -0.508418
  21 H :    0.171519
  22 H :    0.170936
  23 O :   -0.595665
  24 H :    0.160283
  25 H :    0.129945
  26 H :    0.139508
  27 H :    0.152796
  28 H :    0.354466
Sum of atomic charges:   -0.0000000

LOEWDIN ATOMIC CHARGES
----------------------
   0 C :    0.180525
   1 C :   -0.232849
   2 C :   -0.224939
   3 C :   -0.033239
   4 O :   -0.321506
   5 H :    0.114651
   6 H :    0.123870
   7 H :    0.126089
   8 H :    0.114381
   9 H :    0.101226
  10 H :    0.101040
  11 H :    0.104116
  12 C :   -0.049534
  13 H :    0.112552
  14 H :    0.087421
  15 O :   -0.310111
  16 C :    0.015591
  17 C :    0.034659
  18 C :   -0.241186
  19 C :   -0.033317
  20 O :   -0.317708
  21 H :    0.122777
  22 H :    0.121192
  23 O :   -0.404610
  24 H :    0.124293
  25 H :    0.101830
  26 H :    0.097883
  27 H :    0.107761
  28 H :    0.277142

  Mayer bond orders larger than 0.100000
B(  0-C ,  1-C ) :   0.9219 B(  0-C ,  4-O ) :   0.8973 B(  0-C ,  5-H ) :   0.9351
B(  0-C , 15-O ) :   0.9007 B(  1-C ,  2-C ) :   0.9537 B(  1-C ,  6-H ) :   0.9354
B(  1-C ,  7-H ) :   0.9200 B(  2-C ,  3-C ) :   0.9457 B(  2-C ,  8-H ) :   0.9451
B(  2-C ,  9-H ) :   0.9371 B(  3-C ,  4-O ) :   0.8547 B(  3-C , 10-H ) :   0.9344
B(  3-C , 11-H ) :   0.9388 B( 12-C , 13-H ) :   0.9172 B( 12-C , 14-H ) :   0.9061
B( 12-C , 15-O ) :   0.8494 B( 12-C , 16-C ) :   0.8990 B( 16-C , 17-C ) :   0.8698
B( 16-C , 20-O ) :   0.8645 B( 16-C , 21-H ) :   0.9277 B( 17-C , 18-C ) :   0.9206
B( 17-C , 22-H ) :   0.9318 B( 17-C , 23-O ) :   0.9016 B( 18-C , 19-C ) :   0.9393
B( 18-C , 24-H ) :   0.9417 B( 18-C , 25-H ) :   0.9411 B( 19-C , 20-O ) :   0.8502
B( 19-C , 26-H ) :   0.9264 B( 19-C , 27-H ) :   0.9387 B( 23-O , 28-H ) :   0.7988

FINAL SINGLE POINT ENERGY      -652.848350672790

DIPOLE MOMENT
-------------
                                X             Y             Z
Electronic contribution:     -4.63731      -5.02792      -0.68471
Nuclear contribution   :      5.69140       6.80271       0.85775
                        -----------------------------------------
Total Dipole Moment    :      1.05409       1.77479       0.17304
                        -----------------------------------------
Magnitude (a.u.)       :      2.07145
Magnitude (Debye)      :      5.26522

Rotational constants in cm-1:     0.047525     0.015046     0.014318
Rotational constants in MHz :  1424.761098   451.073499   429.252430

                             ****ORCA TERMINATED NORMALLY****
TOTAL RUN TIME: 0 days 1 hours 17 minutes 46 seconds 999 msec
