                         Program Version 4.2.0 -  RELEASE  -
|  1> # Test redundant internal optimization
|  2> #
|  3> ! RKS B3LYP  Opt TightSCF SmallPrint
|  4>
|  5> %basis
|  6>         Basis "6-31G"
|  7> end
|  8>
|  9> %geom
| 10> Constraints
| 11> { D 4  0  15  12  300.0   C } # D for Dihedral angle
| 12> { D 0  15  12  16  15.0   C } # D for Dihedral angle
| 13> { D 0  4  3  2   C } # D for Dihedral angle
| 14> { D 4  3  2  1   C } # D for Dihedral angle
| 15> { D 3  2  1  0   C } # D for Dihedral angle
| 16> { D 2  1  0  4   C } # D for Dihedral angle
| 17> { D 1  0  4  3   C } # D for Dihedral angle
| 18> { D 16  20  19  18   C } # D for Dihedral angle
| 19> { D 20  19  18  17   C } # D for Dihedral angle
| 20> { D 19  18  17  16   C } # D for Dihedral angle
| 21> { D 18  17  16  20   C } # D for Dihedral angle
| 22> { D 17  16  20  19   C } # D for Dihedral angle
| 23> { D 15  12  16  20   C } # D for Dihedral angle
| 24> end
| 25> end
| 26>
| 27>
| 28> #%pal
| 29> #nprocs 8
| 30> #end
| 31>
| 32> * xyz 0 1
| 33> C  -21.048   26.222   46.251
| 34> C  -20.361   27.558   45.944
| 35> C  -20.329   28.222   47.341
| 36> C  -20.110   27.022   48.296
| 37> O  -20.473   25.807   47.535
| 38> H  -20.833   25.428   45.533
| 39> H  -19.344   27.382   45.576
| 40> H  -20.898   28.157   45.201
| 41> H  -19.543   28.978   47.434
| 42> H  -21.289   28.710   47.548
| 43> H  -20.733   27.082   49.195
| 44> H  -19.064   26.913   48.597
| 45> C  -23.362   25.116   46.798
| 46> H  -24.101   25.379   47.565
| 47> H  -23.895   24.689   45.939
| 48> O  -22.586   26.394   46.375
| 49> C  -22.432   24.012   47.373
| 50> C  -23.212   22.727   47.670
| 51> C  -23.338   22.103   46.260
| 52> C  -22.000   22.491   45.583
| 53> O  -21.438   23.607   46.373
| 54> H  -21.882   24.415   48.226
| 55> H  -22.628   22.076   48.331
| 56> O  -24.590   22.991   48.338
| 57> H  -23.493   21.019   46.288
| 58> H  -24.185   22.548   45.726
| 59> H  -22.135   22.818   44.546
| 60> H  -21.269   21.678   45.607
| 61> H  -25.193   23.640   47.694
| 62> *
| 63>
| 64>                          ****END OF INPUT****
 Total Charge           Charge          ....    0
 Multiplicity           Mult            ....    1
 Number of Electrons    NEL             ....  102
FINAL SINGLE POINT ENERGY      -652.822120640275
FINAL SINGLE POINT ENERGY      -652.844903879208
FINAL SINGLE POINT ENERGY      -652.854191444343
FINAL SINGLE POINT ENERGY      -652.855887675208
FINAL SINGLE POINT ENERGY      -652.856207131328
FINAL SINGLE POINT ENERGY      -652.856274728516
FINAL SINGLE POINT ENERGY      -652.856282167043
FINAL SINGLE POINT ENERGY      -652.856283958340
                    ***********************HURRAY********************

CARTESIAN COORDINATES (ANGSTROEM)
---------------------------------
  C    -20.906189   26.259900   46.226113
  C    -20.448206   27.697571   45.973541
  C    -20.451030   28.284850   47.403840
  C    -20.006948   27.089867   48.276222
  O    -20.221628   25.875247   47.446507
  H    -20.619249   25.513056   45.486345
  H    -19.436546   27.680810   45.552469
  H    -21.113520   28.226932   45.288502
  H    -19.783150   29.145570   47.508355
  H    -21.465075   28.598650   47.666783
  H    -20.584624   26.997303   49.200221
  H    -18.940922   27.115793   48.521622
  C    -23.131738   25.142754   46.761392
  H    -23.847361   25.508002   47.506989
  H    -23.696261   24.838294   45.867116
  O    -22.343535   26.309793   46.376506
  C    -22.405573   23.929268   47.347299
  C    -23.346105   22.747091   47.647461
  C    -23.476097   22.076910   46.244165
  C    -22.071579   22.287433   45.635760
  O    -21.421078   23.369724   46.418317
  H    -21.831525   24.237150   48.220735
  H    -22.854354   22.070081   48.349579
  O    -24.600305   23.087528   48.284623
  H    -23.755103   21.022176   46.314176
  H    -24.249183   22.593099   45.660234
  H    -22.104860   22.577847   44.580374
  H    -21.440822   21.399115   45.735749
  H    -25.211434   23.502187   47.642003

 Multiplicity           Mult            ....    1
 Number of Electrons    NEL             ....  102
 Basis Dimension        Dim             ....  149

ORBITAL ENERGIES
----------------

  NO   OCC          E(Eh)            E(eV)
   0   2.0000     -19.149572      -521.0864
   1   2.0000     -19.137387      -520.7548
   2   2.0000     -19.133523      -520.6496
   3   2.0000     -19.130414      -520.5650
   4   2.0000     -10.265338      -279.3341
   5   2.0000     -10.245010      -278.7809
   6   2.0000     -10.230462      -278.3850
   7   2.0000     -10.227701      -278.3099
   8   2.0000     -10.225594      -278.2526
   9   2.0000     -10.217177      -278.0235
  10   2.0000     -10.195410      -277.4312
  11   2.0000     -10.177244      -276.9369
  12   2.0000     -10.176279      -276.9106
  13   2.0000      -1.042775       -28.3753
  14   2.0000      -1.031706       -28.0742
  15   2.0000      -1.013857       -27.5885
  16   2.0000      -0.981930       -26.7197
  17   2.0000      -0.783957       -21.3326
  18   2.0000      -0.779534       -21.2122
  19   2.0000      -0.760670       -20.6989
  20   2.0000      -0.726486       -19.7687
  21   2.0000      -0.676028       -18.3957
  22   2.0000      -0.611542       -16.6409
  23   2.0000      -0.595267       -16.1980
  24   2.0000      -0.589641       -16.0449
  25   2.0000      -0.561400       -15.2765
  26   2.0000      -0.525399       -14.2968
  27   2.0000      -0.507700       -13.8152
  28   2.0000      -0.494621       -13.4593
  29   2.0000      -0.476483       -12.9658
  30   2.0000      -0.461688       -12.5632
  31   2.0000      -0.454043       -12.3551
  32   2.0000      -0.441482       -12.0133
  33   2.0000      -0.428261       -11.6536
  34   2.0000      -0.425147       -11.5688
  35   2.0000      -0.411000       -11.1839
  36   2.0000      -0.405014       -11.0210
  37   2.0000      -0.391268       -10.6469
  38   2.0000      -0.380879       -10.3643
  39   2.0000      -0.364113        -9.9080
  40   2.0000      -0.355606        -9.6765
  41   2.0000      -0.348829        -9.4921
  42   2.0000      -0.338692        -9.2163
  43   2.0000      -0.329405        -8.9636
  44   2.0000      -0.320381        -8.7180
  45   2.0000      -0.311549        -8.4777
  46   2.0000      -0.289774        -7.8851
  47   2.0000      -0.270705        -7.3663
  48   2.0000      -0.259241        -7.0543
  49   2.0000      -0.244335        -6.6487
  50   2.0000      -0.234102        -6.3703
  51   0.0000       0.051967         1.4141
  52   0.0000       0.076815         2.0902
  53   0.0000       0.093643         2.5482
  54   0.0000       0.097117         2.6427
  55   0.0000       0.108459         2.9513

MULLIKEN ATOMIC CHARGES
-----------------------
   0 C :    0.303289
   1 C :   -0.261026
   2 C :   -0.295616
   3 C :   -0.008939
   4 O :   -0.506948
   5 H :    0.165273
   6 H :    0.143366
   7 H :    0.154256
   8 H :    0.136302
   9 H :    0.158453
  10 H :    0.139938
  11 H :    0.142229
  12 C :    0.005769
  13 H :    0.147425
  14 H :    0.119737
  15 O :   -0.548710
  16 C :    0.073387
  17 C :    0.080793
  18 C :   -0.322790
  19 C :   -0.016994
  20 O :   -0.510391
  21 H :    0.184210
  22 H :    0.171333
  23 O :   -0.599285
  24 H :    0.157432
  25 H :    0.132381
  26 H :    0.143951
  27 H :    0.153927
  28 H :    0.357248
Sum of atomic charges:   -0.0000000

LOEWDIN ATOMIC CHARGES
----------------------
   0 C :    0.177478
   1 C :   -0.214754
   2 C :   -0.216142
   3 C :   -0.032368
   4 O :   -0.320881
   5 H :    0.108055
   6 H :    0.113042
   7 H :    0.122952
   8 H :    0.110980
   9 H :    0.117302
  10 H :    0.101041
  11 H :    0.102185
  12 C :   -0.044297
  13 H :    0.110736
  14 H :    0.088974
  15 O :   -0.334449
  16 C :    0.005812
  17 C :    0.037184
  18 C :   -0.242296
  19 C :   -0.033547
  20 O :   -0.315203
  21 H :    0.129352
  22 H :    0.120773
  23 O :   -0.406255
  24 H :    0.122296
  25 H :    0.103506
  26 H :    0.102090
  27 H :    0.107643
  28 H :    0.278791

  Mayer bond orders larger than 0.100000
B(  0-C ,  1-C ) :   0.9439 B(  0-C ,  4-O ) :   0.8875 B(  0-C ,  5-H ) :   0.9144
B(  0-C , 15-O ) :   0.8436 B(  1-C ,  2-C ) :   0.9553 B(  1-C ,  6-H ) :   0.9411
B(  1-C ,  7-H ) :   0.9369 B(  2-C ,  3-C ) :   0.9551 B(  2-C ,  8-H ) :   0.9459
B(  2-C ,  9-H ) :   0.9448 B(  3-C ,  4-O ) :   0.8435 B(  3-C , 10-H ) :   0.9358
B(  3-C , 11-H ) :   0.9404 B( 12-C , 13-H ) :   0.9163 B( 12-C , 14-H ) :   0.9271
B( 12-C , 15-O ) :   0.8487 B( 12-C , 16-C ) :   0.9072 B( 16-C , 17-C ) :   0.8666
B( 16-C , 20-O ) :   0.8400 B( 16-C , 21-H ) :   0.9146 B( 17-C , 18-C ) :   0.9226
B( 17-C , 22-H ) :   0.9330 B( 17-C , 23-O ) :   0.8993 B( 18-C , 19-C ) :   0.9390
B( 18-C , 24-H ) :   0.9419 B( 18-C , 25-H ) :   0.9400 B( 19-C , 20-O ) :   0.8472
B( 19-C , 26-H ) :   0.9314 B( 19-C , 27-H ) :   0.9373 B( 23-O , 28-H ) :   0.7981

FINAL SINGLE POINT ENERGY      -652.856284099509

DIPOLE MOMENT
-------------
                                X             Y             Z
Electronic contribution:     -0.38964      -2.08669       1.09249
Nuclear contribution   :     -0.03244       2.10303      -1.72424
                        -----------------------------------------
Total Dipole Moment    :     -0.42208       0.01634      -0.63175
                        -----------------------------------------
Magnitude (a.u.)       :      0.75995
Magnitude (Debye)      :      1.93165

Rotational constants in cm-1:     0.056041     0.014449     0.013577
Rotational constants in MHz :  1680.062915   433.159059   407.029684

                             ****ORCA TERMINATED NORMALLY****
TOTAL RUN TIME: 0 days 0 hours 33 minutes 45 seconds 433 msec
