                         Program Version 4.2.0 -  RELEASE  -
|  1> # Test redundant internal optimization
|  2> #
|  3> ! RKS B3LYP  Opt TightSCF SmallPrint
|  4>
|  5> %basis
|  6>         Basis "6-31G"
|  7> end
|  8>
|  9> %geom
| 10> Constraints
| 11> { D 4  0  15  12  105.0   C } # D for Dihedral angle
| 12> { D 0  15  12  16  120.0   C } # D for Dihedral angle
| 13> { D 0  4  3  2   C } # D for Dihedral angle
| 14> { D 4  3  2  1   C } # D for Dihedral angle
| 15> { D 3  2  1  0   C } # D for Dihedral angle
| 16> { D 2  1  0  4   C } # D for Dihedral angle
| 17> { D 1  0  4  3   C } # D for Dihedral angle
| 18> { D 16  20  19  18   C } # D for Dihedral angle
| 19> { D 20  19  18  17   C } # D for Dihedral angle
| 20> { D 19  18  17  16   C } # D for Dihedral angle
| 21> { D 18  17  16  20   C } # D for Dihedral angle
| 22> { D 17  16  20  19   C } # D for Dihedral angle
| 23> { D 15  12  16  20   C } # D for Dihedral angle
| 24> end
| 25> end
| 26>
| 27>
| 28> #%pal
| 29> #nprocs 8
| 30> #end
| 31>
| 32> * xyz 0 1
| 33> C  -21.048   26.222   46.251
| 34> C  -20.361   27.558   45.944
| 35> C  -20.329   28.222   47.341
| 36> C  -20.110   27.022   48.296
| 37> O  -20.473   25.807   47.535
| 38> H  -20.833   25.428   45.533
| 39> H  -19.344   27.382   45.576
| 40> H  -20.898   28.157   45.201
| 41> H  -19.543   28.978   47.434
| 42> H  -21.289   28.710   47.548
| 43> H  -20.733   27.082   49.195
| 44> H  -19.064   26.913   48.597
| 45> C  -23.085   27.864   46.420
| 46> H  -23.610   28.039   47.367
| 47> H  -22.237   28.559   46.365
| 48> O  -22.586   26.394   46.375
| 49> C  -24.053   28.206   45.254
| 50> C  -23.416   27.900   43.893
| 51> C  -23.600   26.366   43.800
| 52> C  -24.962   26.132   44.499
| 53> O  -25.237   27.343   45.301
| 54> H  -24.401   29.234   45.368
| 55> O  -24.204   28.615   42.763
| 56> H  -22.366   28.206   43.830
| 57> H  -23.591   25.999   42.769
| 58> H  -22.794   25.857   44.344
| 59> H  -24.950   25.258   45.160
| 60> H  -25.784   26.025   43.785
| 61> H  -25.259   28.323   42.807
| 62> *
| 63>
| 64>                          ****END OF INPUT****
 Total Charge           Charge          ....    0
 Multiplicity           Mult            ....    1
 Number of Electrons    NEL             ....  102
FINAL SINGLE POINT ENERGY      -652.808391240465
FINAL SINGLE POINT ENERGY      -652.836658449945
FINAL SINGLE POINT ENERGY      -652.849347160132
FINAL SINGLE POINT ENERGY      -652.851648140429
FINAL SINGLE POINT ENERGY      -652.852029355883
FINAL SINGLE POINT ENERGY      -652.852080064556
FINAL SINGLE POINT ENERGY      -652.852084016311
                    ***********************HURRAY********************

CARTESIAN COORDINATES (ANGSTROEM)
---------------------------------
  C    -21.189435   26.319410   46.439827
  C    -20.259219   27.456580   45.994358
  C    -20.035871   28.238593   47.323833
  C    -20.027774   27.100841   48.376092
  O    -20.661153   25.932546   47.725035
  H    -21.112340   25.422857   45.822470
  H    -19.319032   27.014334   45.650955
  H    -20.660612   28.073277   45.185520
  H    -19.094739   28.796945   47.318031
  H    -20.842092   28.951321   47.515809
  H    -20.587144   27.351030   49.282036
  H    -19.014395   26.797829   48.654272
  C    -23.231850   27.891396   46.451621
  H    -23.830704   27.979603   47.364035
  H    -22.491658   28.698627   46.441702
  O    -22.615868   26.572639   46.480208
  C    -24.164149   28.080451   45.251005
  C    -23.553732   27.951986   43.846775
  C    -23.598006   26.415805   43.620828
  C    -24.906609   25.999383   44.339100
  O    -25.256394   27.109898   45.253241
  H    -24.625267   29.070256   45.363073
  O    -24.356711   28.673866   42.871935
  H    -22.552951   28.376833   43.757852
  H    -23.605602   26.184265   42.552134
  H    -22.735440   25.939518   44.088105
  H    -24.783556   25.088071   44.929122
  H    -25.747245   25.871356   43.648751
  H    -25.300451   28.441484   43.003275

 Multiplicity           Mult            ....    1
 Number of Electrons    NEL             ....  102
 Basis Dimension        Dim             ....  149

ORBITAL ENERGIES
----------------

  NO   OCC          E(Eh)            E(eV)
   0   2.0000     -19.146216      -520.9950
   1   2.0000     -19.142638      -520.8977
   2   2.0000     -19.138216      -520.7773
   3   2.0000     -19.137882      -520.7682
   4   2.0000     -10.286311      -279.9047
   5   2.0000     -10.241787      -278.6932
   6   2.0000     -10.236713      -278.5551
   7   2.0000     -10.235007      -278.5087
   8   2.0000     -10.231712      -278.4190
   9   2.0000     -10.223518      -278.1961
  10   2.0000     -10.201620      -277.6002
  11   2.0000     -10.199835      -277.5516
  12   2.0000     -10.181991      -277.0661
  13   2.0000      -1.054541       -28.6955
  14   2.0000      -1.034956       -28.1626
  15   2.0000      -1.006441       -27.3867
  16   2.0000      -0.996551       -27.1175
  17   2.0000      -0.795471       -21.6459
  18   2.0000      -0.781235       -21.2585
  19   2.0000      -0.769519       -20.9397
  20   2.0000      -0.738777       -20.1031
  21   2.0000      -0.682140       -18.5620
  22   2.0000      -0.612495       -16.6668
  23   2.0000      -0.606279       -16.4977
  24   2.0000      -0.600497       -16.3403
  25   2.0000      -0.569479       -15.4963
  26   2.0000      -0.524789       -14.2802
  27   2.0000      -0.517329       -14.0772
  28   2.0000      -0.509007       -13.8508
  29   2.0000      -0.491723       -13.3805
  30   2.0000      -0.473257       -12.8780
  31   2.0000      -0.454486       -12.3672
  32   2.0000      -0.453897       -12.3512
  33   2.0000      -0.440220       -11.9790
  34   2.0000      -0.428683       -11.6651
  35   2.0000      -0.424232       -11.5439
  36   2.0000      -0.404227       -10.9996
  37   2.0000      -0.390681       -10.6310
  38   2.0000      -0.387047       -10.5321
  39   2.0000      -0.369772       -10.0620
  40   2.0000      -0.368012       -10.0141
  41   2.0000      -0.365976        -9.9587
  42   2.0000      -0.354943        -9.6585
  43   2.0000      -0.329169        -8.9571
  44   2.0000      -0.319535        -8.6950
  45   2.0000      -0.304995        -8.2993
  46   2.0000      -0.297542        -8.0965
  47   2.0000      -0.274050        -7.4573
  48   2.0000      -0.267888        -7.2896
  49   2.0000      -0.259441        -7.0597
  50   2.0000      -0.238224        -6.4824
  51   0.0000       0.060943         1.6583
  52   0.0000       0.071729         1.9519
  53   0.0000       0.086639         2.3576
  54   0.0000       0.091760         2.4969
  55   0.0000       0.105703         2.8763

MULLIKEN ATOMIC CHARGES
-----------------------
   0 C :    0.323881
   1 C :   -0.310275
   2 C :   -0.312433
   3 C :   -0.005960
   4 O :   -0.499155
   5 H :    0.158493
   6 H :    0.162331
   7 H :    0.149697
   8 H :    0.148985
   9 H :    0.154307
  10 H :    0.149857
  11 H :    0.147491
  12 C :   -0.005473
  13 H :    0.164250
  14 H :    0.122243
  15 O :   -0.529644
  16 C :    0.075880
  17 C :    0.072261
  18 C :   -0.284630
  19 C :   -0.019412
  20 O :   -0.522792
  21 H :    0.150082
  22 O :   -0.603578
  23 H :    0.143614
  24 H :    0.151338
  25 H :    0.156874
  26 H :    0.160609
  27 H :    0.136723
  28 H :    0.364434
Sum of atomic charges:   -0.0000000

LOEWDIN ATOMIC CHARGES
----------------------
   0 C :    0.177882
   1 C :   -0.234229
   2 C :   -0.222798
   3 C :   -0.030446
   4 O :   -0.313925
   5 H :    0.106098
   6 H :    0.126683
   7 H :    0.113451
   8 H :    0.117603
   9 H :    0.109728
  10 H :    0.106098
  11 H :    0.105014
  12 C :   -0.038462
  13 H :    0.117896
  14 H :    0.096889
  15 O :   -0.324937
  16 C :    0.009488
  17 C :    0.036223
  18 C :   -0.238345
  19 C :   -0.032700
  20 O :   -0.327420
  21 H :    0.113606
  22 O :   -0.415694
  23 H :    0.108982
  24 H :    0.119599
  25 H :    0.120908
  26 H :    0.113025
  27 H :    0.096671
  28 H :    0.283111

  Mayer bond orders larger than 0.100000
B(  0-C ,  1-C ) :   0.9262 B(  0-C ,  4-O ) :   0.9083 B(  0-C ,  5-H ) :   0.9315
B(  0-C , 15-O ) :   0.8748 B(  1-C ,  2-C ) :   0.9516 B(  1-C ,  6-H ) :   0.9332
B(  1-C ,  7-H ) :   0.9263 B(  2-C ,  3-C ) :   0.9457 B(  2-C ,  8-H ) :   0.9452
B(  2-C ,  9-H ) :   0.9368 B(  3-C ,  4-O ) :   0.8471 B(  3-C , 10-H ) :   0.9340
B(  3-C , 11-H ) :   0.9390 B( 12-C , 13-H ) :   0.9276 B( 12-C , 14-H ) :   0.8981
B( 12-C , 15-O ) :   0.8533 B( 12-C , 16-C ) :   0.8940 B( 16-C , 17-C ) :   0.9082
B( 16-C , 20-O ) :   0.8742 B( 16-C , 21-H ) :   0.9190 B( 17-C , 18-C ) :   0.9220
B( 17-C , 22-O ) :   0.8896 B( 17-C , 23-H ) :   0.9313 B( 18-C , 19-C ) :   0.9469
B( 18-C , 24-H ) :   0.9370 B( 18-C , 25-H ) :   0.9230 B( 19-C , 20-O ) :   0.8393
B( 19-C , 26-H ) :   0.9325 B( 19-C , 27-H ) :   0.9368 B( 22-O , 28-H ) :   0.7948

FINAL SINGLE POINT ENERGY      -652.852082239072

DIPOLE MOMENT
-------------
                                X             Y             Z
Electronic contribution:     -4.37958      -1.83438       0.17006
Nuclear contribution   :      5.35469       2.46804      -0.26979
                        -----------------------------------------
Total Dipole Moment    :      0.97511       0.63366      -0.09973
                        -----------------------------------------
Magnitude (a.u.)       :      1.16718
Magnitude (Debye)      :      2.96673

Rotational constants in cm-1:     0.056062     0.014433     0.013675
Rotational constants in MHz :  1680.681957   432.689931   409.978927

                             ****ORCA TERMINATED NORMALLY****
TOTAL RUN TIME: 0 days 1 hours 8 minutes 36 seconds 183 msec
