                         Program Version 4.2.0 -  RELEASE  -
|  1> # Test redundant internal optimization
|  2> #
|  3> ! RKS B3LYP  Opt TightSCF SmallPrint
|  4>
|  5> %basis
|  6>         Basis "6-31G"
|  7> end
|  8>
|  9> %geom
| 10> Constraints
| 11> { D 4  0  15  12  225.0   C } # D for Dihedral angle
| 12> { D 0  15  12  16  345.0   C } # D for Dihedral angle
| 13> { D 0  4  3  2   C } # D for Dihedral angle
| 14> { D 4  3  2  1   C } # D for Dihedral angle
| 15> { D 3  2  1  0   C } # D for Dihedral angle
| 16> { D 2  1  0  4   C } # D for Dihedral angle
| 17> { D 1  0  4  3   C } # D for Dihedral angle
| 18> { D 16  20  19  18   C } # D for Dihedral angle
| 19> { D 20  19  18  17   C } # D for Dihedral angle
| 20> { D 19  18  17  16   C } # D for Dihedral angle
| 21> { D 18  17  16  20   C } # D for Dihedral angle
| 22> { D 17  16  20  19   C } # D for Dihedral angle
| 23> { D 15  12  16  20   C } # D for Dihedral angle
| 24> end
| 25> end
| 26>
| 27>
| 28> #%pal
| 29> #nprocs 8
| 30> #end
| 31>
| 32> * xyz 0 1
| 33> C  -21.048   26.222   46.251
| 34> C  -20.361   27.558   45.944
| 35> C  -20.329   28.222   47.341
| 36> C  -20.110   27.022   48.296
| 37> O  -20.473   25.807   47.535
| 38> H  -20.833   25.428   45.533
| 39> H  -19.344   27.382   45.576
| 40> H  -20.898   28.157   45.201
| 41> H  -19.543   28.978   47.434
| 42> H  -21.289   28.710   47.548
| 43> H  -20.733   27.082   49.195
| 44> H  -19.064   26.913   48.597
| 45> C  -23.415   25.773   45.218
| 46> H  -23.898   24.853   45.572
| 47> H  -24.200   26.468   44.891
| 48> O  -22.586   26.394   46.375
| 49> C  -22.548   25.423   43.977
| 50> C  -23.413   24.922   42.816
| 51> C  -23.970   26.247   42.245
| 52> C  -22.795   27.237   42.444
| 53> O  -21.899   26.628   43.450
| 54> H  -21.753   24.737   44.278
| 55> O  -22.527   24.201   41.763
| 56> H  -24.202   24.232   43.135
| 57> H  -24.272   26.164   41.196
| 58> H  -24.846   26.567   42.821
| 59> H  -23.129   28.216   42.808
| 60> H  -22.209   27.378   41.532
| 61> H  -21.730   24.874   41.430
| 62> *
| 63>
| 64>                          ****END OF INPUT****
 Total Charge           Charge          ....    0
 Multiplicity           Mult            ....    1
 Number of Electrons    NEL             ....  102
FINAL SINGLE POINT ENERGY      -652.825317557786
FINAL SINGLE POINT ENERGY      -652.847982874430
FINAL SINGLE POINT ENERGY      -652.852831952732
FINAL SINGLE POINT ENERGY      -652.855159828056
FINAL SINGLE POINT ENERGY      -652.855415430610
FINAL SINGLE POINT ENERGY      -652.855460473550
                    ***********************HURRAY********************

CARTESIAN COORDINATES (ANGSTROEM)
---------------------------------
  C    -20.876489   26.228987   46.218370
  C    -20.264136   27.616135   46.032452
  C    -20.429789   28.229495   47.442386
  C    -20.226060   27.014733   48.374149
  O    -20.420353   25.815140   47.521351
  H    -20.539816   25.473540   45.509364
  H    -19.202783   27.511920   45.775334
  H    -20.763435   28.175382   45.240869
  H    -19.713831   29.032609   47.641185
  H    -21.441870   28.630691   47.551556
  H    -20.943394   26.978382   49.198366
  H    -19.209718   26.952511   48.775687
  C    -23.177585   25.802634   45.193480
  H    -23.679284   24.902929   45.579966
  H    -23.941145   26.569861   45.026610
  O    -22.326579   26.333488   46.248680
  C    -22.509663   25.432587   43.868187
  C    -23.509148   24.944305   42.807538
  C    -24.051197   26.285838   42.242350
  C    -22.810989   27.213875   42.297203
  O    -21.852630   26.584324   43.239588
  H    -21.736440   24.674423   44.018913
  O    -22.837972   24.157712   41.786455
  H    -24.290691   24.293720   43.201797
  H    -24.436951   26.149246   41.229318
  H    -24.863716   26.665313   42.871360
  H    -23.049618   28.220132   42.653471
  H    -22.304115   27.296126   41.331052
  H    -22.007603   24.608961   41.524962

 Multiplicity           Mult            ....    1
 Number of Electrons    NEL             ....  102
 Basis Dimension        Dim             ....  149

ORBITAL ENERGIES
----------------

  NO   OCC          E(Eh)            E(eV)
   0   2.0000     -19.154717      -521.2263
   1   2.0000     -19.147842      -521.0393
   2   2.0000     -19.131668      -520.5992
   3   2.0000     -19.128909      -520.5241
   4   2.0000     -10.270289      -279.4688
   5   2.0000     -10.252821      -278.9934
   6   2.0000     -10.244920      -278.7784
   7   2.0000     -10.240935      -278.6700
   8   2.0000     -10.235497      -278.5220
   9   2.0000     -10.215399      -277.9751
  10   2.0000     -10.198770      -277.5226
  11   2.0000     -10.175109      -276.8788
  12   2.0000     -10.170417      -276.7511
  13   2.0000      -1.049258       -28.5517
  14   2.0000      -1.039103       -28.2754
  15   2.0000      -1.015812       -27.6417
  16   2.0000      -0.983367       -26.7588
  17   2.0000      -0.793972       -21.6051
  18   2.0000      -0.776844       -21.1390
  19   2.0000      -0.770047       -20.9541
  20   2.0000      -0.729536       -19.8517
  21   2.0000      -0.676156       -18.3992
  22   2.0000      -0.614062       -16.7095
  23   2.0000      -0.610910       -16.6237
  24   2.0000      -0.587756       -15.9937
  25   2.0000      -0.565857       -15.3978
  26   2.0000      -0.534666       -14.5490
  27   2.0000      -0.514262       -13.9938
  28   2.0000      -0.492193       -13.3933
  29   2.0000      -0.486687       -13.2434
  30   2.0000      -0.474679       -12.9167
  31   2.0000      -0.456888       -12.4326
  32   2.0000      -0.451726       -12.2921
  33   2.0000      -0.440265       -11.9802
  34   2.0000      -0.427298       -11.6274
  35   2.0000      -0.411327       -11.1928
  36   2.0000      -0.404003       -10.9935
  37   2.0000      -0.393136       -10.6978
  38   2.0000      -0.381332       -10.3766
  39   2.0000      -0.370892       -10.0925
  40   2.0000      -0.359940        -9.7945
  41   2.0000      -0.350967        -9.5503
  42   2.0000      -0.343967        -9.3598
  43   2.0000      -0.337124        -9.1736
  44   2.0000      -0.319700        -8.6995
  45   2.0000      -0.304946        -8.2980
  46   2.0000      -0.301294        -8.1986
  47   2.0000      -0.281174        -7.6511
  48   2.0000      -0.258093        -7.0231
  49   2.0000      -0.250486        -6.8161
  50   2.0000      -0.235879        -6.4186
  51   0.0000       0.055718         1.5162
  52   0.0000       0.081602         2.2205
  53   0.0000       0.086734         2.3601
  54   0.0000       0.089890         2.4460
  55   0.0000       0.097384         2.6499

MULLIKEN ATOMIC CHARGES
-----------------------
   0 C :    0.296422
   1 C :   -0.246498
   2 C :   -0.301843
   3 C :   -0.000314
   4 O :   -0.508189
   5 H :    0.144506
   6 H :    0.135850
   7 H :    0.158913
   8 H :    0.135500
   9 H :    0.157791
  10 H :    0.148706
  11 H :    0.136946
  12 C :    0.037887
  13 H :    0.136574
  14 H :    0.140622
  15 O :   -0.533944
  16 C :    0.021831
  17 C :    0.072157
  18 C :   -0.295179
  19 C :   -0.032005
  20 O :   -0.523938
  21 H :    0.171105
  22 O :   -0.597696
  23 H :    0.160024
  24 H :    0.166346
  25 H :    0.148266
  26 H :    0.153602
  27 H :    0.150521
  28 H :    0.366036
Sum of atomic charges:   -0.0000000

LOEWDIN ATOMIC CHARGES
----------------------
   0 C :    0.183138
   1 C :   -0.220375
   2 C :   -0.218854
   3 C :   -0.026514
   4 O :   -0.314726
   5 H :    0.099372
   6 H :    0.109812
   7 H :    0.123807
   8 H :    0.111074
   9 H :    0.116928
  10 H :    0.105894
  11 H :    0.099630
  12 C :   -0.031763
  13 H :    0.102276
  14 H :    0.104937
  15 O :   -0.335527
  16 C :   -0.002131
  17 C :    0.038566
  18 C :   -0.240135
  19 C :   -0.037333
  20 O :   -0.332899
  21 H :    0.116290
  22 O :   -0.411390
  23 H :    0.119493
  24 H :    0.128708
  25 H :    0.115186
  26 H :    0.107862
  27 H :    0.104557
  28 H :    0.284119

  Mayer bond orders larger than 0.100000
B(  0-C ,  1-C ) :   0.9408 B(  0-C ,  4-O ) :   0.9197 B(  0-C ,  5-H ) :   0.9142
B(  0-C , 15-O ) :   0.8289 B(  1-C ,  2-C ) :   0.9530 B(  1-C ,  6-H ) :   0.9376
B(  1-C ,  7-H ) :   0.9327 B(  2-C ,  3-C ) :   0.9539 B(  2-C ,  8-H ) :   0.9457
B(  2-C ,  9-H ) :   0.9444 B(  3-C ,  4-O ) :   0.8401 B(  3-C , 10-H ) :   0.9354
B(  3-C , 11-H ) :   0.9402 B( 12-C , 13-H ) :   0.9119 B( 12-C , 14-H ) :   0.9296
B( 12-C , 15-O ) :   0.8567 B( 12-C , 16-C ) :   0.8981 B( 16-C , 17-C ) :   0.8936
B( 16-C , 20-O ) :   0.8418 B( 16-C , 21-H ) :   0.9152 B( 17-C , 18-C ) :   0.9130
B( 17-C , 22-O ) :   0.8984 B( 17-C , 23-H ) :   0.9317 B( 18-C , 19-C ) :   0.9400
B( 18-C , 24-H ) :   0.9368 B( 18-C , 25-H ) :   0.9327 B( 19-C , 20-O ) :   0.8411
B( 19-C , 26-H ) :   0.9338 B( 19-C , 27-H ) :   0.9377 B( 22-O , 28-H ) :   0.7932

FINAL SINGLE POINT ENERGY      -652.855463575380

DIPOLE MOMENT
-------------
                                X             Y             Z
Electronic contribution:      0.55873      -4.52121      -0.30087
Nuclear contribution   :     -0.95824       5.50998      -0.43294
                        -----------------------------------------
Total Dipole Moment    :     -0.39951       0.98876      -0.73382
                        -----------------------------------------
Magnitude (a.u.)       :      1.29451
Magnitude (Debye)      :      3.29037

Rotational constants in cm-1:     0.064892     0.012740     0.012050
Rotational constants in MHz :  1945.418575   381.936156   361.236879

                             ****ORCA TERMINATED NORMALLY****
TOTAL RUN TIME: 0 days 0 hours 21 minutes 12 seconds 836 msec
