                         Program Version 4.2.0 -  RELEASE  -
|  1> # Test redundant internal optimization
|  2> #
|  3> ! RKS B3LYP  Opt TightSCF SmallPrint
|  4>
|  5> %basis
|  6>         Basis "6-31G"
|  7> end
|  8>
|  9> %geom
| 10> Constraints
| 11> { D 4  0  15  12  30.0   C } # D for Dihedral angle
| 12> { D 0  15  12  16  285.0   C } # D for Dihedral angle
| 13> { D 0  4  3  2   C } # D for Dihedral angle
| 14> { D 4  3  2  1   C } # D for Dihedral angle
| 15> { D 3  2  1  0   C } # D for Dihedral angle
| 16> { D 2  1  0  4   C } # D for Dihedral angle
| 17> { D 1  0  4  3   C } # D for Dihedral angle
| 18> { D 16  20  19  18   C } # D for Dihedral angle
| 19> { D 20  19  18  17   C } # D for Dihedral angle
| 20> { D 19  18  17  16   C } # D for Dihedral angle
| 21> { D 18  17  16  20   C } # D for Dihedral angle
| 22> { D 17  16  20  19   C } # D for Dihedral angle
| 23> { D 15  12  16  20   C } # D for Dihedral angle
| 24> end
| 25> end
| 26>
| 27>
| 28> #%pal
| 29> #nprocs 8
| 30> #end
| 31>
| 32> * xyz 0 1
| 33> C  -21.048   26.222   46.251
| 34> C  -20.361   27.558   45.944
| 35> C  -20.329   28.222   47.341
| 36> C  -20.110   27.022   48.296
| 37> O  -20.473   25.807   47.535
| 38> H  -20.833   25.428   45.533
| 39> H  -19.344   27.382   45.576
| 40> H  -20.898   28.157   45.201
| 41> H  -19.543   28.978   47.434
| 42> H  -21.289   28.710   47.548
| 43> H  -20.733   27.082   49.195
| 44> H  -19.064   26.913   48.597
| 45> C  -23.091   26.824   47.779
| 46> H  -22.462   27.640   48.157
| 47> H  -24.125   27.188   47.721
| 48> O  -22.586   26.394   46.375
| 49> C  -23.057   25.663   48.812
| 50> C  -23.845   24.448   48.309
| 51> C  -22.838   23.807   47.324
| 52> C  -21.469   24.078   47.994
| 53> O  -21.688   25.163   48.976
| 54> H  -23.379   26.039   49.784
| 55> H  -24.057   23.768   49.141
| 56> O  -25.190   24.829   47.632
| 57> H  -23.021   22.739   47.165
| 58> H  -22.896   24.306   46.349
| 59> H  -20.704   24.393   47.276
| 60> H  -21.097   23.212   48.550
| 61> H  -25.000   25.510   46.796
| 62> *
| 63>
| 64>                          ****END OF INPUT****
 Total Charge           Charge          ....    0
 Multiplicity           Mult            ....    1
 Number of Electrons    NEL             ....  102
FINAL SINGLE POINT ENERGY      -652.709905898030
FINAL SINGLE POINT ENERGY      -652.819158886415
FINAL SINGLE POINT ENERGY      -652.844274105020
FINAL SINGLE POINT ENERGY      -652.851806485277
FINAL SINGLE POINT ENERGY      -652.853228868740
FINAL SINGLE POINT ENERGY      -652.853695246690
FINAL SINGLE POINT ENERGY      -652.853848212759
FINAL SINGLE POINT ENERGY      -652.853889311655
FINAL SINGLE POINT ENERGY      -652.853899007801
                    ***********************HURRAY********************

CARTESIAN COORDINATES (ANGSTROEM)
---------------------------------
  C    -21.045875   26.550604   46.163386
  C    -20.449211   27.939355   45.920794
  C    -20.095883   28.398708   47.362754
  C    -19.664174   27.076552   48.041347
  O    -20.208787   25.990140   47.181184
  H    -20.991698   25.884323   45.301302
  H    -19.541656   27.841154   45.313593
  H    -21.149061   28.603785   45.409406
  H    -19.296922   29.146588   47.378355
  H    -20.970809   28.835449   47.853240
  H    -20.067496   26.933751   49.045474
  H    -18.578001   26.946012   48.055228
  C    -23.111767   26.768646   47.747856
  H    -22.667656   27.622964   48.276283
  H    -24.144659   27.034611   47.504668
  O    -22.478143   26.618421   46.441462
  C    -23.186994   25.592709   48.740165
  C    -24.011081   24.401683   48.221275
  C    -22.920624   23.535550   47.516733
  C    -21.681900   23.757644   48.411350
  O    -21.958023   24.986253   49.211570
  H    -23.665012   26.029294   49.627314
  H    -24.458725   23.861710   49.058352
  O    -25.126037   24.761446   47.369679
  H    -23.209407   22.483913   47.439237
  H    -22.756396   23.932881   46.508917
  H    -20.765356   23.924688   47.849208
  H    -21.545202   22.947600   49.134624
  H    -24.783447   25.075564   46.506245

 Multiplicity           Mult            ....    1
 Number of Electrons    NEL             ....  102
 Basis Dimension        Dim             ....  149

ORBITAL ENERGIES
----------------

  NO   OCC          E(Eh)            E(eV)
   0   2.0000     -19.148971      -521.0700
   1   2.0000     -19.142215      -520.8862
   2   2.0000     -19.136389      -520.7276
   3   2.0000     -19.131159      -520.5853
   4   2.0000     -10.283570      -279.8302
   5   2.0000     -10.231958      -278.4257
   6   2.0000     -10.231352      -278.4092
   7   2.0000     -10.227975      -278.3173
   8   2.0000     -10.226948      -278.2894
   9   2.0000     -10.210957      -277.8543
  10   2.0000     -10.192453      -277.3507
  11   2.0000     -10.187557      -277.2175
  12   2.0000     -10.178317      -276.9661
  13   2.0000      -1.054161       -28.6852
  14   2.0000      -1.022686       -27.8287
  15   2.0000      -1.004866       -27.3438
  16   2.0000      -0.994046       -27.0494
  17   2.0000      -0.789403       -21.4807
  18   2.0000      -0.771473       -20.9928
  19   2.0000      -0.763758       -20.7829
  20   2.0000      -0.733318       -19.9546
  21   2.0000      -0.676752       -18.4154
  22   2.0000      -0.604395       -16.4464
  23   2.0000      -0.603331       -16.4175
  24   2.0000      -0.596422       -16.2295
  25   2.0000      -0.554830       -15.0977
  26   2.0000      -0.525564       -14.3013
  27   2.0000      -0.507383       -13.8066
  28   2.0000      -0.498575       -13.5669
  29   2.0000      -0.484584       -13.1862
  30   2.0000      -0.465414       -12.6646
  31   2.0000      -0.456311       -12.4169
  32   2.0000      -0.439450       -11.9580
  33   2.0000      -0.426755       -11.6126
  34   2.0000      -0.418968       -11.4007
  35   2.0000      -0.411033       -11.1848
  36   2.0000      -0.403969       -10.9926
  37   2.0000      -0.390254       -10.6193
  38   2.0000      -0.381109       -10.3705
  39   2.0000      -0.366772        -9.9804
  40   2.0000      -0.359206        -9.7745
  41   2.0000      -0.356212        -9.6930
  42   2.0000      -0.345398        -9.3988
  43   2.0000      -0.327553        -8.9132
  44   2.0000      -0.315890        -8.5958
  45   2.0000      -0.310160        -8.4399
  46   2.0000      -0.301364        -8.2005
  47   2.0000      -0.265450        -7.2233
  48   2.0000      -0.261702        -7.1213
  49   2.0000      -0.257042        -6.9945
  50   2.0000      -0.226686        -6.1684
  51   0.0000       0.064736         1.7616
  52   0.0000       0.088064         2.3963
  53   0.0000       0.091036         2.4772
  54   0.0000       0.098833         2.6894
  55   0.0000       0.106249         2.8912

MULLIKEN ATOMIC CHARGES
-----------------------
   0 C :    0.313415
   1 C :   -0.262334
   2 C :   -0.322654
   3 C :   -0.013768
   4 O :   -0.508190
   5 H :    0.157167
   6 H :    0.147305
   7 H :    0.154374
   8 H :    0.148476
   9 H :    0.154870
  10 H :    0.172928
  11 H :    0.148279
  12 C :   -0.033719
  13 H :    0.127907
  14 H :    0.164140
  15 O :   -0.558230
  16 C :    0.112223
  17 C :    0.084929
  18 C :   -0.322392
  19 C :   -0.007666
  20 O :   -0.525273
  21 H :    0.140721
  22 H :    0.159945
  23 O :   -0.608512
  24 H :    0.147417
  25 H :    0.149885
  26 H :    0.177107
  27 H :    0.134608
  28 H :    0.367039
Sum of atomic charges:    0.0000000

LOEWDIN ATOMIC CHARGES
----------------------
   0 C :    0.180574
   1 C :   -0.223690
   2 C :   -0.222328
   3 C :   -0.032362
   4 O :   -0.305278
   5 H :    0.107904
   6 H :    0.115310
   7 H :    0.121783
   8 H :    0.117353
   9 H :    0.111411
  10 H :    0.117778
  11 H :    0.105760
  12 C :   -0.049015
  13 H :    0.092841
  14 H :    0.122321
  15 O :   -0.354375
  16 C :    0.008733
  17 C :    0.033622
  18 C :   -0.240949
  19 C :   -0.033063
  20 O :   -0.321126
  21 H :    0.112337
  22 H :    0.114757
  23 O :   -0.412408
  24 H :    0.117431
  25 H :    0.113355
  26 H :    0.119691
  27 H :    0.098037
  28 H :    0.283597

  Mayer bond orders larger than 0.100000
B(  0-C ,  1-C ) :   0.9264 B(  0-C ,  4-O ) :   0.9204 B(  0-C ,  5-H ) :   0.9352
B(  0-C , 15-O ) :   0.8414 B(  1-C ,  2-C ) :   0.9557 B(  1-C ,  6-H ) :   0.9349
B(  1-C ,  7-H ) :   0.9379 B(  2-C ,  3-C ) :   0.9522 B(  2-C ,  8-H ) :   0.9439
B(  2-C ,  9-H ) :   0.9398 B(  3-C ,  4-O ) :   0.8149 B(  3-C , 10-H ) :   0.9222
B(  3-C , 11-H ) :   0.9402 B( 12-C , 13-H ) :   0.9196 B( 12-C , 14-H ) :   0.9171
B( 12-C , 15-O ) :   0.8426 B( 12-C , 16-C ) :   0.8860 B( 16-C , 17-C ) :   0.8838
B( 16-C , 20-O ) :   0.8867 B( 16-C , 21-H ) :   0.9192 B( 17-C , 18-C ) :   0.9321
B( 17-C , 22-H ) :   0.9371 B( 17-C , 23-O ) :   0.8988 B( 18-C , 19-C ) :   0.9496
B( 18-C , 24-H ) :   0.9413 B( 18-C , 25-H ) :   0.9336 B( 19-C , 20-O ) :   0.8214
B( 19-C , 26-H ) :   0.9105 B( 19-C , 27-H ) :   0.9393 B( 23-O , 28-H ) :   0.7896

FINAL SINGLE POINT ENERGY      -652.853899042740

DIPOLE MOMENT
-------------
                                X             Y             Z
Electronic contribution:     -2.61628      -2.37187       0.29250
Nuclear contribution   :      3.40283       3.00751      -0.63565
                        -----------------------------------------
Total Dipole Moment    :      0.78654       0.63563      -0.34315
                        -----------------------------------------
Magnitude (a.u.)       :      1.06791
Magnitude (Debye)      :      2.71442

Rotational constants in cm-1:     0.048472     0.019104     0.016895
Rotational constants in MHz :  1453.145247   572.718570   506.487346

                             ****ORCA TERMINATED NORMALLY****
TOTAL RUN TIME: 0 days 1 hours 0 minutes 43 seconds 872 msec
