                         Program Version 4.2.0 -  RELEASE  -
|  1> # Test redundant internal optimization
|  2> #
|  3> ! RKS B3LYP  Opt TightSCF SmallPrint
|  4>
|  5> %basis
|  6>         Basis "6-31G"
|  7> end
|  8>
|  9> %geom
| 10> Constraints
| 11> { D 4  0  15  12  165.0   C } # D for Dihedral angle
| 12> { D 0  15  12  16  30.0   C } # D for Dihedral angle
| 13> { D 0  4  3  2   C } # D for Dihedral angle
| 14> { D 4  3  2  1   C } # D for Dihedral angle
| 15> { D 3  2  1  0   C } # D for Dihedral angle
| 16> { D 2  1  0  4   C } # D for Dihedral angle
| 17> { D 1  0  4  3   C } # D for Dihedral angle
| 18> { D 16  20  19  18   C } # D for Dihedral angle
| 19> { D 20  19  18  17   C } # D for Dihedral angle
| 20> { D 19  18  17  16   C } # D for Dihedral angle
| 21> { D 18  17  16  20   C } # D for Dihedral angle
| 22> { D 17  16  20  19   C } # D for Dihedral angle
| 23> { D 15  12  16  20   C } # D for Dihedral angle
| 24> end
| 25> end
| 26>
| 27>
| 28> #%pal
| 29> #nprocs 8
| 30> #end
| 31>
| 32> * xyz 0 1
| 33> C  -21.048   26.222   46.251
| 34> C  -20.361   27.558   45.944
| 35> C  -20.329   28.222   47.341
| 36> C  -20.110   27.022   48.296
| 37> O  -20.473   25.807   47.535
| 38> H  -20.833   25.428   45.533
| 39> H  -19.344   27.382   45.576
| 40> H  -20.898   28.157   45.201
| 41> H  -19.543   28.978   47.434
| 42> H  -21.289   28.710   47.548
| 43> H  -20.733   27.082   49.195
| 44> H  -19.064   26.913   48.597
| 45> C  -23.260   27.170   45.210
| 46> H  -24.289   26.812   45.084
| 47> H  -23.296   28.244   45.435
| 48> O  -22.586   26.394   46.375
| 49> C  -22.512   26.994   43.860
| 50> C  -22.561   25.538   43.382
| 51> C  -23.985   25.453   42.782
| 52> C  -24.193   26.861   42.168
| 53> O  -23.189   27.746   42.798
| 54> H  -21.506   27.406   43.951
| 55> O  -21.488   25.302   42.284
| 56> H  -22.395   24.815   44.187
| 57> H  -24.085   24.655   42.039
| 58> H  -24.717   25.265   43.576
| 59> H  -25.194   27.259   42.362
| 60> H  -24.008   26.878   41.091
| 61> H  -21.635   26.016   41.465
| 62> *
| 63>
| 64>                          ****END OF INPUT****
 Total Charge           Charge          ....    0
 Multiplicity           Mult            ....    1
 Number of Electrons    NEL             ....  102
FINAL SINGLE POINT ENERGY      -652.819843372981
FINAL SINGLE POINT ENERGY      -652.843976895099
FINAL SINGLE POINT ENERGY      -652.849371601777
FINAL SINGLE POINT ENERGY      -652.851303392043
FINAL SINGLE POINT ENERGY      -652.851535178420
FINAL SINGLE POINT ENERGY      -652.851582797692
FINAL SINGLE POINT ENERGY      -652.851587496673
                    ***********************HURRAY********************

CARTESIAN COORDINATES (ANGSTROEM)
---------------------------------
  C    -20.974055   26.219827   46.284992
  C    -20.129753   27.467716   46.018251
  C    -20.270713   28.250285   47.354350
  C    -20.323482   27.114065   48.397038
  O    -20.664915   25.885089   47.643146
  H    -20.733880   25.348800   45.671453
  H    -19.089723   27.158742   45.859226
  H    -20.438624   28.061743   45.158347
  H    -19.436741   28.937459   47.524311
  H    -21.201309   28.825594   47.356133
  H    -21.081936   27.271675   49.167994
  H    -19.355428   26.929615   48.872679
  C    -23.107325   27.145813   45.164536
  H    -24.124200   26.745741   45.196843
  H    -23.166773   28.222341   45.375223
  O    -22.415202   26.473814   46.261964
  C    -22.529015   26.996340   43.748249
  C    -22.530531   25.566695   43.184685
  C    -24.011514   25.401996   42.750748
  C    -24.394308   26.820596   42.258106
  O    -23.383778   27.750791   42.823613
  H    -21.534921   27.436804   43.667145
  O    -21.611582   25.450499   42.064392
  H    -22.212402   24.810913   43.902466
  H    -24.101816   24.641166   41.971228
  H    -24.624460   25.094145   43.603879
  H    -25.388434   27.132664   42.590342
  H    -24.343623   26.916841   41.168695
  H    -21.743558   26.211232   41.459965

 Multiplicity           Mult            ....    1
 Number of Electrons    NEL             ....  102
 Basis Dimension        Dim             ....  149

ORBITAL ENERGIES
----------------

  NO   OCC          E(Eh)            E(eV)
   0   2.0000     -19.152275      -521.1599
   1   2.0000     -19.143535      -520.9221
   2   2.0000     -19.139468      -520.8114
   3   2.0000     -19.137191      -520.7494
   4   2.0000     -10.281894      -279.7846
   5   2.0000     -10.245785      -278.8020
   6   2.0000     -10.240970      -278.6710
   7   2.0000     -10.237972      -278.5894
   8   2.0000     -10.233377      -278.4643
   9   2.0000     -10.224687      -278.2279
  10   2.0000     -10.194217      -277.3987
  11   2.0000     -10.189650      -277.2745
  12   2.0000     -10.188757      -277.2502
  13   2.0000      -1.051752       -28.6196
  14   2.0000      -1.043223       -28.3875
  15   2.0000      -1.012577       -27.5536
  16   2.0000      -0.989143       -26.9159
  17   2.0000      -0.787094       -21.4179
  18   2.0000      -0.785492       -21.3743
  19   2.0000      -0.771398       -20.9908
  20   2.0000      -0.738387       -20.0925
  21   2.0000      -0.680468       -18.5165
  22   2.0000      -0.610464       -16.6116
  23   2.0000      -0.606763       -16.5109
  24   2.0000      -0.601220       -16.3600
  25   2.0000      -0.576241       -15.6803
  26   2.0000      -0.530878       -14.4459
  27   2.0000      -0.511875       -13.9288
  28   2.0000      -0.503128       -13.6908
  29   2.0000      -0.487254       -13.2588
  30   2.0000      -0.478542       -13.0218
  31   2.0000      -0.463271       -12.6063
  32   2.0000      -0.449915       -12.2428
  33   2.0000      -0.441634       -12.0175
  34   2.0000      -0.425016       -11.5653
  35   2.0000      -0.419766       -11.4224
  36   2.0000      -0.405763       -11.0414
  37   2.0000      -0.399514       -10.8713
  38   2.0000      -0.382072       -10.3967
  39   2.0000      -0.375009       -10.2045
  40   2.0000      -0.366868        -9.9830
  41   2.0000      -0.357388        -9.7250
  42   2.0000      -0.353243        -9.6122
  43   2.0000      -0.337902        -9.1948
  44   2.0000      -0.315650        -8.5893
  45   2.0000      -0.312935        -8.5154
  46   2.0000      -0.302179        -8.2227
  47   2.0000      -0.275470        -7.4959
  48   2.0000      -0.260440        -7.0869
  49   2.0000      -0.255508        -6.9527
  50   2.0000      -0.245037        -6.6678
  51   0.0000       0.057613         1.5677
  52   0.0000       0.071275         1.9395
  53   0.0000       0.082048         2.2326
  54   0.0000       0.090425         2.4606
  55   0.0000       0.097533         2.6540

MULLIKEN ATOMIC CHARGES
-----------------------
   0 C :    0.307030
   1 C :   -0.292457
   2 C :   -0.299837
   3 C :    0.000299
   4 O :   -0.499056
   5 H :    0.151929
   6 H :    0.152718
   7 H :    0.148351
   8 H :    0.143730
   9 H :    0.158300
  10 H :    0.154230
  11 H :    0.143294
  12 C :    0.002881
  13 H :    0.149444
  14 H :    0.145685
  15 O :   -0.528806
  16 C :    0.024952
  17 C :    0.086590
  18 C :   -0.308639
  19 C :   -0.031756
  20 O :   -0.526233
  21 H :    0.163354
  22 O :   -0.601544
  23 H :    0.168809
  24 H :    0.167059
  25 H :    0.157203
  26 H :    0.149634
  27 H :    0.150007
  28 H :    0.362830
Sum of atomic charges:   -0.0000000

LOEWDIN ATOMIC CHARGES
----------------------
   0 C :    0.183832
   1 C :   -0.234589
   2 C :   -0.216291
   3 C :   -0.025556
   4 O :   -0.300178
   5 H :    0.100323
   6 H :    0.119219
   7 H :    0.113979
   8 H :    0.115301
   9 H :    0.115830
  10 H :    0.109335
  11 H :    0.103017
  12 C :   -0.041825
  13 H :    0.112523
  14 H :    0.102600
  15 O :   -0.342756
  16 C :   -0.001083
  17 C :    0.035080
  18 C :   -0.242293
  19 C :   -0.038374
  20 O :   -0.327516
  21 H :    0.110726
  22 O :   -0.413612
  23 H :    0.121438
  24 H :    0.128816
  25 H :    0.119569
  26 H :    0.106219
  27 H :    0.104065
  28 H :    0.282198

  Mayer bond orders larger than 0.100000
B(  0-C ,  1-C ) :   0.9287 B(  0-C ,  4-O ) :   0.9336 B(  0-C ,  5-H ) :   0.9165
B(  0-C , 15-O ) :   0.8304 B(  1-C ,  2-C ) :   0.9465 B(  1-C ,  6-H ) :   0.9338
B(  1-C ,  7-H ) :   0.9231 B(  2-C ,  3-C ) :   0.9545 B(  2-C ,  8-H ) :   0.9447
B(  2-C ,  9-H ) :   0.9456 B(  3-C ,  4-O ) :   0.8339 B(  3-C , 10-H ) :   0.9348
B(  3-C , 11-H ) :   0.9395 B( 12-C , 13-H ) :   0.9339 B( 12-C , 14-H ) :   0.9160
B( 12-C , 15-O ) :   0.8429 B( 12-C , 16-C ) :   0.8847 B( 16-C , 17-C ) :   0.9000
B( 16-C , 20-O ) :   0.8321 B( 16-C , 21-H ) :   0.9125 B( 17-C , 18-C ) :   0.9135
B( 17-C , 22-O ) :   0.8900 B( 17-C , 23-H ) :   0.9256 B( 18-C , 19-C ) :   0.9425
B( 18-C , 24-H ) :   0.9364 B( 18-C , 25-H ) :   0.9320 B( 19-C , 20-O ) :   0.8396
B( 19-C , 26-H ) :   0.9352 B( 19-C , 27-H ) :   0.9372 B( 22-O , 28-H ) :   0.7963

FINAL SINGLE POINT ENERGY      -652.851588940174

DIPOLE MOMENT
-------------
                                X             Y             Z
Electronic contribution:     -0.06244      -2.34609      -0.58532
Nuclear contribution   :     -0.13959       3.09534       0.12650
                        -----------------------------------------
Total Dipole Moment    :     -0.20203       0.74924      -0.45882
                        -----------------------------------------
Magnitude (a.u.)       :      0.90150
Magnitude (Debye)      :      2.29142

Rotational constants in cm-1:     0.059643     0.013165     0.012777
Rotational constants in MHz :  1788.062821   394.679594   383.042873

                             ****ORCA TERMINATED NORMALLY****
TOTAL RUN TIME: 0 days 0 hours 31 minutes 20 seconds 259 msec
