                         Program Version 4.2.0 -  RELEASE  -
|  1> # Test redundant internal optimization
|  2> #
|  3> ! RKS B3LYP  Opt TightSCF SmallPrint
|  4>
|  5> %basis
|  6>         Basis "6-31G"
|  7> end
|  8>
|  9> %geom
| 10> Constraints
| 11> { D 4  0  15  12  315.0   C } # D for Dihedral angle
| 12> { D 0  15  12  16  330.0   C } # D for Dihedral angle
| 13> { D 0  4  3  2   C } # D for Dihedral angle
| 14> { D 4  3  2  1   C } # D for Dihedral angle
| 15> { D 3  2  1  0   C } # D for Dihedral angle
| 16> { D 2  1  0  4   C } # D for Dihedral angle
| 17> { D 1  0  4  3   C } # D for Dihedral angle
| 18> { D 16  20  19  18   C } # D for Dihedral angle
| 19> { D 20  19  18  17   C } # D for Dihedral angle
| 20> { D 19  18  17  16   C } # D for Dihedral angle
| 21> { D 18  17  16  20   C } # D for Dihedral angle
| 22> { D 17  16  20  19   C } # D for Dihedral angle
| 23> { D 15  12  16  20   C } # D for Dihedral angle
| 24> end
| 25> end
| 26>
| 27>
| 28> #%pal
| 29> #nprocs 8
| 30> #end
| 31>
| 32> * xyz 0 1
| 33> C  -21.048   26.222   46.251
| 34> C  -20.361   27.558   45.944
| 35> C  -20.329   28.222   47.341
| 36> C  -20.110   27.022   48.296
| 37> O  -20.473   25.807   47.535
| 38> H  -20.833   25.428   45.533
| 39> H  -19.344   27.382   45.576
| 40> H  -20.898   28.157   45.201
| 41> H  -19.543   28.978   47.434
| 42> H  -21.289   28.710   47.548
| 43> H  -20.733   27.082   49.195
| 44> H  -19.064   26.913   48.597
| 45> C  -23.319   25.255   47.135
| 46> H  -23.368   25.505   48.202
| 47> H  -24.345   25.142   46.761
| 48> O  -22.586   26.394   46.375
| 49> C  -22.608   23.881   46.988
| 50> C  -23.418   22.761   47.651
| 51> C  -24.505   22.487   46.585
| 52> C  -23.752   22.709   45.250
| 53> O  -22.539   23.488   45.576
| 54> H  -21.581   23.969   47.347
| 55> O  -22.525   21.508   47.859
| 56> H  -23.838   23.051   48.621
| 57> H  -24.931   21.481   46.662
| 58> H  -25.326   23.206   46.690
| 59> H  -24.350   23.266   44.519
| 60> H  -23.421   21.771   44.796
| 61> H  -22.094   21.200   46.900
| 62> *
| 63>
| 64>                          ****END OF INPUT****
 Total Charge           Charge          ....    0
 Multiplicity           Mult            ....    1
 Number of Electrons    NEL             ....  102
FINAL SINGLE POINT ENERGY      -652.836275981331
FINAL SINGLE POINT ENERGY      -652.859442928654
FINAL SINGLE POINT ENERGY      -652.863674645263
FINAL SINGLE POINT ENERGY      -652.864400597866
FINAL SINGLE POINT ENERGY      -652.864535328431
FINAL SINGLE POINT ENERGY      -652.864551484873
                    ***********************HURRAY********************

CARTESIAN COORDINATES (ANGSTROEM)
---------------------------------
  C    -21.017414   26.200821   46.235849
  C    -20.463201   27.602092   45.973259
  C    -20.412345   28.191886   47.400263
  C    -20.044046   26.972276   48.276179
  O    -20.350354   25.771896   47.452386
  H    -20.788265   25.440005   45.486395
  H    -19.460043   27.516096   45.540699
  H    -21.099193   28.171919   45.292933
  H    -19.684661   29.003674   47.496233
  H    -21.399279   28.577479   47.671706
  H    -20.618571   26.920676   49.205032
  H    -18.976679   26.924649   48.511427
  C    -23.184379   25.263681   47.069575
  H    -23.253067   25.517855   48.136979
  H    -24.187616   25.308847   46.637500
  O    -22.449063   26.322174   46.384331
  C    -22.593986   23.854705   46.956375
  C    -23.459943   22.784387   47.639882
  C    -24.539652   22.512292   46.557707
  C    -23.748763   22.663206   45.232255
  O    -22.513076   23.410217   45.559686
  H    -21.576848   23.849800   47.349487
  O    -22.679957   21.593291   47.932085
  H    -23.877763   23.097313   48.597509
  H    -24.972129   21.516922   46.684434
  H    -25.346713   23.249872   46.629927
  H    -24.306293   23.212031   44.466841
  H    -23.443083   21.698348   44.815522
  H    -22.084618   21.406589   47.175544

 Multiplicity           Mult            ....    1
 Number of Electrons    NEL             ....  102
 Basis Dimension        Dim             ....  149

ORBITAL ENERGIES
----------------

  NO   OCC          E(Eh)            E(eV)
   0   2.0000     -19.141856      -520.8764
   1   2.0000     -19.140827      -520.8484
   2   2.0000     -19.136731      -520.7369
   3   2.0000     -19.136287      -520.7248
   4   2.0000     -10.271378      -279.4984
   5   2.0000     -10.241032      -278.6727
   6   2.0000     -10.229783      -278.3666
   7   2.0000     -10.228441      -278.3300
   8   2.0000     -10.227180      -278.2957
   9   2.0000     -10.225638      -278.2538
  10   2.0000     -10.188452      -277.2419
  11   2.0000     -10.183763      -277.1143
  12   2.0000     -10.181681      -277.0576
  13   2.0000      -1.050625       -28.5890
  14   2.0000      -1.033853       -28.1326
  15   2.0000      -1.004360       -27.3300
  16   2.0000      -0.987807       -26.8796
  17   2.0000      -0.789144       -21.4737
  18   2.0000      -0.779707       -21.2169
  19   2.0000      -0.761825       -20.7303
  20   2.0000      -0.731880       -19.9155
  21   2.0000      -0.671084       -18.2611
  22   2.0000      -0.602762       -16.4020
  23   2.0000      -0.602191       -16.3865
  24   2.0000      -0.596633       -16.2352
  25   2.0000      -0.565453       -15.3867
  26   2.0000      -0.523223       -14.2376
  27   2.0000      -0.509052       -13.8520
  28   2.0000      -0.494034       -13.4433
  29   2.0000      -0.482997       -13.1430
  30   2.0000      -0.472846       -12.8668
  31   2.0000      -0.458136       -12.4665
  32   2.0000      -0.446785       -12.1576
  33   2.0000      -0.440210       -11.9787
  34   2.0000      -0.415305       -11.3010
  35   2.0000      -0.403763       -10.9870
  36   2.0000      -0.401442       -10.9238
  37   2.0000      -0.391700       -10.6587
  38   2.0000      -0.377106       -10.2616
  39   2.0000      -0.366422        -9.9709
  40   2.0000      -0.360599        -9.8124
  41   2.0000      -0.355266        -9.6673
  42   2.0000      -0.346389        -9.4257
  43   2.0000      -0.333497        -9.0749
  44   2.0000      -0.322640        -8.7795
  45   2.0000      -0.310063        -8.4372
  46   2.0000      -0.294843        -8.0231
  47   2.0000      -0.271482        -7.3874
  48   2.0000      -0.263063        -7.1583
  49   2.0000      -0.250159        -6.8072
  50   2.0000      -0.238718        -6.4958
  51   0.0000       0.067257         1.8301
  52   0.0000       0.085760         2.3336
  53   0.0000       0.089236         2.4282
  54   0.0000       0.100936         2.7466
  55   0.0000       0.106284         2.8921

MULLIKEN ATOMIC CHARGES
-----------------------
   0 C :    0.288414
   1 C :   -0.261285
   2 C :   -0.299889
   3 C :   -0.006722
   4 O :   -0.523475
   5 H :    0.174180
   6 H :    0.145150
   7 H :    0.161054
   8 H :    0.141170
   9 H :    0.159394
  10 H :    0.142982
  11 H :    0.145730
  12 C :    0.023587
  13 H :    0.131079
  14 H :    0.143602
  15 O :   -0.537040
  16 C :    0.022435
  17 C :    0.079688
  18 C :   -0.293178
  19 C :   -0.027050
  20 O :   -0.528041
  21 H :    0.206771
  22 O :   -0.602459
  23 H :    0.148909
  24 H :    0.160995
  25 H :    0.143178
  26 H :    0.148635
  27 H :    0.146063
  28 H :    0.366121
Sum of atomic charges:    0.0000000

LOEWDIN ATOMIC CHARGES
----------------------
   0 C :    0.172478
   1 C :   -0.212180
   2 C :   -0.216509
   3 C :   -0.029844
   4 O :   -0.333252
   5 H :    0.110189
   6 H :    0.114069
   7 H :    0.126549
   8 H :    0.113551
   9 H :    0.117742
  10 H :    0.102535
  11 H :    0.104072
  12 C :   -0.036246
  13 H :    0.098408
  14 H :    0.108957
  15 O :   -0.327762
  16 C :   -0.005705
  17 C :    0.039395
  18 C :   -0.240802
  19 C :   -0.037687
  20 O :   -0.333181
  21 H :    0.134875
  22 O :   -0.414026
  23 H :    0.114399
  24 H :    0.126139
  25 H :    0.112110
  26 H :    0.105183
  27 H :    0.102465
  28 H :    0.284076

  Mayer bond orders larger than 0.100000
B(  0-C ,  1-C ) :   0.9453 B(  0-C ,  4-O ) :   0.8760 B(  0-C ,  5-H ) :   0.9118
B(  0-C , 15-O ) :   0.8543 B(  1-C ,  2-C ) :   0.9535 B(  1-C ,  6-H ) :   0.9398
B(  1-C ,  7-H ) :   0.9361 B(  2-C ,  3-C ) :   0.9557 B(  2-C ,  8-H ) :   0.9451
B(  2-C ,  9-H ) :   0.9448 B(  3-C ,  4-O ) :   0.8325 B(  3-C , 10-H ) :   0.9360
B(  3-C , 11-H ) :   0.9406 B( 12-C , 13-H ) :   0.9149 B( 12-C , 14-H ) :   0.9362
B( 12-C , 15-O ) :   0.8416 B( 12-C , 16-C ) :   0.8954 B( 16-C , 17-C ) :   0.8959
B( 16-C , 20-O ) :   0.8328 B( 16-C , 21-H ) :   0.8952 B( 17-C , 18-C ) :   0.9092
B( 17-C , 22-O ) :   0.8942 B( 17-C , 23-H ) :   0.9343 B( 18-C , 19-C ) :   0.9418
B( 18-C , 24-H ) :   0.9381 B( 18-C , 25-H ) :   0.9341 B( 19-C , 20-O ) :   0.8460
B( 19-C , 26-H ) :   0.9341 B( 19-C , 27-H ) :   0.9381 B( 22-O , 28-H ) :   0.7936

FINAL SINGLE POINT ENERGY      -652.864554094429

DIPOLE MOMENT
-------------
                                X             Y             Z
Electronic contribution:      0.90013      -3.30565      -0.55794
Nuclear contribution   :     -1.23853       3.88049       0.47154
                        -----------------------------------------
Total Dipole Moment    :     -0.33839       0.57484      -0.08640
                        -----------------------------------------
Magnitude (a.u.)       :      0.67262
Magnitude (Debye)      :      1.70966

Rotational constants in cm-1:     0.060581     0.013844     0.012795
Rotational constants in MHz :  1816.165658   415.038816   383.581825

                             ****ORCA TERMINATED NORMALLY****
TOTAL RUN TIME: 0 days 1 hours 14 minutes 49 seconds 970 msec
