                         Program Version 4.2.0 -  RELEASE  -
|  1> # Test redundant internal optimization
|  2> #
|  3> ! RKS B3LYP  Opt TightSCF SmallPrint
|  4>
|  5> %basis
|  6>         Basis "6-31G"
|  7> end
|  8>
|  9> %geom
| 10> Constraints
| 11> { D 4  0  15  12  120.0   C } # D for Dihedral angle
| 12> { D 0  15  12  16  135.0   C } # D for Dihedral angle
| 13> { D 0  4  3  2   C } # D for Dihedral angle
| 14> { D 4  3  2  1   C } # D for Dihedral angle
| 15> { D 3  2  1  0   C } # D for Dihedral angle
| 16> { D 2  1  0  4   C } # D for Dihedral angle
| 17> { D 1  0  4  3   C } # D for Dihedral angle
| 18> { D 16  20  19  18   C } # D for Dihedral angle
| 19> { D 20  19  18  17   C } # D for Dihedral angle
| 20> { D 19  18  17  16   C } # D for Dihedral angle
| 21> { D 18  17  16  20   C } # D for Dihedral angle
| 22> { D 17  16  20  19   C } # D for Dihedral angle
| 23> { D 15  12  16  20   C } # D for Dihedral angle
| 24> end
| 25> end
| 26>
| 27>
| 28> #%pal
| 29> #nprocs 8
| 30> #end
| 31>
| 32> * xyz 0 1
| 33> C  -21.048   26.222   46.251
| 34> C  -20.361   27.558   45.944
| 35> C  -20.329   28.222   47.341
| 36> C  -20.110   27.022   48.296
| 37> O  -20.473   25.807   47.535
| 38> H  -20.833   25.428   45.533
| 39> H  -19.344   27.382   45.576
| 40> H  -20.898   28.157   45.201
| 41> H  -19.543   28.978   47.434
| 42> H  -21.289   28.710   47.548
| 43> H  -20.733   27.082   49.195
| 44> H  -19.064   26.913   48.597
| 45> C  -23.119   27.818   46.058
| 46> H  -23.379   28.324   46.996
| 47> H  -22.348   28.412   45.549
| 48> O  -22.586   26.394   46.375
| 49> C  -24.378   27.799   45.147
| 50> C  -25.565   27.133   45.853
| 51> C  -26.060   28.271   46.777
| 52> C  -25.806   29.545   45.932
| 53> O  -24.838   29.166   44.881
| 54> H  -24.117   27.356   44.185
| 55> O  -26.656   26.754   44.815
| 56> H  -25.286   26.228   46.404
| 57> H  -27.111   28.160   47.060
| 58> H  -25.466   28.293   47.698
| 59> H  -25.389   30.365   46.525
| 60> H  -26.710   29.897   45.427
| 61> H  -26.953   27.645   44.250
| 62> *
| 63>
| 64>                          ****END OF INPUT****
 Total Charge           Charge          ....    0
 Multiplicity           Mult            ....    1
 Number of Electrons    NEL             ....  102
FINAL SINGLE POINT ENERGY      -652.820669563883
FINAL SINGLE POINT ENERGY      -652.844711197627
FINAL SINGLE POINT ENERGY      -652.853817491931
FINAL SINGLE POINT ENERGY      -652.855737705996
FINAL SINGLE POINT ENERGY      -652.856056896893
FINAL SINGLE POINT ENERGY      -652.856102329316
                    ***********************HURRAY********************

CARTESIAN COORDINATES (ANGSTROEM)
---------------------------------
  C    -21.219124   26.368662   46.269973
  C    -20.227671   27.484015   45.927860
  C    -20.025532   28.170820   47.305077
  C    -20.105613   26.980887   48.290222
  O    -20.762714   25.879889   47.546759
  H    -21.187994   25.509532   45.598220
  H    -19.296048   27.013693   45.595195
  H    -20.554581   28.165236   45.138918
  H    -19.069676   28.699195   47.369164
  H    -20.822854   28.897020   47.496889
  H    -20.691670   27.203665   49.186216
  H    -19.118700   26.616253   48.589005
  C    -23.149836   28.064313   46.098805
  H    -23.402216   28.545979   47.052914
  H    -22.440271   28.708332   45.571247
  O    -22.624812   26.733883   46.353422
  C    -24.390601   27.905223   45.219255
  C    -25.546137   27.121322   45.856848
  C    -26.196680   28.200152   46.756939
  C    -26.022095   29.502254   45.935464
  O    -24.962088   29.226721   44.932409
  H    -24.100975   27.461710   44.262438
  O    -26.468078   26.638652   44.839430
  H    -25.210115   26.237612   46.396628
  H    -27.243625   27.959303   46.955742
  H    -25.672164   28.260471   47.716392
  H    -25.717512   30.355999   46.548889
  H    -26.925591   29.776311   45.382120
  H    -26.637024   27.353897   44.190558

 Multiplicity           Mult            ....    1
 Number of Electrons    NEL             ....  102
 Basis Dimension        Dim             ....  149

ORBITAL ENERGIES
----------------

  NO   OCC          E(Eh)            E(eV)
   0   2.0000     -19.144977      -520.9613
   1   2.0000     -19.142959      -520.9064
   2   2.0000     -19.140030      -520.8267
   3   2.0000     -19.132695      -520.6271
   4   2.0000     -10.283310      -279.8231
   5   2.0000     -10.235032      -278.5094
   6   2.0000     -10.233015      -278.4545
   7   2.0000     -10.231862      -278.4231
   8   2.0000     -10.231780      -278.4209
   9   2.0000     -10.229209      -278.3509
  10   2.0000     -10.197240      -277.4810
  11   2.0000     -10.196419      -277.4587
  12   2.0000     -10.185848      -277.1710
  13   2.0000      -1.052234       -28.6327
  14   2.0000      -1.034934       -28.1620
  15   2.0000      -1.002625       -27.2828
  16   2.0000      -0.995656       -27.0932
  17   2.0000      -0.793544       -21.5934
  18   2.0000      -0.780740       -21.2450
  19   2.0000      -0.769802       -20.9474
  20   2.0000      -0.734217       -19.9791
  21   2.0000      -0.680764       -18.5245
  22   2.0000      -0.607207       -16.5229
  23   2.0000      -0.602686       -16.3999
  24   2.0000      -0.598768       -16.2933
  25   2.0000      -0.573807       -15.6141
  26   2.0000      -0.524002       -14.2588
  27   2.0000      -0.516351       -14.0506
  28   2.0000      -0.505007       -13.7420
  29   2.0000      -0.491217       -13.3667
  30   2.0000      -0.473728       -12.8908
  31   2.0000      -0.459877       -12.5139
  32   2.0000      -0.451029       -12.2731
  33   2.0000      -0.438257       -11.9256
  34   2.0000      -0.430241       -11.7074
  35   2.0000      -0.412679       -11.2296
  36   2.0000      -0.407364       -11.0849
  37   2.0000      -0.390950       -10.6383
  38   2.0000      -0.385528       -10.4908
  39   2.0000      -0.367344        -9.9959
  40   2.0000      -0.364897        -9.9294
  41   2.0000      -0.359918        -9.7939
  42   2.0000      -0.354745        -9.6531
  43   2.0000      -0.330161        -8.9841
  44   2.0000      -0.316797        -8.6205
  45   2.0000      -0.306293        -8.3346
  46   2.0000      -0.294035        -8.0011
  47   2.0000      -0.274613        -7.4726
  48   2.0000      -0.267166        -7.2700
  49   2.0000      -0.256648        -6.9837
  50   2.0000      -0.241381        -6.5683
  51   0.0000       0.064387         1.7521
  52   0.0000       0.068804         1.8722
  53   0.0000       0.092143         2.5074
  54   0.0000       0.096912         2.6371
  55   0.0000       0.103106         2.8057

MULLIKEN ATOMIC CHARGES
-----------------------
   0 C :    0.318000
   1 C :   -0.306704
   2 C :   -0.308150
   3 C :   -0.003737
   4 O :   -0.494176
   5 H :    0.162318
   6 H :    0.159286
   7 H :    0.151945
   8 H :    0.147304
   9 H :    0.152230
  10 H :    0.148175
  11 H :    0.146127
  12 C :   -0.011321
  13 H :    0.134489
  14 H :    0.146336
  15 O :   -0.535854
  16 C :    0.065719
  17 C :    0.092990
  18 C :   -0.300490
  19 C :   -0.030045
  20 O :   -0.531408
  21 H :    0.157474
  22 O :   -0.603336
  23 H :    0.182646
  24 H :    0.161672
  25 H :    0.147764
  26 H :    0.143902
  27 H :    0.146188
  28 H :    0.360654
Sum of atomic charges:   -0.0000000

LOEWDIN ATOMIC CHARGES
----------------------
   0 C :    0.182450
   1 C :   -0.233054
   2 C :   -0.220555
   3 C :   -0.029638
   4 O :   -0.312600
   5 H :    0.109340
   6 H :    0.124276
   7 H :    0.117086
   8 H :    0.117213
   9 H :    0.111066
  10 H :    0.105595
  11 H :    0.104475
  12 C :   -0.039436
  13 H :    0.094985
  14 H :    0.104697
  15 O :   -0.334318
  16 C :    0.014937
  17 C :    0.039052
  18 C :   -0.241464
  19 C :   -0.038519
  20 O :   -0.334537
  21 H :    0.115124
  22 O :   -0.414691
  23 H :    0.131332
  24 H :    0.126843
  25 H :    0.115019
  26 H :    0.102567
  27 H :    0.102494
  28 H :    0.280259

  Mayer bond orders larger than 0.100000
B(  0-C ,  1-C ) :   0.9343 B(  0-C ,  4-O ) :   0.9187 B(  0-C ,  5-H ) :   0.9310
B(  0-C , 15-O ) :   0.8613 B(  1-C ,  2-C ) :   0.9494 B(  1-C ,  6-H ) :   0.9328
B(  1-C ,  7-H ) :   0.9264 B(  2-C ,  3-C ) :   0.9497 B(  2-C ,  8-H ) :   0.9455
B(  2-C ,  9-H ) :   0.9427 B(  3-C ,  4-O ) :   0.8454 B(  3-C , 10-H ) :   0.9345
B(  3-C , 11-H ) :   0.9392 B( 12-C , 13-H ) :   0.9245 B( 12-C , 14-H ) :   0.9062
B( 12-C , 15-O ) :   0.8308 B( 12-C , 16-C ) :   0.8908 B( 16-C , 17-C ) :   0.9164
B( 16-C , 20-O ) :   0.8405 B( 16-C , 21-H ) :   0.9269 B( 17-C , 18-C ) :   0.9122
B( 17-C , 22-O ) :   0.8892 B( 17-C , 23-H ) :   0.9223 B( 18-C , 19-C ) :   0.9419
B( 18-C , 24-H ) :   0.9379 B( 18-C , 25-H ) :   0.9339 B( 19-C , 20-O ) :   0.8420
B( 19-C , 26-H ) :   0.9361 B( 19-C , 27-H ) :   0.9381 B( 22-O , 28-H ) :   0.7971

FINAL SINGLE POINT ENERGY      -652.856109191283

DIPOLE MOMENT
-------------
                                X             Y             Z
Electronic contribution:     -2.63339      -4.12258      -2.65468
Nuclear contribution   :      3.37738       5.51622       2.94082
                        -----------------------------------------
Total Dipole Moment    :      0.74398       1.39364       0.28615
                        -----------------------------------------
Magnitude (a.u.)       :      1.60550
Magnitude (Debye)      :      4.08085

Rotational constants in cm-1:     0.057792     0.012272     0.011660
Rotational constants in MHz :  1732.556420   367.901725   349.570150

                             ****ORCA TERMINATED NORMALLY****
TOTAL RUN TIME: 0 days 1 hours 8 minutes 28 seconds 552 msec
