                         Program Version 4.2.0 -  RELEASE  -
|  1> # Test redundant internal optimization
|  2> #
|  3> ! RKS B3LYP  Opt TightSCF SmallPrint
|  4>
|  5> %basis
|  6>         Basis "6-31G"
|  7> end
|  8>
|  9> %geom
| 10> Constraints
| 11> { D 4  0  15  12  75.0   C } # D for Dihedral angle
| 12> { D 0  15  12  16  210.0   C } # D for Dihedral angle
| 13> { D 0  4  3  2   C } # D for Dihedral angle
| 14> { D 4  3  2  1   C } # D for Dihedral angle
| 15> { D 3  2  1  0   C } # D for Dihedral angle
| 16> { D 2  1  0  4   C } # D for Dihedral angle
| 17> { D 1  0  4  3   C } # D for Dihedral angle
| 18> { D 16  20  19  18   C } # D for Dihedral angle
| 19> { D 20  19  18  17   C } # D for Dihedral angle
| 20> { D 19  18  17  16   C } # D for Dihedral angle
| 21> { D 18  17  16  20   C } # D for Dihedral angle
| 22> { D 17  16  20  19   C } # D for Dihedral angle
| 23> { D 15  12  16  20   C } # D for Dihedral angle
| 24> end
| 25> end
| 26>
| 27>
| 28> #%pal
| 29> #nprocs 8
| 30> #end
| 31>
| 32> * xyz 0 1
| 33> C  -21.048   26.222   46.251
| 34> C  -20.361   27.558   45.944
| 35> C  -20.329   28.222   47.341
| 36> C  -20.110   27.022   48.296
| 37> O  -20.473   25.807   47.535
| 38> H  -20.833   25.428   45.533
| 39> H  -19.344   27.382   45.576
| 40> H  -20.898   28.157   45.201
| 41> H  -19.543   28.978   47.434
| 42> H  -21.289   28.710   47.548
| 43> H  -20.733   27.082   49.195
| 44> H  -19.064   26.913   48.597
| 45> C  -23.049   27.675   47.122
| 46> H  -22.290   27.957   47.862
| 47> H  -23.168   28.508   46.418
| 48> O  -22.586   26.394   46.375
| 49> C  -24.403   27.483   47.860
| 50> C  -24.886   28.795   48.488
| 51> C  -25.482   29.528   47.262
| 52> C  -26.090   28.376   46.425
| 53> O  -25.460   27.128   46.908
| 54> H  -24.313   26.652   48.563
| 55> O  -25.987   28.508   49.544
| 56> H  -24.082   29.361   48.972
| 57> H  -26.227   30.281   47.539
| 58> H  -24.686   30.034   46.703
| 59> H  -25.891   28.486   45.353
| 60> H  -27.168   28.273   46.577
| 61> H  -26.803   27.941   49.081
| 62> *
| 63>
| 64>                          ****END OF INPUT****
 Total Charge           Charge          ....    0
 Multiplicity           Mult            ....    1
 Number of Electrons    NEL             ....  102
FINAL SINGLE POINT ENERGY      -652.797176400056
FINAL SINGLE POINT ENERGY      -652.831203083385
FINAL SINGLE POINT ENERGY      -652.849131088601
FINAL SINGLE POINT ENERGY      -652.852361401670
FINAL SINGLE POINT ENERGY      -652.852860979148
FINAL SINGLE POINT ENERGY      -652.852941284686
FINAL SINGLE POINT ENERGY      -652.852953133818
FINAL SINGLE POINT ENERGY      -652.852954888091
                    ***********************HURRAY********************

CARTESIAN COORDINATES (ANGSTROEM)
---------------------------------
  C    -21.222273   26.366727   46.432800
  C    -20.252205   27.453102   45.942770
  C    -19.862845   28.165888   47.272001
  C    -19.847450   26.993942   48.287828
  O    -20.616896   25.892476   47.659992
  H    -21.250518   25.498610   45.772735
  H    -19.379788   26.965546   45.496567
  H    -20.699326   28.121234   45.201536
  H    -18.886151   28.655940   47.207146
  H    -20.595030   28.931431   47.539811
  H    -20.305511   27.248136   49.248858
  H    -18.836785   26.615612   48.466490
  C    -23.097905   27.887345   47.193596
  H    -22.444807   28.177262   48.025433
  H    -23.140485   28.714255   46.471256
  O    -22.621711   26.683243   46.535273
  C    -24.474376   27.576405   47.779822
  C    -25.136432   28.772010   48.480019
  C    -25.773111   29.526989   47.282086
  C    -26.205615   28.378199   46.337752
  O    -25.445078   27.177834   46.759041
  H    -24.369196   26.721290   48.453577
  O    -26.143336   28.322684   49.427217
  H    -24.447630   29.387640   49.060903
  H    -26.609238   30.145659   47.617548
  H    -25.030754   30.177305   46.805568
  H    -25.986832   28.587998   45.286118
  H    -27.269416   28.136204   46.430584
  H    -26.645300   27.580037   49.028675

 Multiplicity           Mult            ....    1
 Number of Electrons    NEL             ....  102
 Basis Dimension        Dim             ....  149

ORBITAL ENERGIES
----------------

  NO   OCC          E(Eh)            E(eV)
   0   2.0000     -19.143024      -520.9082
   1   2.0000     -19.140867      -520.8495
   2   2.0000     -19.139779      -520.8199
   3   2.0000     -19.139286      -520.8065
   4   2.0000     -10.277385      -279.6619
   5   2.0000     -10.244260      -278.7605
   6   2.0000     -10.236428      -278.5474
   7   2.0000     -10.234005      -278.4814
   8   2.0000     -10.230650      -278.3901
   9   2.0000     -10.230028      -278.3732
  10   2.0000     -10.195994      -277.4471
  11   2.0000     -10.193160      -277.3700
  12   2.0000     -10.191010      -277.3115
  13   2.0000      -1.052125       -28.6298
  14   2.0000      -1.036147       -28.1950
  15   2.0000      -1.006791       -27.3962
  16   2.0000      -0.995392       -27.0860
  17   2.0000      -0.790755       -21.5175
  18   2.0000      -0.787091       -21.4178
  19   2.0000      -0.771861       -21.0034
  20   2.0000      -0.733810       -19.9680
  21   2.0000      -0.680174       -18.5085
  22   2.0000      -0.607454       -16.5297
  23   2.0000      -0.605147       -16.4669
  24   2.0000      -0.599509       -16.3135
  25   2.0000      -0.577410       -15.7121
  26   2.0000      -0.524361       -14.2686
  27   2.0000      -0.513720       -13.9790
  28   2.0000      -0.502112       -13.6632
  29   2.0000      -0.490307       -13.3419
  30   2.0000      -0.478700       -13.0261
  31   2.0000      -0.462815       -12.5938
  32   2.0000      -0.450571       -12.2607
  33   2.0000      -0.438257       -11.9256
  34   2.0000      -0.429403       -11.6846
  35   2.0000      -0.418662       -11.3924
  36   2.0000      -0.404773       -11.0144
  37   2.0000      -0.394013       -10.7216
  38   2.0000      -0.384243       -10.4558
  39   2.0000      -0.373367       -10.1598
  40   2.0000      -0.364023        -9.9056
  41   2.0000      -0.360817        -9.8183
  42   2.0000      -0.350941        -9.5496
  43   2.0000      -0.331094        -9.0095
  44   2.0000      -0.315529        -8.5860
  45   2.0000      -0.310366        -8.4455
  46   2.0000      -0.297941        -8.1074
  47   2.0000      -0.271884        -7.3983
  48   2.0000      -0.269021        -7.3204
  49   2.0000      -0.253654        -6.9023
  50   2.0000      -0.242187        -6.5903
  51   0.0000       0.061386         1.6704
  52   0.0000       0.073863         2.0099
  53   0.0000       0.080425         2.1885
  54   0.0000       0.097263         2.6467
  55   0.0000       0.102254         2.7825

MULLIKEN ATOMIC CHARGES
-----------------------
   0 C :    0.297371
   1 C :   -0.280577
   2 C :   -0.316056
   3 C :   -0.010298
   4 O :   -0.502043
   5 H :    0.169697
   6 H :    0.157657
   7 H :    0.148783
   8 H :    0.145996
   9 H :    0.144040
  10 H :    0.143592
  11 H :    0.148246
  12 C :   -0.006675
  13 H :    0.131514
  14 H :    0.128132
  15 O :   -0.502275
  16 C :    0.068498
  17 C :    0.075723
  18 C :   -0.295317
  19 C :   -0.030890
  20 O :   -0.505825
  21 H :    0.177007
  22 O :   -0.601293
  23 H :    0.147409
  24 H :    0.164141
  25 H :    0.139800
  26 H :    0.148911
  27 H :    0.147405
  28 H :    0.367326
Sum of atomic charges:   -0.0000000

LOEWDIN ATOMIC CHARGES
----------------------
   0 C :    0.173089
   1 C :   -0.229571
   2 C :   -0.224994
   3 C :   -0.034772
   4 O :   -0.321628
   5 H :    0.115075
   6 H :    0.123072
   7 H :    0.118085
   8 H :    0.115892
   9 H :    0.106602
  10 H :    0.101305
  11 H :    0.105283
  12 C :   -0.044113
  13 H :    0.098506
  14 H :    0.094069
  15 O :   -0.304713
  16 C :    0.017425
  17 C :    0.034152
  18 C :   -0.241590
  19 C :   -0.038828
  20 O :   -0.317134
  21 H :    0.125080
  22 O :   -0.413794
  23 H :    0.112829
  24 H :    0.127126
  25 H :    0.110380
  26 H :    0.105397
  27 H :    0.102907
  28 H :    0.284861

  Mayer bond orders larger than 0.100000
B(  0-C ,  1-C ) :   0.9162 B(  0-C ,  4-O ) :   0.8962 B(  0-C ,  5-H ) :   0.9354
B(  0-C , 15-O ) :   0.9131 B(  1-C ,  2-C ) :   0.9540 B(  1-C ,  6-H ) :   0.9356
B(  1-C ,  7-H ) :   0.9373 B(  2-C ,  3-C ) :   0.9455 B(  2-C ,  8-H ) :   0.9452
B(  2-C ,  9-H ) :   0.9416 B(  3-C ,  4-O ) :   0.8498 B(  3-C , 10-H ) :   0.9333
B(  3-C , 11-H ) :   0.9384 B( 12-C , 13-H ) :   0.9021 B( 12-C , 14-H ) :   0.9211
B( 12-C , 15-O ) :   0.8439 B( 12-C , 16-C ) :   0.8956 B( 16-C , 17-C ) :   0.8979
B( 16-C , 20-O ) :   0.8688 B( 16-C , 21-H ) :   0.9218 B( 17-C , 18-C ) :   0.9099
B( 17-C , 22-O ) :   0.8958 B( 17-C , 23-H ) :   0.9334 B( 18-C , 19-C ) :   0.9399
B( 18-C , 24-H ) :   0.9368 B( 18-C , 25-H ) :   0.9352 B( 19-C , 20-O ) :   0.8525
B( 19-C , 26-H ) :   0.9339 B( 19-C , 27-H ) :   0.9374 B( 22-O , 28-H ) :   0.7924

FINAL SINGLE POINT ENERGY      -652.852954039228

DIPOLE MOMENT
-------------
                                X             Y             Z
Electronic contribution:     -3.54680      -5.70531       0.93710
Nuclear contribution   :      4.29839       7.24076      -1.42044
                        -----------------------------------------
Total Dipole Moment    :      0.75159       1.53545      -0.48334
                        -----------------------------------------
Magnitude (a.u.)       :      1.77654
Magnitude (Debye)      :      4.51561

Rotational constants in cm-1:     0.055714     0.012557     0.012008
Rotational constants in MHz :  1670.268134   376.452830   359.984892

                             ****ORCA TERMINATED NORMALLY****
TOTAL RUN TIME: 0 days 2 hours 7 minutes 25 seconds 222 msec
