                         Program Version 4.2.0 -  RELEASE  -
|  1> # Test redundant internal optimization
|  2> #
|  3> ! RKS B3LYP  Opt TightSCF SmallPrint
|  4>
|  5> %basis
|  6>         Basis "6-31G"
|  7> end
|  8>
|  9> %geom
| 10> Constraints
| 11> { D 4  0  15  12  255.0   C } # D for Dihedral angle
| 12> { D 0  15  12  16  30.0   C } # D for Dihedral angle
| 13> { D 0  4  3  2   C } # D for Dihedral angle
| 14> { D 4  3  2  1   C } # D for Dihedral angle
| 15> { D 3  2  1  0   C } # D for Dihedral angle
| 16> { D 2  1  0  4   C } # D for Dihedral angle
| 17> { D 1  0  4  3   C } # D for Dihedral angle
| 18> { D 16  20  19  18   C } # D for Dihedral angle
| 19> { D 20  19  18  17   C } # D for Dihedral angle
| 20> { D 19  18  17  16   C } # D for Dihedral angle
| 21> { D 18  17  16  20   C } # D for Dihedral angle
| 22> { D 17  16  20  19   C } # D for Dihedral angle
| 23> { D 15  12  16  20   C } # D for Dihedral angle
| 24> end
| 25> end
| 26>
| 27>
| 28> #%pal
| 29> #nprocs 8
| 30> #end
| 31>
| 32> * xyz 0 1
| 33> C  -21.048   26.222   46.251
| 34> C  -20.361   27.558   45.944
| 35> C  -20.329   28.222   47.341
| 36> C  -20.110   27.022   48.296
| 37> O  -20.473   25.807   47.535
| 38> H  -20.833   25.428   45.533
| 39> H  -19.344   27.382   45.576
| 40> H  -20.898   28.157   45.201
| 41> H  -19.543   28.978   47.434
| 42> H  -21.289   28.710   47.548
| 43> H  -20.733   27.082   49.195
| 44> H  -19.064   26.913   48.597
| 45> C  -23.431   25.260   45.734
| 46> H  -24.377   25.160   46.280
| 47> H  -23.663   25.498   44.687
| 48> O  -22.586   26.394   46.375
| 49> C  -22.707   23.885   45.756
| 50> C  -23.518   22.817   45.014
| 51> C  -23.187   23.141   43.538
| 52> C  -21.712   23.609   43.603
| 53> O  -21.444   23.959   45.014
| 54> H  -22.458   23.628   46.787
| 55> O  -23.005   21.400   45.392
| 56> H  -24.591   22.865   45.229
| 57> H  -23.323   22.281   42.873
| 58> H  -23.833   23.949   43.176
| 59> H  -21.522   24.486   42.974
| 60> H  -21.009   22.817   43.328
| 61> H  -21.932   21.329   45.185
| 62> *
| 63>
| 64>                          ****END OF INPUT****
 Total Charge           Charge          ....    0
 Multiplicity           Mult            ....    1
 Number of Electrons    NEL             ....  102
FINAL SINGLE POINT ENERGY      -652.823324608187
FINAL SINGLE POINT ENERGY      -652.844699899071
FINAL SINGLE POINT ENERGY      -652.856497620724
FINAL SINGLE POINT ENERGY      -652.858620894197
FINAL SINGLE POINT ENERGY      -652.859086814554
FINAL SINGLE POINT ENERGY      -652.859128247424
FINAL SINGLE POINT ENERGY      -652.859134496375
                    ***********************HURRAY********************

CARTESIAN COORDINATES (ANGSTROEM)
---------------------------------
  C    -20.830084   26.262401   46.221642
  C    -20.363639   27.705975   46.026337
  C    -20.510712   28.285206   47.454640
  C    -20.140764   27.082686   48.352523
  O    -20.263757   25.879951   47.496402
  H    -20.493563   25.529837   45.493219
  H    -19.313697   27.707412   45.710206
  H    -20.961004   28.236276   45.281652
  H    -19.864038   29.150348   47.628963
  H    -21.548939   28.585862   47.622072
  H    -20.804959   26.974222   49.214435
  H    -19.103438   27.117749   48.700422
  C    -23.137948   25.270788   45.733627
  H    -24.027593   25.256004   46.372654
  H    -23.448783   25.606944   44.732740
  O    -22.281935   26.295362   46.307493
  C    -22.591267   23.841338   45.642326
  C    -23.570502   22.849663   44.992431
  C    -23.291184   23.076056   43.481623
  C    -21.768488   23.363075   43.444258
  O    -21.373162   23.732614   44.827908
  H    -22.303521   23.507520   46.644617
  O    -23.279352   21.486032   45.397531
  H    -24.612919   23.015672   45.266461
  H    -23.572737   22.193470   42.901652
  H    -23.867690   23.930899   43.111961
  H    -21.509026   24.184087   42.768532
  H    -21.179769   22.483548   43.167624
  H    -22.308530   21.348004   45.400046

 Multiplicity           Mult            ....    1
 Number of Electrons    NEL             ....  102
 Basis Dimension        Dim             ....  149

ORBITAL ENERGIES
----------------

  NO   OCC          E(Eh)            E(eV)
   0   2.0000     -19.153412      -521.1908
   1   2.0000     -19.143812      -520.9296
   2   2.0000     -19.131677      -520.5994
   3   2.0000     -19.124737      -520.4105
   4   2.0000     -10.260370      -279.1989
   5   2.0000     -10.249596      -278.9057
   6   2.0000     -10.239793      -278.6389
   7   2.0000     -10.239037      -278.6184
   8   2.0000     -10.234195      -278.4866
   9   2.0000     -10.213321      -277.9186
  10   2.0000     -10.196291      -277.4552
  11   2.0000     -10.174531      -276.8631
  12   2.0000     -10.173724      -276.8411
  13   2.0000      -1.046648       -28.4807
  14   2.0000      -1.035396       -28.1746
  15   2.0000      -1.012855       -27.5612
  16   2.0000      -0.981027       -26.6951
  17   2.0000      -0.791624       -21.5412
  18   2.0000      -0.777464       -21.1559
  19   2.0000      -0.766272       -20.8513
  20   2.0000      -0.725936       -19.7537
  21   2.0000      -0.673678       -18.3317
  22   2.0000      -0.611124       -16.6295
  23   2.0000      -0.603196       -16.4138
  24   2.0000      -0.586454       -15.9582
  25   2.0000      -0.568629       -15.4732
  26   2.0000      -0.530487       -14.4353
  27   2.0000      -0.508031       -13.8242
  28   2.0000      -0.494709       -13.4617
  29   2.0000      -0.481424       -13.1002
  30   2.0000      -0.474412       -12.9094
  31   2.0000      -0.455594       -12.3973
  32   2.0000      -0.446278       -12.1438
  33   2.0000      -0.437737       -11.9114
  34   2.0000      -0.422639       -11.5006
  35   2.0000      -0.409266       -11.1367
  36   2.0000      -0.400366       -10.8945
  37   2.0000      -0.390765       -10.6333
  38   2.0000      -0.380403       -10.3513
  39   2.0000      -0.367141        -9.9904
  40   2.0000      -0.364695        -9.9238
  41   2.0000      -0.345569        -9.4034
  42   2.0000      -0.339424        -9.2362
  43   2.0000      -0.333750        -9.0818
  44   2.0000      -0.323000        -8.7893
  45   2.0000      -0.307999        -8.3811
  46   2.0000      -0.293103        -7.9757
  47   2.0000      -0.277788        -7.5590
  48   2.0000      -0.255914        -6.9638
  49   2.0000      -0.253858        -6.9078
  50   2.0000      -0.231126        -6.2893
  51   0.0000       0.059268         1.6128
  52   0.0000       0.081817         2.2264
  53   0.0000       0.088251         2.4014
  54   0.0000       0.097379         2.6498
  55   0.0000       0.106324         2.8932

MULLIKEN ATOMIC CHARGES
-----------------------
   0 C :    0.258598
   1 C :   -0.249163
   2 C :   -0.295878
   3 C :    0.000439
   4 O :   -0.508885
   5 H :    0.196428
   6 H :    0.139043
   7 H :    0.142067
   8 H :    0.133436
   9 H :    0.159612
  10 H :    0.143352
  11 H :    0.136375
  12 C :    0.020595
  13 H :    0.151551
  14 H :    0.122254
  15 O :   -0.542146
  16 C :    0.039132
  17 C :    0.081160
  18 C :   -0.296636
  19 C :   -0.034246
  20 O :   -0.520866
  21 H :    0.183588
  22 O :   -0.600370
  23 H :    0.156058
  24 H :    0.166155
  25 H :    0.148119
  26 H :    0.148763
  27 H :    0.153718
  28 H :    0.367748
Sum of atomic charges:    0.0000000

LOEWDIN ATOMIC CHARGES
----------------------
   0 C :    0.164004
   1 C :   -0.216911
   2 C :   -0.216517
   3 C :   -0.028695
   4 O :   -0.323587
   5 H :    0.123665
   6 H :    0.110168
   7 H :    0.116537
   8 H :    0.109738
   9 H :    0.117853
  10 H :    0.103168
  11 H :    0.099221
  12 C :   -0.034789
  13 H :    0.115665
  14 H :    0.089578
  15 O :   -0.336538
  16 C :    0.002310
  17 C :    0.040069
  18 C :   -0.241015
  19 C :   -0.039608
  20 O :   -0.326360
  21 H :    0.125812
  22 O :   -0.411497
  23 H :    0.117720
  24 H :    0.128429
  25 H :    0.114607
  26 H :    0.105241
  27 H :    0.106300
  28 H :    0.285431

  Mayer bond orders larger than 0.100000
B(  0-C ,  1-C ) :   0.9422 B(  0-C ,  4-O ) :   0.9111 B(  0-C ,  5-H ) :   0.8893
B(  0-C , 15-O ) :   0.8223 B(  1-C ,  2-C ) :   0.9565 B(  1-C ,  6-H ) :   0.9409
B(  1-C ,  7-H ) :   0.9397 B(  2-C ,  3-C ) :   0.9552 B(  2-C ,  8-H ) :   0.9465
B(  2-C ,  9-H ) :   0.9441 B(  3-C ,  4-O ) :   0.8447 B(  3-C , 10-H ) :   0.9358
B(  3-C , 11-H ) :   0.9404 B( 12-C , 13-H ) :   0.9244 B( 12-C , 14-H ) :   0.9225
B( 12-C , 15-O ) :   0.8643 B( 12-C , 16-C ) :   0.9007 B( 16-C , 17-C ) :   0.8936
B( 16-C , 20-O ) :   0.8309 B( 16-C , 21-H ) :   0.9178 B( 17-C , 18-C ) :   0.9095
B( 17-C , 22-O ) :   0.8948 B( 17-C , 23-H ) :   0.9337 B( 18-C , 19-C ) :   0.9419
B( 18-C , 24-H ) :   0.9368 B( 18-C , 25-H ) :   0.9322 B( 19-C , 20-O ) :   0.8385
B( 19-C , 26-H ) :   0.9346 B( 19-C , 27-H ) :   0.9374 B( 22-O , 28-H ) :   0.7932

FINAL SINGLE POINT ENERGY      -652.859135190004

DIPOLE MOMENT
-------------
                                X             Y             Z
Electronic contribution:     -0.08311      -4.30572       1.61484
Nuclear contribution   :     -0.10093       4.80719      -2.61822
                        -----------------------------------------
Total Dipole Moment    :     -0.18405       0.50147      -1.00337
                        -----------------------------------------
Magnitude (a.u.)       :      1.13671
Magnitude (Debye)      :      2.88928

Rotational constants in cm-1:     0.064412     0.012644     0.012283
Rotational constants in MHz :  1931.027305   379.046414   368.244771

                             ****ORCA TERMINATED NORMALLY****
TOTAL RUN TIME: 0 days 0 hours 23 minutes 29 seconds 740 msec
