                         Program Version 4.2.0 -  RELEASE  -
|  1> # Test redundant internal optimization
|  2> #
|  3> ! RKS B3LYP  Opt TightSCF SmallPrint
|  4>
|  5> %basis
|  6>         Basis "6-31G"
|  7> end
|  8>
|  9> %geom
| 10> Constraints
| 11> { D 4  0  15  12  120.0   C } # D for Dihedral angle
| 12> { D 0  15  12  16  75.0   C } # D for Dihedral angle
| 13> { D 0  4  3  2   C } # D for Dihedral angle
| 14> { D 4  3  2  1   C } # D for Dihedral angle
| 15> { D 3  2  1  0   C } # D for Dihedral angle
| 16> { D 2  1  0  4   C } # D for Dihedral angle
| 17> { D 1  0  4  3   C } # D for Dihedral angle
| 18> { D 16  20  19  18   C } # D for Dihedral angle
| 19> { D 20  19  18  17   C } # D for Dihedral angle
| 20> { D 19  18  17  16   C } # D for Dihedral angle
| 21> { D 18  17  16  20   C } # D for Dihedral angle
| 22> { D 17  16  20  19   C } # D for Dihedral angle
| 23> { D 15  12  16  20   C } # D for Dihedral angle
| 24> end
| 25> end
| 26>
| 27>
| 28> #%pal
| 29> #nprocs 8
| 30> #end
| 31>
| 32> * xyz 0 1
| 33> C  -21.048   26.222   46.251
| 34> C  -20.361   27.558   45.944
| 35> C  -20.329   28.222   47.341
| 36> C  -20.110   27.022   48.296
| 37> O  -20.473   25.807   47.535
| 38> H  -20.833   25.428   45.533
| 39> H  -19.344   27.382   45.576
| 40> H  -20.898   28.157   45.201
| 41> H  -19.543   28.978   47.434
| 42> H  -21.289   28.710   47.548
| 43> H  -20.733   27.082   49.195
| 44> H  -19.064   26.913   48.597
| 45> C  -23.119   27.818   46.058
| 46> H  -24.145   27.912   46.434
| 47> H  -22.501   28.578   46.553
| 48> O  -22.586   26.394   46.375
| 49> C  -23.125   28.132   44.536
| 50> C  -24.101   27.219   43.784
| 51> C  -25.459   27.896   44.086
| 52> C  -25.102   29.404   44.116
| 53> O  -23.637   29.485   44.294
| 54> H  -22.101   28.105   44.161
| 55> H  -23.887   27.245   42.709
| 56> O  -24.045   25.742   44.259
| 57> H  -26.225   27.663   43.339
| 58> H  -25.834   27.568   45.063
| 59> H  -25.594   29.935   44.937
| 60> H  -25.341   29.908   43.176
| 61> H  -24.256   25.693   45.333
| 62> *
| 63>
| 64>                          ****END OF INPUT****
 Total Charge           Charge          ....    0
 Multiplicity           Mult            ....    1
 Number of Electrons    NEL             ....  102
FINAL SINGLE POINT ENERGY      -652.811002715469
FINAL SINGLE POINT ENERGY      -652.839683851055
FINAL SINGLE POINT ENERGY      -652.851743253773
FINAL SINGLE POINT ENERGY      -652.854520420167
FINAL SINGLE POINT ENERGY      -652.855622236958
FINAL SINGLE POINT ENERGY      -652.855991406233
FINAL SINGLE POINT ENERGY      -652.856110062918
FINAL SINGLE POINT ENERGY      -652.856124796287
                    ***********************HURRAY********************

CARTESIAN COORDINATES (ANGSTROEM)
---------------------------------
  C    -21.172272   26.310884   46.335627
  C    -20.200883   27.438999   45.972741
  C    -20.043867   28.186899   47.329489
  C    -20.116348   27.028927   48.352044
  O    -20.730112   25.888016   47.633755
  H    -21.112654   25.433982   45.690407
  H    -19.250506   26.979476   45.680891
  H    -20.524808   28.086761   45.157752
  H    -19.098091   28.733278   47.390388
  H    -20.854004   28.905975   47.481194
  H    -20.726890   27.263870   49.227942
  H    -19.127824   26.697024   48.681049
  C    -23.204522   27.935936   46.077359
  H    -24.213762   27.861916   46.489509
  H    -22.691471   28.756335   46.589003
  O    -22.602876   26.633670   46.385449
  C    -23.242922   28.226730   44.569544
  C    -24.123188   27.253721   43.764933
  C    -25.547892   27.813534   44.046249
  C    -25.320284   29.336928   44.123049
  O    -23.854599   29.535763   44.347444
  H    -22.233343   28.288880   44.159681
  H    -23.893557   27.356719   42.699704
  O    -23.953354   25.858241   44.083988
  H    -26.254984   27.530565   43.261896
  H    -25.917797   27.401660   44.991454
  H    -25.867327   29.818555   44.939332
  H    -25.561683   29.847543   43.186404
  H    -23.641178   25.767215   45.015724

 Multiplicity           Mult            ....    1
 Number of Electrons    NEL             ....  102
 Basis Dimension        Dim             ....  149

ORBITAL ENERGIES
----------------

  NO   OCC          E(Eh)            E(eV)
   0   2.0000     -19.158832      -521.3383
   1   2.0000     -19.147437      -521.0282
   2   2.0000     -19.145272      -520.9693
   3   2.0000     -19.120735      -520.3016
   4   2.0000     -10.291740      -280.0525
   5   2.0000     -10.242030      -278.6998
   6   2.0000     -10.237380      -278.5733
   7   2.0000     -10.235108      -278.5115
   8   2.0000     -10.233654      -278.4719
   9   2.0000     -10.230824      -278.3949
  10   2.0000     -10.201944      -277.6090
  11   2.0000     -10.200112      -277.5592
  12   2.0000     -10.183539      -277.1082
  13   2.0000      -1.060516       -28.8581
  14   2.0000      -1.029420       -28.0119
  15   2.0000      -1.006853       -27.3979
  16   2.0000      -0.996137       -27.1063
  17   2.0000      -0.797208       -21.6931
  18   2.0000      -0.778265       -21.1777
  19   2.0000      -0.771625       -20.9970
  20   2.0000      -0.742256       -20.1978
  21   2.0000      -0.686433       -18.6788
  22   2.0000      -0.612783       -16.6747
  23   2.0000      -0.606326       -16.4990
  24   2.0000      -0.600392       -16.3375
  25   2.0000      -0.575882       -15.6705
  26   2.0000      -0.539687       -14.6856
  27   2.0000      -0.512436       -13.9441
  28   2.0000      -0.506652       -13.7867
  29   2.0000      -0.491012       -13.3611
  30   2.0000      -0.475439       -12.9373
  31   2.0000      -0.462945       -12.5974
  32   2.0000      -0.444551       -12.0968
  33   2.0000      -0.442023       -12.0281
  34   2.0000      -0.427916       -11.6442
  35   2.0000      -0.420714       -11.4482
  36   2.0000      -0.411540       -11.1986
  37   2.0000      -0.397289       -10.8108
  38   2.0000      -0.391695       -10.6586
  39   2.0000      -0.378601       -10.3023
  40   2.0000      -0.364538        -9.9196
  41   2.0000      -0.361021        -9.8239
  42   2.0000      -0.352428        -9.5901
  43   2.0000      -0.339216        -9.2305
  44   2.0000      -0.324333        -8.8255
  45   2.0000      -0.310598        -8.4518
  46   2.0000      -0.295868        -8.0510
  47   2.0000      -0.281525        -7.6607
  48   2.0000      -0.265477        -7.2240
  49   2.0000      -0.253622        -6.9014
  50   2.0000      -0.241366        -6.5679
  51   0.0000       0.055048         1.4979
  52   0.0000       0.067227         1.8293
  53   0.0000       0.085735         2.3330
  54   0.0000       0.091632         2.4934
  55   0.0000       0.102799         2.7973

MULLIKEN ATOMIC CHARGES
-----------------------
   0 C :    0.320078
   1 C :   -0.306951
   2 C :   -0.312056
   3 C :   -0.004601
   4 O :   -0.492006
   5 H :    0.169045
   6 H :    0.163432
   7 H :    0.154817
   8 H :    0.150615
   9 H :    0.157471
  10 H :    0.152692
  11 H :    0.149289
  12 C :   -0.040729
  13 H :    0.167981
  14 H :    0.154094
  15 O :   -0.555332
  16 C :    0.047225
  17 C :    0.113702
  18 C :   -0.307360
  19 C :   -0.020859
  20 O :   -0.521567
  21 H :    0.156898
  22 H :    0.150670
  23 O :   -0.636200
  24 H :    0.156190
  25 H :    0.145767
  26 H :    0.144730
  27 H :    0.150732
  28 H :    0.392236
Sum of atomic charges:   -0.0000000

LOEWDIN ATOMIC CHARGES
----------------------
   0 C :    0.182594
   1 C :   -0.231131
   2 C :   -0.219882
   3 C :   -0.029093
   4 O :   -0.305788
   5 H :    0.112747
   6 H :    0.126719
   7 H :    0.118302
   8 H :    0.118970
   9 H :    0.111866
  10 H :    0.108017
  11 H :    0.106360
  12 C :   -0.049420
  13 H :    0.119127
  14 H :    0.106901
  15 O :   -0.339803
  16 C :    0.002816
  17 C :    0.040393
  18 C :   -0.239307
  19 C :   -0.032043
  20 O :   -0.325896
  21 H :    0.107960
  22 H :    0.108365
  23 O :   -0.430942
  24 H :    0.123219
  25 H :    0.111465
  26 H :    0.103127
  27 H :    0.106992
  28 H :    0.287364

  Mayer bond orders larger than 0.100000
B(  0-C ,  1-C ) :   0.9352 B(  0-C ,  4-O ) :   0.9321 B(  0-C ,  5-H ) :   0.9285
B(  0-C , 15-O ) :   0.8192 B(  1-C ,  2-C ) :   0.9497 B(  1-C ,  6-H ) :   0.9327
B(  1-C ,  7-H ) :   0.9201 B(  2-C ,  3-C ) :   0.9482 B(  2-C ,  8-H ) :   0.9447
B(  2-C ,  9-H ) :   0.9375 B(  3-C ,  4-O ) :   0.8383 B(  3-C , 10-H ) :   0.9345
B(  3-C , 11-H ) :   0.9389 B( 12-C , 13-H ) :   0.9350 B( 12-C , 14-H ) :   0.9131
B( 12-C , 15-O ) :   0.8042 B( 12-C , 16-C ) :   0.8793 B( 16-C , 17-C ) :   0.9054
B( 16-C , 20-O ) :   0.8528 B( 16-C , 21-H ) :   0.9193 B( 17-C , 18-C ) :   0.9002
B( 17-C , 22-H ) :   0.9335 B( 17-C , 23-O ) :   0.9362 B( 18-C , 19-C ) :   0.9387
B( 18-C , 24-H ) :   0.9434 B( 18-C , 25-H ) :   0.9432 B( 19-C , 20-O ) :   0.8295
B( 19-C , 26-H ) :   0.9339 B( 19-C , 27-H ) :   0.9385 B( 23-O , 28-H ) :   0.7250

FINAL SINGLE POINT ENERGY      -652.856127513728

DIPOLE MOMENT
-------------
                                X             Y             Z
Electronic contribution:     -0.59639      -3.59757      -0.41167
Nuclear contribution   :      1.06705       4.74008       0.66518
                        -----------------------------------------
Total Dipole Moment    :      0.47065       1.14252       0.25351
                        -----------------------------------------
Magnitude (a.u.)       :      1.26140
Magnitude (Debye)      :      3.20622

Rotational constants in cm-1:     0.056955     0.014389     0.012859
Rotational constants in MHz :  1707.481793   431.368206   385.502671

                             ****ORCA TERMINATED NORMALLY****
TOTAL RUN TIME: 0 days 0 hours 53 minutes 18 seconds 238 msec
