                         Program Version 4.2.0 -  RELEASE  -
|  1> # Test redundant internal optimization
|  2> #
|  3> ! RKS B3LYP  Opt TightSCF SmallPrint
|  4>
|  5> %basis
|  6>         Basis "6-31G"
|  7> end
|  8>
|  9> %geom
| 10> Constraints
| 11> { D 4  0  15  12  60.0   C } # D for Dihedral angle
| 12> { D 0  15  12  16  150.0   C } # D for Dihedral angle
| 13> { D 0  4  3  2   C } # D for Dihedral angle
| 14> { D 4  3  2  1   C } # D for Dihedral angle
| 15> { D 3  2  1  0   C } # D for Dihedral angle
| 16> { D 2  1  0  4   C } # D for Dihedral angle
| 17> { D 1  0  4  3   C } # D for Dihedral angle
| 18> { D 16  20  19  18   C } # D for Dihedral angle
| 19> { D 20  19  18  17   C } # D for Dihedral angle
| 20> { D 19  18  17  16   C } # D for Dihedral angle
| 21> { D 18  17  16  20   C } # D for Dihedral angle
| 22> { D 17  16  20  19   C } # D for Dihedral angle
| 23> { D 15  12  16  20   C } # D for Dihedral angle
| 24> end
| 25> end
| 26>
| 27>
| 28> #%pal
| 29> #nprocs 8
| 30> #end
| 31>
| 32> * xyz 0 1
| 33> C  -21.048   26.222   46.251
| 34> C  -20.361   27.558   45.944
| 35> C  -20.329   28.222   47.341
| 36> C  -20.110   27.022   48.296
| 37> O  -20.473   25.807   47.535
| 38> H  -20.833   25.428   45.533
| 39> H  -19.344   27.382   45.576
| 40> H  -20.898   28.157   45.201
| 41> H  -19.543   28.978   47.434
| 42> H  -21.289   28.710   47.548
| 43> H  -20.733   27.082   49.195
| 44> H  -19.064   26.913   48.597
| 45> C  -23.051   27.452   47.413
| 46> H  -23.173   26.969   48.391
| 47> H  -22.300   28.246   47.514
| 48> O  -22.586   26.394   46.375
| 49> C  -24.399   28.121   47.027
| 50> C  -24.331   28.741   45.626
| 51> C  -24.513   27.497   44.724
| 52> C  -25.497   26.616   45.533
| 53> O  -25.460   27.114   46.926
| 54> H  -24.692   28.817   47.815
| 55> O  -25.505   29.738   45.428
| 56> H  -23.392   29.271   45.434
| 57> H  -24.897   27.746   43.729
| 58> H  -23.553   26.983   44.593
| 59> H  -25.219   25.557   45.523
| 60> H  -26.530   26.714   45.184
| 61> H  -26.457   29.228   45.615
| 62> *
| 63>
| 64>                          ****END OF INPUT****
 Total Charge           Charge          ....    0
 Multiplicity           Mult            ....    1
 Number of Electrons    NEL             ....  102
FINAL SINGLE POINT ENERGY      -652.794918402263
FINAL SINGLE POINT ENERGY      -652.831670997993
FINAL SINGLE POINT ENERGY      -652.850774169654
FINAL SINGLE POINT ENERGY      -652.854956961972
FINAL SINGLE POINT ENERGY      -652.855532175179
FINAL SINGLE POINT ENERGY      -652.855639358520
FINAL SINGLE POINT ENERGY      -652.855659942991
FINAL SINGLE POINT ENERGY      -652.855663478617
FINAL SINGLE POINT ENERGY      -652.855662878378
                    ***********************HURRAY********************

CARTESIAN COORDINATES (ANGSTROEM)
---------------------------------
  C    -21.193397   26.325084   46.479608
  C    -20.330440   27.496207   45.982690
  C    -19.987683   28.237717   47.311628
  C    -19.854814   27.066514   48.318886
  O    -20.531814   25.904293   47.694019
  H    -21.151588   25.465692   45.807915
  H    -19.423953   27.088516   45.524490
  H    -20.844241   28.125026   45.250610
  H    -19.055988   28.807719   47.235410
  H    -20.774598   28.940109   47.594954
  H    -20.321669   27.272527   49.286688
  H    -18.812834   26.776508   48.480816
  C    -23.217031   27.476240   47.516259
  H    -23.406516   26.968224   48.468360
  H    -22.563455   28.334112   47.701215
  O    -22.618749   26.516093   46.596300
  C    -24.541571   28.004026   46.965912
  C    -24.495069   28.745648   45.621141
  C    -24.570285   27.571329   44.607830
  C    -25.501946   26.559218   45.320426
  O    -25.521394   26.941445   46.752509
  H    -24.961305   28.664114   47.735930
  O    -25.624162   29.655090   45.499464
  H    -23.610558   29.371320   45.493342
  H    -24.967317   27.914374   43.648498
  H    -23.578195   27.142980   44.463852
  H    -25.138207   25.532123   45.239709
  H    -26.535627   26.605632   44.961506
  H    -26.445595   29.177120   45.741033

 Multiplicity           Mult            ....    1
 Number of Electrons    NEL             ....  102
 Basis Dimension        Dim             ....  149

ORBITAL ENERGIES
----------------

  NO   OCC          E(Eh)            E(eV)
   0   2.0000     -19.149134      -521.0744
   1   2.0000     -19.147055      -521.0179
   2   2.0000     -19.136693      -520.7359
   3   2.0000     -19.136526      -520.7314
   4   2.0000     -10.284632      -279.8591
   5   2.0000     -10.238421      -278.6016
   6   2.0000     -10.234689      -278.5000
   7   2.0000     -10.234475      -278.4942
   8   2.0000     -10.234208      -278.4869
   9   2.0000     -10.221538      -278.1422
  10   2.0000     -10.199694      -277.5478
  11   2.0000     -10.197380      -277.4848
  12   2.0000     -10.177304      -276.9385
  13   2.0000      -1.056796       -28.7569
  14   2.0000      -1.032915       -28.1070
  15   2.0000      -1.005451       -27.3597
  16   2.0000      -0.997110       -27.1327
  17   2.0000      -0.794275       -21.6133
  18   2.0000      -0.781927       -21.2773
  19   2.0000      -0.766424       -20.8554
  20   2.0000      -0.737264       -20.0620
  21   2.0000      -0.679311       -18.4850
  22   2.0000      -0.610719       -16.6185
  23   2.0000      -0.606377       -16.5003
  24   2.0000      -0.597835       -16.2679
  25   2.0000      -0.569827       -15.5058
  26   2.0000      -0.522889       -14.2285
  27   2.0000      -0.516790       -14.0626
  28   2.0000      -0.503143       -13.6912
  29   2.0000      -0.491618       -13.3776
  30   2.0000      -0.473497       -12.8845
  31   2.0000      -0.454421       -12.3654
  32   2.0000      -0.451161       -12.2767
  33   2.0000      -0.440180       -11.9779
  34   2.0000      -0.425457       -11.5773
  35   2.0000      -0.420261       -11.4359
  36   2.0000      -0.407117       -11.0782
  37   2.0000      -0.387775       -10.5519
  38   2.0000      -0.385750       -10.4968
  39   2.0000      -0.368459       -10.0263
  40   2.0000      -0.367570       -10.0021
  41   2.0000      -0.362128        -9.8540
  42   2.0000      -0.350471        -9.5368
  43   2.0000      -0.329494        -8.9660
  44   2.0000      -0.320902        -8.7322
  45   2.0000      -0.310798        -8.4572
  46   2.0000      -0.301952        -8.2165
  47   2.0000      -0.271023        -7.3749
  48   2.0000      -0.265038        -7.2120
  49   2.0000      -0.258359        -7.0303
  50   2.0000      -0.239886        -6.5276
  51   0.0000       0.057794         1.5726
  52   0.0000       0.073962         2.0126
  53   0.0000       0.085840         2.3358
  54   0.0000       0.097890         2.6637
  55   0.0000       0.106650         2.9021

MULLIKEN ATOMIC CHARGES
-----------------------
   0 C :    0.304883
   1 C :   -0.277977
   2 C :   -0.319891
   3 C :   -0.010696
   4 O :   -0.504413
   5 H :    0.165988
   6 H :    0.158390
   7 H :    0.148963
   8 H :    0.148396
   9 H :    0.153374
  10 H :    0.146872
  11 H :    0.151105
  12 C :    0.001966
  13 H :    0.163009
  14 H :    0.119602
  15 O :   -0.526928
  16 C :    0.070400
  17 C :    0.076595
  18 C :   -0.281166
  19 C :   -0.017085
  20 O :   -0.524460
  21 H :    0.153441
  22 O :   -0.605923
  23 H :    0.141514
  24 H :    0.146313
  25 H :    0.161295
  26 H :    0.156726
  27 H :    0.134763
  28 H :    0.364943
Sum of atomic charges:   -0.0000000

LOEWDIN ATOMIC CHARGES
----------------------
   0 C :    0.175505
   1 C :   -0.229449
   2 C :   -0.224483
   3 C :   -0.033440
   4 O :   -0.318885
   5 H :    0.112881
   6 H :    0.123515
   7 H :    0.117331
   8 H :    0.116952
   9 H :    0.108117
  10 H :    0.104026
  11 H :    0.106817
  12 C :   -0.038924
  13 H :    0.115017
  14 H :    0.094762
  15 O :   -0.320448
  16 C :    0.013940
  17 C :    0.038252
  18 C :   -0.240133
  19 C :   -0.031725
  20 O :   -0.328074
  21 H :    0.114376
  22 O :   -0.417790
  23 H :    0.110322
  24 H :    0.117573
  25 H :    0.123583
  26 H :    0.111275
  27 H :    0.095786
  28 H :    0.283320

  Mayer bond orders larger than 0.100000
B(  0-C ,  1-C ) :   0.9145 B(  0-C ,  4-O ) :   0.9045 B(  0-C ,  5-H ) :   0.9366
B(  0-C , 15-O ) :   0.8893 B(  1-C ,  2-C ) :   0.9548 B(  1-C ,  6-H ) :   0.9342
B(  1-C ,  7-H ) :   0.9359 B(  2-C ,  3-C ) :   0.9463 B(  2-C ,  8-H ) :   0.9440
B(  2-C ,  9-H ) :   0.9359 B(  3-C ,  4-O ) :   0.8446 B(  3-C , 10-H ) :   0.9337
B(  3-C , 11-H ) :   0.9386 B( 12-C , 13-H ) :   0.9214 B( 12-C , 14-H ) :   0.8947
B( 12-C , 15-O ) :   0.8343 B( 12-C , 16-C ) :   0.9084 B( 16-C , 17-C ) :   0.9051
B( 16-C , 20-O ) :   0.8753 B( 16-C , 21-H ) :   0.9221 B( 17-C , 18-C ) :   0.9250
B( 17-C , 22-O ) :   0.8911 B( 17-C , 23-H ) :   0.9361 B( 18-C , 19-C ) :   0.9456
B( 18-C , 24-H ) :   0.9372 B( 18-C , 25-H ) :   0.9215 B( 19-C , 20-O ) :   0.8395
B( 19-C , 26-H ) :   0.9335 B( 19-C , 27-H ) :   0.9372 B( 22-O , 28-H ) :   0.7946

FINAL SINGLE POINT ENERGY      -652.855661436811

DIPOLE MOMENT
-------------
                                X             Y             Z
Electronic contribution:     -4.21006      -2.53872       1.25520
Nuclear contribution   :      5.22132       3.13658      -1.49644
                        -----------------------------------------
Total Dipole Moment    :      1.01126       0.59786      -0.24124
                        -----------------------------------------
Magnitude (a.u.)       :      1.19928
Magnitude (Debye)      :      3.04833

Rotational constants in cm-1:     0.054592     0.014324     0.013645
Rotational constants in MHz :  1636.615130   429.408828   409.077650

                             ****ORCA TERMINATED NORMALLY****
TOTAL RUN TIME: 0 days 1 hours 25 minutes 38 seconds 424 msec
