                         Program Version 4.2.0 -  RELEASE  -
|  1> # Test redundant internal optimization
|  2> #
|  3> ! RKS B3LYP  Opt TightSCF SmallPrint
|  4>
|  5> %basis
|  6>         Basis "6-31G"
|  7> end
|  8>
|  9> %geom
| 10> Constraints
| 11> { D 4  0  15  12  345.0   C } # D for Dihedral angle
| 12> { D 0  15  12  16  270.0   C } # D for Dihedral angle
| 13> { D 0  4  3  2   C } # D for Dihedral angle
| 14> { D 4  3  2  1   C } # D for Dihedral angle
| 15> { D 3  2  1  0   C } # D for Dihedral angle
| 16> { D 2  1  0  4   C } # D for Dihedral angle
| 17> { D 1  0  4  3   C } # D for Dihedral angle
| 18> { D 16  20  19  18   C } # D for Dihedral angle
| 19> { D 20  19  18  17   C } # D for Dihedral angle
| 20> { D 19  18  17  16   C } # D for Dihedral angle
| 21> { D 18  17  16  20   C } # D for Dihedral angle
| 22> { D 17  16  20  19   C } # D for Dihedral angle
| 23> { D 15  12  16  20   C } # D for Dihedral angle
| 24> end
| 25> end
| 26>
| 27>
| 28> #%pal
| 29> #nprocs 8
| 30> #end
| 31>
| 32> * xyz 0 1
| 33> C  -21.048   26.222   46.251
| 34> C  -20.361   27.558   45.944
| 35> C  -20.329   28.222   47.341
| 36> C  -20.110   27.022   48.296
| 37> O  -20.473   25.807   47.535
| 38> H  -20.833   25.428   45.533
| 39> H  -19.344   27.382   45.576
| 40> H  -20.898   28.157   45.201
| 41> H  -19.543   28.978   47.434
| 42> H  -21.289   28.710   47.548
| 43> H  -20.733   27.082   49.195
| 44> H  -19.064   26.913   48.597
| 45> C  -23.221   25.764   47.645
| 46> H  -22.492   25.790   48.465
| 47> H  -24.106   26.335   47.955
| 48> O  -22.586   26.394   46.375
| 49> C  -23.661   24.290   47.429
| 50> C  -24.615   24.163   46.235
| 51> C  -23.632   24.206   45.042
| 52> C  -22.384   23.466   45.586
| 53> O  -22.509   23.460   47.060
| 54> H  -24.054   23.893   48.366
| 55> O  -25.354   22.798   46.287
| 56> H  -25.365   24.961   46.197
| 57> H  -24.036   23.735   44.140
| 58> H  -23.386   25.246   44.794
| 59> H  -21.448   23.960   45.307
| 60> H  -22.344   22.422   45.262
| 61> H  -24.622   21.984   46.326
| 62> *
| 63>
| 64>                          ****END OF INPUT****
 Total Charge           Charge          ....    0
 Multiplicity           Mult            ....    1
 Number of Electrons    NEL             ....  102
FINAL SINGLE POINT ENERGY      -652.826451108541
FINAL SINGLE POINT ENERGY      -652.849818780452
FINAL SINGLE POINT ENERGY      -652.857496773723
FINAL SINGLE POINT ENERGY      -652.860178473998
FINAL SINGLE POINT ENERGY      -652.860542858092
FINAL SINGLE POINT ENERGY      -652.860593542802
FINAL SINGLE POINT ENERGY      -652.860600174519
                    ***********************HURRAY********************

CARTESIAN COORDINATES (ANGSTROEM)
---------------------------------
  C    -20.996595   26.321227   46.300812
  C    -20.418967   27.714428   46.055025
  C    -20.341020   28.282472   47.490960
  C    -19.987502   27.044829   48.341490
  O    -20.329970   25.864813   47.493599
  H    -20.773353   25.585385   45.526758
  H    -19.420822   27.617707   45.612336
  H    -21.048877   28.309496   45.390388
  H    -19.596822   29.078740   47.588345
  H    -21.315205   28.688877   47.780368
  H    -20.552934   26.982398   49.275249
  H    -18.919259   26.965585   48.560932
  C    -23.138063   25.793870   47.535579
  H    -22.486055   25.795810   48.413940
  H    -24.013055   26.422429   47.731789
  O    -22.450974   26.431746   46.420062
  C    -23.601235   24.351217   47.295894
  C    -24.613543   24.139431   46.159984
  C    -23.682781   23.983359   44.929152
  C    -22.455449   23.241169   45.514102
  O    -22.518116   23.419472   46.983777
  H    -24.039485   24.007079   48.241933
  O    -25.415367   22.946574   46.397023
  H    -25.333516   24.951498   46.055370
  H    -24.179387   23.426135   44.130761
  H    -23.401336   24.974087   44.563335
  H    -21.504104   23.632545   45.144872
  H    -22.482794   22.163083   45.322772
  H    -24.823413   22.212535   46.665392

 Multiplicity           Mult            ....    1
 Number of Electrons    NEL             ....  102
 Basis Dimension        Dim             ....  149

ORBITAL ENERGIES
----------------

  NO   OCC          E(Eh)            E(eV)
   0   2.0000     -19.149381      -521.0812
   1   2.0000     -19.142567      -520.8957
   2   2.0000     -19.137443      -520.7563
   3   2.0000     -19.131642      -520.5985
   4   2.0000     -10.280410      -279.7442
   5   2.0000     -10.233093      -278.4566
   6   2.0000     -10.231833      -278.4223
   7   2.0000     -10.228550      -278.3330
   8   2.0000     -10.228398      -278.3289
   9   2.0000     -10.223937      -278.2075
  10   2.0000     -10.190677      -277.3024
  11   2.0000     -10.187064      -277.2041
  12   2.0000     -10.176884      -276.9271
  13   2.0000      -1.055478       -28.7210
  14   2.0000      -1.030303       -28.0360
  15   2.0000      -1.000487       -27.2246
  16   2.0000      -0.991618       -26.9833
  17   2.0000      -0.792414       -21.5627
  18   2.0000      -0.774144       -21.0655
  19   2.0000      -0.764306       -20.7978
  20   2.0000      -0.734145       -19.9771
  21   2.0000      -0.672153       -18.2902
  22   2.0000      -0.605792       -16.4844
  23   2.0000      -0.600673       -16.3452
  24   2.0000      -0.595811       -16.2128
  25   2.0000      -0.564990       -15.3742
  26   2.0000      -0.525398       -14.2968
  27   2.0000      -0.507439       -13.8081
  28   2.0000      -0.494317       -13.4510
  29   2.0000      -0.485568       -13.2130
  30   2.0000      -0.471930       -12.8419
  31   2.0000      -0.461421       -12.5559
  32   2.0000      -0.447773       -12.1845
  33   2.0000      -0.436873       -11.8879
  34   2.0000      -0.416281       -11.3276
  35   2.0000      -0.413945       -11.2640
  36   2.0000      -0.395484       -10.7617
  37   2.0000      -0.386591       -10.5197
  38   2.0000      -0.373737       -10.1699
  39   2.0000      -0.369184       -10.0460
  40   2.0000      -0.360798        -9.8178
  41   2.0000      -0.359474        -9.7818
  42   2.0000      -0.347904        -9.4669
  43   2.0000      -0.332818        -9.0564
  44   2.0000      -0.324918        -8.8415
  45   2.0000      -0.306258        -8.3337
  46   2.0000      -0.294883        -8.0242
  47   2.0000      -0.266964        -7.2645
  48   2.0000      -0.264921        -7.2089
  49   2.0000      -0.260408        -7.0861
  50   2.0000      -0.234282        -6.3751
  51   0.0000       0.068252         1.8572
  52   0.0000       0.079846         2.1727
  53   0.0000       0.096832         2.6349
  54   0.0000       0.103589         2.8188
  55   0.0000       0.105783         2.8785

MULLIKEN ATOMIC CHARGES
-----------------------
   0 C :    0.304219
   1 C :   -0.259594
   2 C :   -0.301468
   3 C :   -0.019674
   4 O :   -0.498884
   5 H :    0.150654
   6 H :    0.144865
   7 H :    0.158910
   8 H :    0.146350
   9 H :    0.155689
  10 H :    0.145860
  11 H :    0.151658
  12 C :   -0.019315
  13 H :    0.160279
  14 H :    0.142663
  15 O :   -0.541084
  16 C :    0.079014
  17 C :    0.079672
  18 C :   -0.292283
  19 C :   -0.025128
  20 O :   -0.518518
  21 H :    0.148293
  22 O :   -0.606264
  23 H :    0.151369
  24 H :    0.151019
  25 H :    0.166538
  26 H :    0.142039
  27 H :    0.140497
  28 H :    0.362625
Sum of atomic charges:   -0.0000000

LOEWDIN ATOMIC CHARGES
----------------------
   0 C :    0.181980
   1 C :   -0.218704
   2 C :   -0.218052
   3 C :   -0.032318
   4 O :   -0.309169
   5 H :    0.098272
   6 H :    0.113643
   7 H :    0.125080
   8 H :    0.116698
   9 H :    0.115627
  10 H :    0.102680
  11 H :    0.107611
  12 C :   -0.041767
  13 H :    0.112723
  14 H :    0.110264
  15 O :   -0.343640
  16 C :    0.006613
  17 C :    0.037400
  18 C :   -0.242275
  19 C :   -0.034586
  20 O :   -0.324028
  21 H :    0.113310
  22 O :   -0.418884
  23 H :    0.115830
  24 H :    0.120297
  25 H :    0.125646
  26 H :    0.099528
  27 H :    0.098631
  28 H :    0.281591

  Mayer bond orders larger than 0.100000
B(  0-C ,  1-C ) :   0.9361 B(  0-C ,  4-O ) :   0.9224 B(  0-C ,  5-H ) :   0.9158
B(  0-C , 15-O ) :   0.8269 B(  1-C ,  2-C ) :   0.9543 B(  1-C ,  6-H ) :   0.9364
B(  1-C ,  7-H ) :   0.9357 B(  2-C ,  3-C ) :   0.9523 B(  2-C ,  8-H ) :   0.9448
B(  2-C ,  9-H ) :   0.9455 B(  3-C ,  4-O ) :   0.8323 B(  3-C , 10-H ) :   0.9324
B(  3-C , 11-H ) :   0.9404 B( 12-C , 13-H ) :   0.9124 B( 12-C , 14-H ) :   0.9282
B( 12-C , 15-O ) :   0.8649 B( 12-C , 16-C ) :   0.8830 B( 16-C , 17-C ) :   0.9106
B( 16-C , 20-O ) :   0.8732 B( 16-C , 21-H ) :   0.9174 B( 17-C , 18-C ) :   0.9225
B( 17-C , 22-O ) :   0.8887 B( 17-C , 23-H ) :   0.9353 B( 18-C , 19-C ) :   0.9440
B( 18-C , 24-H ) :   0.9372 B( 18-C , 25-H ) :   0.9225 B( 19-C , 20-O ) :   0.8458
B( 19-C , 26-H ) :   0.9258 B( 19-C , 27-H ) :   0.9375 B( 22-O , 28-H ) :   0.7960

FINAL SINGLE POINT ENERGY      -652.860600356639

DIPOLE MOMENT
-------------
                                X             Y             Z
Electronic contribution:     -2.31809      -4.31977       0.92672
Nuclear contribution   :      3.00372       5.31870      -1.00010
                        -----------------------------------------
Total Dipole Moment    :      0.68564       0.99892      -0.07338
                        -----------------------------------------
Magnitude (a.u.)       :      1.21381
Magnitude (Debye)      :      3.08525

Rotational constants in cm-1:     0.063567     0.014301     0.014219
Rotational constants in MHz :  1905.691439   428.744235   426.282982

                             ****ORCA TERMINATED NORMALLY****
TOTAL RUN TIME: 0 days 0 hours 25 minutes 45 seconds 481 msec
