                         Program Version 4.2.1 -  RELEASE  -
|  1> # Test redundant internal optimization
|  2> #
|  3> ! RKS B3LYP  Opt TightSCF SmallPrint
|  4>
|  5> %basis
|  6>         Basis "6-31G"
|  7> end
|  8>
|  9> %geom
| 10> Constraints
| 11> { D 4  0  19  14  180.0   C } # D for Dihedral angle
| 12> { D 0  19  14  12  180.0   C } # D for Dihedral angle
| 13> { D 0  4  3  2   C } # D for Dihedral angle
| 14> { D 4  3  2  1   C } # D for Dihedral angle
| 15> { D 3  2  1  0   C } # D for Dihedral angle
| 16> { D 2  1  0  4   C } # D for Dihedral angle
| 17> { D 1  0  4  3   C } # D for Dihedral angle
| 18> { D 14  15  16  17   C } # D for Dihedral angle
| 19> { D 15  16  17  12   C } # D for Dihedral angle
| 20> { D 16  17  12  14   C } # D for Dihedral angle
| 21> { D 17  12  14  15   C } # D for Dihedral angle
| 22> { D 12  14  15  16   C } # D for Dihedral angle
| 23> end
| 24> end
| 25>
| 26>
| 27> #%pal
| 28> #nprocs 8
| 29> #end
| 30>
| 31> * xyz 0 1
| 32> C  -21.048   26.222   46.251
| 33> C  -20.361   27.558   45.944
| 34> C  -20.329   28.222   47.341
| 35> C  -20.110   27.022   48.296
| 36> O  -20.473   25.807   47.535
| 37> H  -20.833   25.428   45.533
| 38> H  -19.344   27.382   45.576
| 39> H  -20.898   28.157   45.201
| 40> H  -19.543   28.978   47.434
| 41> H  -21.289   28.710   47.548
| 42> H  -20.733   27.082   49.195
| 43> H  -19.064   26.913   48.597
| 44> C  -24.631   26.927   45.384
| 45> H  -25.184   26.950   44.432
| 46> C  -23.122   26.788   45.152
| 47> C  -22.727   28.235   44.778
| 48> C  -23.668   29.096   45.659
| 49> O  -24.771   28.207   46.087
| 50> H  -25.062   26.160   46.030
| 51> O  -22.472   26.381   46.366
| 52> H  -22.874   26.064   44.367
| 53> H  -21.670   28.449   44.965
| 54> H  -22.922   28.417   43.714
| 55> H  -24.087   29.951   45.117
| 56> H  -23.176   29.458   46.566
| 57> *
| 58>
| 59>                          ****END OF INPUT****
 Total Charge           Charge          ....    0
 Multiplicity           Mult            ....    1
 Number of Electrons    NEL             ....   86
FINAL SINGLE POINT ENERGY      -538.347094423815
FINAL SINGLE POINT ENERGY      -538.417236894038
FINAL SINGLE POINT ENERGY      -538.420452207492
FINAL SINGLE POINT ENERGY      -538.421054012188
FINAL SINGLE POINT ENERGY      -538.421216423579
FINAL SINGLE POINT ENERGY      -538.421263289455
FINAL SINGLE POINT ENERGY      -538.421269145426
FINAL SINGLE POINT ENERGY      -538.421270379764
                    ***********************HURRAY********************

CARTESIAN COORDINATES (ANGSTROEM)
---------------------------------
  C    -20.909057   26.251025   46.188240
  C    -20.065347   27.516022   46.023710
  C    -20.204177   28.185901   47.418911
  C    -20.255632   26.967660   48.365021
  O    -20.598078   25.805954   47.513655
  H    -20.648009   25.443618   45.494554
  H    -19.027167   27.199814   45.860995
  H    -20.345260   28.163075   45.195526
  H    -19.371514   28.858525   47.644396
  H    -21.136688   28.755293   47.472633
  H    -21.014186   27.062393   49.145970
  H    -19.286844   26.746567   48.823352
  C    -24.584684   26.900120   45.553018
  H    -25.301603   26.829579   44.722079
  C    -23.144301   26.879423   45.040336
  C    -22.964602   28.332071   44.565910
  C    -23.793274   29.149890   45.584788
  O    -24.710603   28.192223   46.241090
  H    -24.771235   26.114317   46.284208
  O    -22.359837   26.429944   46.189404
  H    -23.005918   26.169530   44.210505
  H    -21.934149   28.669271   44.487533
  H    -23.407751   28.406342   43.564621
  H    -24.378341   29.943740   45.107030
  H    -23.172745   29.591707   46.370515

 Multiplicity           Mult            ....    1
 Number of Electrons    NEL             ....   86
 Basis Dimension        Dim             ....  127

ORBITAL ENERGIES
----------------

  NO   OCC          E(Eh)            E(eV)
   0   2.0000     -19.138587      -520.7874
   1   2.0000     -19.135991      -520.7168
   2   2.0000     -19.128691      -520.5181
   3   2.0000     -10.281499      -279.7738
   4   2.0000     -10.243623      -278.7431
   5   2.0000     -10.224509      -278.2230
   6   2.0000     -10.223902      -278.2065
   7   2.0000     -10.219945      -278.0988
   8   2.0000     -10.191699      -277.3302
   9   2.0000     -10.190545      -277.2988
  10   2.0000     -10.188809      -277.2516
  11   2.0000      -1.051576       -28.6148
  12   2.0000      -1.013646       -27.5827
  13   2.0000      -0.984277       -26.7835
  14   2.0000      -0.788355       -21.4522
  15   2.0000      -0.785899       -21.3854
  16   2.0000      -0.746343       -20.3090
  17   2.0000      -0.721732       -19.6393
  18   2.0000      -0.613946       -16.7063
  19   2.0000      -0.605695       -16.4818
  20   2.0000      -0.595557       -16.2059
  21   2.0000      -0.573326       -15.6010
  22   2.0000      -0.512949       -13.9581
  23   2.0000      -0.508076       -13.8255
  24   2.0000      -0.490849       -13.3567
  25   2.0000      -0.486546       -13.2396
  26   2.0000      -0.454627       -12.3710
  27   2.0000      -0.447213       -12.1693
  28   2.0000      -0.419211       -11.4073
  29   2.0000      -0.416210       -11.3257
  30   2.0000      -0.412307       -11.2194
  31   2.0000      -0.391704       -10.6588
  32   2.0000      -0.379533       -10.3276
  33   2.0000      -0.367426        -9.9982
  34   2.0000      -0.365773        -9.9532
  35   2.0000      -0.354436        -9.6447
  36   2.0000      -0.346717        -9.4346
  37   2.0000      -0.312248        -8.4967
  38   2.0000      -0.304422        -8.2837
  39   2.0000      -0.290661        -7.9093
  40   2.0000      -0.258158        -7.0248
  41   2.0000      -0.254519        -6.9258
  42   2.0000      -0.233430        -6.3519
  43   0.0000       0.068528         1.8647
  44   0.0000       0.082668         2.2495
  45   0.0000       0.097484         2.6527
  46   0.0000       0.110002         2.9933
  47   0.0000       0.114045         3.1033

MULLIKEN ATOMIC CHARGES
-----------------------
   0 C :    0.315541
   1 C :   -0.284318
   2 C :   -0.308082
   3 C :    0.001736
   4 O :   -0.496782
   5 H :    0.137712
   6 H :    0.148635
   7 H :    0.137925
   8 H :    0.142223
   9 H :    0.166268
  10 H :    0.158994
  11 H :    0.141446
  12 C :   -0.000563
  13 H :    0.124664
  14 C :    0.079517
  15 C :   -0.314909
  16 C :    0.005237
  17 O :   -0.517537
  18 H :    0.178752
  19 O :   -0.517150
  20 H :    0.125849
  21 H :    0.149066
  22 H :    0.144824
  23 H :    0.135614
  24 H :    0.145337
Sum of atomic charges:    0.0000000

LOEWDIN ATOMIC CHARGES
----------------------
   0 C :    0.187203
   1 C :   -0.233071
   2 C :   -0.218192
   3 C :   -0.024766
   4 O :   -0.300004
   5 H :    0.094632
   6 H :    0.117187
   7 H :    0.110775
   8 H :    0.114459
   9 H :    0.116854
  10 H :    0.111786
  11 H :    0.101855
  12 C :   -0.032581
  13 H :    0.090734
  14 C :    0.040258
  15 C :   -0.241739
  16 C :   -0.027830
  17 O :   -0.328278
  18 H :    0.128965
  19 O :   -0.333634
  20 H :    0.093297
  21 H :    0.116578
  22 H :    0.116177
  23 H :    0.098553
  24 H :    0.100781

  Mayer bond orders larger than 0.100000
B(  0-C ,  1-C ) :   0.9248 B(  0-C ,  4-O ) :   0.9373 B(  0-C ,  5-H ) :   0.9219
B(  0-C , 19-O ) :   0.8409 B(  1-C ,  2-C ) :   0.9535 B(  1-C ,  6-H ) :   0.9316
B(  1-C ,  7-H ) :   0.9218 B(  2-C ,  3-C ) :   0.9540 B(  2-C ,  8-H ) :   0.9445
B(  2-C ,  9-H ) :   0.9378 B(  3-C ,  4-O ) :   0.8341 B(  3-C , 10-H ) :   0.9337
B(  3-C , 11-H ) :   0.9396 B( 12-C , 13-H ) :   0.9167 B( 12-C , 14-C ) :   0.9326
B( 12-C , 17-O ) :   0.8686 B( 12-C , 18-H ) :   0.9278 B( 14-C , 15-C ) :   0.9248
B( 14-C , 19-O ) :   0.8480 B( 14-C , 20-H ) :   0.9209 B( 15-C , 16-C ) :   0.9447
B( 15-C , 21-H ) :   0.9250 B( 15-C , 22-H ) :   0.9346 B( 16-C , 17-O ) :   0.8662
B( 16-C , 23-H ) :   0.9325 B( 16-C , 24-H ) :   0.9316

FINAL SINGLE POINT ENERGY      -538.421270588952

DIPOLE MOMENT
-------------
                                X             Y             Z
Electronic contribution:     -2.25519      -4.28008       1.81564
Nuclear contribution   :      3.14403       5.07170      -2.97488
                        -----------------------------------------
Total Dipole Moment    :      0.88884       0.79162      -1.15924
                        -----------------------------------------
Magnitude (a.u.)       :      1.66149
Magnitude (Debye)      :      4.22317

Rotational constants in cm-1:     0.068556     0.023661     0.022460
Rotational constants in MHz :  2055.262252   709.334888   673.327879

                             ****ORCA TERMINATED NORMALLY****
TOTAL RUN TIME: 0 days 0 hours 9 minutes 24 seconds 170 msec
