                         Program Version 4.2.0 -  RELEASE  -
|  1> # Test redundant internal optimization
|  2> #
|  3> ! RKS B3LYP  Opt TightSCF SmallPrint
|  4>
|  5> %basis
|  6>         Basis "6-31G"
|  7> end
|  8>
|  9> %geom
| 10> Constraints
| 11> { D 4  0  15  12  315.0   C } # D for Dihedral angle
| 12> { D 0  15  12  16  270.0   C } # D for Dihedral angle
| 13> { D 0  4  3  2   C } # D for Dihedral angle
| 14> { D 4  3  2  1   C } # D for Dihedral angle
| 15> { D 3  2  1  0   C } # D for Dihedral angle
| 16> { D 2  1  0  4   C } # D for Dihedral angle
| 17> { D 1  0  4  3   C } # D for Dihedral angle
| 18> { D 16  20  19  18   C } # D for Dihedral angle
| 19> { D 20  19  18  17   C } # D for Dihedral angle
| 20> { D 19  18  17  16   C } # D for Dihedral angle
| 21> { D 18  17  16  20   C } # D for Dihedral angle
| 22> { D 17  16  20  19   C } # D for Dihedral angle
| 23> { D 15  12  16  20   C } # D for Dihedral angle
| 24> end
| 25> end
| 26>
| 27>
| 28> #%pal
| 29> #nprocs 8
| 30> #end
| 31>
| 32> * xyz 0 1
| 33> C  -21.048   26.222   46.251
| 34> C  -20.361   27.558   45.944
| 35> C  -20.329   28.222   47.341
| 36> C  -20.110   27.022   48.296
| 37> O  -20.473   25.807   47.535
| 38> H  -20.833   25.428   45.533
| 39> H  -19.344   27.382   45.576
| 40> H  -20.898   28.157   45.201
| 41> H  -19.543   28.978   47.434
| 42> H  -21.289   28.710   47.548
| 43> H  -20.733   27.082   49.195
| 44> H  -19.064   26.913   48.597
| 45> C  -23.319   25.255   47.135
| 46> H  -22.645   24.832   47.891
| 47> H  -24.208   25.645   47.648
| 48> O  -22.586   26.394   46.375
| 49> C  -23.781   24.106   46.196
| 50> C  -22.583   23.389   45.563
| 51> C  -22.124   22.467   46.719
| 52> C  -23.457   22.072   47.403
| 53> O  -24.465   23.060   46.963
| 54> H  -24.503   24.500   45.478
| 55> O  -23.049   22.548   44.343
| 56> H  -21.797   24.074   45.229
| 57> H  -21.561   21.596   46.369
| 58> H  -21.483   23.024   47.412
| 59> H  -23.389   22.092   48.496
| 60> H  -23.812   21.087   47.089
| 61> H  -23.837   21.852   44.654
| 62> *
| 63>
| 64>                          ****END OF INPUT****
 Total Charge           Charge          ....    0
 Multiplicity           Mult            ....    1
 Number of Electrons    NEL             ....  102
FINAL SINGLE POINT ENERGY      -652.837217021269
FINAL SINGLE POINT ENERGY      -652.860889890684
FINAL SINGLE POINT ENERGY      -652.865326488648
FINAL SINGLE POINT ENERGY      -652.866366577402
FINAL SINGLE POINT ENERGY      -652.866486291641
FINAL SINGLE POINT ENERGY      -652.866503878577
                    ***********************HURRAY********************

CARTESIAN COORDINATES (ANGSTROEM)
---------------------------------
  C    -20.999130   26.192841   46.262889
  C    -20.429451   27.585053   45.989644
  C    -20.449090   28.215192   47.400241
  C    -20.128533   27.021987   48.326973
  O    -20.397174   25.798850   47.519178
  H    -20.718173   25.423210   45.540803
  H    -19.405781   27.488542   45.610578
  H    -21.029926   28.136220   45.263255
  H    -19.724177   29.027716   47.507958
  H    -21.446976   28.609848   47.610331
  H    -20.749759   26.993818   49.225656
  H    -19.074379   26.975096   48.614451
  C    -23.187539   25.288655   47.048077
  H    -22.587638   24.910260   47.882320
  H    -24.069816   25.788589   47.452914
  O    -22.438430   26.333645   46.351106
  C    -23.662024   24.127306   46.160823
  C    -22.581443   23.260937   45.495662
  C    -22.127475   22.363347   46.678384
  C    -23.439787   22.139489   47.471072
  O    -24.384474   23.195464   47.036924
  H    -24.373324   24.489664   45.412949
  O    -23.159280   22.475893   44.413403
  H    -21.773192   23.822171   45.034877
  H    -21.688479   21.432510   46.312349
  H    -21.378089   22.889040   47.280971
  H    -23.298874   22.211572   48.554039
  H    -23.907016   21.175861   47.243807
  H    -24.014571   22.101226   44.712367

 Multiplicity           Mult            ....    1
 Number of Electrons    NEL             ....  102
 Basis Dimension        Dim             ....  149

ORBITAL ENERGIES
----------------

  NO   OCC          E(Eh)            E(eV)
   0   2.0000     -19.150268      -521.1053
   1   2.0000     -19.145285      -520.9697
   2   2.0000     -19.143645      -520.9251
   3   2.0000     -19.135260      -520.6969
   4   2.0000     -10.282115      -279.7906
   5   2.0000     -10.238200      -278.5956
   6   2.0000     -10.231634      -278.4169
   7   2.0000     -10.230619      -278.3893
   8   2.0000     -10.229969      -278.3716
   9   2.0000     -10.223804      -278.2038
  10   2.0000     -10.188609      -277.2461
  11   2.0000     -10.187609      -277.2189
  12   2.0000     -10.184532      -277.1352
  13   2.0000      -1.057703       -28.7816
  14   2.0000      -1.035561       -28.1791
  15   2.0000      -1.003914       -27.3179
  16   2.0000      -0.994940       -27.0737
  17   2.0000      -0.792600       -21.5678
  18   2.0000      -0.775732       -21.1087
  19   2.0000      -0.764756       -20.8101
  20   2.0000      -0.735590       -20.0164
  21   2.0000      -0.673438       -18.3252
  22   2.0000      -0.603969       -16.4348
  23   2.0000      -0.601050       -16.3554
  24   2.0000      -0.595546       -16.2056
  25   2.0000      -0.578263       -15.7353
  26   2.0000      -0.521982       -14.2039
  27   2.0000      -0.518256       -14.1025
  28   2.0000      -0.501340       -13.6421
  29   2.0000      -0.484847       -13.1933
  30   2.0000      -0.470483       -12.8025
  31   2.0000      -0.459233       -12.4964
  32   2.0000      -0.452391       -12.3102
  33   2.0000      -0.431431       -11.7398
  34   2.0000      -0.418758       -11.3950
  35   2.0000      -0.416552       -11.3350
  36   2.0000      -0.405582       -11.0364
  37   2.0000      -0.390808       -10.6344
  38   2.0000      -0.376569       -10.2470
  39   2.0000      -0.366529        -9.9738
  40   2.0000      -0.361847        -9.8464
  41   2.0000      -0.355829        -9.6826
  42   2.0000      -0.350915        -9.5489
  43   2.0000      -0.333956        -9.0874
  44   2.0000      -0.328448        -8.9375
  45   2.0000      -0.306282        -8.3344
  46   2.0000      -0.298991        -8.1360
  47   2.0000      -0.277105        -7.5404
  48   2.0000      -0.267857        -7.2888
  49   2.0000      -0.263642        -7.1741
  50   2.0000      -0.239276        -6.5110
  51   0.0000       0.068384         1.8608
  52   0.0000       0.076699         2.0871
  53   0.0000       0.092742         2.5236
  54   0.0000       0.100174         2.7259
  55   0.0000       0.106460         2.8969

MULLIKEN ATOMIC CHARGES
-----------------------
   0 C :    0.284132
   1 C :   -0.260074
   2 C :   -0.297820
   3 C :   -0.009611
   4 O :   -0.518813
   5 H :    0.150533
   6 H :    0.145166
   7 H :    0.163119
   8 H :    0.143414
   9 H :    0.163900
  10 H :    0.148421
  11 H :    0.147142
  12 C :   -0.023550
  13 H :    0.155960
  14 H :    0.161130
  15 O :   -0.526587
  16 C :    0.049045
  17 C :    0.088042
  18 C :   -0.305824
  19 C :   -0.031714
  20 O :   -0.524381
  21 H :    0.163246
  22 O :   -0.606505
  23 H :    0.156429
  24 H :    0.159905
  25 H :    0.167110
  26 H :    0.150091
  27 H :    0.143805
  28 H :    0.364289
Sum of atomic charges:   -0.0000000

LOEWDIN ATOMIC CHARGES
----------------------
   0 C :    0.171859
   1 C :   -0.213712
   2 C :   -0.215668
   3 C :   -0.028532
   4 O :   -0.330444
   5 H :    0.093873
   6 H :    0.113896
   7 H :    0.127609
   8 H :    0.115030
   9 H :    0.120140
  10 H :    0.105645
  11 H :    0.105157
  12 C :   -0.048710
  13 H :    0.108472
  14 H :    0.119556
  15 O :   -0.331205
  16 C :    0.008685
  17 C :    0.036659
  18 C :   -0.243032
  19 C :   -0.038861
  20 O :   -0.330243
  21 H :    0.116071
  22 O :   -0.417079
  23 H :    0.116127
  24 H :    0.125726
  25 H :    0.123984
  26 H :    0.105310
  27 H :    0.101206
  28 H :    0.282480

  Mayer bond orders larger than 0.100000
B(  0-C ,  1-C ) :   0.9472 B(  0-C ,  4-O ) :   0.8977 B(  0-C ,  5-H ) :   0.9033
B(  0-C , 15-O ) :   0.8603 B(  1-C ,  2-C ) :   0.9548 B(  1-C ,  6-H ) :   0.9392
B(  1-C ,  7-H ) :   0.9349 B(  2-C ,  3-C ) :   0.9562 B(  2-C ,  8-H ) :   0.9448
B(  2-C ,  9-H ) :   0.9437 B(  3-C ,  4-O ) :   0.8278 B(  3-C , 10-H ) :   0.9356
B(  3-C , 11-H ) :   0.9406 B( 12-C , 13-H ) :   0.9149 B( 12-C , 14-H ) :   0.9352
B( 12-C , 15-O ) :   0.8374 B( 12-C , 16-C ) :   0.8829 B( 16-C , 17-C ) :   0.9136
B( 16-C , 20-O ) :   0.8327 B( 16-C , 21-H ) :   0.9267 B( 17-C , 18-C ) :   0.9128
B( 17-C , 22-O ) :   0.8872 B( 17-C , 23-H ) :   0.9219 B( 18-C , 19-C ) :   0.9412
B( 18-C , 24-H ) :   0.9382 B( 18-C , 25-H ) :   0.9271 B( 19-C , 20-O ) :   0.8407
B( 19-C , 26-H ) :   0.9348 B( 19-C , 27-H ) :   0.9385 B( 22-O , 28-H ) :   0.7944

FINAL SINGLE POINT ENERGY      -652.866505595665

DIPOLE MOMENT
-------------
                                X             Y             Z
Electronic contribution:     -3.72270      -2.45928      -2.44640
Nuclear contribution   :      4.42178       2.89675       3.12592
                        -----------------------------------------
Total Dipole Moment    :      0.69907       0.43747       0.67952
                        -----------------------------------------
Magnitude (a.u.)       :      1.06857
Magnitude (Debye)      :      2.71609

Rotational constants in cm-1:     0.055516     0.013867     0.013403
Rotational constants in MHz :  1664.324621   415.717311   401.815257

                             ****ORCA TERMINATED NORMALLY****
TOTAL RUN TIME: 0 days 0 hours 35 minutes 20 seconds 764 msec
