                         Program Version 4.2.0 -  RELEASE  -
|  1> # Test redundant internal optimization
|  2> #
|  3> ! RKS B3LYP  Opt TightSCF SmallPrint
|  4>
|  5> %basis
|  6>         Basis "6-31G"
|  7> end
|  8>
|  9> %geom
| 10> Constraints
| 11> { D 4  0  15  12  270.0   C } # D for Dihedral angle
| 12> { D 0  15  12  16  240.0   C } # D for Dihedral angle
| 13> { D 0  4  3  2   C } # D for Dihedral angle
| 14> { D 4  3  2  1   C } # D for Dihedral angle
| 15> { D 3  2  1  0   C } # D for Dihedral angle
| 16> { D 2  1  0  4   C } # D for Dihedral angle
| 17> { D 1  0  4  3   C } # D for Dihedral angle
| 18> { D 16  20  19  18   C } # D for Dihedral angle
| 19> { D 20  19  18  17   C } # D for Dihedral angle
| 20> { D 19  18  17  16   C } # D for Dihedral angle
| 21> { D 18  17  16  20   C } # D for Dihedral angle
| 22> { D 17  16  20  19   C } # D for Dihedral angle
| 23> { D 15  12  16  20   C } # D for Dihedral angle
| 24> end
| 25> end
| 26>
| 27>
| 28> #%pal
| 29> #nprocs 8
| 30> #end
| 31>
| 32> * xyz 0 1
| 33> C  -21.048   26.222   46.251
| 34> C  -20.361   27.558   45.944
| 35> C  -20.329   28.222   47.341
| 36> C  -20.110   27.022   48.296
| 37> O  -20.473   25.807   47.535
| 38> H  -20.833   25.428   45.533
| 39> H  -19.344   27.382   45.576
| 40> H  -20.898   28.157   45.201
| 41> H  -19.543   28.978   47.434
| 42> H  -21.289   28.710   47.548
| 43> H  -20.733   27.082   49.195
| 44> H  -19.064   26.913   48.597
| 45> C  -23.420   25.119   46.072
| 46> H  -22.741   24.293   45.824
| 47> H  -24.008   24.827   46.952
| 48> O  -22.586   26.394   46.375
| 49> C  -24.406   25.313   44.887
| 50> C  -25.291   24.078   44.692
| 51> C  -26.349   24.270   45.805
| 52> C  -26.534   25.807   45.852
| 53> O  -25.354   26.393   45.181
| 54> H  -23.845   25.613   44.000
| 55> O  -25.958   24.116   43.289
| 56> H  -24.741   23.135   44.787
| 57> H  -27.285   23.743   45.596
| 58> H  -25.961   23.898   46.761
| 59> H  -26.592   26.191   46.876
| 60> H  -27.417   26.138   45.298
| 61> H  -26.515   25.052   43.172
| 62> *
| 63>
| 64>                          ****END OF INPUT****
 Total Charge           Charge          ....    0
 Multiplicity           Mult            ....    1
 Number of Electrons    NEL             ....  102
FINAL SINGLE POINT ENERGY      -652.834288788743
FINAL SINGLE POINT ENERGY      -652.857696133425
FINAL SINGLE POINT ENERGY      -652.861826581292
FINAL SINGLE POINT ENERGY      -652.862528326159
FINAL SINGLE POINT ENERGY      -652.862609943480
FINAL SINGLE POINT ENERGY      -652.862620149008
FINAL SINGLE POINT ENERGY      -652.862622302826
                    ***********************HURRAY********************

CARTESIAN COORDINATES (ANGSTROEM)
---------------------------------
  C    -21.094822   26.132627   46.210737
  C    -20.539165   27.521775   45.895120
  C    -20.512502   28.178532   47.295212
  C    -20.156334   26.998031   48.226608
  O    -20.447636   25.765890   47.452045
  H    -20.851503   25.344300   45.490894
  H    -19.525805   27.422091   45.488991
  H    -21.162810   28.058631   45.177898
  H    -19.788217   28.996002   47.363929
  H    -21.505173   28.571411   47.532661
  H    -20.747999   26.984778   49.145419
  H    -19.092652   26.963207   48.481563
  C    -23.331851   25.074811   46.142545
  H    -22.692561   24.214995   45.895094
  H    -23.857413   24.849417   47.077369
  O    -22.522567   26.261923   46.364249
  C    -24.319526   25.320428   45.001910
  C    -25.254587   24.134961   44.726633
  C    -26.356590   24.344870   45.799357
  C    -26.468631   25.887024   45.886942
  O    -25.227445   26.434411   45.287463
  H    -23.761918   25.602101   44.103025
  O    -25.794731   24.203912   43.378085
  H    -24.769434   23.159980   44.791667
  H    -27.288178   23.863494   45.492006
  H    -26.043950   23.911312   46.755680
  H    -26.555341   26.247425   46.916024
  H    -27.308802   26.281876   45.307233
  H    -26.049856   25.130781   43.183641

 Multiplicity           Mult            ....    1
 Number of Electrons    NEL             ....  102
 Basis Dimension        Dim             ....  149

ORBITAL ENERGIES
----------------

  NO   OCC          E(Eh)            E(eV)
   0   2.0000     -19.141281      -520.8607
   1   2.0000     -19.141050      -520.8544
   2   2.0000     -19.140738      -520.8460
   3   2.0000     -19.134689      -520.6814
   4   2.0000     -10.277172      -279.6561
   5   2.0000     -10.244481      -278.7665
   6   2.0000     -10.234595      -278.4975
   7   2.0000     -10.233266      -278.4613
   8   2.0000     -10.230357      -278.3822
   9   2.0000     -10.220858      -278.1237
  10   2.0000     -10.190638      -277.3014
  11   2.0000     -10.180905      -277.0365
  12   2.0000     -10.180402      -277.0228
  13   2.0000      -1.051306       -28.6075
  14   2.0000      -1.036601       -28.2073
  15   2.0000      -1.007063       -27.4036
  16   2.0000      -0.991401       -26.9774
  17   2.0000      -0.789004       -21.4699
  18   2.0000      -0.780385       -21.2353
  19   2.0000      -0.766652       -20.8617
  20   2.0000      -0.729030       -19.8379
  21   2.0000      -0.673862       -18.3367
  22   2.0000      -0.606002       -16.4902
  23   2.0000      -0.597857       -16.2685
  24   2.0000      -0.592423       -16.1206
  25   2.0000      -0.580031       -15.7834
  26   2.0000      -0.528158       -14.3719
  27   2.0000      -0.511067       -13.9068
  28   2.0000      -0.493919       -13.4402
  29   2.0000      -0.488860       -13.3026
  30   2.0000      -0.472381       -12.8541
  31   2.0000      -0.456501       -12.4220
  32   2.0000      -0.449786       -12.2393
  33   2.0000      -0.442115       -12.0306
  34   2.0000      -0.423764       -11.5312
  35   2.0000      -0.411512       -11.1978
  36   2.0000      -0.397615       -10.8196
  37   2.0000      -0.394182       -10.7262
  38   2.0000      -0.373660       -10.1678
  39   2.0000      -0.366541        -9.9741
  40   2.0000      -0.359494        -9.7823
  41   2.0000      -0.352265        -9.5856
  42   2.0000      -0.345654        -9.4057
  43   2.0000      -0.332613        -9.0509
  44   2.0000      -0.320963        -8.7339
  45   2.0000      -0.308829        -8.4037
  46   2.0000      -0.298036        -8.1100
  47   2.0000      -0.272596        -7.4177
  48   2.0000      -0.270337        -7.3562
  49   2.0000      -0.252161        -6.8617
  50   2.0000      -0.237377        -6.4593
  51   0.0000       0.064791         1.7631
  52   0.0000       0.083101         2.2613
  53   0.0000       0.088893         2.4189
  54   0.0000       0.101143         2.7522
  55   0.0000       0.101908         2.7731

MULLIKEN ATOMIC CHARGES
-----------------------
   0 C :    0.276376
   1 C :   -0.256170
   2 C :   -0.299448
   3 C :   -0.001277
   4 O :   -0.509869
   5 H :    0.137280
   6 H :    0.142359
   7 H :    0.158483
   8 H :    0.138965
   9 H :    0.167622
  10 H :    0.146641
  11 H :    0.140163
  12 C :    0.001350
  13 H :    0.130914
  14 H :    0.145603
  15 O :   -0.505046
  16 C :    0.069296
  17 C :    0.077049
  18 C :   -0.295648
  19 C :   -0.026490
  20 O :   -0.510620
  21 H :    0.156827
  22 O :   -0.603029
  23 H :    0.151152
  24 H :    0.163387
  25 H :    0.144585
  26 H :    0.149318
  27 H :    0.144373
  28 H :    0.365856
Sum of atomic charges:   -0.0000000

LOEWDIN ATOMIC CHARGES
----------------------
   0 C :    0.171167
   1 C :   -0.216449
   2 C :   -0.215993
   3 C :   -0.027366
   4 O :   -0.330021
   5 H :    0.094407
   6 H :    0.112492
   7 H :    0.124706
   8 H :    0.112468
   9 H :    0.121825
  10 H :    0.105296
  11 H :    0.101265
  12 C :   -0.037103
  13 H :    0.101323
  14 H :    0.106151
  15 O :   -0.316204
  16 C :    0.010873
  17 C :    0.034336
  18 C :   -0.240506
  19 C :   -0.037500
  20 O :   -0.321939
  21 H :    0.114737
  22 O :   -0.414902
  23 H :    0.114741
  24 H :    0.127018
  25 H :    0.113078
  26 H :    0.106152
  27 H :    0.102026
  28 H :    0.283924

  Mayer bond orders larger than 0.100000
B(  0-C ,  1-C ) :   0.9479 B(  0-C ,  4-O ) :   0.9147 B(  0-C ,  5-H ) :   0.9176
B(  0-C , 15-O ) :   0.8659 B(  1-C ,  2-C ) :   0.9583 B(  1-C ,  6-H ) :   0.9399
B(  1-C ,  7-H ) :   0.9359 B(  2-C ,  3-C ) :   0.9548 B(  2-C ,  8-H ) :   0.9453
B(  2-C ,  9-H ) :   0.9432 B(  3-C ,  4-O ) :   0.8389 B(  3-C , 10-H ) :   0.9358
B(  3-C , 11-H ) :   0.9403 B( 12-C , 13-H ) :   0.9134 B( 12-C , 14-H ) :   0.9305
B( 12-C , 15-O ) :   0.8424 B( 12-C , 16-C ) :   0.8915 B( 16-C , 17-C ) :   0.8965
B( 16-C , 20-O ) :   0.8650 B( 16-C , 21-H ) :   0.9273 B( 17-C , 18-C ) :   0.9106
B( 17-C , 22-O ) :   0.8914 B( 17-C , 23-H ) :   0.9332 B( 18-C , 19-C ) :   0.9387
B( 18-C , 24-H ) :   0.9373 B( 18-C , 25-H ) :   0.9341 B( 19-C , 20-O ) :   0.8510
B( 19-C , 26-H ) :   0.9345 B( 19-C , 27-H ) :   0.9379 B( 22-O , 28-H ) :   0.7933

FINAL SINGLE POINT ENERGY      -652.862622404389

DIPOLE MOMENT
-------------
                                X             Y             Z
Electronic contribution:     -0.99197      -1.58195      -2.36588
Nuclear contribution   :      0.94324       1.73878       2.67170
                        -----------------------------------------
Total Dipole Moment    :     -0.04873       0.15683       0.30582
                        -----------------------------------------
Magnitude (a.u.)       :      0.34713
Magnitude (Debye)      :      0.88233

Rotational constants in cm-1:     0.066149     0.011018     0.010841
Rotational constants in MHz :  1983.083116   330.324463   325.014635

                             ****ORCA TERMINATED NORMALLY****
TOTAL RUN TIME: 0 days 0 hours 23 minutes 43 seconds 946 msec
