                         Program Version 4.2.0 -  RELEASE  -
|  1> # Test redundant internal optimization
|  2> #
|  3> ! RKS B3LYP  Opt TightSCF SmallPrint
|  4>
|  5> %basis
|  6>         Basis "6-31G"
|  7> end
|  8>
|  9> %geom
| 10> Constraints
| 11> { D 4  0  15  12  270.0   C } # D for Dihedral angle
| 12> { D 0  15  12  16  0.0   C } # D for Dihedral angle
| 13> { D 0  4  3  2   C } # D for Dihedral angle
| 14> { D 4  3  2  1   C } # D for Dihedral angle
| 15> { D 3  2  1  0   C } # D for Dihedral angle
| 16> { D 2  1  0  4   C } # D for Dihedral angle
| 17> { D 1  0  4  3   C } # D for Dihedral angle
| 18> { D 16  20  19  18   C } # D for Dihedral angle
| 19> { D 20  19  18  17   C } # D for Dihedral angle
| 20> { D 19  18  17  16   C } # D for Dihedral angle
| 21> { D 18  17  16  20   C } # D for Dihedral angle
| 22> { D 17  16  20  19   C } # D for Dihedral angle
| 23> { D 15  12  16  20   C } # D for Dihedral angle
| 24> end
| 25> end
| 26>
| 27>
| 28> #%pal
| 29> #nprocs 8
| 30> #end
| 31>
| 32> * xyz 0 1
| 33> C  -21.048   26.222   46.251
| 34> C  -20.361   27.558   45.944
| 35> C  -20.329   28.222   47.341
| 36> C  -20.110   27.022   48.296
| 37> O  -20.473   25.807   47.535
| 38> H  -20.833   25.428   45.533
| 39> H  -19.344   27.382   45.576
| 40> H  -20.898   28.157   45.201
| 41> H  -19.543   28.978   47.434
| 42> H  -21.289   28.710   47.548
| 43> H  -20.733   27.082   49.195
| 44> H  -19.064   26.913   48.597
| 45> C  -23.420   25.119   46.072
| 46> H  -24.013   24.856   46.957
| 47> H  -24.109   25.300   45.238
| 48> O  -22.586   26.394   46.375
| 49> C  -22.535   23.898   45.698
| 50> C  -23.391   22.693   45.294
| 51> C  -23.777   23.055   43.840
| 52> C  -22.515   23.782   43.312
| 53> O  -21.737   24.190   44.502
| 54> H  -21.833   23.701   46.511
| 55> O  -22.537   21.396   45.328
| 56> H  -24.264   22.549   45.941
| 57> H  -24.035   22.178   43.238
| 58> H  -24.641   23.730   43.836
| 59> H  -22.760   24.672   42.722
| 60> H  -21.873   23.127   42.717
| 61> H  -21.658   21.517   44.686
| 62> *
| 63>
| 64>                          ****END OF INPUT****
 Total Charge           Charge          ....    0
 Multiplicity           Mult            ....    1
 Number of Electrons    NEL             ....  102
FINAL SINGLE POINT ENERGY      -652.831157415572
FINAL SINGLE POINT ENERGY      -652.854082797599
FINAL SINGLE POINT ENERGY      -652.858934851733
FINAL SINGLE POINT ENERGY      -652.861522794603
FINAL SINGLE POINT ENERGY      -652.861820132165
FINAL SINGLE POINT ENERGY      -652.861876892434
                    ***********************HURRAY********************

CARTESIAN COORDINATES (ANGSTROEM)
---------------------------------
  C    -20.886582   26.235451   46.202659
  C    -20.400284   27.672560   46.003389
  C    -20.483696   28.239621   47.441673
  C    -20.103513   27.021102   48.314929
  O    -20.280066   25.828639   47.454026
  H    -20.580564   25.518309   45.444744
  H    -19.363520   27.655823   45.647544
  H    -21.015577   28.218559   45.285913
  H    -19.813877   29.090041   47.601138
  H    -21.508738   28.558762   47.650306
  H    -20.736742   26.917511   49.200402
  H    -19.053619   27.033697   48.624334
  C    -23.175204   25.153525   46.030385
  H    -23.749162   24.942095   46.942549
  H    -23.879687   25.477270   45.254010
  O    -22.329013   26.305768   46.315985
  C    -22.478149   23.860277   45.604133
  C    -23.453963   22.718686   45.278225
  C    -23.850509   23.050524   43.814240
  C    -22.542316   23.635277   43.220698
  O    -21.692240   24.024249   44.373111
  H    -21.767684   23.557143   46.379618
  O    -22.799529   21.425965   45.381276
  H    -24.308154   22.661090   45.953956
  H    -24.191275   22.153234   43.292646
  H    -24.659872   23.788650   43.797939
  H    -22.717368   24.515603   42.594902
  H    -21.978626   22.899264   42.639253
  H    -21.909471   21.479308   44.974016

 Multiplicity           Mult            ....    1
 Number of Electrons    NEL             ....  102
 Basis Dimension        Dim             ....  149

ORBITAL ENERGIES
----------------

  NO   OCC          E(Eh)            E(eV)
   0   2.0000     -19.152984      -521.1792
   1   2.0000     -19.143402      -520.9184
   2   2.0000     -19.133510      -520.6493
   3   2.0000     -19.127069      -520.4740
   4   2.0000     -10.262220      -279.2492
   5   2.0000     -10.249296      -278.8975
   6   2.0000     -10.240015      -278.6450
   7   2.0000     -10.238700      -278.6092
   8   2.0000     -10.232618      -278.4437
   9   2.0000     -10.215132      -277.9679
  10   2.0000     -10.195866      -277.4436
  11   2.0000     -10.175294      -276.8838
  12   2.0000     -10.173977      -276.8480
  13   2.0000      -1.047107       -28.4932
  14   2.0000      -1.036877       -28.2149
  15   2.0000      -1.012444       -27.5500
  16   2.0000      -0.982264       -26.7288
  17   2.0000      -0.791591       -21.5403
  18   2.0000      -0.778004       -21.1706
  19   2.0000      -0.766103       -20.8467
  20   2.0000      -0.727312       -19.7912
  21   2.0000      -0.673356       -18.3230
  22   2.0000      -0.611278       -16.6337
  23   2.0000      -0.605159       -16.4672
  24   2.0000      -0.587650       -15.9908
  25   2.0000      -0.565880       -15.3984
  26   2.0000      -0.531473       -14.4621
  27   2.0000      -0.508731       -13.8433
  28   2.0000      -0.494086       -13.4448
  29   2.0000      -0.480628       -13.0786
  30   2.0000      -0.475234       -12.9318
  31   2.0000      -0.455656       -12.3990
  32   2.0000      -0.448655       -12.2085
  33   2.0000      -0.437271       -11.8987
  34   2.0000      -0.421594       -11.4721
  35   2.0000      -0.409102       -11.1322
  36   2.0000      -0.399711       -10.8767
  37   2.0000      -0.393541       -10.7088
  38   2.0000      -0.381154       -10.3717
  39   2.0000      -0.366995        -9.9864
  40   2.0000      -0.363509        -9.8916
  41   2.0000      -0.346026        -9.4158
  42   2.0000      -0.339022        -9.2252
  43   2.0000      -0.333024        -9.0621
  44   2.0000      -0.324324        -8.8253
  45   2.0000      -0.311457        -8.4752
  46   2.0000      -0.292777        -7.9669
  47   2.0000      -0.278394        -7.5755
  48   2.0000      -0.260095        -7.0775
  49   2.0000      -0.250224        -6.8090
  50   2.0000      -0.235591        -6.4107
  51   0.0000       0.060746         1.6530
  52   0.0000       0.083020         2.2591
  53   0.0000       0.089091         2.4243
  54   0.0000       0.098392         2.6774
  55   0.0000       0.104142         2.8338

MULLIKEN ATOMIC CHARGES
-----------------------
   0 C :    0.257599
   1 C :   -0.252587
   2 C :   -0.295752
   3 C :    0.000356
   4 O :   -0.516442
   5 H :    0.198371
   6 H :    0.140823
   7 H :    0.148700
   8 H :    0.134327
   9 H :    0.159645
  10 H :    0.142323
  11 H :    0.137504
  12 C :    0.033984
  13 H :    0.142264
  14 H :    0.135250
  15 O :   -0.542881
  16 C :    0.016195
  17 C :    0.078659
  18 C :   -0.299773
  19 C :   -0.028955
  20 O :   -0.527758
  21 H :    0.193316
  22 O :   -0.599096
  23 H :    0.158157
  24 H :    0.165910
  25 H :    0.148150
  26 H :    0.153248
  27 H :    0.151174
  28 H :    0.367289
Sum of atomic charges:    0.0000000

LOEWDIN ATOMIC CHARGES
----------------------
   0 C :    0.161881
   1 C :   -0.213487
   2 C :   -0.216345
   3 C :   -0.028260
   4 O :   -0.333476
   5 H :    0.122260
   6 H :    0.111336
   7 H :    0.120103
   8 H :    0.110040
   9 H :    0.117849
  10 H :    0.102598
  11 H :    0.099781
  12 C :   -0.034201
  13 H :    0.107464
  14 H :    0.099886
  15 O :   -0.330849
  16 C :   -0.002482
  17 C :    0.040707
  18 C :   -0.240997
  19 C :   -0.037634
  20 O :   -0.333110
  21 H :    0.129302
  22 O :   -0.411539
  23 H :    0.118810
  24 H :    0.128338
  25 H :    0.114715
  26 H :    0.107412
  27 H :    0.104926
  28 H :    0.284972

  Mayer bond orders larger than 0.100000
B(  0-C ,  1-C ) :   0.9448 B(  0-C ,  4-O ) :   0.8969 B(  0-C ,  5-H ) :   0.8876
B(  0-C , 15-O ) :   0.8401 B(  1-C ,  2-C ) :   0.9566 B(  1-C ,  6-H ) :   0.9418
B(  1-C ,  7-H ) :   0.9388 B(  2-C ,  3-C ) :   0.9555 B(  2-C ,  8-H ) :   0.9463
B(  2-C ,  9-H ) :   0.9443 B(  3-C ,  4-O ) :   0.8428 B(  3-C , 10-H ) :   0.9361
B(  3-C , 11-H ) :   0.9406 B( 12-C , 13-H ) :   0.9169 B( 12-C , 14-H ) :   0.9284
B( 12-C , 15-O ) :   0.8501 B( 12-C , 16-C ) :   0.9047 B( 16-C , 17-C ) :   0.8951
B( 16-C , 20-O ) :   0.8287 B( 16-C , 21-H ) :   0.9114 B( 17-C , 18-C ) :   0.9105
B( 17-C , 22-O ) :   0.8977 B( 17-C , 23-H ) :   0.9328 B( 18-C , 19-C ) :   0.9418
B( 18-C , 24-H ) :   0.9369 B( 18-C , 25-H ) :   0.9329 B( 19-C , 20-O ) :   0.8370
B( 19-C , 26-H ) :   0.9342 B( 19-C , 27-H ) :   0.9380 B( 22-O , 28-H ) :   0.7931

FINAL SINGLE POINT ENERGY      -652.861879890184

DIPOLE MOMENT
-------------
                                X             Y             Z
Electronic contribution:      0.66048      -3.94566       0.66751
Nuclear contribution   :     -1.08338       4.40021      -1.43274
                        -----------------------------------------
Total Dipole Moment    :     -0.42290       0.45456      -0.76523
                        -----------------------------------------
Magnitude (a.u.)       :      0.98541
Magnitude (Debye)      :      2.50472

Rotational constants in cm-1:     0.063582     0.012899     0.012260
Rotational constants in MHz :  1906.153751   386.714147   367.541966

                             ****ORCA TERMINATED NORMALLY****
TOTAL RUN TIME: 0 days 2 hours 10 minutes 12 seconds 611 msec
