                         Program Version 4.2.0 -  RELEASE  -
|  1> # Test redundant internal optimization
|  2> #
|  3> ! RKS B3LYP  Opt TightSCF SmallPrint
|  4>
|  5> %basis
|  6>         Basis "6-31G"
|  7> end
|  8>
|  9> %geom
| 10> Constraints
| 11> { D 4  0  15  12  105.0   C } # D for Dihedral angle
| 12> { D 0  15  12  16  75.0   C } # D for Dihedral angle
| 13> { D 0  4  3  2   C } # D for Dihedral angle
| 14> { D 4  3  2  1   C } # D for Dihedral angle
| 15> { D 3  2  1  0   C } # D for Dihedral angle
| 16> { D 2  1  0  4   C } # D for Dihedral angle
| 17> { D 1  0  4  3   C } # D for Dihedral angle
| 18> { D 16  20  19  18   C } # D for Dihedral angle
| 19> { D 20  19  18  17   C } # D for Dihedral angle
| 20> { D 19  18  17  16   C } # D for Dihedral angle
| 21> { D 18  17  16  20   C } # D for Dihedral angle
| 22> { D 17  16  20  19   C } # D for Dihedral angle
| 23> { D 15  12  16  20   C } # D for Dihedral angle
| 24> end
| 25> end
| 26>
| 27>
| 28> #%pal
| 29> #nprocs 8
| 30> #end
| 31>
| 32> * xyz 0 1
| 33> C  -21.048   26.222   46.251
| 34> C  -20.361   27.558   45.944
| 35> C  -20.329   28.222   47.341
| 36> C  -20.110   27.022   48.296
| 37> O  -20.473   25.807   47.535
| 38> H  -20.833   25.428   45.533
| 39> H  -19.344   27.382   45.576
| 40> H  -20.898   28.157   45.201
| 41> H  -19.543   28.978   47.434
| 42> H  -21.289   28.710   47.548
| 43> H  -20.733   27.082   49.195
| 44> H  -19.064   26.913   48.597
| 45> C  -23.085   27.864   46.420
| 46> H  -24.121   27.884   46.781
| 47> H  -22.470   28.457   47.110
| 48> O  -22.586   26.394   46.375
| 49> C  -23.038   28.557   45.030
| 50> C  -24.005   27.892   44.044
| 51> C  -25.360   28.502   44.475
| 52> C  -24.979   29.942   44.899
| 53> O  -23.519   29.940   45.130
| 54> H  -22.003   28.603   44.688
| 55> O  -23.653   28.309   42.590
| 56> H  -23.994   26.798   44.101
| 57> H  -26.106   28.487   43.673
| 58> H  -25.771   27.944   45.325
| 59> H  -25.487   30.257   45.817
| 60> H  -25.180   30.676   44.114
| 61> H  -23.659   29.403   42.508
| 62> *
| 63>
| 64>                          ****END OF INPUT****
 Total Charge           Charge          ....    0
 Multiplicity           Mult            ....    1
 Number of Electrons    NEL             ....  102
FINAL SINGLE POINT ENERGY      -652.794566122459
FINAL SINGLE POINT ENERGY      -652.831181741279
FINAL SINGLE POINT ENERGY      -652.849151511886
FINAL SINGLE POINT ENERGY      -652.852121218350
FINAL SINGLE POINT ENERGY      -652.852534939878
FINAL SINGLE POINT ENERGY      -652.852619846298
                    ***********************HURRAY********************

CARTESIAN COORDINATES (ANGSTROEM)
---------------------------------
  C    -21.166001   26.337737   46.364922
  C    -20.159586   27.424867   45.965037
  C    -19.927599   28.168743   47.313081
  C    -20.014290   27.016640   48.344425
  O    -20.696671   25.898160   47.656766
  H    -21.132203   25.453958   45.726827
  H    -19.238570   26.921728   45.650677
  H    -20.480502   28.072326   45.150269
  H    -18.957672   28.674441   47.343214
  H    -20.699400   28.924724   47.485971
  H    -20.582117   27.283933   49.240388
  H    -19.027555   26.651410   48.643418
  C    -23.198282   27.965693   46.425242
  H    -24.226231   27.770203   46.741685
  H    -22.744763   28.626555   47.173937
  O    -22.586162   26.644550   46.413074
  C    -23.189322   28.690675   45.073497
  C    -23.995225   28.003171   43.962119
  C    -25.442420   28.422902   44.321672
  C    -25.270608   29.858212   44.880054
  O    -23.834284   30.001143   45.234406
  H    -22.172196   28.895619   44.738071
  O    -23.592369   28.487432   42.650851
  H    -23.849114   26.923708   43.934816
  H    -26.086798   28.383106   43.439657
  H    -25.856558   27.747230   45.077389
  H    -25.877310   30.044177   45.771467
  H    -25.496012   30.630169   44.137698
  H    -23.541180   29.466791   42.670372

 Multiplicity           Mult            ....    1
 Number of Electrons    NEL             ....  102
 Basis Dimension        Dim             ....  149

ORBITAL ENERGIES
----------------

  NO   OCC          E(Eh)            E(eV)
   0   2.0000     -19.149926      -521.0960
   1   2.0000     -19.142178      -520.8852
   2   2.0000     -19.140316      -520.8345
   3   2.0000     -19.138069      -520.7733
   4   2.0000     -10.281063      -279.7620
   5   2.0000     -10.240734      -278.6645
   6   2.0000     -10.236690      -278.5545
   7   2.0000     -10.236148      -278.5398
   8   2.0000     -10.235040      -278.5096
   9   2.0000     -10.227446      -278.3030
  10   2.0000     -10.194994      -277.4199
  11   2.0000     -10.194325      -277.4017
  12   2.0000     -10.191577      -277.3269
  13   2.0000      -1.049399       -28.5556
  14   2.0000      -1.039725       -28.2924
  15   2.0000      -1.008978       -27.4557
  16   2.0000      -0.993345       -27.0303
  17   2.0000      -0.790302       -21.5052
  18   2.0000      -0.784523       -21.3480
  19   2.0000      -0.772231       -21.0135
  20   2.0000      -0.737542       -20.0695
  21   2.0000      -0.681718       -18.5505
  22   2.0000      -0.608461       -16.5571
  23   2.0000      -0.605774       -16.4839
  24   2.0000      -0.604085       -16.4380
  25   2.0000      -0.575145       -15.6505
  26   2.0000      -0.530954       -14.4480
  27   2.0000      -0.508875       -13.8472
  28   2.0000      -0.502039       -13.6612
  29   2.0000      -0.493408       -13.4263
  30   2.0000      -0.475391       -12.9361
  31   2.0000      -0.462599       -12.5880
  32   2.0000      -0.446989       -12.1632
  33   2.0000      -0.441439       -12.0122
  34   2.0000      -0.429127       -11.6771
  35   2.0000      -0.416802       -11.3418
  36   2.0000      -0.411357       -11.1936
  37   2.0000      -0.397385       -10.8134
  38   2.0000      -0.385392       -10.4870
  39   2.0000      -0.373340       -10.1591
  40   2.0000      -0.367747       -10.0069
  41   2.0000      -0.358010        -9.7419
  42   2.0000      -0.350256        -9.5310
  43   2.0000      -0.334788        -9.1100
  44   2.0000      -0.314651        -8.5621
  45   2.0000      -0.311834        -8.4854
  46   2.0000      -0.294153        -8.0043
  47   2.0000      -0.278338        -7.5740
  48   2.0000      -0.270315        -7.3557
  49   2.0000      -0.256381        -6.9765
  50   2.0000      -0.242285        -6.5929
  51   0.0000       0.059804         1.6273
  52   0.0000       0.066375         1.8062
  53   0.0000       0.081855         2.2274
  54   0.0000       0.095304         2.5933
  55   0.0000       0.096778         2.6335

MULLIKEN ATOMIC CHARGES
-----------------------
   0 C :    0.312947
   1 C :   -0.303388
   2 C :   -0.311761
   3 C :   -0.005686
   4 O :   -0.495359
   5 H :    0.165201
   6 H :    0.159628
   7 H :    0.152339
   8 H :    0.146952
   9 H :    0.154200
  10 H :    0.147198
  11 H :    0.146004
  12 C :   -0.014969
  13 H :    0.156358
  14 H :    0.145158
  15 O :   -0.529546
  16 C :    0.037640
  17 C :    0.087498
  18 C :   -0.307642
  19 C :   -0.032998
  20 O :   -0.525906
  21 H :    0.164172
  22 O :   -0.601547
  23 H :    0.174550
  24 H :    0.164770
  25 H :    0.155612
  26 H :    0.149434
  27 H :    0.148160
  28 H :    0.360980
Sum of atomic charges:   -0.0000000

LOEWDIN ATOMIC CHARGES
----------------------
   0 C :    0.180419
   1 C :   -0.231961
   2 C :   -0.221576
   3 C :   -0.031404
   4 O :   -0.314480
   5 H :    0.111680
   6 H :    0.124738
   7 H :    0.116601
   8 H :    0.116947
   9 H :    0.110778
  10 H :    0.104741
  11 H :    0.104177
  12 C :   -0.039860
  13 H :    0.115171
  14 H :    0.101292
  15 O :   -0.329777
  16 C :    0.000949
  17 C :    0.036330
  18 C :   -0.242905
  19 C :   -0.038792
  20 O :   -0.331142
  21 H :    0.110105
  22 O :   -0.414587
  23 H :    0.126433
  24 H :    0.127825
  25 H :    0.118572
  26 H :    0.105459
  27 H :    0.103286
  28 H :    0.280981

  Mayer bond orders larger than 0.100000
B(  0-C ,  1-C ) :   0.9263 B(  0-C ,  4-O ) :   0.9125 B(  0-C ,  5-H ) :   0.9336
B(  0-C , 15-O ) :   0.8771 B(  1-C ,  2-C ) :   0.9524 B(  1-C ,  6-H ) :   0.9323
B(  1-C ,  7-H ) :   0.9206 B(  2-C ,  3-C ) :   0.9477 B(  2-C ,  8-H ) :   0.9451
B(  2-C ,  9-H ) :   0.9388 B(  3-C ,  4-O ) :   0.8470 B(  3-C , 10-H ) :   0.9345
B(  3-C , 11-H ) :   0.9388 B( 12-C , 13-H ) :   0.9379 B( 12-C , 14-H ) :   0.9082
B( 12-C , 15-O ) :   0.8451 B( 12-C , 16-C ) :   0.8746 B( 16-C , 17-C ) :   0.9082
B( 16-C , 20-O ) :   0.8358 B( 16-C , 21-H ) :   0.9138 B( 17-C , 18-C ) :   0.9160
B( 17-C , 22-O ) :   0.8895 B( 17-C , 23-H ) :   0.9245 B( 18-C , 19-C ) :   0.9430
B( 18-C , 24-H ) :   0.9366 B( 18-C , 25-H ) :   0.9318 B( 19-C , 20-O ) :   0.8413
B( 19-C , 26-H ) :   0.9350 B( 19-C , 27-H ) :   0.9376 B( 22-O , 28-H ) :   0.7975

FINAL SINGLE POINT ENERGY      -652.852625410999

DIPOLE MOMENT
-------------
                                X             Y             Z
Electronic contribution:     -0.76338      -2.45982      -1.16745
Nuclear contribution   :      0.79418       3.45166       1.25138
                        -----------------------------------------
Total Dipole Moment    :      0.03080       0.99184       0.08393
                        -----------------------------------------
Magnitude (a.u.)       :      0.99586
Magnitude (Debye)      :      2.53129

Rotational constants in cm-1:     0.056984     0.013183     0.012910
Rotational constants in MHz :  1708.351161   395.212234   387.024233

                             ****ORCA TERMINATED NORMALLY****
TOTAL RUN TIME: 0 days 1 hours 7 minutes 1 seconds 994 msec
