                         Program Version 4.2.0 -  RELEASE  -
|  1> # Test redundant internal optimization
|  2> #
|  3> ! RKS B3LYP  Opt TightSCF SmallPrint
|  4>
|  5> %basis
|  6>         Basis "6-31G"
|  7> end
|  8>
|  9> %geom
| 10> Constraints
| 11> { D 4  0  15  12  225.0   C } # D for Dihedral angle
| 12> { D 0  15  12  16  135.0   C } # D for Dihedral angle
| 13> { D 0  4  3  2   C } # D for Dihedral angle
| 14> { D 4  3  2  1   C } # D for Dihedral angle
| 15> { D 3  2  1  0   C } # D for Dihedral angle
| 16> { D 2  1  0  4   C } # D for Dihedral angle
| 17> { D 1  0  4  3   C } # D for Dihedral angle
| 18> { D 16  20  19  18   C } # D for Dihedral angle
| 19> { D 20  19  18  17   C } # D for Dihedral angle
| 20> { D 19  18  17  16   C } # D for Dihedral angle
| 21> { D 18  17  16  20   C } # D for Dihedral angle
| 22> { D 17  16  20  19   C } # D for Dihedral angle
| 23> { D 15  12  16  20   C } # D for Dihedral angle
| 24> end
| 25> end
| 26>
| 27>
| 28> #%pal
| 29> #nprocs 8
| 30> #end
| 31>
| 32> * xyz 0 1
| 33> C  -21.048   26.222   46.251
| 34> C  -20.361   27.558   45.944
| 35> C  -20.329   28.222   47.341
| 36> C  -20.110   27.022   48.296
| 37> O  -20.473   25.807   47.535
| 38> H  -20.833   25.428   45.533
| 39> H  -19.344   27.382   45.576
| 40> H  -20.898   28.157   45.201
| 41> H  -19.543   28.978   47.434
| 42> H  -21.289   28.710   47.548
| 43> H  -20.733   27.082   49.195
| 44> H  -19.064   26.913   48.597
| 45> C  -23.415   25.773   45.218
| 46> H  -23.771   26.573   44.557
| 47> H  -22.795   25.089   44.624
| 48> O  -22.586   26.394   46.375
| 49> C  -24.648   24.973   45.724
| 50> C  -25.375   24.280   44.567
| 51> C  -24.477   23.043   44.328
| 52> C  -23.998   22.675   45.755
| 53> O  -24.222   23.872   46.594
| 54> H  -25.279   25.631   46.326
| 55> O  -26.798   23.846   45.015
| 56> H  -25.471   24.913   43.678
| 57> H  -25.009   22.219   43.842
| 58> H  -23.625   23.313   43.693
| 59> H  -22.935   22.410   45.785
| 60> H  -24.580   21.860   46.194
| 61> H  -26.726   23.210   45.904
| 62> *
| 63>
| 64>                          ****END OF INPUT****
 Total Charge           Charge          ....    0
 Multiplicity           Mult            ....    1
 Number of Electrons    NEL             ....  102
FINAL SINGLE POINT ENERGY      -652.830431046612
FINAL SINGLE POINT ENERGY      -652.853239662813
FINAL SINGLE POINT ENERGY      -652.857038217968
FINAL SINGLE POINT ENERGY      -652.857703333456
FINAL SINGLE POINT ENERGY      -652.857782105301
FINAL SINGLE POINT ENERGY      -652.857792791703
                    ***********************HURRAY********************

CARTESIAN COORDINATES (ANGSTROEM)
---------------------------------
  C    -21.045429   26.195844   46.162327
  C    -20.416912   27.571471   45.947351
  C    -20.497007   28.186223   47.365774
  C    -20.268573   26.964766   48.282310
  O    -20.531358   25.772758   47.435423
  H    -20.769123   25.430379   45.429265
  H    -19.372689   27.452582   45.633294
  H    -20.945421   28.159686   45.192767
  H    -19.756684   28.975397   47.526352
  H    -21.494517   28.605875   47.527105
  H    -20.944069   26.937232   49.140505
  H    -19.234434   26.880510   48.629828
  C    -23.269983   25.762449   45.141150
  H    -23.645979   26.576993   44.504924
  H    -22.639864   25.108058   44.519753
  O    -22.490324   26.313355   46.228710
  C    -24.450013   24.977555   45.713611
  C    -25.326945   24.305669   44.648443
  C    -24.534802   23.002645   44.362359
  C    -23.948557   22.639134   45.749697
  O    -24.016480   23.872717   46.569963
  H    -25.036923   25.645566   46.351001
  O    -26.654433   24.023431   45.170510
  H    -25.491468   24.914784   43.758211
  H    -25.195150   22.230517   43.959775
  H    -23.741526   23.193336   43.630267
  H    -22.908873   22.302663   45.698306
  H    -24.537157   21.874751   46.266106
  H    -26.570305   23.678653   46.084911

 Multiplicity           Mult            ....    1
 Number of Electrons    NEL             ....  102
 Basis Dimension        Dim             ....  149

ORBITAL ENERGIES
----------------

  NO   OCC          E(Eh)            E(eV)
   0   2.0000     -19.138754      -520.7920
   1   2.0000     -19.138303      -520.7797
   2   2.0000     -19.138162      -520.7759
   3   2.0000     -19.134754      -520.6831
   4   2.0000     -10.278018      -279.6791
   5   2.0000     -10.243162      -278.7306
   6   2.0000     -10.235970      -278.5349
   7   2.0000     -10.232264      -278.4340
   8   2.0000     -10.228618      -278.3349
   9   2.0000     -10.220283      -278.1080
  10   2.0000     -10.190285      -277.2917
  11   2.0000     -10.183043      -277.0947
  12   2.0000     -10.182551      -277.0813
  13   2.0000      -1.050219       -28.5779
  14   2.0000      -1.034848       -28.1596
  15   2.0000      -1.005479       -27.3605
  16   2.0000      -0.991623       -26.9834
  17   2.0000      -0.787496       -21.4289
  18   2.0000      -0.780739       -21.2450
  19   2.0000      -0.766681       -20.8625
  20   2.0000      -0.728786       -19.8313
  21   2.0000      -0.674375       -18.3507
  22   2.0000      -0.603676       -16.4269
  23   2.0000      -0.596408       -16.2291
  24   2.0000      -0.590259       -16.0618
  25   2.0000      -0.585835       -15.9414
  26   2.0000      -0.525839       -14.3088
  27   2.0000      -0.510262       -13.8849
  28   2.0000      -0.493811       -13.4373
  29   2.0000      -0.486395       -13.2355
  30   2.0000      -0.474669       -12.9164
  31   2.0000      -0.458437       -12.4747
  32   2.0000      -0.452462       -12.3121
  33   2.0000      -0.441106       -12.0031
  34   2.0000      -0.424249       -11.5444
  35   2.0000      -0.409054       -11.1309
  36   2.0000      -0.396845       -10.7987
  37   2.0000      -0.393324       -10.7029
  38   2.0000      -0.373398       -10.1607
  39   2.0000      -0.370600       -10.0845
  40   2.0000      -0.356379        -9.6976
  41   2.0000      -0.354154        -9.6370
  42   2.0000      -0.348526        -9.4839
  43   2.0000      -0.332590        -9.0502
  44   2.0000      -0.309167        -8.4129
  45   2.0000      -0.307364        -8.3638
  46   2.0000      -0.303794        -8.2666
  47   2.0000      -0.271001        -7.3743
  48   2.0000      -0.262737        -7.1494
  49   2.0000      -0.248001        -6.7485
  50   2.0000      -0.238309        -6.4847
  51   0.0000       0.064399         1.7524
  52   0.0000       0.083048         2.2598
  53   0.0000       0.086563         2.3555
  54   0.0000       0.099015         2.6943
  55   0.0000       0.108917         2.9638

MULLIKEN ATOMIC CHARGES
-----------------------
   0 C :    0.293987
   1 C :   -0.256568
   2 C :   -0.300452
   3 C :   -0.000653
   4 O :   -0.496464
   5 H :    0.134431
   6 H :    0.140699
   7 H :    0.141749
   8 H :    0.139909
   9 H :    0.162663
  10 H :    0.155797
  11 H :    0.138891
  12 C :    0.000206
  13 H :    0.131410
  14 H :    0.119295
  15 O :   -0.508087
  16 C :    0.077040
  17 C :    0.073420
  18 C :   -0.297144
  19 C :   -0.030887
  20 O :   -0.505085
  21 H :    0.169963
  22 O :   -0.601404
  23 H :    0.148661
  24 H :    0.163801
  25 H :    0.139975
  26 H :    0.150542
  27 H :    0.147517
  28 H :    0.366789
Sum of atomic charges:   -0.0000000

LOEWDIN ATOMIC CHARGES
----------------------
   0 C :    0.180596
   1 C :   -0.225587
   2 C :   -0.216896
   3 C :   -0.025690
   4 O :   -0.306620
   5 H :    0.094616
   6 H :    0.111416
   7 H :    0.115113
   8 H :    0.113239
   9 H :    0.119450
  10 H :    0.110058
  11 H :    0.100893
  12 C :   -0.037344
  13 H :    0.097140
  14 H :    0.091076
  15 O :   -0.324248
  16 C :    0.014652
  17 C :    0.033962
  18 C :   -0.242261
  19 C :   -0.038774
  20 O :   -0.317091
  21 H :    0.121181
  22 O :   -0.414154
  23 H :    0.113781
  24 H :    0.127131
  25 H :    0.110399
  26 H :    0.106295
  27 H :    0.103202
  28 H :    0.284465

  Mayer bond orders larger than 0.100000
B(  0-C ,  1-C ) :   0.9359 B(  0-C ,  4-O ) :   0.9394 B(  0-C ,  5-H ) :   0.9177
B(  0-C , 15-O ) :   0.8383 B(  1-C ,  2-C ) :   0.9573 B(  1-C ,  6-H ) :   0.9355
B(  1-C ,  7-H ) :   0.9394 B(  2-C ,  3-C ) :   0.9543 B(  2-C ,  8-H ) :   0.9453
B(  2-C ,  9-H ) :   0.9435 B(  3-C ,  4-O ) :   0.8382 B(  3-C , 10-H ) :   0.9340
B(  3-C , 11-H ) :   0.9398 B( 12-C , 13-H ) :   0.9162 B( 12-C , 14-H ) :   0.9157
B( 12-C , 15-O ) :   0.8552 B( 12-C , 16-C ) :   0.8925 B( 16-C , 17-C ) :   0.8979
B( 16-C , 20-O ) :   0.8709 B( 16-C , 21-H ) :   0.9241 B( 17-C , 18-C ) :   0.9100
B( 17-C , 22-O ) :   0.8955 B( 17-C , 23-H ) :   0.9331 B( 18-C , 19-C ) :   0.9404
B( 18-C , 24-H ) :   0.9375 B( 18-C , 25-H ) :   0.9342 B( 19-C , 20-O ) :   0.8521
B( 19-C , 26-H ) :   0.9333 B( 19-C , 27-H ) :   0.9377 B( 22-O , 28-H ) :   0.7926

FINAL SINGLE POINT ENERGY      -652.857794708531

DIPOLE MOMENT
-------------
                                X             Y             Z
Electronic contribution:     -3.23968      -2.09019       2.11844
Nuclear contribution   :      3.92678       2.42477      -3.01705
                        -----------------------------------------
Total Dipole Moment    :      0.68710       0.33459      -0.89861
                        -----------------------------------------
Magnitude (a.u.)       :      1.17965
Magnitude (Debye)      :      2.99842

Rotational constants in cm-1:     0.067063     0.011621     0.011130
Rotational constants in MHz :  2010.486904   348.377284   333.659909

                             ****ORCA TERMINATED NORMALLY****
TOTAL RUN TIME: 0 days 1 hours 50 minutes 25 seconds 338 msec
