                         Program Version 4.2.0 -  RELEASE  -
|  1> # Test redundant internal optimization
|  2> #
|  3> ! RKS B3LYP  Opt TightSCF SmallPrint
|  4>
|  5> %basis
|  6>         Basis "6-31G"
|  7> end
|  8>
|  9> %geom
| 10> Constraints
| 11> { D 4  0  15  12  135.0   C } # D for Dihedral angle
| 12> { D 0  15  12  16  165.0   C } # D for Dihedral angle
| 13> { D 0  4  3  2   C } # D for Dihedral angle
| 14> { D 4  3  2  1   C } # D for Dihedral angle
| 15> { D 3  2  1  0   C } # D for Dihedral angle
| 16> { D 2  1  0  4   C } # D for Dihedral angle
| 17> { D 1  0  4  3   C } # D for Dihedral angle
| 18> { D 16  20  19  18   C } # D for Dihedral angle
| 19> { D 20  19  18  17   C } # D for Dihedral angle
| 20> { D 19  18  17  16   C } # D for Dihedral angle
| 21> { D 18  17  16  20   C } # D for Dihedral angle
| 22> { D 17  16  20  19   C } # D for Dihedral angle
| 23> { D 15  12  16  20   C } # D for Dihedral angle
| 24> end
| 25> end
| 26>
| 27>
| 28> #%pal
| 29> #nprocs 8
| 30> #end
| 31>
| 32> * xyz 0 1
| 33> C  -21.048   26.222   46.251
| 34> C  -20.361   27.558   45.944
| 35> C  -20.329   28.222   47.341
| 36> C  -20.110   27.022   48.296
| 37> O  -20.473   25.807   47.535
| 38> H  -20.833   25.428   45.533
| 39> H  -19.344   27.382   45.576
| 40> H  -20.898   28.157   45.201
| 41> H  -19.543   28.978   47.434
| 42> H  -21.289   28.710   47.548
| 43> H  -20.733   27.082   49.195
| 44> H  -19.064   26.913   48.597
| 45> C  -23.162   27.680   45.721
| 46> H  -22.917   28.546   46.348
| 47> H  -22.718   27.838   44.729
| 48> O  -22.586   26.394   46.375
| 49> C  -24.705   27.625   45.544
| 50> C  -25.223   28.856   44.793
| 51> C  -24.888   28.492   43.327
| 52> C  -25.105   26.959   43.286
| 53> O  -25.083   26.494   44.690
| 54> H  -25.170   27.460   46.518
| 55> H  -26.306   28.953   44.930
| 56> O  -24.552   30.179   45.253
| 57> H  -25.517   29.022   42.604
| 58> H  -23.843   28.740   43.107
| 59> H  -24.321   26.439   42.724
| 60> H  -26.079   26.686   42.871
| 61> H  -23.467   30.107   45.125
| 62> *
| 63>
| 64>                          ****END OF INPUT****
 Total Charge           Charge          ....    0
 Multiplicity           Mult            ....    1
 Number of Electrons    NEL             ....  102
FINAL SINGLE POINT ENERGY      -652.816038364386
FINAL SINGLE POINT ENERGY      -652.840380540907
FINAL SINGLE POINT ENERGY      -652.845273114744
FINAL SINGLE POINT ENERGY      -652.847044477563
FINAL SINGLE POINT ENERGY      -652.847267207283
FINAL SINGLE POINT ENERGY      -652.847331317127
FINAL SINGLE POINT ENERGY      -652.847336051789
                    ***********************HURRAY********************

CARTESIAN COORDINATES (ANGSTROEM)
---------------------------------
  C    -21.095484   26.301020   46.251958
  C    -20.160785   27.487120   46.000316
  C    -20.136200   28.182222   47.389459
  C    -20.219555   26.984616   48.363069
  O    -20.723487   25.843425   47.564194
  H    -20.950769   25.450925   45.581880
  H    -19.168486   27.095469   45.750848
  H    -20.473125   28.149060   45.189251
  H    -19.231648   28.779318   47.539520
  H    -21.000993   28.843978   47.506830
  H    -20.901111   27.158949   49.199783
  H    -19.240330   26.689278   48.751074
  C    -23.043619   27.810146   45.647803
  H    -22.863438   28.690451   46.280265
  H    -22.584954   27.987352   44.662634
  O    -22.520968   26.602622   46.249352
  C    -24.551500   27.612963   45.493976
  C    -25.273975   28.796385   44.830022
  C    -25.055046   28.496535   43.316424
  C    -25.112646   26.954366   43.264033
  O    -24.894878   26.472822   44.652071
  H    -24.958960   27.382297   46.482123
  H    -26.336503   28.756353   45.078148
  O    -24.845660   30.112137   45.262082
  H    -25.809184   28.974701   42.685928
  H    -24.070013   28.873054   43.009501
  H    -24.349869   26.519729   42.610310
  H    -26.094316   26.588306   42.949216
  H    -23.999499   30.355400   44.833930

 Multiplicity           Mult            ....    1
 Number of Electrons    NEL             ....  102
 Basis Dimension        Dim             ....  149

ORBITAL ENERGIES
----------------

  NO   OCC          E(Eh)            E(eV)
   0   2.0000     -19.152897      -521.1768
   1   2.0000     -19.136604      -520.7335
   2   2.0000     -19.136222      -520.7231
   3   2.0000     -19.135041      -520.6909
   4   2.0000     -10.277676      -279.6698
   5   2.0000     -10.246709      -278.8271
   6   2.0000     -10.233709      -278.4734
   7   2.0000     -10.230551      -278.3874
   8   2.0000     -10.229816      -278.3674
   9   2.0000     -10.225312      -278.2449
  10   2.0000     -10.197843      -277.4974
  11   2.0000     -10.193996      -277.3927
  12   2.0000     -10.193322      -277.3744
  13   2.0000      -1.049197       -28.5501
  14   2.0000      -1.035072       -28.1657
  15   2.0000      -1.016303       -27.6550
  16   2.0000      -0.990179       -26.9441
  17   2.0000      -0.789888       -21.4940
  18   2.0000      -0.784434       -21.3455
  19   2.0000      -0.770667       -20.9709
  20   2.0000      -0.732187       -19.9238
  21   2.0000      -0.684832       -18.6352
  22   2.0000      -0.613326       -16.6894
  23   2.0000      -0.605226       -16.4690
  24   2.0000      -0.593053       -16.1378
  25   2.0000      -0.572374       -15.5751
  26   2.0000      -0.528359       -14.3774
  27   2.0000      -0.510240       -13.8843
  28   2.0000      -0.501717       -13.6524
  29   2.0000      -0.497122       -13.5274
  30   2.0000      -0.471890       -12.8408
  31   2.0000      -0.461616       -12.5612
  32   2.0000      -0.443787       -12.0761
  33   2.0000      -0.439025       -11.9465
  34   2.0000      -0.430422       -11.7124
  35   2.0000      -0.415258       -11.2997
  36   2.0000      -0.411747       -11.2042
  37   2.0000      -0.401482       -10.9249
  38   2.0000      -0.381850       -10.3907
  39   2.0000      -0.379320       -10.3218
  40   2.0000      -0.363335        -9.8868
  41   2.0000      -0.355904        -9.6846
  42   2.0000      -0.350940        -9.5496
  43   2.0000      -0.331333        -9.0160
  44   2.0000      -0.316603        -8.6152
  45   2.0000      -0.311728        -8.4825
  46   2.0000      -0.291903        -7.9431
  47   2.0000      -0.272790        -7.4230
  48   2.0000      -0.261818        -7.1244
  49   2.0000      -0.248648        -6.7661
  50   2.0000      -0.239518        -6.5176
  51   0.0000       0.044811         1.2194
  52   0.0000       0.069766         1.8984
  53   0.0000       0.084376         2.2960
  54   0.0000       0.090353         2.4586
  55   0.0000       0.101375         2.7585

MULLIKEN ATOMIC CHARGES
-----------------------
   0 C :    0.318084
   1 C :   -0.295021
   2 C :   -0.309143
   3 C :   -0.000066
   4 O :   -0.493891
   5 H :    0.156948
   6 H :    0.153662
   7 H :    0.138397
   8 H :    0.144941
   9 H :    0.154244
  10 H :    0.152535
  11 H :    0.143231
  12 C :   -0.009609
  13 H :    0.130053
  14 H :    0.110452
  15 O :   -0.514381
  16 C :    0.099124
  17 C :    0.079634
  18 C :   -0.322274
  19 C :   -0.008420
  20 O :   -0.500671
  21 H :    0.169504
  22 H :    0.170430
  23 O :   -0.599623
  24 H :    0.159415
  25 H :    0.126098
  26 H :    0.144141
  27 H :    0.148175
  28 H :    0.354030
Sum of atomic charges:   -0.0000000

LOEWDIN ATOMIC CHARGES
----------------------
   0 C :    0.184535
   1 C :   -0.233256
   2 C :   -0.219744
   3 C :   -0.028146
   4 O :   -0.307145
   5 H :    0.106045
   6 H :    0.121076
   7 H :    0.111425
   8 H :    0.115669
   9 H :    0.110965
  10 H :    0.108061
  11 H :    0.103248
  12 C :   -0.049182
  13 H :    0.093849
  14 H :    0.081892
  15 O :   -0.321631
  16 C :    0.024258
  17 C :    0.034433
  18 C :   -0.241295
  19 C :   -0.030167
  20 O :   -0.308880
  21 H :    0.123055
  22 H :    0.120728
  23 O :   -0.408564
  24 H :    0.123179
  25 H :    0.100455
  26 H :    0.102715
  27 H :    0.105886
  28 H :    0.276535

  Mayer bond orders larger than 0.100000
B(  0-C ,  1-C ) :   0.9317 B(  0-C ,  4-O ) :   0.9249 B(  0-C ,  5-H ) :   0.9270
B(  0-C , 15-O ) :   0.8569 B(  1-C ,  2-C ) :   0.9498 B(  1-C ,  6-H ) :   0.9344
B(  1-C ,  7-H ) :   0.9290 B(  2-C ,  3-C ) :   0.9516 B(  2-C ,  8-H ) :   0.9456
B(  2-C ,  9-H ) :   0.9413 B(  3-C ,  4-O ) :   0.8437 B(  3-C , 10-H ) :   0.9340
B(  3-C , 11-H ) :   0.9395 B( 12-C , 13-H ) :   0.8924 B( 12-C , 14-H ) :   0.9117
B( 12-C , 15-O ) :   0.8576 B( 12-C , 16-C ) :   0.8999 B( 16-C , 17-C ) :   0.8730
B( 16-C , 20-O ) :   0.8740 B( 16-C , 21-H ) :   0.9280 B( 17-C , 18-C ) :   0.9246
B( 17-C , 22-H ) :   0.9328 B( 17-C , 23-O ) :   0.8938 B( 18-C , 19-C ) :   0.9383
B( 18-C , 24-H ) :   0.9411 B( 18-C , 25-H ) :   0.9411 B( 19-C , 20-O ) :   0.8537
B( 19-C , 26-H ) :   0.9315 B( 19-C , 27-H ) :   0.9377 B( 23-O , 28-H ) :   0.7994

FINAL SINGLE POINT ENERGY      -652.847336554833

DIPOLE MOMENT
-------------
                                X             Y             Z
Electronic contribution:     -3.21182      -4.10343       1.94939
Nuclear contribution   :      4.10249       5.54214      -3.10869
                        -----------------------------------------
Total Dipole Moment    :      0.89067       1.43871      -1.15930
                        -----------------------------------------
Magnitude (a.u.)       :      2.05114
Magnitude (Debye)      :      5.21358

Rotational constants in cm-1:     0.053427     0.013074     0.011822
Rotational constants in MHz :  1601.694589   391.956416   354.406398

                             ****ORCA TERMINATED NORMALLY****
TOTAL RUN TIME: 0 days 2 hours 22 minutes 42 seconds 519 msec
