                         Program Version 4.2.0 -  RELEASE  -
|  1> # Test redundant internal optimization
|  2> #
|  3> ! RKS B3LYP  Opt TightSCF SmallPrint
|  4>
|  5> %basis
|  6>         Basis "6-31G"
|  7> end
|  8>
|  9> %geom
| 10> Constraints
| 11> { D 4  0  15  12  15.0   C } # D for Dihedral angle
| 12> { D 0  15  12  16  270.0   C } # D for Dihedral angle
| 13> { D 0  4  3  2   C } # D for Dihedral angle
| 14> { D 4  3  2  1   C } # D for Dihedral angle
| 15> { D 3  2  1  0   C } # D for Dihedral angle
| 16> { D 2  1  0  4   C } # D for Dihedral angle
| 17> { D 1  0  4  3   C } # D for Dihedral angle
| 18> { D 16  20  19  18   C } # D for Dihedral angle
| 19> { D 20  19  18  17   C } # D for Dihedral angle
| 20> { D 19  18  17  16   C } # D for Dihedral angle
| 21> { D 18  17  16  20   C } # D for Dihedral angle
| 22> { D 17  16  20  19   C } # D for Dihedral angle
| 23> { D 15  12  16  20   C } # D for Dihedral angle
| 24> end
| 25> end
| 26>
| 27>
| 28> #%pal
| 29> #nprocs 8
| 30> #end
| 31>
| 32> * xyz 0 1
| 33> C  -21.048   26.222   46.251
| 34> C  -20.361   27.558   45.944
| 35> C  -20.329   28.222   47.341
| 36> C  -20.110   27.022   48.296
| 37> O  -20.473   25.807   47.535
| 38> H  -20.833   25.428   45.533
| 39> H  -19.344   27.382   45.576
| 40> H  -20.898   28.157   45.201
| 41> H  -19.543   28.978   47.434
| 42> H  -21.289   28.710   47.548
| 43> H  -20.733   27.082   49.195
| 44> H  -19.064   26.913   48.597
| 45> C  -23.128   26.462   47.829
| 46> H  -22.365   26.910   48.479
| 47> H  -24.028   27.089   47.875
| 48> O  -22.586   26.394   46.375
| 49> C  -23.496   25.064   48.399
| 50> C  -24.134   25.180   49.788
| 51> C  -25.583   25.588   49.435
| 52> C  -25.855   24.818   48.118
| 53> O  -24.534   24.433   47.577
| 54> H  -22.617   24.418   48.357
| 55> O  -24.111   23.800   50.502
| 56> H  -23.632   25.910   50.432
| 57> H  -26.300   25.334   50.222
| 58> H  -25.640   26.671   49.267
| 59> H  -26.382   25.429   47.376
| 60> H  -26.418   23.895   48.283
| 61> H  -24.609   23.053   49.874
| 62> *
| 63>
| 64>                          ****END OF INPUT****
 Total Charge           Charge          ....    0
 Multiplicity           Mult            ....    1
 Number of Electrons    NEL             ....  102
FINAL SINGLE POINT ENERGY      -652.826076558392
FINAL SINGLE POINT ENERGY      -652.849533240521
FINAL SINGLE POINT ENERGY      -652.854110778372
FINAL SINGLE POINT ENERGY      -652.856666414566
FINAL SINGLE POINT ENERGY      -652.856901724166
FINAL SINGLE POINT ENERGY      -652.856954449531
FINAL SINGLE POINT ENERGY      -652.856958542942
                    ***********************HURRAY********************

CARTESIAN COORDINATES (ANGSTROEM)
---------------------------------
  C    -21.130012   26.244361   46.386215
  C    -20.431579   27.540101   45.963172
  C    -20.190997   28.233213   47.328761
  C    -19.903944   27.044274   48.275993
  O    -20.423310   25.835483   47.579857
  H    -21.020897   25.429436   45.668305
  H    -19.481334   27.293540   45.476016
  H    -21.043630   28.130021   45.277976
  H    -19.361059   28.945776   47.300901
  H    -21.089943   28.777544   47.638780
  H    -20.392791   27.131858   49.250948
  H    -18.833883   26.878043   48.430692
  C    -23.156717   26.497939   47.869650
  H    -22.491062   26.988398   48.589022
  H    -24.042389   27.127196   47.733174
  O    -22.565949   26.413202   46.546398
  C    -23.553998   25.120044   48.409226
  C    -24.236921   25.174218   49.784185
  C    -25.700323   25.516986   49.398371
  C    -25.892623   24.760898   48.059412
  O    -24.536009   24.455473   47.549010
  H    -22.666945   24.481499   48.428046
  O    -24.148804   23.891377   50.464282
  H    -23.792613   25.894875   50.472776
  H    -26.391956   25.189603   50.178857
  H    -25.815448   26.599008   49.267106
  H    -26.430087   25.353325   47.312067
  H    -26.413560   23.806500   48.186915
  H    -24.304218   23.174811   49.812886

 Multiplicity           Mult            ....    1
 Number of Electrons    NEL             ....  102
 Basis Dimension        Dim             ....  149

ORBITAL ENERGIES
----------------

  NO   OCC          E(Eh)            E(eV)
   0   2.0000     -19.152254      -521.1593
   1   2.0000     -19.136520      -520.7312
   2   2.0000     -19.135451      -520.7021
   3   2.0000     -19.135381      -520.7002
   4   2.0000     -10.278219      -279.6846
   5   2.0000     -10.239352      -278.6269
   6   2.0000     -10.235531      -278.5230
   7   2.0000     -10.231564      -278.4150
   8   2.0000     -10.226568      -278.2791
   9   2.0000     -10.225495      -278.2499
  10   2.0000     -10.194699      -277.4119
  11   2.0000     -10.187298      -277.2105
  12   2.0000     -10.186805      -277.1971
  13   2.0000      -1.055230       -28.7143
  14   2.0000      -1.031730       -28.0748
  15   2.0000      -1.002660       -27.2838
  16   2.0000      -0.991744       -26.9867
  17   2.0000      -0.792279       -21.5590
  18   2.0000      -0.780930       -21.2502
  19   2.0000      -0.765899       -20.8412
  20   2.0000      -0.734950       -19.9990
  21   2.0000      -0.673451       -18.3255
  22   2.0000      -0.606042       -16.4912
  23   2.0000      -0.602696       -16.4002
  24   2.0000      -0.598429       -16.2841
  25   2.0000      -0.571271       -15.5451
  26   2.0000      -0.521051       -14.1785
  27   2.0000      -0.514427       -13.9983
  28   2.0000      -0.500941       -13.6313
  29   2.0000      -0.489190       -13.3115
  30   2.0000      -0.471947       -12.8423
  31   2.0000      -0.461597       -12.5607
  32   2.0000      -0.447300       -12.1717
  33   2.0000      -0.440087       -11.9754
  34   2.0000      -0.420693       -11.4476
  35   2.0000      -0.415141       -11.2966
  36   2.0000      -0.398081       -10.8323
  37   2.0000      -0.389793       -10.6068
  38   2.0000      -0.377054       -10.2602
  39   2.0000      -0.369634       -10.0583
  40   2.0000      -0.362906        -9.8752
  41   2.0000      -0.357617        -9.7313
  42   2.0000      -0.351943        -9.5769
  43   2.0000      -0.332543        -9.0490
  44   2.0000      -0.325437        -8.8556
  45   2.0000      -0.313245        -8.5238
  46   2.0000      -0.298948        -8.1348
  47   2.0000      -0.267027        -7.2662
  48   2.0000      -0.264542        -7.1985
  49   2.0000      -0.258561        -7.0358
  50   2.0000      -0.230664        -6.2767
  51   0.0000       0.064781         1.7628
  52   0.0000       0.075792         2.0624
  53   0.0000       0.087395         2.3781
  54   0.0000       0.095623         2.6020
  55   0.0000       0.103164         2.8072

MULLIKEN ATOMIC CHARGES
-----------------------
   0 C :    0.295584
   1 C :   -0.255490
   2 C :   -0.311847
   3 C :   -0.020549
   4 O :   -0.512667
   5 H :    0.166219
   6 H :    0.146195
   7 H :    0.160031
   8 H :    0.149531
   9 H :    0.151438
  10 H :    0.144040
  11 H :    0.153574
  12 C :   -0.012939
  13 H :    0.126176
  14 H :    0.147213
  15 O :   -0.518885
  16 C :    0.067196
  17 C :    0.073833
  18 C :   -0.298927
  19 C :   -0.032002
  20 O :   -0.510519
  21 H :    0.182343
  22 O :   -0.601202
  23 H :    0.146001
  24 H :    0.162399
  25 H :    0.141875
  26 H :    0.148832
  27 H :    0.146459
  28 H :    0.366089
Sum of atomic charges:   -0.0000000

LOEWDIN ATOMIC CHARGES
----------------------
   0 C :    0.180942
   1 C :   -0.222073
   2 C :   -0.221962
   3 C :   -0.035410
   4 O :   -0.320780
   5 H :    0.110974
   6 H :    0.115056
   7 H :    0.125317
   8 H :    0.118399
   9 H :    0.111661
  10 H :    0.099780
  11 H :    0.108152
  12 C :   -0.040772
  13 H :    0.096792
  14 H :    0.109304
  15 O :   -0.323219
  16 C :    0.006348
  17 C :    0.033556
  18 C :   -0.242849
  19 C :   -0.039722
  20 O :   -0.321942
  21 H :    0.125825
  22 O :   -0.414598
  23 H :    0.111929
  24 H :    0.126434
  25 H :    0.111193
  26 H :    0.105096
  27 H :    0.102479
  28 H :    0.284092

  Mayer bond orders larger than 0.100000
B(  0-C ,  1-C ) :   0.9238 B(  0-C ,  4-O ) :   0.8996 B(  0-C ,  5-H ) :   0.9312
B(  0-C , 15-O ) :   0.8606 B(  1-C ,  2-C ) :   0.9523 B(  1-C ,  6-H ) :   0.9350
B(  1-C ,  7-H ) :   0.9366 B(  2-C ,  3-C ) :   0.9508 B(  2-C ,  8-H ) :   0.9449
B(  2-C ,  9-H ) :   0.9448 B(  3-C ,  4-O ) :   0.8331 B(  3-C , 10-H ) :   0.9287
B(  3-C , 11-H ) :   0.9390 B( 12-C , 13-H ) :   0.9060 B( 12-C , 14-H ) :   0.9379
B( 12-C , 15-O ) :   0.8559 B( 12-C , 16-C ) :   0.8767 B( 16-C , 17-C ) :   0.8989
B( 16-C , 20-O ) :   0.8597 B( 16-C , 21-H ) :   0.9179 B( 17-C , 18-C ) :   0.9095
B( 17-C , 22-O ) :   0.8957 B( 17-C , 23-H ) :   0.9336 B( 18-C , 19-C ) :   0.9414
B( 18-C , 24-H ) :   0.9372 B( 18-C , 25-H ) :   0.9348 B( 19-C , 20-O ) :   0.8528
B( 19-C , 26-H ) :   0.9338 B( 19-C , 27-H ) :   0.9373 B( 22-O , 28-H ) :   0.7935

FINAL SINGLE POINT ENERGY      -652.856959523535

DIPOLE MOMENT
-------------
                                X             Y             Z
Electronic contribution:     -0.55839      -5.40227      -1.08003
Nuclear contribution   :      0.68896       6.72041       1.20665
                        -----------------------------------------
Total Dipole Moment    :      0.13056       1.31813       0.12661
                        -----------------------------------------
Magnitude (a.u.)       :      1.33062
Magnitude (Debye)      :      3.38217

Rotational constants in cm-1:     0.056740     0.013688     0.012604
Rotational constants in MHz :  1701.036267   410.360626   377.855651

                             ****ORCA TERMINATED NORMALLY****
TOTAL RUN TIME: 0 days 2 hours 4 minutes 18 seconds 691 msec
