                         Program Version 4.2.0 -  RELEASE  -
|  1> # Test redundant internal optimization
|  2> #
|  3> ! RKS B3LYP  Opt TightSCF SmallPrint
|  4>
|  5> %basis
|  6>         Basis "6-31G"
|  7> end
|  8>
|  9> %geom
| 10> Constraints
| 11> { D 4  0  15  12  45.0   C } # D for Dihedral angle
| 12> { D 0  15  12  16  195.0   C } # D for Dihedral angle
| 13> { D 0  4  3  2   C } # D for Dihedral angle
| 14> { D 4  3  2  1   C } # D for Dihedral angle
| 15> { D 3  2  1  0   C } # D for Dihedral angle
| 16> { D 2  1  0  4   C } # D for Dihedral angle
| 17> { D 1  0  4  3   C } # D for Dihedral angle
| 18> { D 16  20  19  18   C } # D for Dihedral angle
| 19> { D 20  19  18  17   C } # D for Dihedral angle
| 20> { D 19  18  17  16   C } # D for Dihedral angle
| 21> { D 18  17  16  20   C } # D for Dihedral angle
| 22> { D 17  16  20  19   C } # D for Dihedral angle
| 23> { D 15  12  16  20   C } # D for Dihedral angle
| 24> end
| 25> end
| 26>
| 27>
| 28> #%pal
| 29> #nprocs 8
| 30> #end
| 31>
| 32> * xyz 0 1
| 33> C  -21.048   26.222   46.251
| 34> C  -20.361   27.558   45.944
| 35> C  -20.329   28.222   47.341
| 36> C  -20.110   27.022   48.296
| 37> O  -20.473   25.807   47.535
| 38> H  -20.833   25.428   45.533
| 39> H  -19.344   27.382   45.576
| 40> H  -20.898   28.157   45.201
| 41> H  -19.543   28.978   47.434
| 42> H  -21.289   28.710   47.548
| 43> H  -20.733   27.082   49.195
| 44> H  -19.064   26.913   48.597
| 45> C  -23.065   27.161   47.638
| 46> H  -22.516   26.795   48.514
| 47> H  -22.866   28.236   47.533
| 48> O  -22.586   26.394   46.375
| 49> C  -24.586   26.986   47.906
| 50> C  -25.045   27.847   49.088
| 51> C  -25.164   29.243   48.431
| 52> C  -25.660   28.917   47.000
| 53> O  -25.367   27.486   46.770
| 54> H  -24.811   25.923   48.007
| 55> H  -26.022   27.504   49.447
| 56> O  -24.050   27.827   50.281
| 57> H  -25.849   29.908   48.968
| 58> H  -24.182   29.730   48.398
| 59> H  -25.152   29.515   46.234
| 60> H  -26.740   29.047   46.892
| 61> H  -23.064   28.168   49.946
| 62> *
| 63>
| 64>                          ****END OF INPUT****
 Total Charge           Charge          ....    0
 Multiplicity           Mult            ....    1
 Number of Electrons    NEL             ....  102
FINAL SINGLE POINT ENERGY      -652.812496005633
FINAL SINGLE POINT ENERGY      -652.838768006503
FINAL SINGLE POINT ENERGY      -652.849641465673
FINAL SINGLE POINT ENERGY      -652.851615954478
FINAL SINGLE POINT ENERGY      -652.851999519175
FINAL SINGLE POINT ENERGY      -652.852106255846
FINAL SINGLE POINT ENERGY      -652.852117210556
FINAL SINGLE POINT ENERGY      -652.852120779608
                    ***********************HURRAY********************

CARTESIAN COORDINATES (ANGSTROEM)
---------------------------------
  C    -21.171834   26.315389   46.386946
  C    -20.327145   27.501712   45.901583
  C    -19.926924   28.183755   47.241523
  C    -19.755432   26.975819   48.196970
  O    -20.462756   25.839654   47.556045
  H    -21.185609   25.485964   45.678321
  H    -19.442306   27.117334   45.382853
  H    -20.880517   28.156751   45.224487
  H    -19.004202   28.766220   47.155614
  H    -20.714464   28.861822   47.583155
  H    -20.178849   27.144807   49.191915
  H    -18.708728   26.675896   48.303488
  C    -23.034925   27.285610   47.763394
  H    -22.551910   26.886148   48.663728
  H    -22.813473   28.359749   47.674544
  O    -22.578305   26.569877   46.587991
  C    -24.541470   27.058524   47.868271
  C    -25.200728   27.791638   49.049159
  C    -25.421484   29.217308   48.457825
  C    -25.746859   28.923138   46.976929
  O    -25.270529   27.543969   46.701328
  H    -24.714344   25.979326   47.899488
  H    -26.159141   27.320520   49.276810
  O    -24.470564   27.752796   50.299836
  H    -26.220038   29.758577   48.972189
  H    -24.496928   29.801185   48.558555
  H    -25.256130   29.615433   46.285776
  H    -26.823062   28.934741   46.780643
  H    -23.691344   28.344336   50.259632

 Multiplicity           Mult            ....    1
 Number of Electrons    NEL             ....  102
 Basis Dimension        Dim             ....  149

ORBITAL ENERGIES
----------------

  NO   OCC          E(Eh)            E(eV)
   0   2.0000     -19.151079      -521.1273
   1   2.0000     -19.145994      -520.9890
   2   2.0000     -19.139881      -520.8226
   3   2.0000     -19.135174      -520.6946
   4   2.0000     -10.276832      -279.6468
   5   2.0000     -10.245320      -278.7893
   6   2.0000     -10.233502      -278.4678
   7   2.0000     -10.230871      -278.3961
   8   2.0000     -10.229624      -278.3622
   9   2.0000     -10.229120      -278.3485
  10   2.0000     -10.196087      -277.4496
  11   2.0000     -10.196041      -277.4484
  12   2.0000     -10.188738      -277.2496
  13   2.0000      -1.053823       -28.6760
  14   2.0000      -1.033959       -28.1354
  15   2.0000      -1.015390       -27.6302
  16   2.0000      -0.994628       -27.0652
  17   2.0000      -0.790349       -21.5065
  18   2.0000      -0.783040       -21.3076
  19   2.0000      -0.772082       -21.0094
  20   2.0000      -0.733494       -19.9594
  21   2.0000      -0.682388       -18.5687
  22   2.0000      -0.611540       -16.6409
  23   2.0000      -0.606019       -16.4906
  24   2.0000      -0.597547       -16.2601
  25   2.0000      -0.572046       -15.5662
  26   2.0000      -0.527200       -14.3458
  27   2.0000      -0.509322       -13.8594
  28   2.0000      -0.501908       -13.6576
  29   2.0000      -0.496876       -13.5207
  30   2.0000      -0.473265       -12.8782
  31   2.0000      -0.462998       -12.5988
  32   2.0000      -0.446832       -12.1589
  33   2.0000      -0.432058       -11.7569
  34   2.0000      -0.424628       -11.5547
  35   2.0000      -0.418727       -11.3941
  36   2.0000      -0.413758       -11.2589
  37   2.0000      -0.400686       -10.9032
  38   2.0000      -0.381665       -10.3856
  39   2.0000      -0.375692       -10.2231
  40   2.0000      -0.362393        -9.8612
  41   2.0000      -0.357165        -9.7190
  42   2.0000      -0.348152        -9.4737
  43   2.0000      -0.332857        -9.0575
  44   2.0000      -0.321898        -8.7593
  45   2.0000      -0.314370        -8.5545
  46   2.0000      -0.305852        -8.3227
  47   2.0000      -0.271255        -7.3812
  48   2.0000      -0.264222        -7.1898
  49   2.0000      -0.250994        -6.8299
  50   2.0000      -0.239754        -6.5240
  51   0.0000       0.043677         1.1885
  52   0.0000       0.069852         1.9008
  53   0.0000       0.083983         2.2853
  54   0.0000       0.090738         2.4691
  55   0.0000       0.101646         2.7659

MULLIKEN ATOMIC CHARGES
-----------------------
   0 C :    0.296834
   1 C :   -0.266743
   2 C :   -0.312246
   3 C :   -0.012939
   4 O :   -0.507627
   5 H :    0.168080
   6 H :    0.151791
   7 H :    0.156450
   8 H :    0.146898
   9 H :    0.140205
  10 H :    0.137858
  11 H :    0.151261
  12 C :   -0.014754
  13 H :    0.149680
  14 H :    0.113342
  15 O :   -0.510412
  16 C :    0.088332
  17 C :    0.078774
  18 C :   -0.323028
  19 C :   -0.010775
  20 O :   -0.501568
  21 H :    0.171589
  22 H :    0.170484
  23 O :   -0.595499
  24 H :    0.158262
  25 H :    0.129740
  26 H :    0.143965
  27 H :    0.149715
  28 H :    0.352333
Sum of atomic charges:    0.0000000

LOEWDIN ATOMIC CHARGES
----------------------
   0 C :    0.176207
   1 C :   -0.227613
   2 C :   -0.223230
   3 C :   -0.034486
   4 O :   -0.320299
   5 H :    0.114591
   6 H :    0.119180
   7 H :    0.122869
   8 H :    0.116337
   9 H :    0.105165
  10 H :    0.098337
  11 H :    0.106369
  12 C :   -0.054758
  13 H :    0.107735
  14 H :    0.081926
  15 O :   -0.308368
  16 C :    0.022485
  17 C :    0.034159
  18 C :   -0.242426
  19 C :   -0.030787
  20 O :   -0.311226
  21 H :    0.123781
  22 H :    0.121122
  23 O :   -0.405679
  24 H :    0.122486
  25 H :    0.101713
  26 H :    0.102720
  27 H :    0.106135
  28 H :    0.275554

  Mayer bond orders larger than 0.100000
B(  0-C ,  1-C ) :   0.9141 B(  0-C ,  4-O ) :   0.8972 B(  0-C ,  5-H ) :   0.9352
B(  0-C , 15-O ) :   0.8954 B(  1-C ,  2-C ) :   0.9566 B(  1-C ,  6-H ) :   0.9349
B(  1-C ,  7-H ) :   0.9369 B(  2-C ,  3-C ) :   0.9481 B(  2-C ,  8-H ) :   0.9449
B(  2-C ,  9-H ) :   0.9420 B(  3-C ,  4-O ) :   0.8436 B(  3-C , 10-H ) :   0.9326
B(  3-C , 11-H ) :   0.9393 B( 12-C , 13-H ) :   0.8961 B( 12-C , 14-H ) :   0.9073
B( 12-C , 15-O ) :   0.8450 B( 12-C , 16-C ) :   0.9069 B( 16-C , 17-C ) :   0.8746
B( 16-C , 20-O ) :   0.8726 B( 16-C , 21-H ) :   0.9273 B( 17-C , 18-C ) :   0.9217
B( 17-C , 22-H ) :   0.9332 B( 17-C , 23-O ) :   0.8969 B( 18-C , 19-C ) :   0.9398
B( 18-C , 24-H ) :   0.9414 B( 18-C , 25-H ) :   0.9410 B( 19-C , 20-O ) :   0.8530
B( 19-C , 26-H ) :   0.9312 B( 19-C , 27-H ) :   0.9375 B( 23-O , 28-H ) :   0.7995

FINAL SINGLE POINT ENERGY      -652.852109968784

DIPOLE MOMENT
-------------
                                X             Y             Z
Electronic contribution:     -2.88678      -5.65113      -0.49687
Nuclear contribution   :      3.61262       7.39987       0.69965
                        -----------------------------------------
Total Dipole Moment    :      0.72584       1.74874       0.20277
                        -----------------------------------------
Magnitude (a.u.)       :      1.90422
Magnitude (Debye)      :      4.84015

Rotational constants in cm-1:     0.047389     0.014383     0.013120
Rotational constants in MHz :  1420.697538   431.205991   393.328637

                             ****ORCA TERMINATED NORMALLY****
TOTAL RUN TIME: 0 days 1 hours 16 minutes 14 seconds 685 msec
