                         Program Version 4.2.0 -  RELEASE  -
|  1> # Test redundant internal optimization
|  2> #
|  3> ! RKS B3LYP  Opt TightSCF SmallPrint
|  4>
|  5> %basis
|  6>         Basis "6-31G"
|  7> end
|  8>
|  9> %geom
| 10> Constraints
| 11> { D 4  0  15  12  225.0   C } # D for Dihedral angle
| 12> { D 0  15  12  16  210.0   C } # D for Dihedral angle
| 13> { D 0  4  3  2   C } # D for Dihedral angle
| 14> { D 4  3  2  1   C } # D for Dihedral angle
| 15> { D 3  2  1  0   C } # D for Dihedral angle
| 16> { D 2  1  0  4   C } # D for Dihedral angle
| 17> { D 1  0  4  3   C } # D for Dihedral angle
| 18> { D 16  20  19  18   C } # D for Dihedral angle
| 19> { D 20  19  18  17   C } # D for Dihedral angle
| 20> { D 19  18  17  16   C } # D for Dihedral angle
| 21> { D 18  17  16  20   C } # D for Dihedral angle
| 22> { D 17  16  20  19   C } # D for Dihedral angle
| 23> { D 15  12  16  20   C } # D for Dihedral angle
| 24> end
| 25> end
| 26>
| 27>
| 28> #%pal
| 29> #nprocs 8
| 30> #end
| 31>
| 32> * xyz 0 1
| 33> C  -21.048   26.222   46.251
| 34> C  -20.361   27.558   45.944
| 35> C  -20.329   28.222   47.341
| 36> C  -20.110   27.022   48.296
| 37> O  -20.473   25.807   47.535
| 38> H  -20.833   25.428   45.533
| 39> H  -19.344   27.382   45.576
| 40> H  -20.898   28.157   45.201
| 41> H  -19.543   28.978   47.434
| 42> H  -21.289   28.710   47.548
| 43> H  -20.733   27.082   49.195
| 44> H  -19.064   26.913   48.597
| 45> C  -23.415   25.773   45.218
| 46> H  -22.820   25.788   44.297
| 47> H  -23.669   24.729   45.445
| 48> O  -22.586   26.394   46.375
| 49> C  -24.743   26.536   44.954
| 50> C  -25.588   25.830   43.888
| 51> C  -26.230   24.683   44.704
| 52> C  -26.457   25.327   46.095
| 53> O  -25.589   26.522   46.152
| 54> H  -24.517   27.581   44.733
| 55> O  -26.679   26.795   43.347
| 56> H  -24.996   25.468   43.040
| 57> H  -27.159   24.313   44.259
| 58> H  -25.534   23.839   44.779
| 59> H  -26.193   24.652   46.917
| 60> H  -27.487   25.669   46.233
| 61> H  -27.284   27.169   44.179
| 62> *
| 63>
| 64>                          ****END OF INPUT****
 Total Charge           Charge          ....    0
 Multiplicity           Mult            ....    1
 Number of Electrons    NEL             ....  102
FINAL SINGLE POINT ENERGY      -652.830516480263
FINAL SINGLE POINT ENERGY      -652.853364520716
FINAL SINGLE POINT ENERGY      -652.856937306510
FINAL SINGLE POINT ENERGY      -652.857578865239
FINAL SINGLE POINT ENERGY      -652.857659605983
FINAL SINGLE POINT ENERGY      -652.857667860539
                    ***********************HURRAY********************

CARTESIAN COORDINATES (ANGSTROEM)
---------------------------------
  C    -21.075707   26.178036   46.171214
  C    -20.477914   27.555802   45.892208
  C    -20.546291   28.222420   47.286795
  C    -20.278852   27.043260   48.246506
  O    -20.532092   25.812927   47.451626
  H    -20.798847   25.389713   45.464570
  H    -19.437413   27.444168   45.563378
  H    -21.031344   28.104110   45.125550
  H    -19.819329   29.031532   47.403412
  H    -21.549456   28.627369   47.448925
  H    -20.940494   27.038000   49.115797
  H    -19.237939   26.991304   48.579651
  C    -23.294682   25.666826   45.205617
  H    -22.740712   25.695549   44.254005
  H    -23.492228   24.615370   45.456987
  O    -22.523840   26.283005   46.269097
  C    -24.594773   26.447995   45.031168
  C    -25.528543   25.866752   43.959884
  C    -26.253680   24.742685   44.746823
  C    -26.385550   25.343940   46.168698
  O    -25.408022   26.455658   46.248275
  H    -24.347708   27.492821   44.820182
  O    -26.458477   26.877612   43.483324
  H    -25.014506   25.506490   43.067362
  H    -27.217953   24.511026   44.288435
  H    -25.646566   23.830646   44.753384
  H    -26.163668   24.619187   46.957517
  H    -27.376272   25.770153   46.354470
  H    -26.798142   27.384644   44.251141

 Multiplicity           Mult            ....    1
 Number of Electrons    NEL             ....  102
 Basis Dimension        Dim             ....  149

ORBITAL ENERGIES
----------------

  NO   OCC          E(Eh)            E(eV)
   0   2.0000     -19.140559      -520.8411
   1   2.0000     -19.140515      -520.8399
   2   2.0000     -19.137388      -520.7548
   3   2.0000     -19.136147      -520.7210
   4   2.0000     -10.277796      -279.6731
   5   2.0000     -10.244959      -278.7795
   6   2.0000     -10.235822      -278.5309
   7   2.0000     -10.235681      -278.5270
   8   2.0000     -10.229915      -278.3701
   9   2.0000     -10.220749      -278.1207
  10   2.0000     -10.190749      -277.3044
  11   2.0000     -10.183362      -277.1034
  12   2.0000     -10.181831      -277.0617
  13   2.0000      -1.050198       -28.5773
  14   2.0000      -1.036932       -28.2164
  15   2.0000      -1.007401       -27.4128
  16   2.0000      -0.991533       -26.9810
  17   2.0000      -0.788288       -21.4504
  18   2.0000      -0.781353       -21.2617
  19   2.0000      -0.768039       -20.8994
  20   2.0000      -0.729186       -19.8422
  21   2.0000      -0.674690       -18.3593
  22   2.0000      -0.606018       -16.4906
  23   2.0000      -0.595515       -16.2048
  24   2.0000      -0.592143       -16.1130
  25   2.0000      -0.585048       -15.9200
  26   2.0000      -0.525673       -14.3043
  27   2.0000      -0.512396       -13.9430
  28   2.0000      -0.495584       -13.4855
  29   2.0000      -0.487181       -13.2569
  30   2.0000      -0.474773       -12.9192
  31   2.0000      -0.458640       -12.4802
  32   2.0000      -0.452686       -12.3182
  33   2.0000      -0.437516       -11.9054
  34   2.0000      -0.430269       -11.7082
  35   2.0000      -0.406606       -11.0643
  36   2.0000      -0.398579       -10.8459
  37   2.0000      -0.394682       -10.7398
  38   2.0000      -0.374015       -10.1775
  39   2.0000      -0.372194       -10.1279
  40   2.0000      -0.360381        -9.8065
  41   2.0000      -0.354363        -9.6427
  42   2.0000      -0.349699        -9.5158
  43   2.0000      -0.331563        -9.0223
  44   2.0000      -0.311240        -8.4693
  45   2.0000      -0.310446        -8.4477
  46   2.0000      -0.302385        -8.2283
  47   2.0000      -0.272956        -7.4275
  48   2.0000      -0.260795        -7.0966
  49   2.0000      -0.252696        -6.8762
  50   2.0000      -0.237575        -6.4647
  51   0.0000       0.065666         1.7869
  52   0.0000       0.081361         2.2140
  53   0.0000       0.087437         2.3793
  54   0.0000       0.096086         2.6146
  55   0.0000       0.099731         2.7138

MULLIKEN ATOMIC CHARGES
-----------------------
   0 C :    0.282622
   1 C :   -0.254310
   2 C :   -0.300239
   3 C :   -0.000563
   4 O :   -0.501645
   5 H :    0.136439
   6 H :    0.140800
   7 H :    0.142033
   8 H :    0.139766
   9 H :    0.168050
  10 H :    0.155686
  11 H :    0.139145
  12 C :   -0.001197
  13 H :    0.123148
  14 H :    0.138937
  15 O :   -0.501577
  16 C :    0.071545
  17 C :    0.078500
  18 C :   -0.298546
  19 C :   -0.026639
  20 O :   -0.508146
  21 H :    0.159699
  22 O :   -0.602625
  23 H :    0.148194
  24 H :    0.162555
  25 H :    0.144897
  26 H :    0.153537
  27 H :    0.143720
  28 H :    0.366215
Sum of atomic charges:    0.0000000

LOEWDIN ATOMIC CHARGES
----------------------
   0 C :    0.176573
   1 C :   -0.224284
   2 C :   -0.216644
   3 C :   -0.025290
   4 O :   -0.311168
   5 H :    0.096704
   6 H :    0.111277
   7 H :    0.115309
   8 H :    0.113404
   9 H :    0.122269
  10 H :    0.110147
  11 H :    0.100971
  12 C :   -0.039912
  13 H :    0.093194
  14 H :    0.098805
  15 O :   -0.325295
  16 C :    0.016842
  17 C :    0.034918
  18 C :   -0.241669
  19 C :   -0.037162
  20 O :   -0.319075
  21 H :    0.117285
  22 O :   -0.414326
  23 H :    0.113802
  24 H :    0.126624
  25 H :    0.113099
  26 H :    0.107816
  27 H :    0.101677
  28 H :    0.284110

  Mayer bond orders larger than 0.100000
B(  0-C ,  1-C ) :   0.9363 B(  0-C ,  4-O ) :   0.9367 B(  0-C ,  5-H ) :   0.9198
B(  0-C , 15-O ) :   0.8399 B(  1-C ,  2-C ) :   0.9564 B(  1-C ,  6-H ) :   0.9353
B(  1-C ,  7-H ) :   0.9389 B(  2-C ,  3-C ) :   0.9550 B(  2-C ,  8-H ) :   0.9451
B(  2-C ,  9-H ) :   0.9421 B(  3-C ,  4-O ) :   0.8360 B(  3-C , 10-H ) :   0.9342
B(  3-C , 11-H ) :   0.9398 B( 12-C , 13-H ) :   0.9113 B( 12-C , 14-H ) :   0.9174
B( 12-C , 15-O ) :   0.8465 B( 12-C , 16-C ) :   0.8997 B( 16-C , 17-C ) :   0.8986
B( 16-C , 20-O ) :   0.8705 B( 16-C , 21-H ) :   0.9244 B( 17-C , 18-C ) :   0.9117
B( 17-C , 22-O ) :   0.8944 B( 17-C , 23-H ) :   0.9336 B( 18-C , 19-C ) :   0.9403
B( 18-C , 24-H ) :   0.9375 B( 18-C , 25-H ) :   0.9338 B( 19-C , 20-O ) :   0.8491
B( 19-C , 26-H ) :   0.9335 B( 19-C , 27-H ) :   0.9383 B( 22-O , 28-H ) :   0.7934

FINAL SINGLE POINT ENERGY      -652.857669607874

DIPOLE MOMENT
-------------
                                X             Y             Z
Electronic contribution:     -1.75489      -0.50464       0.28354
Nuclear contribution   :      1.98352       0.42980      -0.71905
                        -----------------------------------------
Total Dipole Moment    :      0.22863      -0.07484      -0.43550
                        -----------------------------------------
Magnitude (a.u.)       :      0.49753
Magnitude (Debye)      :      1.26461

Rotational constants in cm-1:     0.063794     0.011280     0.010866
Rotational constants in MHz :  1912.510439   338.159676   325.741218

                             ****ORCA TERMINATED NORMALLY****
TOTAL RUN TIME: 0 days 0 hours 30 minutes 51 seconds 887 msec
