                         Program Version 4.2.0 -  RELEASE  -
|  1> # Test redundant internal optimization
|  2> #
|  3> ! RKS B3LYP  Opt TightSCF SmallPrint
|  4>
|  5> %basis
|  6>         Basis "6-31G"
|  7> end
|  8>
|  9> %geom
| 10> Constraints
| 11> { D 4  0  15  12  315.0   C } # D for Dihedral angle
| 12> { D 0  15  12  16  210.0   C } # D for Dihedral angle
| 13> { D 0  4  3  2   C } # D for Dihedral angle
| 14> { D 4  3  2  1   C } # D for Dihedral angle
| 15> { D 3  2  1  0   C } # D for Dihedral angle
| 16> { D 2  1  0  4   C } # D for Dihedral angle
| 17> { D 1  0  4  3   C } # D for Dihedral angle
| 18> { D 16  20  19  18   C } # D for Dihedral angle
| 19> { D 20  19  18  17   C } # D for Dihedral angle
| 20> { D 19  18  17  16   C } # D for Dihedral angle
| 21> { D 18  17  16  20   C } # D for Dihedral angle
| 22> { D 17  16  20  19   C } # D for Dihedral angle
| 23> { D 15  12  16  20   C } # D for Dihedral angle
| 24> end
| 25> end
| 26>
| 27>
| 28> #%pal
| 29> #nprocs 8
| 30> #end
| 31>
| 32> * xyz 0 1
| 33> C  -21.048   26.222   46.251
| 34> C  -20.361   27.558   45.944
| 35> C  -20.329   28.222   47.341
| 36> C  -20.110   27.022   48.296
| 37> O  -20.473   25.807   47.535
| 38> H  -20.833   25.428   45.533
| 39> H  -19.344   27.382   45.576
| 40> H  -20.898   28.157   45.201
| 41> H  -19.543   28.978   47.434
| 42> H  -21.289   28.710   47.548
| 43> H  -20.733   27.082   49.195
| 44> H  -19.064   26.913   48.597
| 45> C  -23.319   25.255   47.135
| 46> H  -22.766   24.316   47.001
| 47> H  -23.363   25.476   48.209
| 48> O  -22.586   26.394   46.375
| 49> C  -24.775   25.040   46.636
| 50> C  -25.586   26.339   46.710
| 51> C  -25.099   27.084   45.444
| 52> C  -24.873   25.938   44.426
| 53> O  -24.783   24.689   45.213
| 54> H  -25.217   24.200   47.175
| 55> H  -26.656   26.117   46.640
| 56> O  -25.335   27.142   48.015
| 57> H  -25.819   27.826   45.084
| 58> H  -24.157   27.606   45.653
| 59> H  -23.952   26.066   43.848
| 60> H  -25.712   25.823   43.734
| 61> H  -24.269   27.375   48.105
| 62> *
| 63>
| 64>                          ****END OF INPUT****
 Total Charge           Charge          ....    0
 Multiplicity           Mult            ....    1
 Number of Electrons    NEL             ....  102
FINAL SINGLE POINT ENERGY      -652.838089172883
FINAL SINGLE POINT ENERGY      -652.861844274526
FINAL SINGLE POINT ENERGY      -652.866235160506
FINAL SINGLE POINT ENERGY      -652.867532806149
FINAL SINGLE POINT ENERGY      -652.867643901548
FINAL SINGLE POINT ENERGY      -652.867661727365
                    ***********************HURRAY********************

CARTESIAN COORDINATES (ANGSTROEM)
---------------------------------
  C    -21.062919   26.153549   46.299564
  C    -20.435351   27.508527   45.974614
  C    -20.385578   28.174525   47.367284
  C    -20.096782   26.990439   48.316722
  O    -20.446291   25.763344   47.548442
  H    -20.852902   25.340746   45.597674
  H    -19.427681   27.348774   45.575470
  H    -21.020075   28.073202   45.245142
  H    -19.620845   28.954475   47.433802
  H    -21.355720   28.626720   47.595137
  H    -20.691778   27.014967   49.233288
  H    -19.038383   26.902325   48.577377
  C    -23.202602   25.278930   47.144422
  H    -22.669979   24.328019   47.024536
  H    -23.227382   25.520874   48.213127
  O    -22.495949   26.329388   46.408828
  C    -24.624176   25.114781   46.617307
  C    -25.517702   26.363931   46.717067
  C    -25.145595   27.130154   45.410129
  C    -24.899368   25.983827   44.405496
  O    -24.685568   24.752234   45.208175
  H    -25.064944   24.275182   47.168953
  H    -26.569762   26.072215   46.720941
  O    -25.336371   27.132491   47.931721
  H    -25.942891   27.808499   45.091611
  H    -24.230223   27.700802   45.583067
  H    -24.017197   26.153100   43.781311
  H    -25.765279   25.795566   43.762692
  H    -24.462708   27.575412   47.900100

 Multiplicity           Mult            ....    1
 Number of Electrons    NEL             ....  102
 Basis Dimension        Dim             ....  149

ORBITAL ENERGIES
----------------

  NO   OCC          E(Eh)            E(eV)
   0   2.0000     -19.151168      -521.1298
   1   2.0000     -19.149718      -521.0903
   2   2.0000     -19.138300      -520.7796
   3   2.0000     -19.131327      -520.5899
   4   2.0000     -10.284409      -279.8530
   5   2.0000     -10.234333      -278.4904
   6   2.0000     -10.233501      -278.4677
   7   2.0000     -10.227700      -278.3099
   8   2.0000     -10.226792      -278.2852
   9   2.0000     -10.220376      -278.1106
  10   2.0000     -10.194303      -277.4011
  11   2.0000     -10.192950      -277.3643
  12   2.0000     -10.177810      -276.9523
  13   2.0000      -1.061289       -28.8791
  14   2.0000      -1.025385       -27.9021
  15   2.0000      -1.007877       -27.4257
  16   2.0000      -0.996780       -27.1238
  17   2.0000      -0.796526       -21.6746
  18   2.0000      -0.771073       -20.9820
  19   2.0000      -0.764056       -20.7910
  20   2.0000      -0.734397       -19.9840
  21   2.0000      -0.675441       -18.3797
  22   2.0000      -0.607457       -16.5298
  23   2.0000      -0.599807       -16.3216
  24   2.0000      -0.596706       -16.2372
  25   2.0000      -0.567227       -15.4350
  26   2.0000      -0.527166       -14.3449
  27   2.0000      -0.511832       -13.9277
  28   2.0000      -0.497606       -13.5405
  29   2.0000      -0.491588       -13.3768
  30   2.0000      -0.466714       -12.6999
  31   2.0000      -0.459777       -12.5112
  32   2.0000      -0.446572       -12.1518
  33   2.0000      -0.424973       -11.5641
  34   2.0000      -0.421029       -11.4568
  35   2.0000      -0.415831       -11.3153
  36   2.0000      -0.402420       -10.9504
  37   2.0000      -0.397687       -10.8216
  38   2.0000      -0.383980       -10.4486
  39   2.0000      -0.366210        -9.9651
  40   2.0000      -0.363362        -9.8876
  41   2.0000      -0.356111        -9.6903
  42   2.0000      -0.351089        -9.5536
  43   2.0000      -0.335785        -9.1372
  44   2.0000      -0.321510        -8.7487
  45   2.0000      -0.306999        -8.3539
  46   2.0000      -0.302958        -8.2439
  47   2.0000      -0.272860        -7.4249
  48   2.0000      -0.264045        -7.1850
  49   2.0000      -0.258474        -7.0334
  50   2.0000      -0.236807        -6.4438
  51   0.0000       0.054130         1.4729
  52   0.0000       0.084231         2.2920
  53   0.0000       0.091763         2.4970
  54   0.0000       0.099111         2.6970
  55   0.0000       0.105160         2.8616

MULLIKEN ATOMIC CHARGES
-----------------------
   0 C :    0.295490
   1 C :   -0.264985
   2 C :   -0.299521
   3 C :   -0.010084
   4 O :   -0.511179
   5 H :    0.158387
   6 H :    0.150277
   7 H :    0.156700
   8 H :    0.147296
   9 H :    0.149816
  10 H :    0.147492
  11 H :    0.149440
  12 C :   -0.014889
  13 H :    0.159612
  14 H :    0.144746
  15 O :   -0.547190
  16 C :    0.088226
  17 C :    0.084553
  18 C :   -0.314315
  19 C :   -0.001670
  20 O :   -0.521977
  21 H :    0.149908
  22 H :    0.161421
  23 O :   -0.607036
  24 H :    0.142855
  25 H :    0.163322
  26 H :    0.141045
  27 H :    0.140805
  28 H :    0.361455
Sum of atomic charges:    0.0000000

LOEWDIN ATOMIC CHARGES
----------------------
   0 C :    0.176222
   1 C :   -0.214866
   2 C :   -0.216490
   3 C :   -0.029745
   4 O :   -0.325674
   5 H :    0.102931
   6 H :    0.117180
   7 H :    0.123511
   8 H :    0.116614
   9 H :    0.112293
  10 H :    0.105099
  11 H :    0.106391
  12 C :   -0.046242
  13 H :    0.114769
  14 H :    0.104671
  15 O :   -0.343187
  16 C :    0.016728
  17 C :    0.036999
  18 C :   -0.244237
  19 C :   -0.025419
  20 O :   -0.323738
  21 H :    0.114568
  22 H :    0.116027
  23 O :   -0.412017
  24 H :    0.114302
  25 H :    0.120387
  26 H :    0.102509
  27 H :    0.100369
  28 H :    0.280045

  Mayer bond orders larger than 0.100000
B(  0-C ,  1-C ) :   0.9499 B(  0-C ,  4-O ) :   0.9000 B(  0-C ,  5-H ) :   0.9196
B(  0-C , 15-O ) :   0.8448 B(  1-C ,  2-C ) :   0.9532 B(  1-C ,  6-H ) :   0.9381
B(  1-C ,  7-H ) :   0.9363 B(  2-C ,  3-C ) :   0.9550 B(  2-C ,  8-H ) :   0.9446
B(  2-C ,  9-H ) :   0.9464 B(  3-C ,  4-O ) :   0.8345 B(  3-C , 10-H ) :   0.9350
B(  3-C , 11-H ) :   0.9400 B( 12-C , 13-H ) :   0.9210 B( 12-C , 14-H ) :   0.9104
B( 12-C , 15-O ) :   0.8131 B( 12-C , 16-C ) :   0.9092 B( 16-C , 17-C ) :   0.8871
B( 16-C , 20-O ) :   0.8756 B( 16-C , 21-H ) :   0.9278 B( 17-C , 18-C ) :   0.9324
B( 17-C , 22-H ) :   0.9361 B( 17-C , 23-O ) :   0.9004 B( 18-C , 19-C ) :   0.9472
B( 18-C , 24-H ) :   0.9412 B( 18-C , 25-H ) :   0.9268 B( 19-C , 20-O ) :   0.8397
B( 19-C , 26-H ) :   0.9331 B( 19-C , 27-H ) :   0.9373 B( 23-O , 28-H ) :   0.7929

FINAL SINGLE POINT ENERGY      -652.867662373775

DIPOLE MOMENT
-------------
                                X             Y             Z
Electronic contribution:     -2.28013      -4.34455       0.52421
Nuclear contribution   :      3.11949       5.36315      -0.71892
                        -----------------------------------------
Total Dipole Moment    :      0.83937       1.01861      -0.19471
                        -----------------------------------------
Magnitude (a.u.)       :      1.33417
Magnitude (Debye)      :      3.39119

Rotational constants in cm-1:     0.047490     0.015585     0.014899
Rotational constants in MHz :  1423.719570   467.227824   446.647915

                             ****ORCA TERMINATED NORMALLY****
TOTAL RUN TIME: 0 days 0 hours 20 minutes 43 seconds 132 msec
