                         Program Version 4.2.0 -  RELEASE  -
|  1> # Test redundant internal optimization
|  2> #
|  3> ! RKS B3LYP  Opt TightSCF SmallPrint
|  4>
|  5> %basis
|  6>         Basis "6-31G"
|  7> end
|  8>
|  9> %geom
| 10> Constraints
| 11> { D 4  0  15  12  180.0   C } # D for Dihedral angle
| 12> { D 0  15  12  16  90.0   C } # D for Dihedral angle
| 13> { D 0  4  3  2   C } # D for Dihedral angle
| 14> { D 4  3  2  1   C } # D for Dihedral angle
| 15> { D 3  2  1  0   C } # D for Dihedral angle
| 16> { D 2  1  0  4   C } # D for Dihedral angle
| 17> { D 1  0  4  3   C } # D for Dihedral angle
| 18> { D 16  20  19  18   C } # D for Dihedral angle
| 19> { D 20  19  18  17   C } # D for Dihedral angle
| 20> { D 19  18  17  16   C } # D for Dihedral angle
| 21> { D 18  17  16  20   C } # D for Dihedral angle
| 22> { D 17  16  20  19   C } # D for Dihedral angle
| 23> { D 15  12  16  20   C } # D for Dihedral angle
| 24> end
| 25> end
| 26>
| 27>
| 28> #%pal
| 29> #nprocs 8
| 30> #end
| 31>
| 32> * xyz 0 1
| 33> C  -21.048   26.222   46.251
| 34> C  -20.361   27.558   45.944
| 35> C  -20.329   28.222   47.341
| 36> C  -20.110   27.022   48.296
| 37> O  -20.473   25.807   47.535
| 38> H  -20.833   25.428   45.533
| 39> H  -19.344   27.382   45.576
| 40> H  -20.898   28.157   45.201
| 41> H  -19.543   28.978   47.434
| 42> H  -21.289   28.710   47.548
| 43> H  -20.733   27.082   49.195
| 44> H  -19.064   26.913   48.597
| 45> C  -23.309   26.834   45.072
| 46> H  -24.192   27.431   45.332
| 47> H  -22.645   27.453   44.455
| 48> O  -22.586   26.394   46.375
| 49> C  -23.771   25.629   44.206
| 50> C  -24.836   24.799   44.931
| 51> C  -26.107   25.650   44.702
| 52> C  -25.889   26.233   43.283
| 53> O  -24.445   26.100   42.992
| 54> H  -22.895   25.062   43.886
| 55> O  -24.977   23.407   44.255
| 56> H  -24.613   24.644   45.993
| 57> H  -27.029   25.064   44.775
| 58> H  -26.161   26.453   45.446
| 59> H  -26.173   27.288   43.215
| 60> H  -26.426   25.672   42.514
| 61> H  -25.202   23.537   43.189
| 62> *
| 63>
| 64>                          ****END OF INPUT****
 Total Charge           Charge          ....    0
 Multiplicity           Mult            ....    1
 Number of Electrons    NEL             ....  102
FINAL SINGLE POINT ENERGY      -652.834541952477
FINAL SINGLE POINT ENERGY      -652.856671179260
FINAL SINGLE POINT ENERGY      -652.860177059663
FINAL SINGLE POINT ENERGY      -652.860775700442
FINAL SINGLE POINT ENERGY      -652.860879933904
FINAL SINGLE POINT ENERGY      -652.860893372149
FINAL SINGLE POINT ENERGY      -652.860895930199
                    ***********************HURRAY********************

CARTESIAN COORDINATES (ANGSTROEM)
---------------------------------
  C    -21.099802   26.223794   46.150161
  C    -20.324887   27.516076   45.900254
  C    -20.370811   28.194462   47.292559
  C    -20.293274   26.994323   48.257933
  O    -20.662541   25.803828   47.447410
  H    -20.890173   25.408097   45.452370
  H    -19.295300   27.261449   45.622812
  H    -20.741510   28.142281   45.107231
  H    -19.550152   28.902965   47.439245
  H    -21.317080   28.729652   47.414688
  H    -20.986277   27.069821   49.099173
  H    -19.282043   26.813068   48.633371
  C    -23.248924   26.888701   45.050932
  H    -24.084543   27.497617   45.408897
  H    -22.624219   27.518985   44.406957
  O    -22.543887   26.448840   46.247742
  C    -23.753083   25.693606   44.235687
  C    -24.781333   24.807404   44.952615
  C    -26.084393   25.621630   44.759185
  C    -25.907161   26.249286   43.353615
  O    -24.457010   26.173969   43.039014
  H    -22.908195   25.092882   43.884258
  O    -24.862459   23.497279   44.325699
  H    -24.526272   24.623133   45.995027
  H    -26.959310   24.970235   44.827107
  H    -26.171853   26.392076   45.532855
  H    -26.225540   27.295316   43.310231
  H    -26.434170   25.691873   42.573257
  H    -24.894800   23.608351   43.351714

 Multiplicity           Mult            ....    1
 Number of Electrons    NEL             ....  102
 Basis Dimension        Dim             ....  149

ORBITAL ENERGIES
----------------

  NO   OCC          E(Eh)            E(eV)
   0   2.0000     -19.145916      -520.9869
   1   2.0000     -19.144347      -520.9442
   2   2.0000     -19.142033      -520.8812
   3   2.0000     -19.133830      -520.6580
   4   2.0000     -10.282324      -279.7963
   5   2.0000     -10.234625      -278.4983
   6   2.0000     -10.233191      -278.4593
   7   2.0000     -10.232956      -278.4529
   8   2.0000     -10.232851      -278.4500
   9   2.0000     -10.226299      -278.2718
  10   2.0000     -10.190519      -277.2981
  11   2.0000     -10.189099      -277.2595
  12   2.0000     -10.187764      -277.2231
  13   2.0000      -1.054953       -28.7067
  14   2.0000      -1.035827       -28.1863
  15   2.0000      -1.003834       -27.3157
  16   2.0000      -0.995455       -27.0877
  17   2.0000      -0.789154       -21.4740
  18   2.0000      -0.779394       -21.2084
  19   2.0000      -0.767433       -20.8829
  20   2.0000      -0.734185       -19.9782
  21   2.0000      -0.677999       -18.4493
  22   2.0000      -0.604724       -16.4554
  23   2.0000      -0.602755       -16.4018
  24   2.0000      -0.600351       -16.3364
  25   2.0000      -0.572928       -15.5902
  26   2.0000      -0.523799       -14.2533
  27   2.0000      -0.517021       -14.0689
  28   2.0000      -0.495538       -13.4843
  29   2.0000      -0.494986       -13.4693
  30   2.0000      -0.471235       -12.8230
  31   2.0000      -0.460463       -12.5298
  32   2.0000      -0.454904       -12.3786
  33   2.0000      -0.438304       -11.9269
  34   2.0000      -0.424911       -11.5624
  35   2.0000      -0.410147       -11.1607
  36   2.0000      -0.406921       -11.0729
  37   2.0000      -0.392144       -10.6708
  38   2.0000      -0.378250       -10.2927
  39   2.0000      -0.367893       -10.0109
  40   2.0000      -0.362704        -9.8697
  41   2.0000      -0.357791        -9.7360
  42   2.0000      -0.355685        -9.6787
  43   2.0000      -0.331167        -9.0115
  44   2.0000      -0.316604        -8.6152
  45   2.0000      -0.308510        -8.3950
  46   2.0000      -0.302590        -8.2339
  47   2.0000      -0.275564        -7.4985
  48   2.0000      -0.262378        -7.1397
  49   2.0000      -0.259554        -7.0628
  50   2.0000      -0.240065        -6.5325
  51   0.0000       0.064032         1.7424
  52   0.0000       0.073244         1.9931
  53   0.0000       0.094656         2.5757
  54   0.0000       0.098479         2.6797
  55   0.0000       0.100248         2.7279

MULLIKEN ATOMIC CHARGES
-----------------------
   0 C :    0.301698
   1 C :   -0.282094
   2 C :   -0.296943
   3 C :   -0.000872
   4 O :   -0.499855
   5 H :    0.147560
   6 H :    0.150377
   7 H :    0.146410
   8 H :    0.143317
   9 H :    0.158004
  10 H :    0.155088
  11 H :    0.143201
  12 C :   -0.036974
  13 H :    0.149961
  14 H :    0.142493
  15 O :   -0.509566
  16 C :    0.058751
  17 C :    0.090813
  18 C :   -0.303688
  19 C :   -0.031664
  20 O :   -0.527579
  21 H :    0.155892
  22 O :   -0.600560
  23 H :    0.181636
  24 H :    0.162478
  25 H :    0.149145
  26 H :    0.144716
  27 H :    0.148427
  28 H :    0.359825
Sum of atomic charges:    0.0000000

LOEWDIN ATOMIC CHARGES
----------------------
   0 C :    0.181208
   1 C :   -0.232019
   2 C :   -0.216405
   3 C :   -0.024681
   4 O :   -0.300982
   5 H :    0.098804
   6 H :    0.117293
   7 H :    0.114589
   8 H :    0.114953
   9 H :    0.116681
  10 H :    0.110026
  11 H :    0.103350
  12 C :   -0.047617
  13 H :    0.109859
  14 H :    0.102068
  15 O :   -0.334437
  16 C :    0.006085
  17 C :    0.037931
  18 C :   -0.242385
  19 C :   -0.038593
  20 O :   -0.333543
  21 H :    0.111424
  22 O :   -0.413206
  23 H :    0.130462
  24 H :    0.127089
  25 H :    0.115539
  26 H :    0.103294
  27 H :    0.103290
  28 H :    0.279925

  Mayer bond orders larger than 0.100000
B(  0-C ,  1-C ) :   0.9302 B(  0-C ,  4-O ) :   0.9420 B(  0-C ,  5-H ) :   0.9199
B(  0-C , 15-O ) :   0.8262 B(  1-C ,  2-C ) :   0.9496 B(  1-C ,  6-H ) :   0.9336
B(  1-C ,  7-H ) :   0.9294 B(  2-C ,  3-C ) :   0.9563 B(  2-C ,  8-H ) :   0.9449
B(  2-C ,  9-H ) :   0.9453 B(  3-C ,  4-O ) :   0.8338 B(  3-C , 10-H ) :   0.9345
B(  3-C , 11-H ) :   0.9397 B( 12-C , 13-H ) :   0.9384 B( 12-C , 14-H ) :   0.9123
B( 12-C , 15-O ) :   0.8483 B( 12-C , 16-C ) :   0.8765 B( 16-C , 17-C ) :   0.9119
B( 16-C , 20-O ) :   0.8410 B( 16-C , 21-H ) :   0.9282 B( 17-C , 18-C ) :   0.9131
B( 17-C , 22-O ) :   0.8897 B( 17-C , 23-H ) :   0.9223 B( 18-C , 19-C ) :   0.9429
B( 18-C , 24-H ) :   0.9379 B( 18-C , 25-H ) :   0.9339 B( 19-C , 20-O ) :   0.8422
B( 19-C , 26-H ) :   0.9358 B( 19-C , 27-H ) :   0.9377 B( 22-O , 28-H ) :   0.7976

FINAL SINGLE POINT ENERGY      -652.860895805785

DIPOLE MOMENT
-------------
                                X             Y             Z
Electronic contribution:     -0.48812      -4.91450      -1.08563
Nuclear contribution   :      0.52367       6.33252       0.80555
                        -----------------------------------------
Total Dipole Moment    :      0.03555       1.41802      -0.28009
                        -----------------------------------------
Magnitude (a.u.)       :      1.44585
Magnitude (Debye)      :      3.67506

Rotational constants in cm-1:     0.062016     0.012007     0.011226
Rotational constants in MHz :  1859.195343   359.963764   336.557428

                             ****ORCA TERMINATED NORMALLY****
TOTAL RUN TIME: 0 days 0 hours 29 minutes 26 seconds 761 msec
