                         Program Version 4.2.0 -  RELEASE  -
|  1> # Test redundant internal optimization
|  2> #
|  3> ! RKS B3LYP  Opt TightSCF SmallPrint
|  4>
|  5> %basis
|  6>         Basis "6-31G"
|  7> end
|  8>
|  9> %geom
| 10> Constraints
| 11> { D 4  0  15  12  315.0   C } # D for Dihedral angle
| 12> { D 0  15  12  16  105.0   C } # D for Dihedral angle
| 13> { D 0  4  3  2   C } # D for Dihedral angle
| 14> { D 4  3  2  1   C } # D for Dihedral angle
| 15> { D 3  2  1  0   C } # D for Dihedral angle
| 16> { D 2  1  0  4   C } # D for Dihedral angle
| 17> { D 1  0  4  3   C } # D for Dihedral angle
| 18> { D 16  20  19  18   C } # D for Dihedral angle
| 19> { D 20  19  18  17   C } # D for Dihedral angle
| 20> { D 19  18  17  16   C } # D for Dihedral angle
| 21> { D 18  17  16  20   C } # D for Dihedral angle
| 22> { D 17  16  20  19   C } # D for Dihedral angle
| 23> { D 15  12  16  20   C } # D for Dihedral angle
| 24> end
| 25> end
| 26>
| 27>
| 28> #%pal
| 29> #nprocs 8
| 30> #end
| 31>
| 32> * xyz 0 1
| 33> C  -21.048   26.222   46.251
| 34> C  -20.361   27.558   45.944
| 35> C  -20.329   28.222   47.341
| 36> C  -20.110   27.022   48.296
| 37> O  -20.473   25.807   47.535
| 38> H  -20.833   25.428   45.533
| 39> H  -19.344   27.382   45.576
| 40> H  -20.898   28.157   45.201
| 41> H  -19.543   28.978   47.434
| 42> H  -21.289   28.710   47.548
| 43> H  -20.733   27.082   49.195
| 44> H  -19.064   26.913   48.597
| 45> C  -23.319   25.255   47.135
| 46> H  -24.215   24.963   46.574
| 47> H  -22.670   24.374   47.226
| 48> O  -22.586   26.394   46.375
| 49> C  -23.753   25.671   48.568
| 50> C  -22.560   26.178   49.386
| 51> C  -22.402   27.620   48.849
| 52> C  -23.863   28.056   48.575
| 53> O  -24.668   26.816   48.513
| 54> H  -24.300   24.847   49.029
| 55> O  -22.919   26.193   50.897
| 56> H  -21.657   25.573   49.251
| 57> H  -21.894   28.284   49.556
| 58> H  -21.820   27.614   47.919
| 59> H  -23.969   28.601   47.631
| 60> H  -24.275   28.667   49.384
| 61> H  -23.821   26.793   51.056
| 62> *
| 63>
| 64>                          ****END OF INPUT****
 Total Charge           Charge          ....    0
 Multiplicity           Mult            ....    1
 Number of Electrons    NEL             ....  102
FINAL SINGLE POINT ENERGY      -652.738374093300
FINAL SINGLE POINT ENERGY      -652.821463162803
FINAL SINGLE POINT ENERGY      -652.844600455698
FINAL SINGLE POINT ENERGY      -652.851838210768
FINAL SINGLE POINT ENERGY      -652.853147912435
FINAL SINGLE POINT ENERGY      -652.853483994569
FINAL SINGLE POINT ENERGY      -652.853527027419
FINAL SINGLE POINT ENERGY      -652.853533777604
FINAL SINGLE POINT ENERGY      -652.853534564489
FINAL SINGLE POINT ENERGY      -652.853531378603
                    ***********************HURRAY********************

CARTESIAN COORDINATES (ANGSTROEM)
---------------------------------
  C    -20.993079   26.191051   46.304819
  C    -20.279581   27.395920   45.684895
  C    -19.981374   28.264900   46.932269
  C    -19.690620   27.214302   48.032077
  O    -20.260689   25.932089   47.523606
  H    -20.820449   25.272417   45.726534
  H    -19.354361   27.048275   45.215492
  H    -20.894702   27.904994   44.940123
  H    -19.133916   28.941058   46.783417
  H    -20.857230   28.875262   47.178131
  H    -20.115600   27.447043   49.008082
  H    -18.617741   27.034986   48.152890
  C    -23.186265   25.379184   47.133166
  H    -24.037186   25.123207   46.493489
  H    -22.573588   24.475749   47.266753
  O    -22.438204   26.353781   46.331413
  C    -23.782604   25.749365   48.497462
  C    -22.853730   26.165927   49.644639
  C    -22.702207   27.689293   49.395945
  C    -24.101694   28.086516   48.855052
  O    -24.752122   26.841468   48.412838
  H    -24.347353   24.857358   48.798743
  O    -23.473638   25.887245   50.932099
  H    -21.905040   25.631187   49.649473
  H    -22.423148   28.218492   50.310414
  H    -21.963053   27.870771   48.623850
  H    -24.038141   28.773294   48.005386
  H    -24.742911   28.534180   49.622279
  H    -24.395775   26.220688   50.919664

 Multiplicity           Mult            ....    1
 Number of Electrons    NEL             ....  102
 Basis Dimension        Dim             ....  149

ORBITAL ENERGIES
----------------

  NO   OCC          E(Eh)            E(eV)
   0   2.0000     -19.157293      -521.2965
   1   2.0000     -19.151447      -521.1374
   2   2.0000     -19.138037      -520.7725
   3   2.0000     -19.134445      -520.6747
   4   2.0000     -10.282759      -279.8081
   5   2.0000     -10.235638      -278.5259
   6   2.0000     -10.234079      -278.4834
   7   2.0000     -10.233059      -278.4557
   8   2.0000     -10.230730      -278.3923
   9   2.0000     -10.225289      -278.2443
  10   2.0000     -10.196958      -277.4733
  11   2.0000     -10.193176      -277.3704
  12   2.0000     -10.181570      -277.0546
  13   2.0000      -1.056405       -28.7462
  14   2.0000      -1.034015       -28.1370
  15   2.0000      -1.005242       -27.3540
  16   2.0000      -0.999567       -27.1996
  17   2.0000      -0.796389       -21.6709
  18   2.0000      -0.777645       -21.1608
  19   2.0000      -0.766579       -20.8597
  20   2.0000      -0.739105       -20.1121
  21   2.0000      -0.676449       -18.4071
  22   2.0000      -0.609686       -16.5904
  23   2.0000      -0.600777       -16.3480
  24   2.0000      -0.599799       -16.3214
  25   2.0000      -0.573796       -15.6138
  26   2.0000      -0.524618       -14.2756
  27   2.0000      -0.510219       -13.8838
  28   2.0000      -0.503756       -13.7079
  29   2.0000      -0.489665       -13.3245
  30   2.0000      -0.470626       -12.8064
  31   2.0000      -0.462549       -12.5866
  32   2.0000      -0.447562       -12.1788
  33   2.0000      -0.444356       -12.0916
  34   2.0000      -0.417474       -11.3601
  35   2.0000      -0.414891       -11.2898
  36   2.0000      -0.410972       -11.1831
  37   2.0000      -0.388647       -10.5756
  38   2.0000      -0.373044       -10.1510
  39   2.0000      -0.368391       -10.0244
  40   2.0000      -0.365953        -9.9581
  41   2.0000      -0.358702        -9.7608
  42   2.0000      -0.352752        -9.5989
  43   2.0000      -0.339139        -9.2284
  44   2.0000      -0.327199        -8.9035
  45   2.0000      -0.308625        -8.3981
  46   2.0000      -0.301496        -8.2041
  47   2.0000      -0.271050        -7.3757
  48   2.0000      -0.270637        -7.3644
  49   2.0000      -0.264709        -7.2031
  50   2.0000      -0.237741        -6.4693
  51   0.0000       0.064410         1.7527
  52   0.0000       0.079328         2.1586
  53   0.0000       0.092337         2.5126
  54   0.0000       0.099908         2.7186
  55   0.0000       0.105954         2.8832

MULLIKEN ATOMIC CHARGES
-----------------------
   0 C :    0.297379
   1 C :   -0.267061
   2 C :   -0.317812
   3 C :   -0.024896
   4 O :   -0.514302
   5 H :    0.147652
   6 H :    0.153225
   7 H :    0.164791
   8 H :    0.149231
   9 H :    0.163256
  10 H :    0.154224
  11 H :    0.152008
  12 C :   -0.013785
  13 H :    0.163707
  14 H :    0.138850
  15 O :   -0.520032
  16 C :    0.074357
  17 C :    0.070294
  18 C :   -0.307274
  19 C :   -0.025662
  20 O :   -0.524869
  21 H :    0.154932
  22 O :   -0.604510
  23 H :    0.172911
  24 H :    0.150904
  25 H :    0.159656
  26 H :    0.151319
  27 H :    0.138567
  28 H :    0.362941
Sum of atomic charges:   -0.0000000

LOEWDIN ATOMIC CHARGES
----------------------
   0 C :    0.169849
   1 C :   -0.211562
   2 C :   -0.220309
   3 C :   -0.039279
   4 O :   -0.325199
   5 H :    0.091086
   6 H :    0.119155
   7 H :    0.128377
   8 H :    0.118120
   9 H :    0.114193
  10 H :    0.106350
  11 H :    0.107508
  12 C :   -0.041068
  13 H :    0.119581
  14 H :    0.106084
  15 O :   -0.328769
  16 C :    0.008869
  17 C :    0.034771
  18 C :   -0.245618
  19 C :   -0.035458
  20 O :   -0.328969
  21 H :    0.118196
  22 O :   -0.417091
  23 H :    0.124814
  24 H :    0.121305
  25 H :    0.120632
  26 H :    0.106159
  27 H :    0.096775
  28 H :    0.281500

  Mayer bond orders larger than 0.100000
B(  0-C ,  1-C ) :   0.9371 B(  0-C ,  4-O ) :   0.8901 B(  0-C ,  5-H ) :   0.9266
B(  0-C , 15-O ) :   0.8747 B(  1-C ,  2-C ) :   0.9576 B(  1-C ,  6-H ) :   0.9395
B(  1-C ,  7-H ) :   0.9356 B(  2-C ,  3-C ) :   0.9527 B(  2-C ,  8-H ) :   0.9434
B(  2-C ,  9-H ) :   0.9356 B(  3-C ,  4-O ) :   0.8298 B(  3-C , 10-H ) :   0.9189
B(  3-C , 11-H ) :   0.9388 B( 12-C , 13-H ) :   0.9301 B( 12-C , 14-H ) :   0.9106
B( 12-C , 15-O ) :   0.8538 B( 12-C , 16-C ) :   0.8977 B( 16-C , 17-C ) :   0.9087
B( 16-C , 20-O ) :   0.8626 B( 16-C , 21-H ) :   0.9136 B( 17-C , 18-C ) :   0.9231
B( 17-C , 22-O ) :   0.8826 B( 17-C , 23-H ) :   0.9225 B( 18-C , 19-C ) :   0.9399
B( 18-C , 24-H ) :   0.9388 B( 18-C , 25-H ) :   0.9022 B( 19-C , 20-O ) :   0.8445
B( 19-C , 26-H ) :   0.9335 B( 19-C , 27-H ) :   0.9366 B( 22-O , 28-H ) :   0.7958

FINAL SINGLE POINT ENERGY      -652.853530048712

DIPOLE MOMENT
-------------
                                X             Y             Z
Electronic contribution:     -4.01448      -4.04036       0.75501
Nuclear contribution   :      4.81682       4.80678      -1.17717
                        -----------------------------------------
Total Dipole Moment    :      0.80234       0.76643      -0.42216
                        -----------------------------------------
Magnitude (a.u.)       :      1.18717
Magnitude (Debye)      :      3.01755

Rotational constants in cm-1:     0.043658     0.018493     0.017056
Rotational constants in MHz :  1308.828819   554.401752   511.323749

                             ****ORCA TERMINATED NORMALLY****
TOTAL RUN TIME: 0 days 0 hours 32 minutes 33 seconds 214 msec
