                         Program Version 4.2.1 -  RELEASE  -
|  1> # Test redundant internal optimization
|  2> #
|  3> ! RKS B3LYP  Opt TightSCF SmallPrint
|  4>
|  5> %basis
|  6>         Basis "6-31G"
|  7> end
|  8>
|  9> %geom
| 10> Constraints
| 11> { D 4  0  19  14  240.0   C } # D for Dihedral angle
| 12> { D 0  19  14  12  315.0   C } # D for Dihedral angle
| 13> { D 0  4  3  2   C } # D for Dihedral angle
| 14> { D 4  3  2  1   C } # D for Dihedral angle
| 15> { D 3  2  1  0   C } # D for Dihedral angle
| 16> { D 2  1  0  4   C } # D for Dihedral angle
| 17> { D 1  0  4  3   C } # D for Dihedral angle
| 18> { D 14  15  16  17   C } # D for Dihedral angle
| 19> { D 15  16  17  12   C } # D for Dihedral angle
| 20> { D 16  17  12  14   C } # D for Dihedral angle
| 21> { D 17  12  14  15   C } # D for Dihedral angle
| 22> { D 12  14  15  16   C } # D for Dihedral angle
| 23> end
| 24> end
| 25>
| 26>
| 27> #%pal
| 28> #nprocs 8
| 29> #end
| 30>
| 31> * xyz 0 1
| 32> C  -21.048   26.222   46.251
| 33> C  -20.361   27.558   45.944
| 34> C  -20.329   28.222   47.341
| 35> C  -20.110   27.022   48.296
| 36> O  -20.473   25.807   47.535
| 37> H  -20.833   25.428   45.533
| 38> H  -19.344   27.382   45.576
| 39> H  -20.898   28.157   45.201
| 40> H  -19.543   28.978   47.434
| 41> H  -21.289   28.710   47.548
| 42> H  -20.733   27.082   49.195
| 43> H  -19.064   26.913   48.597
| 44> C  -22.630   25.540   44.087
| 45> H  -23.339   25.144   43.343
| 46> C  -23.235   25.530   45.496
| 47> C  -23.069   24.046   45.898
| 48> C  -21.727   23.649   45.233
| 49> O  -21.457   24.665   44.192
| 50> H  -22.271   26.516   43.756
| 51> O  -22.472   26.381   46.366
| 52> H  -24.279   25.861   45.517
| 53> H  -23.057   23.899   46.983
| 54> H  -23.893   23.449   45.489
| 55> H  -21.765   22.659   44.767
| 56> H  -20.888   23.677   45.936
| 57> *
| 58>
| 59>                          ****END OF INPUT****
 Total Charge           Charge          ....    0
 Multiplicity           Mult            ....    1
 Number of Electrons    NEL             ....   86
FINAL SINGLE POINT ENERGY      -538.411251859799
FINAL SINGLE POINT ENERGY      -538.430238135329
FINAL SINGLE POINT ENERGY      -538.432616679893
FINAL SINGLE POINT ENERGY      -538.433040467700
FINAL SINGLE POINT ENERGY      -538.433097459540
FINAL SINGLE POINT ENERGY      -538.433121939995
FINAL SINGLE POINT ENERGY      -538.433124329856
                    ***********************HURRAY********************

CARTESIAN COORDINATES (ANGSTROEM)
---------------------------------
  C    -20.800952   26.281219   46.247942
  C    -20.268434   27.696729   46.022717
  C    -20.407645   28.320089   47.433757
  C    -20.103167   27.126591   48.366345
  O    -20.270009   25.909289   47.535921
  H    -20.481986   25.539661   45.516971
  H    -19.215508   27.645179   45.720763
  H    -20.830459   28.235470   45.256766
  H    -19.725678   29.160308   47.593825
  H    -21.433776   28.669940   47.579639
  H    -20.783184   27.065857   49.220190
  H    -19.069744   27.122383   48.726612
  C    -22.669138   25.415459   44.012841
  H    -23.522394   25.125743   43.382975
  C    -23.092710   25.505829   45.483571
  C    -23.098633   24.017921   45.893933
  C    -21.925609   23.411737   45.088498
  O    -21.631458   24.374513   43.989694
  H    -22.225719   26.333405   43.622515
  O    -22.258803   26.352910   46.322702
  H    -24.084087   25.954625   45.590905
  H    -22.974194   23.911206   46.974211
  H    -24.052503   23.563485   45.603018
  H    -22.167558   22.441883   44.643389
  H    -21.013653   23.315569   45.684301

 Multiplicity           Mult            ....    1
 Number of Electrons    NEL             ....   86
 Basis Dimension        Dim             ....  127

ORBITAL ENERGIES
----------------

  NO   OCC          E(Eh)            E(eV)
   0   2.0000     -19.139720      -520.8183
   1   2.0000     -19.135323      -520.6986
   2   2.0000     -19.131976      -520.6075
   3   2.0000     -10.267694      -279.3982
   4   2.0000     -10.241454      -278.6841
   5   2.0000     -10.228719      -278.3376
   6   2.0000     -10.224795      -278.2308
   7   2.0000     -10.218564      -278.0613
   8   2.0000     -10.184738      -277.1408
   9   2.0000     -10.179023      -276.9853
  10   2.0000     -10.177922      -276.9553
  11   2.0000      -1.045675       -28.4543
  12   2.0000      -1.018034       -27.7021
  13   2.0000      -0.985086       -26.8055
  14   2.0000      -0.787394       -21.4261
  15   2.0000      -0.772769       -21.0281
  16   2.0000      -0.742284       -20.1986
  17   2.0000      -0.719433       -19.5768
  18   2.0000      -0.615502       -16.7487
  19   2.0000      -0.601575       -16.3697
  20   2.0000      -0.591233       -16.0883
  21   2.0000      -0.565303       -15.3827
  22   2.0000      -0.521550       -14.1921
  23   2.0000      -0.502229       -13.6663
  24   2.0000      -0.477477       -12.9928
  25   2.0000      -0.475911       -12.9502
  26   2.0000      -0.450332       -12.2541
  27   2.0000      -0.445875       -12.1329
  28   2.0000      -0.421347       -11.4654
  29   2.0000      -0.413018       -11.2388
  30   2.0000      -0.400945       -10.9103
  31   2.0000      -0.392688       -10.6856
  32   2.0000      -0.372518       -10.1367
  33   2.0000      -0.368216       -10.0197
  34   2.0000      -0.354747        -9.6532
  35   2.0000      -0.349399        -9.5076
  36   2.0000      -0.341791        -9.3006
  37   2.0000      -0.317896        -8.6504
  38   2.0000      -0.309620        -8.4252
  39   2.0000      -0.294662        -8.0181
  40   2.0000      -0.263109        -7.1595
  41   2.0000      -0.244295        -6.6476
  42   2.0000      -0.237909        -6.4738
  43   0.0000       0.077027         2.0960
  44   0.0000       0.096684         2.6309
  45   0.0000       0.100971         2.7476
  46   0.0000       0.106515         2.8984
  47   0.0000       0.118637         3.2283

MULLIKEN ATOMIC CHARGES
-----------------------
   0 C :    0.258639
   1 C :   -0.251288
   2 C :   -0.298031
   3 C :   -0.000235
   4 O :   -0.511911
   5 H :    0.186481
   6 H :    0.142708
   7 H :    0.142494
   8 H :    0.137069
   9 H :    0.160478
  10 H :    0.147344
  11 H :    0.138660
  12 C :   -0.032114
  13 H :    0.137870
  14 C :    0.083436
  15 C :   -0.290703
  16 C :   -0.030341
  17 O :   -0.522683
  18 H :    0.158794
  19 O :   -0.525886
  20 H :    0.147012
  21 H :    0.175990
  22 H :    0.139340
  23 H :    0.143882
  24 H :    0.162996
Sum of atomic charges:   -0.0000000

LOEWDIN ATOMIC CHARGES
----------------------
   0 C :    0.164150
   1 C :   -0.218555
   2 C :   -0.216868
   3 C :   -0.026964
   4 O :   -0.319999
   5 H :    0.119495
   6 H :    0.112115
   7 H :    0.115255
   8 H :    0.111905
   9 H :    0.118425
  10 H :    0.105373
  11 H :    0.100493
  12 C :   -0.054816
  13 H :    0.100705
  14 C :    0.042317
  15 C :   -0.236624
  16 C :   -0.038242
  17 O :   -0.338296
  18 H :    0.115303
  19 O :   -0.329422
  20 H :    0.113206
  21 H :    0.133551
  22 H :    0.113512
  23 H :    0.103816
  24 H :    0.110166

  Mayer bond orders larger than 0.100000
B(  0-C ,  1-C ) :   0.9425 B(  0-C ,  4-O ) :   0.9127 B(  0-C ,  5-H ) :   0.8882
B(  0-C , 19-O ) :   0.8189 B(  1-C ,  2-C ) :   0.9560 B(  1-C ,  6-H ) :   0.9381
B(  1-C ,  7-H ) :   0.9394 B(  2-C ,  3-C ) :   0.9551 B(  2-C ,  8-H ) :   0.9458
B(  2-C ,  9-H ) :   0.9437 B(  3-C ,  4-O ) :   0.8399 B(  3-C , 10-H ) :   0.9354
B(  3-C , 11-H ) :   0.9401 B( 12-C , 13-H ) :   0.9151 B( 12-C , 14-C ) :   0.9195
B( 12-C , 17-O ) :   0.8526 B( 12-C , 18-H ) :   0.9319 B( 14-C , 15-C ) :   0.9206
B( 14-C , 19-O ) :   0.8865 B( 14-C , 20-H ) :   0.9371 B( 15-C , 16-C ) :   0.9472
B( 15-C , 21-H ) :   0.9338 B( 15-C , 22-H ) :   0.9386 B( 16-C , 17-O ) :   0.8357
B( 16-C , 23-H ) :   0.9371 B( 16-C , 24-H ) :   0.9321

FINAL SINGLE POINT ENERGY      -538.433125110523

DIPOLE MOMENT
-------------
                                X             Y             Z
Electronic contribution:      0.05246      -1.72000      -0.63533
Nuclear contribution   :     -0.57708       2.09378       0.60335
                        -----------------------------------------
Total Dipole Moment    :     -0.52462       0.37378      -0.03198
                        -----------------------------------------
Magnitude (a.u.)       :      0.64495
Magnitude (Debye)      :      1.63933

Rotational constants in cm-1:     0.077496     0.023056     0.021896
Rotational constants in MHz :  2323.276535   691.210179   656.440527

                             ****ORCA TERMINATED NORMALLY****
TOTAL RUN TIME: 0 days 0 hours 8 minutes 23 seconds 840 msec
