                         Program Version 4.2.0 -  RELEASE  -
|  1> # Test redundant internal optimization
|  2> #
|  3> ! RKS B3LYP  Opt TightSCF SmallPrint
|  4>
|  5> %basis
|  6>         Basis "6-31G"
|  7> end
|  8>
|  9> %geom
| 10> Constraints
| 11> { D 4  0  15  12  15.0   C } # D for Dihedral angle
| 12> { D 0  15  12  16  165.0   C } # D for Dihedral angle
| 13> { D 0  4  3  2   C } # D for Dihedral angle
| 14> { D 4  3  2  1   C } # D for Dihedral angle
| 15> { D 3  2  1  0   C } # D for Dihedral angle
| 16> { D 2  1  0  4   C } # D for Dihedral angle
| 17> { D 1  0  4  3   C } # D for Dihedral angle
| 18> { D 16  20  19  18   C } # D for Dihedral angle
| 19> { D 20  19  18  17   C } # D for Dihedral angle
| 20> { D 19  18  17  16   C } # D for Dihedral angle
| 21> { D 18  17  16  20   C } # D for Dihedral angle
| 22> { D 17  16  20  19   C } # D for Dihedral angle
| 23> { D 15  12  16  20   C } # D for Dihedral angle
| 24> end
| 25> end
| 26>
| 27>
| 28> #%pal
| 29> #nprocs 8
| 30> #end
| 31>
| 32> * xyz 0 1
| 33> C  -21.048   26.222   46.251
| 34> C  -20.361   27.558   45.944
| 35> C  -20.329   28.222   47.341
| 36> C  -20.110   27.022   48.296
| 37> O  -20.473   25.807   47.535
| 38> H  -20.833   25.428   45.533
| 39> H  -19.344   27.382   45.576
| 40> H  -20.898   28.157   45.201
| 41> H  -19.543   28.978   47.434
| 42> H  -21.289   28.710   47.548
| 43> H  -20.733   27.082   49.195
| 44> H  -19.064   26.913   48.597
| 45> C  -23.128   26.462   47.829
| 46> H  -23.107   25.458   48.271
| 47> H  -22.499   27.120   48.443
| 48> O  -22.586   26.394   46.375
| 49> C  -24.584   26.998   47.903
| 50> C  -24.710   28.366   47.221
| 51> C  -24.769   27.967   45.727
| 52> C  -25.551   26.630   45.750
| 53> O  -25.489   26.131   47.141
| 54> H  -24.921   26.978   48.941
| 55> O  -26.030   29.058   47.656
| 56> H  -23.876   29.039   47.449
| 57> H  -25.255   28.724   45.104
| 58> H  -23.755   27.814   45.338
| 59> H  -25.119   25.879   45.080
| 60> H  -26.608   26.760   45.502
| 61> H  -26.880   28.402   47.437
| 62> *
| 63>
| 64>                          ****END OF INPUT****
 Total Charge           Charge          ....    0
 Multiplicity           Mult            ....    1
 Number of Electrons    NEL             ....  102
FINAL SINGLE POINT ENERGY      -652.829799270093
FINAL SINGLE POINT ENERGY      -652.852572510692
FINAL SINGLE POINT ENERGY      -652.857548602191
FINAL SINGLE POINT ENERGY      -652.859234915051
FINAL SINGLE POINT ENERGY      -652.859375976144
FINAL SINGLE POINT ENERGY      -652.859403755609
FINAL SINGLE POINT ENERGY      -652.859403557470
                    ***********************HURRAY********************

CARTESIAN COORDINATES (ANGSTROEM)
---------------------------------
  C    -21.125149   26.220506   46.410166
  C    -20.438588   27.520417   45.982063
  C    -20.223511   28.231886   47.342744
  C    -19.932861   27.057033   48.305127
  O    -20.428862   25.835173   47.614153
  H    -20.998024   25.398797   45.702535
  H    -19.478575   27.278036   45.512316
  H    -21.041765   28.099125   45.279266
  H    -19.402247   28.954389   47.315601
  H    -21.131487   28.769818   47.636466
  H    -20.437992   27.146473   49.271071
  H    -18.863083   26.905635   48.474765
  C    -23.156241   26.451604   47.887883
  H    -23.162104   25.457830   48.348047
  H    -22.592184   27.128194   48.542590
  O    -22.567244   26.366290   46.558669
  C    -24.592082   26.964997   47.794691
  C    -24.798216   28.359064   47.182432
  C    -24.837300   28.036936   45.664213
  C    -25.541903   26.657843   45.620991
  O    -25.445690   26.094142   46.987769
  H    -25.001052   26.945926   48.812901
  O    -26.042596   28.947335   47.656186
  H    -24.023334   29.077650   47.452613
  H    -25.382054   28.812565   45.118166
  H    -23.819781   27.958079   45.280477
  H    -25.059027   25.967537   44.924541
  H    -26.606995   26.730367   45.377106
  H    -26.762051   28.287355   47.562450

 Multiplicity           Mult            ....    1
 Number of Electrons    NEL             ....  102
 Basis Dimension        Dim             ....  149

ORBITAL ENERGIES
----------------

  NO   OCC          E(Eh)            E(eV)
   0   2.0000     -19.154845      -521.2298
   1   2.0000     -19.143627      -520.9246
   2   2.0000     -19.134793      -520.6842
   3   2.0000     -19.134502      -520.6763
   4   2.0000     -10.284595      -279.8581
   5   2.0000     -10.238059      -278.5917
   6   2.0000     -10.236345      -278.5451
   7   2.0000     -10.232461      -278.4394
   8   2.0000     -10.231721      -278.4193
   9   2.0000     -10.220297      -278.1084
  10   2.0000     -10.198888      -277.5259
  11   2.0000     -10.192854      -277.3617
  12   2.0000     -10.175576      -276.8915
  13   2.0000      -1.059708       -28.8361
  14   2.0000      -1.031181       -28.0599
  15   2.0000      -1.003330       -27.3020
  16   2.0000      -0.994145       -27.0521
  17   2.0000      -0.796440       -21.6722
  18   2.0000      -0.778951       -21.1963
  19   2.0000      -0.764131       -20.7931
  20   2.0000      -0.737209       -20.0605
  21   2.0000      -0.673959       -18.3394
  22   2.0000      -0.610826       -16.6214
  23   2.0000      -0.602351       -16.3908
  24   2.0000      -0.595713       -16.2102
  25   2.0000      -0.569883       -15.5073
  26   2.0000      -0.524752       -14.2792
  27   2.0000      -0.515147       -14.0179
  28   2.0000      -0.500802       -13.6275
  29   2.0000      -0.491469       -13.3736
  30   2.0000      -0.471786       -12.8379
  31   2.0000      -0.457151       -12.4397
  32   2.0000      -0.448644       -12.2082
  33   2.0000      -0.435479       -11.8500
  34   2.0000      -0.424623       -11.5546
  35   2.0000      -0.414615       -11.2822
  36   2.0000      -0.405944       -11.0463
  37   2.0000      -0.385722       -10.4960
  38   2.0000      -0.379529       -10.3275
  39   2.0000      -0.369568       -10.0564
  40   2.0000      -0.367511       -10.0005
  41   2.0000      -0.360649        -9.8137
  42   2.0000      -0.349844        -9.5198
  43   2.0000      -0.338302        -9.2057
  44   2.0000      -0.323064        -8.7910
  45   2.0000      -0.313200        -8.5226
  46   2.0000      -0.300497        -8.1769
  47   2.0000      -0.269554        -7.3349
  48   2.0000      -0.264703        -7.2029
  49   2.0000      -0.252421        -6.8687
  50   2.0000      -0.239010        -6.5038
  51   0.0000       0.054747         1.4898
  52   0.0000       0.075712         2.0602
  53   0.0000       0.089207         2.4274
  54   0.0000       0.096206         2.6179
  55   0.0000       0.103447         2.8149

MULLIKEN ATOMIC CHARGES
-----------------------
   0 C :    0.304551
   1 C :   -0.260610
   2 C :   -0.314952
   3 C :   -0.018856
   4 O :   -0.508020
   5 H :    0.163415
   6 H :    0.149044
   7 H :    0.156374
   8 H :    0.151913
   9 H :    0.152352
  10 H :    0.147576
  11 H :    0.154044
  12 C :    0.021938
  13 H :    0.160428
  14 H :    0.119482
  15 O :   -0.545197
  16 C :    0.062024
  17 C :    0.072574
  18 C :   -0.288183
  19 C :   -0.019339
  20 O :   -0.523826
  21 H :    0.155118
  22 O :   -0.603060
  23 H :    0.143680
  24 H :    0.146914
  25 H :    0.168101
  26 H :    0.154003
  27 H :    0.135301
  28 H :    0.363209
Sum of atomic charges:   -0.0000000

LOEWDIN ATOMIC CHARGES
----------------------
   0 C :    0.183065
   1 C :   -0.223346
   2 C :   -0.221771
   3 C :   -0.034386
   4 O :   -0.315916
   5 H :    0.109680
   6 H :    0.116648
   7 H :    0.121692
   8 H :    0.119643
   9 H :    0.110479
  10 H :    0.102489
  11 H :    0.108654
  12 C :   -0.030387
  13 H :    0.112748
  14 H :    0.092500
  15 O :   -0.339386
  16 C :    0.013997
  17 C :    0.038032
  18 C :   -0.242350
  19 C :   -0.033172
  20 O :   -0.328349
  21 H :    0.115169
  22 O :   -0.417490
  23 H :    0.110825
  24 H :    0.117330
  25 H :    0.125668
  26 H :    0.109620
  27 H :    0.095915
  28 H :    0.282398

  Mayer bond orders larger than 0.100000
B(  0-C ,  1-C ) :   0.9233 B(  0-C ,  4-O ) :   0.9134 B(  0-C ,  5-H ) :   0.9323
B(  0-C , 15-O ) :   0.8454 B(  1-C ,  2-C ) :   0.9522 B(  1-C ,  6-H ) :   0.9341
B(  1-C ,  7-H ) :   0.9357 B(  2-C ,  3-C ) :   0.9505 B(  2-C ,  8-H ) :   0.9443
B(  2-C ,  9-H ) :   0.9427 B(  3-C ,  4-O ) :   0.8321 B(  3-C , 10-H ) :   0.9300
B(  3-C , 11-H ) :   0.9389 B( 12-C , 13-H ) :   0.9199 B( 12-C , 14-H ) :   0.9026
B( 12-C , 15-O ) :   0.8264 B( 12-C , 16-C ) :   0.9085 B( 16-C , 17-C ) :   0.9047
B( 16-C , 20-O ) :   0.8719 B( 16-C , 21-H ) :   0.9227 B( 17-C , 18-C ) :   0.9242
B( 17-C , 22-O ) :   0.8925 B( 17-C , 23-H ) :   0.9352 B( 18-C , 19-C ) :   0.9485
B( 18-C , 24-H ) :   0.9369 B( 18-C , 25-H ) :   0.9184 B( 19-C , 20-O ) :   0.8412
B( 19-C , 26-H ) :   0.9333 B( 19-C , 27-H ) :   0.9371 B( 22-O , 28-H ) :   0.7956

FINAL SINGLE POINT ENERGY      -652.859401241064

DIPOLE MOMENT
-------------
                                X             Y             Z
Electronic contribution:     -3.53042      -3.81759       1.17471
Nuclear contribution   :      4.51594       4.48595      -1.44663
                        -----------------------------------------
Total Dipole Moment    :      0.98552       0.66836      -0.27192
                        -----------------------------------------
Magnitude (a.u.)       :      1.22143
Magnitude (Debye)      :      3.10462

Rotational constants in cm-1:     0.051903     0.014872     0.014368
Rotational constants in MHz :  1556.001385   445.837150   430.748784

                             ****ORCA TERMINATED NORMALLY****
TOTAL RUN TIME: 0 days 0 hours 22 minutes 27 seconds 638 msec
