                         Program Version 4.2.0 -  RELEASE  -
|  1> # Test redundant internal optimization
|  2> #
|  3> ! RKS B3LYP  Opt TightSCF SmallPrint
|  4>
|  5> %basis
|  6>         Basis "6-31G"
|  7> end
|  8>
|  9> %geom
| 10> Constraints
| 11> { D 4  0  15  12  225.0   C } # D for Dihedral angle
| 12> { D 0  15  12  16  300.0   C } # D for Dihedral angle
| 13> { D 0  4  3  2   C } # D for Dihedral angle
| 14> { D 4  3  2  1   C } # D for Dihedral angle
| 15> { D 3  2  1  0   C } # D for Dihedral angle
| 16> { D 2  1  0  4   C } # D for Dihedral angle
| 17> { D 1  0  4  3   C } # D for Dihedral angle
| 18> { D 16  20  19  18   C } # D for Dihedral angle
| 19> { D 20  19  18  17   C } # D for Dihedral angle
| 20> { D 19  18  17  16   C } # D for Dihedral angle
| 21> { D 18  17  16  20   C } # D for Dihedral angle
| 22> { D 17  16  20  19   C } # D for Dihedral angle
| 23> { D 15  12  16  20   C } # D for Dihedral angle
| 24> end
| 25> end
| 26>
| 27>
| 28> #%pal
| 29> #nprocs 8
| 30> #end
| 31>
| 32> * xyz 0 1
| 33> C  -21.048   26.222   46.251
| 34> C  -20.361   27.558   45.944
| 35> C  -20.329   28.222   47.341
| 36> C  -20.110   27.022   48.296
| 37> O  -20.473   25.807   47.535
| 38> H  -20.833   25.428   45.533
| 39> H  -19.344   27.382   45.576
| 40> H  -20.898   28.157   45.201
| 41> H  -19.543   28.978   47.434
| 42> H  -21.289   28.710   47.548
| 43> H  -20.733   27.082   49.195
| 44> H  -19.064   26.913   48.597
| 45> C  -23.415   25.773   45.218
| 46> H  -23.229   24.692   45.178
| 47> H  -24.489   25.930   45.387
| 48> O  -22.586   26.394   46.375
| 49> C  -23.062   26.381   43.832
| 50> C  -21.617   26.060   43.436
| 51> C  -21.746   24.601   42.935
| 52> C  -23.142   24.582   42.264
| 53> O  -23.872   25.760   42.779
| 54> H  -23.304   27.445   43.836
| 55> O  -21.160   26.996   42.284
| 56> H  -20.909   26.164   44.265
| 57> H  -20.946   24.318   42.244
| 58> H  -21.715   23.908   43.785
| 59> H  -23.709   23.676   42.502
| 60> H  -23.084   24.688   41.177
| 61> H  -21.855   26.909   41.440
| 62> *
| 63>
| 64>                          ****END OF INPUT****
 Total Charge           Charge          ....    0
 Multiplicity           Mult            ....    1
 Number of Electrons    NEL             ....  102
FINAL SINGLE POINT ENERGY      -652.813346757553
FINAL SINGLE POINT ENERGY      -652.840334903379
FINAL SINGLE POINT ENERGY      -652.853147170935
FINAL SINGLE POINT ENERGY      -652.854929226129
FINAL SINGLE POINT ENERGY      -652.855306187103
FINAL SINGLE POINT ENERGY      -652.855335457858
FINAL SINGLE POINT ENERGY      -652.855338740626
                    ***********************HURRAY********************

CARTESIAN COORDINATES (ANGSTROEM)
---------------------------------
  C    -20.941980   26.227481   46.305639
  C    -20.231865   27.563413   46.088664
  C    -20.384322   28.235873   47.474807
  C    -20.283658   27.042056   48.449092
  O    -20.542345   25.829855   47.630632
  H    -20.648424   25.409169   45.642358
  H    -19.174494   27.382540   45.858979
  H    -20.670624   28.152209   45.280109
  H    -19.617976   28.994019   47.660318
  H    -21.368196   28.708554   47.545534
  H    -21.019873   27.082294   49.255974
  H    -19.282941   26.924189   48.875904
  C    -23.202670   25.886775   45.215065
  H    -23.156586   24.785937   45.230275
  H    -24.219884   26.178506   45.480022
  O    -22.379417   26.413526   46.291377
  C    -22.937436   26.365592   43.771287
  C    -21.584241   26.054648   43.110005
  C    -21.758650   24.558573   42.716620
  C    -23.259749   24.475864   42.339598
  O    -23.914399   25.665163   42.930035
  H    -23.151767   27.436232   43.690541
  O    -21.397955   26.900076   41.940949
  H    -20.711316   26.239244   43.728033
  H    -21.094506   24.298161   41.889006
  H    -21.524556   23.908741   43.567053
  H    -23.745663   23.575077   42.725496
  H    -23.421578   24.522807   41.257924
  H    -22.237928   26.941426   41.436705

 Multiplicity           Mult            ....    1
 Number of Electrons    NEL             ....  102
 Basis Dimension        Dim             ....  149

ORBITAL ENERGIES
----------------

  NO   OCC          E(Eh)            E(eV)
   0   2.0000     -19.152621      -521.1693
   1   2.0000     -19.144237      -520.9412
   2   2.0000     -19.141314      -520.8616
   3   2.0000     -19.138489      -520.7848
   4   2.0000     -10.282142      -279.7913
   5   2.0000     -10.248684      -278.8809
   6   2.0000     -10.241104      -278.6746
   7   2.0000     -10.238267      -278.5974
   8   2.0000     -10.234588      -278.4973
   9   2.0000     -10.223523      -278.1962
  10   2.0000     -10.196483      -277.4604
  11   2.0000     -10.186205      -277.1807
  12   2.0000     -10.185066      -277.1497
  13   2.0000      -1.052751       -28.6468
  14   2.0000      -1.044937       -28.4342
  15   2.0000      -1.013422       -27.5766
  16   2.0000      -0.993695       -27.0398
  17   2.0000      -0.786646       -21.4057
  18   2.0000      -0.785222       -21.3670
  19   2.0000      -0.770930       -20.9781
  20   2.0000      -0.737501       -20.0684
  21   2.0000      -0.678741       -18.4695
  22   2.0000      -0.611942       -16.6518
  23   2.0000      -0.604197       -16.4410
  24   2.0000      -0.597582       -16.2610
  25   2.0000      -0.584179       -15.8963
  26   2.0000      -0.528554       -14.3827
  27   2.0000      -0.519458       -14.1352
  28   2.0000      -0.503037       -13.6883
  29   2.0000      -0.485196       -13.2029
  30   2.0000      -0.478034       -13.0080
  31   2.0000      -0.461268       -12.5517
  32   2.0000      -0.446712       -12.1556
  33   2.0000      -0.441057       -12.0018
  34   2.0000      -0.427309       -11.6277
  35   2.0000      -0.424113       -11.5407
  36   2.0000      -0.402152       -10.9431
  37   2.0000      -0.400087       -10.8869
  38   2.0000      -0.379134       -10.3167
  39   2.0000      -0.376127       -10.2349
  40   2.0000      -0.360355        -9.8058
  41   2.0000      -0.357771        -9.7354
  42   2.0000      -0.352520        -9.5926
  43   2.0000      -0.338712        -9.2168
  44   2.0000      -0.315507        -8.5854
  45   2.0000      -0.313699        -8.5362
  46   2.0000      -0.305682        -8.3180
  47   2.0000      -0.278223        -7.5708
  48   2.0000      -0.270016        -7.3475
  49   2.0000      -0.255705        -6.9581
  50   2.0000      -0.241584        -6.5738
  51   0.0000       0.060159         1.6370
  52   0.0000       0.066574         1.8116
  53   0.0000       0.087062         2.3691
  54   0.0000       0.093593         2.5468
  55   0.0000       0.098639         2.6841

MULLIKEN ATOMIC CHARGES
-----------------------
   0 C :    0.286267
   1 C :   -0.260692
   2 C :   -0.302279
   3 C :   -0.002379
   4 O :   -0.506330
   5 H :    0.137527
   6 H :    0.144692
   7 H :    0.154437
   8 H :    0.142612
   9 H :    0.164700
  10 H :    0.154145
  11 H :    0.140636
  12 C :   -0.003390
  13 H :    0.129704
  14 H :    0.172222
  15 O :   -0.516462
  16 C :    0.034542
  17 C :    0.083919
  18 C :   -0.306949
  19 C :   -0.028514
  20 O :   -0.522294
  21 H :    0.163958
  22 O :   -0.605278
  23 H :    0.159379
  24 H :    0.167648
  25 H :    0.151694
  26 H :    0.150699
  27 H :    0.149897
  28 H :    0.365890
Sum of atomic charges:    0.0000000

LOEWDIN ATOMIC CHARGES
----------------------
   0 C :    0.173133
   1 C :   -0.227543
   2 C :   -0.215721
   3 C :   -0.025758
   4 O :   -0.310939
   5 H :    0.093929
   6 H :    0.113699
   7 H :    0.119345
   8 H :    0.114715
   9 H :    0.120371
  10 H :    0.108954
  11 H :    0.101690
  12 C :   -0.037961
  13 H :    0.093620
  14 H :    0.127513
  15 O :   -0.332636
  16 C :    0.001838
  17 C :    0.030921
  18 C :   -0.242746
  19 C :   -0.038225
  20 O :   -0.325816
  21 H :    0.114944
  22 O :   -0.413738
  23 H :    0.118117
  24 H :    0.129105
  25 H :    0.114971
  26 H :    0.106618
  27 H :    0.104029
  28 H :    0.283572

  Mayer bond orders larger than 0.100000
B(  0-C ,  1-C ) :   0.9309 B(  0-C ,  4-O ) :   0.9253 B(  0-C ,  5-H ) :   0.9140
B(  0-C , 15-O ) :   0.8345 B(  1-C ,  2-C ) :   0.9521 B(  1-C ,  6-H ) :   0.9341
B(  1-C ,  7-H ) :   0.9342 B(  2-C ,  3-C ) :   0.9540 B(  2-C ,  8-H ) :   0.9448
B(  2-C ,  9-H ) :   0.9430 B(  3-C ,  4-O ) :   0.8365 B(  3-C , 10-H ) :   0.9346
B(  3-C , 11-H ) :   0.9398 B( 12-C , 13-H ) :   0.9222 B( 12-C , 14-H ) :   0.9335
B( 12-C , 15-O ) :   0.8564 B( 12-C , 16-C ) :   0.8750 B( 16-C , 17-C ) :   0.9095
B( 16-C , 20-O ) :   0.8273 B( 16-C , 21-H ) :   0.9237 B( 17-C , 18-C ) :   0.9118
B( 17-C , 22-O ) :   0.8835 B( 17-C , 23-H ) :   0.9183 B( 18-C , 19-C ) :   0.9404
B( 18-C , 24-H ) :   0.9364 B( 18-C , 25-H ) :   0.9310 B( 19-C , 20-O ) :   0.8396
B( 19-C , 26-H ) :   0.9349 B( 19-C , 27-H ) :   0.9373 B( 22-O , 28-H ) :   0.7932

FINAL SINGLE POINT ENERGY      -652.855338811470

DIPOLE MOMENT
-------------
                                X             Y             Z
Electronic contribution:     -2.68131      -0.59056      -0.70076
Nuclear contribution   :      2.97455       0.55046       0.32460
                        -----------------------------------------
Total Dipole Moment    :      0.29324      -0.04011      -0.37616
                        -----------------------------------------
Magnitude (a.u.)       :      0.47864
Magnitude (Debye)      :      1.21660

Rotational constants in cm-1:     0.056349     0.013734     0.012835
Rotational constants in MHz :  1689.286381   411.741821   384.774101

                             ****ORCA TERMINATED NORMALLY****
TOTAL RUN TIME: 0 days 0 hours 24 minutes 1 seconds 111 msec
