                         Program Version 4.2.0 -  RELEASE  -
|  1> # Test redundant internal optimization
|  2> #
|  3> ! RKS B3LYP  Opt TightSCF SmallPrint
|  4>
|  5> %basis
|  6>         Basis "6-31G"
|  7> end
|  8>
|  9> %geom
| 10> Constraints
| 11> { D 4  0  15  12  315.0   C } # D for Dihedral angle
| 12> { D 0  15  12  16  150.0   C } # D for Dihedral angle
| 13> { D 0  4  3  2   C } # D for Dihedral angle
| 14> { D 4  3  2  1   C } # D for Dihedral angle
| 15> { D 3  2  1  0   C } # D for Dihedral angle
| 16> { D 2  1  0  4   C } # D for Dihedral angle
| 17> { D 1  0  4  3   C } # D for Dihedral angle
| 18> { D 16  20  19  18   C } # D for Dihedral angle
| 19> { D 20  19  18  17   C } # D for Dihedral angle
| 20> { D 19  18  17  16   C } # D for Dihedral angle
| 21> { D 18  17  16  20   C } # D for Dihedral angle
| 22> { D 17  16  20  19   C } # D for Dihedral angle
| 23> { D 15  12  16  20   C } # D for Dihedral angle
| 24> end
| 25> end
| 26>
| 27>
| 28> #%pal
| 29> #nprocs 8
| 30> #end
| 31>
| 32> * xyz 0 1
| 33> C  -21.048   26.222   46.251
| 34> C  -20.361   27.558   45.944
| 35> C  -20.329   28.222   47.341
| 36> C  -20.110   27.022   48.296
| 37> O  -20.473   25.807   47.535
| 38> H  -20.833   25.428   45.533
| 39> H  -19.344   27.382   45.576
| 40> H  -20.898   28.157   45.201
| 41> H  -19.543   28.978   47.434
| 42> H  -21.289   28.710   47.548
| 43> H  -20.733   27.082   49.195
| 44> H  -19.064   26.913   48.597
| 45> C  -23.319   25.255   47.135
| 46> H  -23.611   24.473   46.422
| 47> H  -22.655   24.804   47.885
| 48> O  -22.586   26.394   46.375
| 49> C  -24.596   25.748   47.870
| 50> C  -24.279   26.907   48.822
| 51> C  -24.194   28.102   47.843
| 52> C  -25.269   27.763   46.780
| 53> O  -25.551   26.317   46.913
| 54> H  -25.087   24.896   48.343
| 55> H  -25.101   27.046   49.531
| 56> O  -22.968   26.694   49.627
| 57> H  -24.379   29.065   48.330
| 58> H  -23.198   28.144   47.385
| 59> H  -24.930   27.970   45.759
| 60> H  -26.210   28.291   46.954
| 61> H  -22.130   26.552   48.935
| 62> *
| 63>
| 64>                          ****END OF INPUT****
 Total Charge           Charge          ....    0
 Multiplicity           Mult            ....    1
 Number of Electrons    NEL             ....  102
FINAL SINGLE POINT ENERGY      -652.830529386924
FINAL SINGLE POINT ENERGY      -652.854431460048
FINAL SINGLE POINT ENERGY      -652.860041713780
FINAL SINGLE POINT ENERGY      -652.863216830089
FINAL SINGLE POINT ENERGY      -652.863652676944
FINAL SINGLE POINT ENERGY      -652.863783220011
FINAL SINGLE POINT ENERGY      -652.863794893883
FINAL SINGLE POINT ENERGY      -652.863794814357
                    ***********************HURRAY********************

CARTESIAN COORDINATES (ANGSTROEM)
---------------------------------
  C    -21.062544   26.173276   46.307902
  C    -20.381345   27.486182   45.912629
  C    -20.269214   28.203157   47.277934
  C    -20.011575   27.049589   48.271556
  O    -20.434543   25.801248   47.561829
  H    -20.838985   25.338002   45.633533
  H    -19.393075   27.259012   45.500532
  H    -20.959543   28.046067   45.174692
  H    -19.462322   28.942673   47.296586
  H    -21.202882   28.722253   47.512873
  H    -20.570524   27.154279   49.205255
  H    -18.952701   26.918822   48.508527
  C    -23.219795   25.276171   47.104918
  H    -23.498763   24.495355   46.386089
  H    -22.562087   24.830740   47.860290
  O    -22.497576   26.329847   46.377494
  C    -24.495039   25.793061   47.766692
  C    -24.325476   26.904414   48.815154
  C    -24.306740   28.182646   47.926235
  C    -25.297357   27.827114   46.797596
  O    -25.448928   26.347823   46.816879
  H    -24.980218   24.912773   48.207005
  H    -25.192227   26.915256   49.480065
  O    -23.189634   26.736140   49.695465
  H    -24.602498   29.075108   48.485189
  H    -23.301213   28.321148   47.527890
  H    -24.936822   28.126851   45.810118
  H    -26.294182   28.247841   46.962781
  H    -22.400191   26.485153   49.176293

 Multiplicity           Mult            ....    1
 Number of Electrons    NEL             ....  102
 Basis Dimension        Dim             ....  149

ORBITAL ENERGIES
----------------

  NO   OCC          E(Eh)            E(eV)
   0   2.0000     -19.161145      -521.4013
   1   2.0000     -19.154268      -521.2141
   2   2.0000     -19.139359      -520.8084
   3   2.0000     -19.131690      -520.5997
   4   2.0000     -10.288458      -279.9632
   5   2.0000     -10.240737      -278.6646
   6   2.0000     -10.235496      -278.5220
   7   2.0000     -10.232070      -278.4288
   8   2.0000     -10.230622      -278.3894
   9   2.0000     -10.219205      -278.0787
  10   2.0000     -10.198124      -277.5051
  11   2.0000     -10.196869      -277.4709
  12   2.0000     -10.175745      -276.8961
  13   2.0000      -1.065148       -28.9842
  14   2.0000      -1.026736       -27.9389
  15   2.0000      -1.010207       -27.4891
  16   2.0000      -1.001447       -27.2508
  17   2.0000      -0.800681       -21.7876
  18   2.0000      -0.773256       -21.0414
  19   2.0000      -0.766299       -20.8521
  20   2.0000      -0.739634       -20.1265
  21   2.0000      -0.679071       -18.4785
  22   2.0000      -0.613083       -16.6828
  23   2.0000      -0.601107       -16.3570
  24   2.0000      -0.597146       -16.2492
  25   2.0000      -0.572912       -15.5897
  26   2.0000      -0.525027       -14.2867
  27   2.0000      -0.517404       -14.0793
  28   2.0000      -0.509960       -13.8767
  29   2.0000      -0.491115       -13.3639
  30   2.0000      -0.475499       -12.9390
  31   2.0000      -0.464885       -12.6502
  32   2.0000      -0.439558       -11.9610
  33   2.0000      -0.430561       -11.7162
  34   2.0000      -0.419507       -11.4154
  35   2.0000      -0.416064       -11.3217
  36   2.0000      -0.407475       -11.0880
  37   2.0000      -0.398031       -10.8310
  38   2.0000      -0.382937       -10.4202
  39   2.0000      -0.372316       -10.1312
  40   2.0000      -0.369934       -10.0664
  41   2.0000      -0.357562        -9.7297
  42   2.0000      -0.349018        -9.4973
  43   2.0000      -0.346467        -9.4279
  44   2.0000      -0.329378        -8.9628
  45   2.0000      -0.309133        -8.4119
  46   2.0000      -0.300034        -8.1643
  47   2.0000      -0.277052        -7.5390
  48   2.0000      -0.267449        -7.2777
  49   2.0000      -0.261201        -7.1076
  50   2.0000      -0.237925        -6.4743
  51   0.0000       0.056766         1.5447
  52   0.0000       0.082475         2.2443
  53   0.0000       0.089308         2.4302
  54   0.0000       0.094864         2.5814
  55   0.0000       0.098262         2.6738

MULLIKEN ATOMIC CHARGES
-----------------------
   0 C :    0.296428
   1 C :   -0.266501
   2 C :   -0.306744
   3 C :   -0.035856
   4 O :   -0.519321
   5 H :    0.151765
   6 H :    0.153579
   7 H :    0.164138
   8 H :    0.150930
   9 H :    0.164584
  10 H :    0.149347
  11 H :    0.157256
  12 C :   -0.035841
  13 H :    0.156121
  14 H :    0.159167
  15 O :   -0.530454
  16 C :    0.077227
  17 C :    0.085742
  18 C :   -0.308296
  19 C :   -0.000623
  20 O :   -0.519685
  21 H :    0.151149
  22 H :    0.160920
  23 O :   -0.626866
  24 H :    0.137549
  25 H :    0.165937
  26 H :    0.146092
  27 H :    0.139743
  28 H :    0.382511
Sum of atomic charges:   -0.0000000

LOEWDIN ATOMIC CHARGES
----------------------
   0 C :    0.173444
   1 C :   -0.212342
   2 C :   -0.218172
   3 C :   -0.037445
   4 O :   -0.331035
   5 H :    0.096500
   6 H :    0.119478
   7 H :    0.128356
   8 H :    0.119052
   9 H :    0.115944
  10 H :    0.103458
  11 H :    0.110704
  12 C :   -0.057021
  13 H :    0.111605
  14 H :    0.111565
  15 O :   -0.333911
  16 C :    0.016382
  17 C :    0.040005
  18 C :   -0.240808
  19 C :   -0.023652
  20 O :   -0.322766
  21 H :    0.115719
  22 H :    0.115410
  23 O :   -0.414215
  24 H :    0.113120
  25 H :    0.116078
  26 H :    0.105714
  27 H :    0.100232
  28 H :    0.278598

  Mayer bond orders larger than 0.100000
B(  0-C ,  1-C ) :   0.9433 B(  0-C ,  4-O ) :   0.8857 B(  0-C ,  5-H ) :   0.9217
B(  0-C , 15-O ) :   0.8662 B(  1-C ,  2-C ) :   0.9543 B(  1-C ,  6-H ) :   0.9380
B(  1-C ,  7-H ) :   0.9348 B(  2-C ,  3-C ) :   0.9537 B(  2-C ,  8-H ) :   0.9433
B(  2-C ,  9-H ) :   0.9323 B(  3-C ,  4-O ) :   0.8263 B(  3-C , 10-H ) :   0.9194
B(  3-C , 11-H ) :   0.9401 B( 12-C , 13-H ) :   0.9234 B( 12-C , 14-H ) :   0.8918
B( 12-C , 15-O ) :   0.8213 B( 12-C , 16-C ) :   0.9179 B( 16-C , 17-C ) :   0.8976
B( 16-C , 20-O ) :   0.8790 B( 16-C , 21-H ) :   0.9238 B( 17-C , 18-C ) :   0.9184
B( 17-C , 22-H ) :   0.9355 B( 17-C , 23-O ) :   0.9056 B( 18-C , 19-C ) :   0.9420
B( 18-C , 24-H ) :   0.9442 B( 18-C , 25-H ) :   0.9178 B( 19-C , 20-O ) :   0.8348
B( 19-C , 26-H ) :   0.9333 B( 19-C , 27-H ) :   0.9380 B( 23-O , 28-H ) :   0.7508

FINAL SINGLE POINT ENERGY      -652.863794084796

DIPOLE MOMENT
-------------
                                X             Y             Z
Electronic contribution:     -2.60380      -4.46845       0.04080
Nuclear contribution   :      3.55486       5.16259      -0.39404
                        -----------------------------------------
Total Dipole Moment    :      0.95107       0.69415      -0.35323
                        -----------------------------------------
Magnitude (a.u.)       :      1.22929
Magnitude (Debye)      :      3.12459

Rotational constants in cm-1:     0.043988     0.018587     0.017673
Rotational constants in MHz :  1318.727090   557.231909   529.837707

                             ****ORCA TERMINATED NORMALLY****
TOTAL RUN TIME: 0 days 0 hours 33 minutes 49 seconds 644 msec
