                         Program Version 4.2.0 -  RELEASE  -
|  1> # Test redundant internal optimization
|  2> #
|  3> ! RKS B3LYP  Opt TightSCF SmallPrint
|  4>
|  5> %basis
|  6>         Basis "6-31G"
|  7> end
|  8>
|  9> %geom
| 10> Constraints
| 11> { D 4  0  15  12  195.0   C } # D for Dihedral angle
| 12> { D 0  15  12  16  60.0   C } # D for Dihedral angle
| 13> { D 0  4  3  2   C } # D for Dihedral angle
| 14> { D 4  3  2  1   C } # D for Dihedral angle
| 15> { D 3  2  1  0   C } # D for Dihedral angle
| 16> { D 2  1  0  4   C } # D for Dihedral angle
| 17> { D 1  0  4  3   C } # D for Dihedral angle
| 18> { D 16  20  19  18   C } # D for Dihedral angle
| 19> { D 20  19  18  17   C } # D for Dihedral angle
| 20> { D 19  18  17  16   C } # D for Dihedral angle
| 21> { D 18  17  16  20   C } # D for Dihedral angle
| 22> { D 17  16  20  19   C } # D for Dihedral angle
| 23> { D 15  12  16  20   C } # D for Dihedral angle
| 24> end
| 25> end
| 26>
| 27>
| 28> #%pal
| 29> #nprocs 8
| 30> #end
| 31>
| 32> * xyz 0 1
| 33> C  -21.048   26.222   46.251
| 34> C  -20.361   27.558   45.944
| 35> C  -20.329   28.222   47.341
| 36> C  -20.110   27.022   48.296
| 37> O  -20.473   25.807   47.535
| 38> H  -20.833   25.428   45.533
| 39> H  -19.344   27.382   45.576
| 40> H  -20.898   28.157   45.201
| 41> H  -19.543   28.978   47.434
| 42> H  -21.289   28.710   47.548
| 43> H  -20.733   27.082   49.195
| 44> H  -19.064   26.913   48.597
| 45> C  -23.353   26.472   45.026
| 46> H  -24.424   26.602   45.226
| 47> H  -23.007   27.332   44.437
| 48> O  -22.586   26.394   46.375
| 49> C  -23.168   25.198   44.156
| 50> C  -23.781   23.968   44.834
| 51> C  -25.285   24.153   44.519
| 52> C  -25.273   24.786   43.105
| 53> O  -23.912   25.325   42.898
| 54> H  -22.114   25.093   43.895
| 55> O  -23.238   22.671   44.174
| 56> H  -23.575   23.920   45.909
| 57> H  -25.844   23.212   44.550
| 58> H  -25.740   24.836   45.246
| 59> H  -26.000   25.599   43.004
| 60> H  -25.452   24.051   42.317
| 61> H  -23.435   22.695   43.096
| 62> *
| 63>
| 64>                          ****END OF INPUT****
 Total Charge           Charge          ....    0
 Multiplicity           Mult            ....    1
 Number of Electrons    NEL             ....  102
FINAL SINGLE POINT ENERGY      -652.834583125221
FINAL SINGLE POINT ENERGY      -652.856338509573
FINAL SINGLE POINT ENERGY      -652.859920626936
FINAL SINGLE POINT ENERGY      -652.860501394925
FINAL SINGLE POINT ENERGY      -652.860594284597
FINAL SINGLE POINT ENERGY      -652.860605115213
                    ***********************HURRAY********************

CARTESIAN COORDINATES (ANGSTROEM)
---------------------------------
  C    -21.051606   26.196988   46.190857
  C    -20.320177   27.507870   45.911257
  C    -20.385484   28.211148   47.287980
  C    -20.266697   27.036835   48.281001
  O    -20.598438   25.815802   47.497378
  H    -20.815058   25.371126   45.516949
  H    -19.283366   27.291442   45.628035
  H    -20.778530   28.095807   45.110522
  H    -19.590195   28.951151   47.418730
  H    -21.350125   28.714498   47.399754
  H    -20.960597   27.109223   49.121857
  H    -19.249443   26.897149   48.658118
  C    -23.251844   26.470584   45.032567
  H    -24.281570   26.648068   45.352134
  H    -22.936796   27.327847   44.420201
  O    -22.495421   26.402944   46.275918
  C    -23.160781   25.208734   44.165598
  C    -23.737208   23.936154   44.800908
  C    -25.256061   24.131379   44.566589
  C    -25.317782   24.844346   43.192923
  O    -23.963009   25.406149   42.950411
  H    -22.135851   25.039029   43.824549
  O    -23.228828   22.747316   44.134778
  H    -23.470435   23.822263   45.851246
  H    -25.772792   23.168509   44.569904
  H    -25.685983   24.751486   45.359603
  H    -26.049547   25.657556   43.164995
  H    -25.530175   24.155378   42.369651
  H    -23.288202   22.871217   43.163586

 Multiplicity           Mult            ....    1
 Number of Electrons    NEL             ....  102
 Basis Dimension        Dim             ....  149

ORBITAL ENERGIES
----------------

  NO   OCC          E(Eh)            E(eV)
   0   2.0000     -19.148384      -521.0540
   1   2.0000     -19.143867      -520.9311
   2   2.0000     -19.140294      -520.8339
   3   2.0000     -19.137384      -520.7547
   4   2.0000     -10.279977      -279.7324
   5   2.0000     -10.238299      -278.5983
   6   2.0000     -10.236325      -278.5446
   7   2.0000     -10.234610      -278.4979
   8   2.0000     -10.233576      -278.4698
   9   2.0000     -10.224459      -278.2217
  10   2.0000     -10.189604      -277.2732
  11   2.0000     -10.187504      -277.2161
  12   2.0000     -10.186323      -277.1839
  13   2.0000      -1.053554       -28.6687
  14   2.0000      -1.038155       -28.2496
  15   2.0000      -1.006752       -27.3951
  16   2.0000      -0.994674       -27.0665
  17   2.0000      -0.787440       -21.4273
  18   2.0000      -0.780833       -21.2476
  19   2.0000      -0.768066       -20.9001
  20   2.0000      -0.734981       -19.9999
  21   2.0000      -0.677906       -18.4468
  22   2.0000      -0.608304       -16.5528
  23   2.0000      -0.604433       -16.4475
  24   2.0000      -0.599477       -16.3126
  25   2.0000      -0.570986       -15.5373
  26   2.0000      -0.525083       -14.2882
  27   2.0000      -0.518116       -14.0986
  28   2.0000      -0.497555       -13.5392
  29   2.0000      -0.489218       -13.3123
  30   2.0000      -0.471409       -12.8277
  31   2.0000      -0.462035       -12.5726
  32   2.0000      -0.454513       -12.3679
  33   2.0000      -0.436573       -11.8797
  34   2.0000      -0.423879       -11.5343
  35   2.0000      -0.413882       -11.2623
  36   2.0000      -0.403776       -10.9873
  37   2.0000      -0.394761       -10.7420
  38   2.0000      -0.375958       -10.2304
  39   2.0000      -0.369020       -10.0416
  40   2.0000      -0.365757        -9.9527
  41   2.0000      -0.356829        -9.7098
  42   2.0000      -0.355088        -9.6624
  43   2.0000      -0.333725        -9.0811
  44   2.0000      -0.314800        -8.5661
  45   2.0000      -0.309732        -8.4282
  46   2.0000      -0.307454        -8.3662
  47   2.0000      -0.271851        -7.3974
  48   2.0000      -0.265610        -7.2276
  49   2.0000      -0.257712        -7.0127
  50   2.0000      -0.241357        -6.5677
  51   0.0000       0.062486         1.7003
  52   0.0000       0.072779         1.9804
  53   0.0000       0.091927         2.5015
  54   0.0000       0.095618         2.6019
  55   0.0000       0.099771         2.7149

MULLIKEN ATOMIC CHARGES
-----------------------
   0 C :    0.287844
   1 C :   -0.270519
   2 C :   -0.296952
   3 C :   -0.001895
   4 O :   -0.502559
   5 H :    0.151093
   6 H :    0.146934
   7 H :    0.144654
   8 H :    0.142208
   9 H :    0.160458
  10 H :    0.154300
  11 H :    0.142426
  12 C :   -0.018260
  13 H :    0.151752
  14 H :    0.141439
  15 O :   -0.509765
  16 C :    0.042777
  17 C :    0.087119
  18 C :   -0.304915
  19 C :   -0.034055
  20 O :   -0.528935
  21 H :    0.158271
  22 O :   -0.601030
  23 H :    0.182462
  24 H :    0.164785
  25 H :    0.153142
  26 H :    0.149471
  27 H :    0.147252
  28 H :    0.360498
Sum of atomic charges:   -0.0000000

LOEWDIN ATOMIC CHARGES
----------------------
   0 C :    0.175928
   1 C :   -0.229176
   2 C :   -0.216211
   3 C :   -0.024995
   4 O :   -0.303650
   5 H :    0.100128
   6 H :    0.115091
   7 H :    0.114870
   8 H :    0.114425
   9 H :    0.118275
  10 H :    0.109519
  11 H :    0.102876
  12 C :   -0.044990
  13 H :    0.113677
  14 H :    0.098963
  15 O :   -0.331970
  16 C :    0.001161
  17 C :    0.036272
  18 C :   -0.241417
  19 C :   -0.039256
  20 O :   -0.330676
  21 H :    0.110120
  22 O :   -0.413298
  23 H :    0.129835
  24 H :    0.127945
  25 H :    0.117511
  26 H :    0.105321
  27 H :    0.103142
  28 H :    0.280583

  Mayer bond orders larger than 0.100000
B(  0-C ,  1-C ) :   0.9300 B(  0-C ,  4-O ) :   0.9365 B(  0-C ,  5-H ) :   0.9145
B(  0-C , 15-O ) :   0.8279 B(  1-C ,  2-C ) :   0.9520 B(  1-C ,  6-H ) :   0.9344
B(  1-C ,  7-H ) :   0.9347 B(  2-C ,  3-C ) :   0.9561 B(  2-C ,  8-H ) :   0.9451
B(  2-C ,  9-H ) :   0.9445 B(  3-C ,  4-O ) :   0.8351 B(  3-C , 10-H ) :   0.9346
B(  3-C , 11-H ) :   0.9397 B( 12-C , 13-H ) :   0.9401 B( 12-C , 14-H ) :   0.9135
B( 12-C , 15-O ) :   0.8521 B( 12-C , 16-C ) :   0.8752 B( 16-C , 17-C ) :   0.9066
B( 16-C , 20-O ) :   0.8348 B( 16-C , 21-H ) :   0.9247 B( 17-C , 18-C ) :   0.9147
B( 17-C , 22-O ) :   0.8883 B( 17-C , 23-H ) :   0.9227 B( 18-C , 19-C ) :   0.9434
B( 18-C , 24-H ) :   0.9366 B( 18-C , 25-H ) :   0.9332 B( 19-C , 20-O ) :   0.8424
B( 19-C , 26-H ) :   0.9349 B( 19-C , 27-H ) :   0.9378 B( 22-O , 28-H ) :   0.7978

FINAL SINGLE POINT ENERGY      -652.860607040238

DIPOLE MOMENT
-------------
                                X             Y             Z
Electronic contribution:      0.12884      -3.90783      -0.94599
Nuclear contribution   :     -0.41079       4.92188       0.59533
                        -----------------------------------------
Total Dipole Moment    :     -0.28195       1.01405      -0.35066
                        -----------------------------------------
Magnitude (a.u.)       :      1.10940
Magnitude (Debye)      :      2.81986

Rotational constants in cm-1:     0.061779     0.012465     0.011644
Rotational constants in MHz :  1852.098610   373.696310   349.067478

                             ****ORCA TERMINATED NORMALLY****
TOTAL RUN TIME: 0 days 0 hours 18 minutes 42 seconds 47 msec
