                         Program Version 4.2.0 -  RELEASE  -
|  1> # Test redundant internal optimization
|  2> #
|  3> ! RKS B3LYP  Opt TightSCF SmallPrint
|  4>
|  5> %basis
|  6>         Basis "6-31G"
|  7> end
|  8>
|  9> %geom
| 10> Constraints
| 11> { D 4  0  15  12  0.0   C } # D for Dihedral angle
| 12> { D 0  15  12  16  165.0   C } # D for Dihedral angle
| 13> { D 0  4  3  2   C } # D for Dihedral angle
| 14> { D 4  3  2  1   C } # D for Dihedral angle
| 15> { D 3  2  1  0   C } # D for Dihedral angle
| 16> { D 2  1  0  4   C } # D for Dihedral angle
| 17> { D 1  0  4  3   C } # D for Dihedral angle
| 18> { D 16  20  19  18   C } # D for Dihedral angle
| 19> { D 20  19  18  17   C } # D for Dihedral angle
| 20> { D 19  18  17  16   C } # D for Dihedral angle
| 21> { D 18  17  16  20   C } # D for Dihedral angle
| 22> { D 17  16  20  19   C } # D for Dihedral angle
| 23> { D 15  12  16  20   C } # D for Dihedral angle
| 24> end
| 25> end
| 26>
| 27>
| 28> #%pal
| 29> #nprocs 8
| 30> #end
| 31>
| 32> * xyz 0 1
| 33> C  -21.048   26.222   46.251
| 34> C  -20.361   27.558   45.944
| 35> C  -20.329   28.222   47.341
| 36> C  -20.110   27.022   48.296
| 37> O  -20.473   25.807   47.535
| 38> H  -20.833   25.428   45.533
| 39> H  -19.344   27.382   45.576
| 40> H  -20.898   28.157   45.201
| 41> H  -19.543   28.978   47.434
| 42> H  -21.289   28.710   47.548
| 43> H  -20.733   27.082   49.195
| 44> H  -19.064   26.913   48.597
| 45> C  -23.172   26.101   47.783
| 46> H  -23.182   25.017   47.953
| 47> H  -22.551   26.564   48.561
| 48> O  -22.586   26.394   46.375
| 49> C  -24.621   26.635   47.954
| 50> C  -24.702   28.135   47.644
| 51> C  -24.720   28.133   46.096
| 52> C  -25.525   26.854   45.755
| 53> O  -25.516   26.014   46.972
| 54> H  -24.990   26.359   48.943
| 55> H  -25.634   28.551   48.041
| 56> O  -23.514   28.945   48.230
| 57> H  -25.174   29.036   45.676
| 58> H  -23.697   28.061   45.707
| 59> H  -25.085   26.290   44.926
| 60> H  -26.572   27.070   45.521
| 61> H  -22.569   28.544   47.846
| 62> *
| 63>
| 64>                          ****END OF INPUT****
 Total Charge           Charge          ....    0
 Multiplicity           Mult            ....    1
 Number of Electrons    NEL             ....  102
FINAL SINGLE POINT ENERGY      -652.821439532674
FINAL SINGLE POINT ENERGY      -652.845834556888
FINAL SINGLE POINT ENERGY      -652.853920260078
FINAL SINGLE POINT ENERGY      -652.856663007121
FINAL SINGLE POINT ENERGY      -652.857215482610
FINAL SINGLE POINT ENERGY      -652.857429898976
FINAL SINGLE POINT ENERGY      -652.857512221107
FINAL SINGLE POINT ENERGY      -652.857662452422
FINAL SINGLE POINT ENERGY      -652.857705994584
FINAL SINGLE POINT ENERGY      -652.857737820843
FINAL SINGLE POINT ENERGY      -652.857748655109
FINAL SINGLE POINT ENERGY      -652.857750974369
                    ***********************HURRAY********************

CARTESIAN COORDINATES (ANGSTROEM)
---------------------------------
  C    -21.069792   26.164057   46.376411
  C    -20.420854   27.491539   45.980511
  C    -20.240109   28.181390   47.355483
  C    -19.921542   26.998181   48.297983
  O    -20.373652   25.776423   47.577752
  H    -20.911035   25.354389   45.659822
  H    -19.449141   27.290376   45.515371
  H    -21.035167   28.062680   45.280692
  H    -19.449362   28.937151   47.352153
  H    -21.171195   28.662151   47.667508
  H    -20.441660   27.057985   49.257772
  H    -18.849762   26.873677   48.476876
  C    -23.131741   26.049281   47.818778
  H    -23.164626   24.969525   48.002361
  H    -22.561848   26.520761   48.625438
  O    -22.516845   26.303436   46.517830
  C    -24.555031   26.595746   47.855986
  C    -24.738611   28.107685   47.642072
  C    -24.777326   28.209362   46.086669
  C    -25.501287   26.903960   45.684284
  O    -25.417375   25.993607   46.847220
  H    -24.967747   26.290957   48.826150
  H    -25.698060   28.410986   48.071357
  O    -23.732898   28.933922   48.286189
  H    -25.301372   29.105539   45.740296
  H    -23.752442   28.209706   45.706671
  H    -25.033491   26.419424   44.823426
  H    -26.564198   27.063996   45.477583
  H    -23.086832   29.246109   47.623360

 Multiplicity           Mult            ....    1
 Number of Electrons    NEL             ....  102
 Basis Dimension        Dim             ....  149

ORBITAL ENERGIES
----------------

  NO   OCC          E(Eh)            E(eV)
   0   2.0000     -19.153645      -521.1972
   1   2.0000     -19.145305      -520.9702
   2   2.0000     -19.140262      -520.8330
   3   2.0000     -19.130024      -520.5544
   4   2.0000     -10.282735      -279.8075
   5   2.0000     -10.238321      -278.5989
   6   2.0000     -10.235696      -278.5275
   7   2.0000     -10.226944      -278.2893
   8   2.0000     -10.221976      -278.1541
   9   2.0000     -10.220754      -278.1209
  10   2.0000     -10.198310      -277.5101
  11   2.0000     -10.193237      -277.3721
  12   2.0000     -10.184559      -277.1359
  13   2.0000      -1.057388       -28.7730
  14   2.0000      -1.028329       -27.9823
  15   2.0000      -1.011058       -27.5123
  16   2.0000      -0.991888       -26.9906
  17   2.0000      -0.796618       -21.6771
  18   2.0000      -0.773754       -21.0549
  19   2.0000      -0.766771       -20.8649
  20   2.0000      -0.735988       -20.0272
  21   2.0000      -0.674264       -18.3477
  22   2.0000      -0.609872       -16.5955
  23   2.0000      -0.605368       -16.4729
  24   2.0000      -0.597419       -16.2566
  25   2.0000      -0.560139       -15.2421
  26   2.0000      -0.522218       -14.2103
  27   2.0000      -0.514007       -13.9868
  28   2.0000      -0.502490       -13.6735
  29   2.0000      -0.496275       -13.5043
  30   2.0000      -0.466849       -12.7036
  31   2.0000      -0.455019       -12.3817
  32   2.0000      -0.445421       -12.1205
  33   2.0000      -0.431141       -11.7319
  34   2.0000      -0.422232       -11.4895
  35   2.0000      -0.420070       -11.4307
  36   2.0000      -0.405207       -11.0262
  37   2.0000      -0.398273       -10.8376
  38   2.0000      -0.380168       -10.3449
  39   2.0000      -0.368203       -10.0193
  40   2.0000      -0.366044        -9.9606
  41   2.0000      -0.358440        -9.7537
  42   2.0000      -0.350410        -9.5351
  43   2.0000      -0.333718        -9.0809
  44   2.0000      -0.317808        -8.6480
  45   2.0000      -0.313797        -8.5388
  46   2.0000      -0.306832        -8.3493
  47   2.0000      -0.267648        -7.2831
  48   2.0000      -0.266152        -7.2424
  49   2.0000      -0.249327        -6.7845
  50   2.0000      -0.235973        -6.4212
  51   0.0000       0.044012         1.1976
  52   0.0000       0.076871         2.0918
  53   0.0000       0.091753         2.4967
  54   0.0000       0.098268         2.6740
  55   0.0000       0.102419         2.7870

MULLIKEN ATOMIC CHARGES
-----------------------
   0 C :    0.311244
   1 C :   -0.263703
   2 C :   -0.314622
   3 C :   -0.019349
   4 O :   -0.509184
   5 H :    0.159494
   6 H :    0.149571
   7 H :    0.150815
   8 H :    0.151772
   9 H :    0.136532
  10 H :    0.155991
  11 H :    0.153047
  12 C :    0.015820
  13 H :    0.152182
  14 H :    0.142661
  15 O :   -0.554324
  16 C :    0.089462
  17 C :    0.098159
  18 C :   -0.331317
  19 C :    0.004545
  20 O :   -0.521160
  21 H :    0.145729
  22 H :    0.154777
  23 O :   -0.620767
  24 H :    0.138998
  25 H :    0.161807
  26 H :    0.149192
  27 H :    0.140692
  28 H :    0.371934
Sum of atomic charges:   -0.0000000

LOEWDIN ATOMIC CHARGES
----------------------
   0 C :    0.184140
   1 C :   -0.222211
   2 C :   -0.221668
   3 C :   -0.032230
   4 O :   -0.314948
   5 H :    0.105828
   6 H :    0.116824
   7 H :    0.118848
   8 H :    0.119654
   9 H :    0.104989
  10 H :    0.106813
  11 H :    0.107941
  12 C :   -0.033525
  13 H :    0.108772
  14 H :    0.104320
  15 O :   -0.348750
  16 C :    0.023447
  17 C :    0.038858
  18 C :   -0.244811
  19 C :   -0.021824
  20 O :   -0.320969
  21 H :    0.112685
  22 H :    0.110761
  23 O :   -0.417206
  24 H :    0.111670
  25 H :    0.117596
  26 H :    0.107166
  27 H :    0.100110
  28 H :    0.277722

  Mayer bond orders larger than 0.100000
B(  0-C ,  1-C ) :   0.9286 B(  0-C ,  4-O ) :   0.9132 B(  0-C ,  5-H ) :   0.9295
B(  0-C , 15-O ) :   0.8420 B(  1-C ,  2-C ) :   0.9538 B(  1-C ,  6-H ) :   0.9342
B(  1-C ,  7-H ) :   0.9367 B(  2-C ,  3-C ) :   0.9529 B(  2-C ,  8-H ) :   0.9438
B(  2-C ,  9-H ) :   0.9253 B(  3-C ,  4-O ) :   0.8296 B(  3-C , 10-H ) :   0.9285
B(  3-C , 11-H ) :   0.9398 B( 12-C , 13-H ) :   0.9235 B( 12-C , 14-H ) :   0.9002
B( 12-C , 15-O ) :   0.8208 B( 12-C , 16-C ) :   0.9184 B( 16-C , 17-C ) :   0.8852
B( 16-C , 20-O ) :   0.8704 B( 16-C , 21-H ) :   0.9302 B( 17-C , 18-C ) :   0.9442
B( 17-C , 22-H ) :   0.9328 B( 17-C , 23-O ) :   0.8856 B( 18-C , 19-C ) :   0.9474
B( 18-C , 24-H ) :   0.9403 B( 18-C , 25-H ) :   0.9220 B( 19-C , 20-O ) :   0.8457
B( 19-C , 26-H ) :   0.9317 B( 19-C , 27-H ) :   0.9367 B( 23-O , 28-H ) :   0.7755

FINAL SINGLE POINT ENERGY      -652.857751886221

DIPOLE MOMENT
-------------
                                X             Y             Z
Electronic contribution:     -2.34627      -4.05002       1.05449
Nuclear contribution   :      3.13607       5.17332      -1.55891
                        -----------------------------------------
Total Dipole Moment    :      0.78979       1.12330      -0.50442
                        -----------------------------------------
Magnitude (a.u.)       :      1.46288
Magnitude (Debye)      :      3.71835

Rotational constants in cm-1:     0.046824     0.017477     0.016255
Rotational constants in MHz :  1403.744676   523.956593   487.304805

                             ****ORCA TERMINATED NORMALLY****
TOTAL RUN TIME: 0 days 1 hours 12 minutes 0 seconds 145 msec
