                         Program Version 4.2.0 -  RELEASE  -
|  1> # Test redundant internal optimization
|  2> #
|  3> ! RKS B3LYP  Opt TightSCF SmallPrint
|  4>
|  5> %basis
|  6>         Basis "6-31G"
|  7> end
|  8>
|  9> %geom
| 10> Constraints
| 11> { D 4  0  15  12  45.0   C } # D for Dihedral angle
| 12> { D 0  15  12  16  150.0   C } # D for Dihedral angle
| 13> { D 0  4  3  2   C } # D for Dihedral angle
| 14> { D 4  3  2  1   C } # D for Dihedral angle
| 15> { D 3  2  1  0   C } # D for Dihedral angle
| 16> { D 2  1  0  4   C } # D for Dihedral angle
| 17> { D 1  0  4  3   C } # D for Dihedral angle
| 18> { D 16  20  19  18   C } # D for Dihedral angle
| 19> { D 20  19  18  17   C } # D for Dihedral angle
| 20> { D 19  18  17  16   C } # D for Dihedral angle
| 21> { D 18  17  16  20   C } # D for Dihedral angle
| 22> { D 17  16  20  19   C } # D for Dihedral angle
| 23> { D 15  12  16  20   C } # D for Dihedral angle
| 24> end
| 25> end
| 26>
| 27>
| 28> #%pal
| 29> #nprocs 8
| 30> #end
| 31>
| 32> * xyz 0 1
| 33> C  -21.048   26.222   46.251
| 34> C  -20.361   27.558   45.944
| 35> C  -20.329   28.222   47.341
| 36> C  -20.110   27.022   48.296
| 37> O  -20.473   25.807   47.535
| 38> H  -20.833   25.428   45.533
| 39> H  -19.344   27.382   45.576
| 40> H  -20.898   28.157   45.201
| 41> H  -19.543   28.978   47.434
| 42> H  -21.289   28.710   47.548
| 43> H  -20.733   27.082   49.195
| 44> H  -19.064   26.913   48.597
| 45> C  -23.065   27.161   47.638
| 46> H  -23.226   26.448   48.455
| 47> H  -22.305   27.885   47.959
| 48> O  -22.586   26.394   46.375
| 49> C  -24.389   27.940   47.401
| 50> C  -24.267   28.896   46.209
| 51> C  -24.442   27.930   45.013
| 52> C  -25.465   26.895   45.543
| 53> O  -25.464   27.019   47.017
| 54> H  -24.694   28.418   48.334
| 55> H  -25.078   29.632   46.233
| 56> O  -22.915   29.659   46.173
| 57> H  -24.790   28.435   44.106
| 58> H  -23.487   27.443   44.779
| 59> H  -25.205   25.868   45.269
| 60> H  -26.484   27.104   45.204
| 61> H  -22.087   28.941   46.149
| 62> *
| 63>
| 64>                          ****END OF INPUT****
 Total Charge           Charge          ....    0
 Multiplicity           Mult            ....    1
 Number of Electrons    NEL             ....  102
FINAL SINGLE POINT ENERGY      -652.802211328298
FINAL SINGLE POINT ENERGY      -652.835097938294
FINAL SINGLE POINT ENERGY      -652.850558694372
FINAL SINGLE POINT ENERGY      -652.853793174187
FINAL SINGLE POINT ENERGY      -652.854463482963
FINAL SINGLE POINT ENERGY      -652.854675021792
FINAL SINGLE POINT ENERGY      -652.854695112512
FINAL SINGLE POINT ENERGY      -652.854698403474
                    ***********************HURRAY********************

CARTESIAN COORDINATES (ANGSTROEM)
---------------------------------
  C    -21.130505   26.265079   46.465723
  C    -20.313117   27.476585   45.991959
  C    -20.023222   28.218981   47.331780
  C    -19.853745   27.048097   48.331432
  O    -20.470906   25.861468   47.684986
  H    -21.052204   25.418240   45.781195
  H    -19.382494   27.112784   45.544206
  H    -20.835041   28.081853   45.245048
  H    -19.117982   28.831798   47.274478
  H    -20.849563   28.881967   47.601161
  H    -20.345842   27.223673   49.292442
  H    -18.803360   26.800586   48.507749
  C    -23.158274   27.130097   47.720075
  H    -23.362039   26.393659   48.504234
  H    -22.490439   27.894440   48.126087
  O    -22.563855   26.424027   46.582949
  C    -24.469029   27.810652   47.335711
  C    -24.393330   28.879218   46.232422
  C    -24.511644   28.016749   44.939369
  C    -25.478435   26.892822   45.372205
  O    -25.485407   26.884745   46.855582
  H    -24.866739   28.240091   48.264297
  H    -25.242095   29.560488   46.327239
  O    -23.217195   29.727231   46.297817
  H    -24.888439   28.594190   44.090039
  H    -23.530460   27.604360   44.692756
  H    -25.160445   25.908635   45.018690
  H    -26.507796   27.079630   45.050501
  H    -22.470397   29.286854   45.845870

 Multiplicity           Mult            ....    1
 Number of Electrons    NEL             ....  102
 Basis Dimension        Dim             ....  149

ORBITAL ENERGIES
----------------

  NO   OCC          E(Eh)            E(eV)
   0   2.0000     -19.150882      -521.1220
   1   2.0000     -19.147888      -521.0405
   2   2.0000     -19.147372      -521.0265
   3   2.0000     -19.131933      -520.6064
   4   2.0000     -10.286366      -279.9062
   5   2.0000     -10.239800      -278.6391
   6   2.0000     -10.236678      -278.5542
   7   2.0000     -10.230046      -278.3737
   8   2.0000     -10.228469      -278.3308
   9   2.0000     -10.221175      -278.1323
  10   2.0000     -10.201654      -277.6011
  11   2.0000     -10.199868      -277.5525
  12   2.0000     -10.183574      -277.1091
  13   2.0000      -1.058606       -28.8061
  14   2.0000      -1.030328       -28.0367
  15   2.0000      -1.012374       -27.5481
  16   2.0000      -0.997396       -27.1405
  17   2.0000      -0.797520       -21.7016
  18   2.0000      -0.777334       -21.1523
  19   2.0000      -0.769577       -20.9413
  20   2.0000      -0.738024       -20.0826
  21   2.0000      -0.681404       -18.5419
  22   2.0000      -0.612686       -16.6720
  23   2.0000      -0.605539       -16.4775
  24   2.0000      -0.603702       -16.4276
  25   2.0000      -0.564048       -15.3485
  26   2.0000      -0.525004       -14.2861
  27   2.0000      -0.518590       -14.1116
  28   2.0000      -0.505612       -13.7584
  29   2.0000      -0.496603       -13.5133
  30   2.0000      -0.470120       -12.7926
  31   2.0000      -0.450208       -12.2508
  32   2.0000      -0.450082       -12.2473
  33   2.0000      -0.429895       -11.6980
  34   2.0000      -0.429129       -11.6772
  35   2.0000      -0.426128       -11.5955
  36   2.0000      -0.405958       -11.0467
  37   2.0000      -0.402163       -10.9434
  38   2.0000      -0.384767       -10.4700
  39   2.0000      -0.373540       -10.1645
  40   2.0000      -0.371578       -10.1112
  41   2.0000      -0.359524        -9.7831
  42   2.0000      -0.349507        -9.5106
  43   2.0000      -0.328147        -8.9293
  44   2.0000      -0.322489        -8.7754
  45   2.0000      -0.313641        -8.5346
  46   2.0000      -0.312283        -8.4977
  47   2.0000      -0.269287        -7.3277
  48   2.0000      -0.266230        -7.2445
  49   2.0000      -0.257026        -6.9940
  50   2.0000      -0.236880        -6.4458
  51   0.0000       0.042934         1.1683
  52   0.0000       0.072909         1.9840
  53   0.0000       0.091576         2.4919
  54   0.0000       0.097035         2.6404
  55   0.0000       0.101796         2.7700

MULLIKEN ATOMIC CHARGES
-----------------------
   0 C :    0.304714
   1 C :   -0.280020
   2 C :   -0.333164
   3 C :   -0.014284
   4 O :   -0.504463
   5 H :    0.166641
   6 H :    0.159645
   7 H :    0.131869
   8 H :    0.150956
   9 H :    0.170236
  10 H :    0.150331
  11 H :    0.152355
  12 C :   -0.011549
  13 H :    0.165725
  14 H :    0.135157
  15 O :   -0.534364
  16 C :    0.091353
  17 C :    0.082119
  18 C :   -0.317707
  19 C :    0.005151
  20 O :   -0.518545
  21 H :    0.146221
  22 H :    0.162511
  23 O :   -0.618523
  24 H :    0.142569
  25 H :    0.155504
  26 H :    0.151026
  27 H :    0.139911
  28 H :    0.368625
Sum of atomic charges:   -0.0000000

LOEWDIN ATOMIC CHARGES
----------------------
   0 C :    0.177002
   1 C :   -0.230738
   2 C :   -0.230179
   3 C :   -0.033289
   4 O :   -0.317036
   5 H :    0.112672
   6 H :    0.123631
   7 H :    0.105595
   8 H :    0.118687
   9 H :    0.115759
  10 H :    0.105033
  11 H :    0.107642
  12 C :   -0.043971
  13 H :    0.116435
  14 H :    0.101852
  15 O :   -0.330336
  16 C :    0.019169
  17 C :    0.037436
  18 C :   -0.241954
  19 C :   -0.021676
  20 O :   -0.320535
  21 H :    0.113146
  22 H :    0.115732
  23 O :   -0.414606
  24 H :    0.113880
  25 H :    0.116270
  26 H :    0.108202
  27 H :    0.100338
  28 H :    0.275839

  Mayer bond orders larger than 0.100000
B(  0-C ,  1-C ) :   0.9106 B(  0-C ,  4-O ) :   0.9077 B(  0-C ,  5-H ) :   0.9356
B(  0-C , 15-O ) :   0.8845 B(  1-C ,  2-C ) :   0.9523 B(  1-C ,  6-H ) :   0.9323
B(  1-C ,  7-H ) :   0.9295 B(  2-C ,  3-C ) :   0.9450 B(  2-C ,  8-H ) :   0.9438
B(  2-C ,  9-H ) :   0.9260 B(  3-C ,  4-O ) :   0.8392 B(  3-C , 10-H ) :   0.9324
B(  3-C , 11-H ) :   0.9386 B( 12-C , 13-H ) :   0.9241 B( 12-C , 14-H ) :   0.8949
B( 12-C , 15-O ) :   0.8228 B( 12-C , 16-C ) :   0.9170 B( 16-C , 17-C ) :   0.8821
B( 16-C , 20-O ) :   0.8798 B( 16-C , 21-H ) :   0.9275 B( 17-C , 18-C ) :   0.9404
B( 17-C , 22-H ) :   0.9347 B( 17-C , 23-O ) :   0.8932 B( 18-C , 19-C ) :   0.9447
B( 18-C , 24-H ) :   0.9411 B( 18-C , 25-H ) :   0.9268 B( 19-C , 20-O ) :   0.8399
B( 19-C , 26-H ) :   0.9318 B( 19-C , 27-H ) :   0.9378 B( 23-O , 28-H ) :   0.7765

FINAL SINGLE POINT ENERGY      -652.854697394892

DIPOLE MOMENT
-------------
                                X             Y             Z
Electronic contribution:     -2.97636      -2.97372       1.41099
Nuclear contribution   :      3.93785       3.66487      -1.97370
                        -----------------------------------------
Total Dipole Moment    :      0.96150       0.69115      -0.56271
                        -----------------------------------------
Magnitude (a.u.)       :      1.31103
Magnitude (Debye)      :      3.33238

Rotational constants in cm-1:     0.048982     0.017192     0.015703
Rotational constants in MHz :  1468.430528   515.389958   470.752674

                             ****ORCA TERMINATED NORMALLY****
TOTAL RUN TIME: 0 days 0 hours 47 minutes 7 seconds 849 msec
