                         Program Version 4.2.0 -  RELEASE  -
|  1> # Test redundant internal optimization
|  2> #
|  3> ! RKS B3LYP  Opt TightSCF SmallPrint
|  4>
|  5> %basis
|  6>         Basis "6-31G"
|  7> end
|  8>
|  9> %geom
| 10> Constraints
| 11> { D 4  0  15  12  195.0   C } # D for Dihedral angle
| 12> { D 0  15  12  16  210.0   C } # D for Dihedral angle
| 13> { D 0  4  3  2   C } # D for Dihedral angle
| 14> { D 4  3  2  1   C } # D for Dihedral angle
| 15> { D 3  2  1  0   C } # D for Dihedral angle
| 16> { D 2  1  0  4   C } # D for Dihedral angle
| 17> { D 1  0  4  3   C } # D for Dihedral angle
| 18> { D 16  20  19  18   C } # D for Dihedral angle
| 19> { D 20  19  18  17   C } # D for Dihedral angle
| 20> { D 19  18  17  16   C } # D for Dihedral angle
| 21> { D 18  17  16  20   C } # D for Dihedral angle
| 22> { D 17  16  20  19   C } # D for Dihedral angle
| 23> { D 15  12  16  20   C } # D for Dihedral angle
| 24> end
| 25> end
| 26>
| 27>
| 28> #%pal
| 29> #nprocs 8
| 30> #end
| 31>
| 32> * xyz 0 1
| 33> C  -21.048   26.222   46.251
| 34> C  -20.361   27.558   45.944
| 35> C  -20.329   28.222   47.341
| 36> C  -20.110   27.022   48.296
| 37> O  -20.473   25.807   47.535
| 38> H  -20.833   25.428   45.533
| 39> H  -19.344   27.382   45.576
| 40> H  -20.898   28.157   45.201
| 41> H  -19.543   28.978   47.434
| 42> H  -21.289   28.710   47.548
| 43> H  -20.733   27.082   49.195
| 44> H  -19.064   26.913   48.597
| 45> C  -23.353   26.472   45.026
| 46> H  -22.697   26.908   44.262
| 47> H  -23.647   25.469   44.693
| 48> O  -22.586   26.394   46.375
| 49> C  -24.640   27.337   45.117
| 50> C  -25.569   26.839   46.231
| 51> C  -24.895   27.435   47.490
| 52> C  -24.347   28.794   46.986
| 53> O  -24.309   28.711   45.509
| 54> H  -25.106   27.390   44.131
| 55> H  -26.573   27.255   46.097
| 56> O  -25.682   25.291   46.285
| 57> H  -25.588   27.551   48.329
| 58> H  -24.074   26.787   47.821
| 59> H  -23.340   29.006   47.360
| 60> H  -25.003   29.630   47.244
| 61> H  -24.687   24.854   46.419
| 62> *
| 63>
| 64>                          ****END OF INPUT****
 Total Charge           Charge          ....    0
 Multiplicity           Mult            ....    1
 Number of Electrons    NEL             ....  102
FINAL SINGLE POINT ENERGY      -652.833337753934
FINAL SINGLE POINT ENERGY      -652.856434765728
FINAL SINGLE POINT ENERGY      -652.860406899050
FINAL SINGLE POINT ENERGY      -652.862332091490
FINAL SINGLE POINT ENERGY      -652.862488033762
FINAL SINGLE POINT ENERGY      -652.862514381100
                    ***********************HURRAY********************

CARTESIAN COORDINATES (ANGSTROEM)
---------------------------------
  C    -21.052944   26.226209   46.174319
  C    -20.351387   27.552150   45.890734
  C    -20.342304   28.215374   47.288644
  C    -20.154717   27.015016   48.238975
  O    -20.521208   25.813211   47.439261
  H    -20.846109   25.425434   45.456490
  H    -19.331811   27.351339   45.541942
  H    -20.862913   28.161944   45.141314
  H    -19.546741   28.959100   47.393668
  H    -21.300657   28.710376   47.465694
  H    -20.797008   27.054487   49.122013
  H    -19.115972   26.875019   48.550999
  C    -23.229316   26.466040   45.053193
  H    -22.597463   26.923921   44.280509
  H    -23.510381   25.458364   44.717277
  O    -22.498573   26.385360   46.314013
  C    -24.485413   27.318513   45.193072
  C    -25.509328   26.811345   46.223810
  C    -24.973730   27.442362   47.544940
  C    -24.416156   28.800092   47.070072
  O    -24.232415   28.694569   45.597642
  H    -24.935122   27.373430   44.193966
  H    -26.504353   27.187042   45.976727
  O    -25.647388   25.370916   46.264347
  H    -25.759060   27.548334   48.299075
  H    -24.173365   26.809290   47.936674
  H    -23.456659   29.047666   47.531204
  H    -25.116631   29.623997   47.238919
  H    -24.851875   24.983098   46.686509

 Multiplicity           Mult            ....    1
 Number of Electrons    NEL             ....  102
 Basis Dimension        Dim             ....  149

ORBITAL ENERGIES
----------------

  NO   OCC          E(Eh)            E(eV)
   0   2.0000     -19.149024      -521.0714
   1   2.0000     -19.146473      -521.0020
   2   2.0000     -19.137554      -520.7593
   3   2.0000     -19.137261      -520.7513
   4   2.0000     -10.285023      -279.8697
   5   2.0000     -10.235916      -278.5334
   6   2.0000     -10.233639      -278.4715
   7   2.0000     -10.231973      -278.4261
   8   2.0000     -10.229889      -278.3694
   9   2.0000     -10.224430      -278.2209
  10   2.0000     -10.190105      -277.2869
  11   2.0000     -10.189582      -277.2726
  12   2.0000     -10.179042      -276.9858
  13   2.0000      -1.058940       -28.8152
  14   2.0000      -1.027764       -27.9669
  15   2.0000      -1.009452       -27.4686
  16   2.0000      -0.998755       -27.1775
  17   2.0000      -0.790418       -21.5084
  18   2.0000      -0.773773       -21.0554
  19   2.0000      -0.766714       -20.8633
  20   2.0000      -0.735036       -20.0014
  21   2.0000      -0.679824       -18.4989
  22   2.0000      -0.605540       -16.4776
  23   2.0000      -0.602199       -16.3867
  24   2.0000      -0.595607       -16.2073
  25   2.0000      -0.572186       -15.5700
  26   2.0000      -0.529755       -14.4154
  27   2.0000      -0.507187       -13.8012
  28   2.0000      -0.497810       -13.5461
  29   2.0000      -0.490607       -13.3501
  30   2.0000      -0.475414       -12.9367
  31   2.0000      -0.460669       -12.5355
  32   2.0000      -0.446266       -12.1435
  33   2.0000      -0.434510       -11.8236
  34   2.0000      -0.424295       -11.5457
  35   2.0000      -0.412535       -11.2257
  36   2.0000      -0.402777       -10.9601
  37   2.0000      -0.400571       -10.9001
  38   2.0000      -0.377910       -10.2834
  39   2.0000      -0.374735       -10.1971
  40   2.0000      -0.359373        -9.7790
  41   2.0000      -0.356213        -9.6931
  42   2.0000      -0.352218        -9.5843
  43   2.0000      -0.326670        -8.8891
  44   2.0000      -0.318274        -8.6607
  45   2.0000      -0.312167        -8.4945
  46   2.0000      -0.304970        -8.2987
  47   2.0000      -0.266795        -7.2599
  48   2.0000      -0.265806        -7.2329
  49   2.0000      -0.257855        -7.0166
  50   2.0000      -0.240806        -6.5527
  51   0.0000       0.065058         1.7703
  52   0.0000       0.075249         2.0476
  53   0.0000       0.091809         2.4983
  54   0.0000       0.095452         2.5974
  55   0.0000       0.105227         2.8634

MULLIKEN ATOMIC CHARGES
-----------------------
   0 C :    0.301576
   1 C :   -0.272793
   2 C :   -0.312252
   3 C :   -0.003639
   4 O :   -0.506002
   5 H :    0.142853
   6 H :    0.146639
   7 H :    0.161154
   8 H :    0.145506
   9 H :    0.171505
  10 H :    0.150236
  11 H :    0.145211
  12 C :   -0.029314
  13 H :    0.140435
  14 H :    0.143636
  15 O :   -0.528548
  16 C :    0.095677
  17 C :    0.090250
  18 C :   -0.322733
  19 C :   -0.009939
  20 O :   -0.524334
  21 H :    0.147398
  22 H :    0.159918
  23 O :   -0.608337
  24 H :    0.146584
  25 H :    0.177733
  26 H :    0.141084
  27 H :    0.142142
  28 H :    0.368352
Sum of atomic charges:   -0.0000000

LOEWDIN ATOMIC CHARGES
----------------------
   0 C :    0.180496
   1 C :   -0.229074
   2 C :   -0.216828
   3 C :   -0.025560
   4 O :   -0.305323
   5 H :    0.097474
   6 H :    0.115313
   7 H :    0.122990
   8 H :    0.116453
   9 H :    0.117503
  10 H :    0.107363
  11 H :    0.104295
  12 C :   -0.051084
  13 H :    0.101974
  14 H :    0.103385
  15 O :   -0.346063
  16 C :    0.018551
  17 C :    0.038552
  18 C :   -0.245637
  19 C :   -0.024558
  20 O :   -0.325386
  21 H :    0.113859
  22 H :    0.115320
  23 O :   -0.411580
  24 H :    0.116166
  25 H :    0.127420
  26 H :    0.097835
  27 H :    0.100912
  28 H :    0.285230

  Mayer bond orders larger than 0.100000
B(  0-C ,  1-C ) :   0.9310 B(  0-C ,  4-O ) :   0.9401 B(  0-C ,  5-H ) :   0.9210
B(  0-C , 15-O ) :   0.8204 B(  1-C ,  2-C ) :   0.9520 B(  1-C ,  6-H ) :   0.9332
B(  1-C ,  7-H ) :   0.9291 B(  2-C ,  3-C ) :   0.9559 B(  2-C ,  8-H ) :   0.9444
B(  2-C ,  9-H ) :   0.9311 B(  3-C ,  4-O ) :   0.8336 B(  3-C , 10-H ) :   0.9350
B(  3-C , 11-H ) :   0.9394 B( 12-C , 13-H ) :   0.9180 B( 12-C , 14-H ) :   0.9055
B( 12-C , 15-O ) :   0.8348 B( 12-C , 16-C ) :   0.9096 B( 16-C , 17-C ) :   0.8874
B( 16-C , 20-O ) :   0.8794 B( 16-C , 21-H ) :   0.9275 B( 17-C , 18-C ) :   0.9339
B( 17-C , 22-H ) :   0.9367 B( 17-C , 23-O ) :   0.9034 B( 18-C , 19-C ) :   0.9468
B( 18-C , 24-H ) :   0.9404 B( 18-C , 25-H ) :   0.9234 B( 19-C , 20-O ) :   0.8412
B( 19-C , 26-H ) :   0.9202 B( 19-C , 27-H ) :   0.9377 B( 23-O , 28-H ) :   0.7897

FINAL SINGLE POINT ENERGY      -652.862514939661

DIPOLE MOMENT
-------------
                                X             Y             Z
Electronic contribution:     -2.50117      -3.53171      -1.55262
Nuclear contribution   :      3.28894       4.17001       1.63068
                        -----------------------------------------
Total Dipole Moment    :      0.78777       0.63830       0.07806
                        -----------------------------------------
Magnitude (a.u.)       :      1.01691
Magnitude (Debye)      :      2.58479

Rotational constants in cm-1:     0.045107     0.017006     0.015885
Rotational constants in MHz :  1352.279236   509.825335   476.231583

                             ****ORCA TERMINATED NORMALLY****
TOTAL RUN TIME: 0 days 0 hours 25 minutes 36 seconds 294 msec
