                         Program Version 4.2.0 -  RELEASE  -
|  1> # Test redundant internal optimization
|  2> #
|  3> ! RKS B3LYP  Opt TightSCF SmallPrint
|  4>
|  5> %basis
|  6>         Basis "6-31G"
|  7> end
|  8>
|  9> %geom
| 10> Constraints
| 11> { D 4  0  15  12  180.0   C } # D for Dihedral angle
| 12> { D 0  15  12  16  210.0   C } # D for Dihedral angle
| 13> { D 0  4  3  2   C } # D for Dihedral angle
| 14> { D 4  3  2  1   C } # D for Dihedral angle
| 15> { D 3  2  1  0   C } # D for Dihedral angle
| 16> { D 2  1  0  4   C } # D for Dihedral angle
| 17> { D 1  0  4  3   C } # D for Dihedral angle
| 18> { D 16  20  19  18   C } # D for Dihedral angle
| 19> { D 20  19  18  17   C } # D for Dihedral angle
| 20> { D 19  18  17  16   C } # D for Dihedral angle
| 21> { D 18  17  16  20   C } # D for Dihedral angle
| 22> { D 17  16  20  19   C } # D for Dihedral angle
| 23> { D 15  12  16  20   C } # D for Dihedral angle
| 24> end
| 25> end
| 26>
| 27>
| 28> #%pal
| 29> #nprocs 8
| 30> #end
| 31>
| 32> * xyz 0 1
| 33> C  -21.048   26.222   46.251
| 34> C  -20.361   27.558   45.944
| 35> C  -20.329   28.222   47.341
| 36> C  -20.110   27.022   48.296
| 37> O  -20.473   25.807   47.535
| 38> H  -20.833   25.428   45.533
| 39> H  -19.344   27.382   45.576
| 40> H  -20.898   28.157   45.201
| 41> H  -19.543   28.978   47.434
| 42> H  -21.289   28.710   47.548
| 43> H  -20.733   27.082   49.195
| 44> H  -19.064   26.913   48.597
| 45> C  -23.309   26.834   45.072
| 46> H  -22.622   27.435   44.463
| 47> H  -23.610   25.956   44.485
| 48> O  -22.586   26.394   46.375
| 49> C  -24.584   27.678   45.348
| 50> C  -25.555   26.934   46.273
| 51> C  -24.911   27.171   47.659
| 52> C  -24.324   28.600   47.535
| 53> O  -24.241   28.896   46.089
| 54> H  -25.017   27.992   44.397
| 55> O  -26.962   27.587   46.203
| 56> H  -25.654   25.871   46.027
| 57> H  -25.628   27.085   48.482
| 58> H  -24.112   26.440   47.834
| 59> H  -23.326   28.684   47.977
| 60> H  -24.974   29.358   47.982
| 61> H  -26.886   28.652   46.446
| 62> *
| 63>
| 64>                          ****END OF INPUT****
 Total Charge           Charge          ....    0
 Multiplicity           Mult            ....    1
 Number of Electrons    NEL             ....  102
FINAL SINGLE POINT ENERGY      -652.833920292567
FINAL SINGLE POINT ENERGY      -652.856142049604
FINAL SINGLE POINT ENERGY      -652.860303731932
FINAL SINGLE POINT ENERGY      -652.861650279372
FINAL SINGLE POINT ENERGY      -652.861798692735
FINAL SINGLE POINT ENERGY      -652.861819891998
                    ***********************HURRAY********************

CARTESIAN COORDINATES (ANGSTROEM)
---------------------------------
  C    -21.069624   26.254576   46.163195
  C    -20.328328   27.560755   45.885663
  C    -20.352581   28.245833   47.274391
  C    -20.225453   27.054962   48.245557
  O    -20.590753   25.850458   47.452005
  H    -20.854038   25.440675   45.463009
  H    -19.302924   27.321727   45.580765
  H    -20.779459   28.179370   45.106460
  H    -19.542452   28.971077   47.396479
  H    -21.304568   28.766954   47.403014
  H    -20.896652   27.121479   49.105669
  H    -19.201540   26.897774   48.596174
  C    -23.239776   26.830044   45.090526
  H    -22.606761   27.458491   44.452751
  H    -23.540961   25.945823   44.507893
  O    -22.517684   26.418523   46.282818
  C    -24.477142   27.643877   45.462675
  C    -25.534759   26.946854   46.332330
  C    -24.972536   27.179279   47.758246
  C    -24.327220   28.582172   47.657988
  O    -24.138833   28.856743   46.210660
  H    -24.938028   27.975438   44.523859
  O    -26.841309   27.559852   46.139702
  H    -25.676012   25.893060   46.090543
  H    -25.770823   27.128120   48.504150
  H    -24.214278   26.424463   47.975207
  H    -23.357851   28.629215   48.158965
  H    -24.969492   29.377851   48.050220
  H    -26.754162   28.532554   46.227087

 Multiplicity           Mult            ....    1
 Number of Electrons    NEL             ....  102
 Basis Dimension        Dim             ....  149

ORBITAL ENERGIES
----------------

  NO   OCC          E(Eh)            E(eV)
   0   2.0000     -19.145902      -520.9865
   1   2.0000     -19.144334      -520.9438
   2   2.0000     -19.141579      -520.8688
   3   2.0000     -19.133997      -520.6625
   4   2.0000     -10.284037      -279.8429
   5   2.0000     -10.235935      -278.5340
   6   2.0000     -10.235791      -278.5300
   7   2.0000     -10.235308      -278.5169
   8   2.0000     -10.228393      -278.3287
   9   2.0000     -10.225021      -278.2370
  10   2.0000     -10.190213      -277.2898
  11   2.0000     -10.188262      -277.2367
  12   2.0000     -10.175000      -276.8758
  13   2.0000      -1.057508       -28.7762
  14   2.0000      -1.033146       -28.1133
  15   2.0000      -1.004231       -27.3265
  16   2.0000      -0.995210       -27.0810
  17   2.0000      -0.789683       -21.4884
  18   2.0000      -0.778194       -21.1757
  19   2.0000      -0.764921       -20.8146
  20   2.0000      -0.734847       -19.9962
  21   2.0000      -0.677199       -18.4275
  22   2.0000      -0.605379       -16.4732
  23   2.0000      -0.597671       -16.2635
  24   2.0000      -0.596502       -16.2317
  25   2.0000      -0.575279       -15.6541
  26   2.0000      -0.527955       -14.3664
  27   2.0000      -0.505364       -13.7516
  28   2.0000      -0.498717       -13.5708
  29   2.0000      -0.489371       -13.3165
  30   2.0000      -0.478010       -13.0073
  31   2.0000      -0.458777       -12.4840
  32   2.0000      -0.449714       -12.2373
  33   2.0000      -0.444703       -12.1010
  34   2.0000      -0.417185       -11.3522
  35   2.0000      -0.412539       -11.2258
  36   2.0000      -0.406004       -11.0479
  37   2.0000      -0.390092       -10.6149
  38   2.0000      -0.377388       -10.2692
  39   2.0000      -0.368606       -10.0303
  40   2.0000      -0.358665        -9.7598
  41   2.0000      -0.358056        -9.7432
  42   2.0000      -0.352821        -9.6008
  43   2.0000      -0.329182        -8.9575
  44   2.0000      -0.316643        -8.6163
  45   2.0000      -0.308883        -8.4051
  46   2.0000      -0.300037        -8.1644
  47   2.0000      -0.269297        -7.3279
  48   2.0000      -0.262932        -7.1547
  49   2.0000      -0.258427        -7.0321
  50   2.0000      -0.244340        -6.6488
  51   0.0000       0.062504         1.7008
  52   0.0000       0.082561         2.2466
  53   0.0000       0.094493         2.5713
  54   0.0000       0.100445         2.7332
  55   0.0000       0.104574         2.8456

MULLIKEN ATOMIC CHARGES
-----------------------
   0 C :    0.309509
   1 C :   -0.281746
   2 C :   -0.310720
   3 C :   -0.003288
   4 O :   -0.502970
   5 H :    0.143470
   6 H :    0.148792
   7 H :    0.154766
   8 H :    0.143845
   9 H :    0.177050
  10 H :    0.148893
  11 H :    0.144309
  12 C :   -0.006007
  13 H :    0.137179
  14 H :    0.133129
  15 O :   -0.521331
  16 C :    0.070076
  17 C :    0.079930
  18 C :   -0.296295
  19 C :   -0.022164
  20 O :   -0.530829
  21 H :    0.154236
  22 O :   -0.601992
  23 H :    0.154472
  24 H :    0.148964
  25 H :    0.189930
  26 H :    0.141006
  27 H :    0.137207
  28 H :    0.360578
Sum of atomic charges:    0.0000000

LOEWDIN ATOMIC CHARGES
----------------------
   0 C :    0.183070
   1 C :   -0.230623
   2 C :   -0.218273
   3 C :   -0.025942
   4 O :   -0.303457
   5 H :    0.097324
   6 H :    0.116732
   7 H :    0.118810
   8 H :    0.115633
   9 H :    0.121985
  10 H :    0.106209
  11 H :    0.104054
  12 C :   -0.040867
  13 H :    0.100172
  14 H :    0.097864
  15 O :   -0.336751
  16 C :    0.014380
  17 C :    0.039776
  18 C :   -0.243248
  19 C :   -0.033256
  20 O :   -0.333790
  21 H :    0.115138
  22 O :   -0.416556
  23 H :    0.117788
  24 H :    0.118998
  25 H :    0.137500
  26 H :    0.100522
  27 H :    0.096164
  28 H :    0.280644

  Mayer bond orders larger than 0.100000
B(  0-C ,  1-C ) :   0.9307 B(  0-C ,  4-O ) :   0.9398 B(  0-C ,  5-H ) :   0.9223
B(  0-C , 15-O ) :   0.8228 B(  1-C ,  2-C ) :   0.9499 B(  1-C ,  6-H ) :   0.9331
B(  1-C ,  7-H ) :   0.9270 B(  2-C ,  3-C ) :   0.9566 B(  2-C ,  8-H ) :   0.9444
B(  2-C ,  9-H ) :   0.9306 B(  3-C ,  4-O ) :   0.8340 B(  3-C , 10-H ) :   0.9342
B(  3-C , 11-H ) :   0.9392 B( 12-C , 13-H ) :   0.9104 B( 12-C , 14-H ) :   0.9118
B( 12-C , 15-O ) :   0.8489 B( 12-C , 16-C ) :   0.9036 B( 16-C , 17-C ) :   0.9110
B( 16-C , 20-O ) :   0.8700 B( 16-C , 21-H ) :   0.9210 B( 17-C , 18-C ) :   0.9248
B( 17-C , 22-O ) :   0.8908 B( 17-C , 23-H ) :   0.9353 B( 18-C , 19-C ) :   0.9479
B( 18-C , 24-H ) :   0.9369 B( 18-C , 25-H ) :   0.9151 B( 19-C , 20-O ) :   0.8416
B( 19-C , 26-H ) :   0.9252 B( 19-C , 27-H ) :   0.9373 B( 22-O , 28-H ) :   0.7977

FINAL SINGLE POINT ENERGY      -652.861820662067

DIPOLE MOMENT
-------------
                                X             Y             Z
Electronic contribution:     -3.07653      -2.26008      -1.45569
Nuclear contribution   :      3.94526       2.87478       1.26851
                        -----------------------------------------
Total Dipole Moment    :      0.86874       0.61471      -0.18717
                        -----------------------------------------
Magnitude (a.u.)       :      1.08055
Magnitude (Debye)      :      2.74655

Rotational constants in cm-1:     0.054550     0.015478     0.014850
Rotational constants in MHz :  1635.375475   464.013716   445.180590

                             ****ORCA TERMINATED NORMALLY****
TOTAL RUN TIME: 0 days 0 hours 30 minutes 5 seconds 155 msec
