                         Program Version 4.2.0 -  RELEASE  -
|  1> # Test redundant internal optimization
|  2> #
|  3> ! RKS B3LYP  Opt TightSCF SmallPrint
|  4>
|  5> %basis
|  6>         Basis "6-31G"
|  7> end
|  8>
|  9> %geom
| 10> Constraints
| 11> { D 4  0  15  12  315.0   C } # D for Dihedral angle
| 12> { D 0  15  12  16  240.0   C } # D for Dihedral angle
| 13> { D 0  4  3  2   C } # D for Dihedral angle
| 14> { D 4  3  2  1   C } # D for Dihedral angle
| 15> { D 3  2  1  0   C } # D for Dihedral angle
| 16> { D 2  1  0  4   C } # D for Dihedral angle
| 17> { D 1  0  4  3   C } # D for Dihedral angle
| 18> { D 16  20  19  18   C } # D for Dihedral angle
| 19> { D 20  19  18  17   C } # D for Dihedral angle
| 20> { D 19  18  17  16   C } # D for Dihedral angle
| 21> { D 18  17  16  20   C } # D for Dihedral angle
| 22> { D 17  16  20  19   C } # D for Dihedral angle
| 23> { D 15  12  16  20   C } # D for Dihedral angle
| 24> end
| 25> end
| 26>
| 27>
| 28> #%pal
| 29> #nprocs 8
| 30> #end
| 31>
| 32> * xyz 0 1
| 33> C  -21.048   26.222   46.251
| 34> C  -20.361   27.558   45.944
| 35> C  -20.329   28.222   47.341
| 36> C  -20.110   27.022   48.296
| 37> O  -20.473   25.807   47.535
| 38> H  -20.833   25.428   45.533
| 39> H  -19.344   27.382   45.576
| 40> H  -20.898   28.157   45.201
| 41> H  -19.543   28.978   47.434
| 42> H  -21.289   28.710   47.548
| 43> H  -20.733   27.082   49.195
| 44> H  -19.064   26.913   48.597
| 45> C  -23.319   25.255   47.135
| 46> H  -22.584   24.510   47.466
| 47> H  -23.829   25.651   48.022
| 48> O  -22.586   26.394   46.375
| 49> C  -24.382   24.536   46.259
| 50> C  -25.396   25.532   45.684
| 51> C  -24.604   26.135   44.499
| 52> C  -23.769   24.935   43.986
| 53> O  -23.753   23.937   45.078
| 54> H  -24.826   23.721   46.833
| 55> H  -26.283   25.000   45.325
| 56> O  -25.850   26.604   46.712
| 57> H  -25.253   26.554   43.723
| 58> H  -23.947   26.938   44.855
| 59> H  -22.739   25.214   43.740
| 60> H  -24.223   24.453   43.116
| 61> H  -24.976   27.149   47.086
| 62> *
| 63>
| 64>                          ****END OF INPUT****
 Total Charge           Charge          ....    0
 Multiplicity           Mult            ....    1
 Number of Electrons    NEL             ....  102
FINAL SINGLE POINT ENERGY      -652.837674233417
FINAL SINGLE POINT ENERGY      -652.861305545030
FINAL SINGLE POINT ENERGY      -652.865743264087
FINAL SINGLE POINT ENERGY      -652.867364223205
FINAL SINGLE POINT ENERGY      -652.867496329098
FINAL SINGLE POINT ENERGY      -652.867521231269
FINAL SINGLE POINT ENERGY      -652.867521977543
                    ***********************HURRAY********************

CARTESIAN COORDINATES (ANGSTROEM)
---------------------------------
  C    -21.035929   26.177309   46.301197
  C    -20.414356   27.540710   46.002228
  C    -20.370025   28.181509   47.406925
  C    -20.077345   26.982354   48.334724
  O    -20.420188   25.767647   47.542573
  H    -20.827200   25.377008   45.586244
  H    -19.405682   27.394344   45.600037
  H    -21.002637   28.116757   45.284434
  H    -19.609099   28.963719   47.488725
  H    -21.343957   28.621676   47.640478
  H    -20.675095   26.986953   49.249585
  H    -19.019126   26.892022   48.595316
  C    -23.200649   25.314070   47.140889
  H    -22.493037   24.567781   47.510367
  H    -23.690207   25.779035   48.004687
  O    -22.472371   26.361598   46.418083
  C    -24.254315   24.643079   46.266386
  C    -25.352365   25.567755   45.709948
  C    -24.673853   26.131945   44.423424
  C    -23.837132   24.933797   43.928140
  O    -23.698351   24.003266   45.079413
  H    -24.695822   23.838150   46.867494
  H    -26.242394   24.984011   45.465709
  O    -25.811329   26.579592   46.638246
  H    -25.407600   26.468863   43.685280
  H    -24.027977   26.967758   44.702836
  H    -22.839666   25.226423   43.587601
  H    -24.336599   24.375582   43.130284
  H    -25.109695   27.254289   46.753747

 Multiplicity           Mult            ....    1
 Number of Electrons    NEL             ....  102
 Basis Dimension        Dim             ....  149

ORBITAL ENERGIES
----------------

  NO   OCC          E(Eh)            E(eV)
   0   2.0000     -19.149033      -521.0717
   1   2.0000     -19.147663      -521.0344
   2   2.0000     -19.137758      -520.7649
   3   2.0000     -19.133397      -520.6462
   4   2.0000     -10.282200      -279.7929
   5   2.0000     -10.234495      -278.4948
   6   2.0000     -10.231773      -278.4207
   7   2.0000     -10.226053      -278.2651
   8   2.0000     -10.223490      -278.1953
   9   2.0000     -10.222157      -278.1590
  10   2.0000     -10.191500      -277.3248
  11   2.0000     -10.190907      -277.3087
  12   2.0000     -10.178458      -276.9699
  13   2.0000      -1.058490       -28.8030
  14   2.0000      -1.025333       -27.9007
  15   2.0000      -1.007998       -27.4290
  16   2.0000      -0.994062       -27.0498
  17   2.0000      -0.794483       -21.6190
  18   2.0000      -0.770286       -20.9605
  19   2.0000      -0.764141       -20.7933
  20   2.0000      -0.733412       -19.9572
  21   2.0000      -0.675058       -18.3693
  22   2.0000      -0.605532       -16.4774
  23   2.0000      -0.600293       -16.3348
  24   2.0000      -0.596549       -16.2329
  25   2.0000      -0.564779       -15.3684
  26   2.0000      -0.526826       -14.3357
  27   2.0000      -0.509483       -13.8638
  28   2.0000      -0.494216       -13.4483
  29   2.0000      -0.493350       -13.4247
  30   2.0000      -0.463877       -12.6227
  31   2.0000      -0.460379       -12.5275
  32   2.0000      -0.444238       -12.0883
  33   2.0000      -0.429523       -11.6879
  34   2.0000      -0.421598       -11.4723
  35   2.0000      -0.412743       -11.2313
  36   2.0000      -0.400900       -10.9090
  37   2.0000      -0.395833       -10.7712
  38   2.0000      -0.381901       -10.3921
  39   2.0000      -0.365414        -9.9434
  40   2.0000      -0.361480        -9.8364
  41   2.0000      -0.355462        -9.6726
  42   2.0000      -0.349697        -9.5157
  43   2.0000      -0.334826        -9.1111
  44   2.0000      -0.322850        -8.7852
  45   2.0000      -0.306993        -8.3537
  46   2.0000      -0.299760        -8.1569
  47   2.0000      -0.274063        -7.4576
  48   2.0000      -0.264051        -7.1852
  49   2.0000      -0.258032        -7.0214
  50   2.0000      -0.235255        -6.4016
  51   0.0000       0.066620         1.8128
  52   0.0000       0.079489         2.1630
  53   0.0000       0.094689         2.5766
  54   0.0000       0.101117         2.7515
  55   0.0000       0.108594         2.9550

MULLIKEN ATOMIC CHARGES
-----------------------
   0 C :    0.292997
   1 C :   -0.264256
   2 C :   -0.299079
   3 C :   -0.008987
   4 O :   -0.511369
   5 H :    0.163738
   6 H :    0.148728
   7 H :    0.154481
   8 H :    0.145243
   9 H :    0.156203
  10 H :    0.148052
  11 H :    0.148571
  12 C :   -0.035682
  13 H :    0.178992
  14 H :    0.140172
  15 O :   -0.547932
  16 C :    0.095872
  17 C :    0.084641
  18 C :   -0.310062
  19 C :   -0.005642
  20 O :   -0.524659
  21 H :    0.147322
  22 H :    0.161001
  23 O :   -0.605786
  24 H :    0.142862
  25 H :    0.162041
  26 H :    0.137018
  27 H :    0.142233
  28 H :    0.363287
Sum of atomic charges:   -0.0000000

LOEWDIN ATOMIC CHARGES
----------------------
   0 C :    0.176522
   1 C :   -0.215384
   2 C :   -0.216322
   3 C :   -0.028959
   4 O :   -0.323273
   5 H :    0.105236
   6 H :    0.116144
   7 H :    0.122423
   8 H :    0.115650
   9 H :    0.116178
  10 H :    0.105749
  11 H :    0.106011
  12 C :   -0.052181
  13 H :    0.124662
  14 H :    0.105703
  15 O :   -0.347418
  16 C :    0.013648
  17 C :    0.036755
  18 C :   -0.243509
  19 C :   -0.025709
  20 O :   -0.326759
  21 H :    0.113397
  22 H :    0.115560
  23 O :   -0.410928
  24 H :    0.114477
  25 H :    0.119942
  26 H :    0.099199
  27 H :    0.101075
  28 H :    0.282110

  Mayer bond orders larger than 0.100000
B(  0-C ,  1-C ) :   0.9479 B(  0-C ,  4-O ) :   0.9026 B(  0-C ,  5-H ) :   0.9187
B(  0-C , 15-O ) :   0.8394 B(  1-C ,  2-C ) :   0.9534 B(  1-C ,  6-H ) :   0.9384
B(  1-C ,  7-H ) :   0.9366 B(  2-C ,  3-C ) :   0.9562 B(  2-C ,  8-H ) :   0.9447
B(  2-C ,  9-H ) :   0.9455 B(  3-C ,  4-O ) :   0.8318 B(  3-C , 10-H ) :   0.9355
B(  3-C , 11-H ) :   0.9403 B( 12-C , 13-H ) :   0.9150 B( 12-C , 14-H ) :   0.9180
B( 12-C , 15-O ) :   0.8262 B( 12-C , 16-C ) :   0.9040 B( 16-C , 17-C ) :   0.8850
B( 16-C , 20-O ) :   0.8709 B( 16-C , 21-H ) :   0.9261 B( 17-C , 18-C ) :   0.9334
B( 17-C , 22-H ) :   0.9364 B( 17-C , 23-O ) :   0.9023 B( 18-C , 19-C ) :   0.9448
B( 18-C , 24-H ) :   0.9411 B( 18-C , 25-H ) :   0.9270 B( 19-C , 20-O ) :   0.8418
B( 19-C , 26-H ) :   0.9324 B( 19-C , 27-H ) :   0.9382 B( 23-O , 28-H ) :   0.7934

FINAL SINGLE POINT ENERGY      -652.867520333338

DIPOLE MOMENT
-------------
                                X             Y             Z
Electronic contribution:     -2.36549      -4.13350       0.72113
Nuclear contribution   :      3.10779       5.20028      -0.87737
                        -----------------------------------------
Total Dipole Moment    :      0.74231       1.06678      -0.15625
                        -----------------------------------------
Magnitude (a.u.)       :      1.30899
Magnitude (Debye)      :      3.32718

Rotational constants in cm-1:     0.049259     0.015232     0.014614
Rotational constants in MHz :  1476.758531   456.639766   438.121179

                             ****ORCA TERMINATED NORMALLY****
TOTAL RUN TIME: 0 days 0 hours 44 minutes 23 seconds 504 msec
