                         Program Version 4.2.0 -  RELEASE  -
|  1> # Test redundant internal optimization
|  2> #
|  3> ! RKS B3LYP  Opt TightSCF SmallPrint
|  4>
|  5> %basis
|  6>         Basis "6-31G"
|  7> end
|  8>
|  9> %geom
| 10> Constraints
| 11> { D 4  0  15  12  150.0   C } # D for Dihedral angle
| 12> { D 0  15  12  16  225.0   C } # D for Dihedral angle
| 13> { D 0  4  3  2   C } # D for Dihedral angle
| 14> { D 4  3  2  1   C } # D for Dihedral angle
| 15> { D 3  2  1  0   C } # D for Dihedral angle
| 16> { D 2  1  0  4   C } # D for Dihedral angle
| 17> { D 1  0  4  3   C } # D for Dihedral angle
| 18> { D 16  20  19  18   C } # D for Dihedral angle
| 19> { D 20  19  18  17   C } # D for Dihedral angle
| 20> { D 19  18  17  16   C } # D for Dihedral angle
| 21> { D 18  17  16  20   C } # D for Dihedral angle
| 22> { D 17  16  20  19   C } # D for Dihedral angle
| 23> { D 15  12  16  20   C } # D for Dihedral angle
| 24> end
| 25> end
| 26>
| 27>
| 28> #%pal
| 29> #nprocs 8
| 30> #end
| 31>
| 32> * xyz 0 1
| 33> C  -21.048   26.222   46.251
| 34> C  -20.361   27.558   45.944
| 35> C  -20.329   28.222   47.341
| 36> C  -20.110   27.022   48.296
| 37> O  -20.473   25.807   47.535
| 38> H  -20.833   25.428   45.533
| 39> H  -19.344   27.382   45.576
| 40> H  -20.898   28.157   45.201
| 41> H  -19.543   28.978   47.434
| 42> H  -21.289   28.710   47.548
| 43> H  -20.733   27.082   49.195
| 44> H  -19.064   26.913   48.597
| 45> C  -23.210   27.459   45.431
| 46> H  -22.412   28.089   45.019
| 47> H  -23.730   26.973   44.596
| 48> O  -22.586   26.394   46.375
| 49> C  -24.232   28.378   46.156
| 50> C  -25.334   27.557   46.837
| 51> C  -24.618   27.080   48.124
| 52> C  -23.703   28.277   48.482
| 53> O  -23.584   29.098   47.257
| 54> H  -24.598   29.129   45.453
| 55> O  -26.539   28.471   47.188
| 56> H  -25.696   26.727   46.221
| 57> H  -25.315   26.832   48.930
| 58> H  -24.019   26.186   47.912
| 59> H  -22.704   27.962   48.801
| 60> H  -24.136   28.917   49.257
| 61> H  -26.199   29.309   47.805
| 62> *
| 63>
| 64>                          ****END OF INPUT****
 Total Charge           Charge          ....    0
 Multiplicity           Mult            ....    1
 Number of Electrons    NEL             ....  102
FINAL SINGLE POINT ENERGY      -652.825018392850
FINAL SINGLE POINT ENERGY      -652.848621540460
FINAL SINGLE POINT ENERGY      -652.855603173783
FINAL SINGLE POINT ENERGY      -652.857823545421
FINAL SINGLE POINT ENERGY      -652.858177271863
FINAL SINGLE POINT ENERGY      -652.858241338508
FINAL SINGLE POINT ENERGY      -652.858250379475
FINAL SINGLE POINT ENERGY      -652.858251079702
                    ***********************HURRAY********************

CARTESIAN COORDINATES (ANGSTROEM)
---------------------------------
  C    -21.063178   26.315818   46.175047
  C    -20.212343   27.554866   45.891692
  C    -20.179203   28.250141   47.279281
  C    -20.154511   27.053787   48.253948
  O    -20.619087   25.882355   47.467845
  H    -20.883383   25.481033   45.492018
  H    -19.212586   27.208655   45.605965
  H    -20.575223   28.204481   45.092645
  H    -19.305809   28.898487   47.397022
  H    -21.083144   28.852778   47.411432
  H    -20.811008   27.181717   49.118260
  H    -19.146905   26.811384   48.604075
  C    -23.205680   27.495122   45.433991
  H    -22.502707   28.201082   44.981765
  H    -23.734061   26.979013   44.619163
  O    -22.514409   26.513961   46.251057
  C    -24.218697   28.304235   46.245875
  C    -25.362203   27.518014   46.904918
  C    -24.706574   27.069472   48.237458
  C    -23.790696   28.261345   48.599213
  O    -23.607620   29.046996   47.349189
  H    -24.640726   29.054043   45.564215
  O    -26.522216   28.373272   47.111840
  H    -25.725130   26.685862   46.301401
  H    -25.466235   26.867222   48.997220
  H    -24.108532   26.172722   48.061766
  H    -22.813735   27.940349   48.961681
  H    -24.239044   28.939565   49.333556
  H    -26.235358   29.201221   47.551462

 Multiplicity           Mult            ....    1
 Number of Electrons    NEL             ....  102
 Basis Dimension        Dim             ....  149

ORBITAL ENERGIES
----------------

  NO   OCC          E(Eh)            E(eV)
   0   2.0000     -19.145431      -520.9737
   1   2.0000     -19.143413      -520.9188
   2   2.0000     -19.143061      -520.9092
   3   2.0000     -19.134463      -520.6752
   4   2.0000     -10.283964      -279.8409
   5   2.0000     -10.236455      -278.5481
   6   2.0000     -10.236078      -278.5378
   7   2.0000     -10.235501      -278.5221
   8   2.0000     -10.227515      -278.3048
   9   2.0000     -10.226085      -278.2659
  10   2.0000     -10.192830      -277.3610
  11   2.0000     -10.185586      -277.1639
  12   2.0000     -10.175166      -276.8803
  13   2.0000      -1.054057       -28.6823
  14   2.0000      -1.034443       -28.1486
  15   2.0000      -1.004428       -27.3319
  16   2.0000      -0.993659       -27.0388
  17   2.0000      -0.788645       -21.4601
  18   2.0000      -0.779136       -21.2014
  19   2.0000      -0.765731       -20.8366
  20   2.0000      -0.736071       -20.0295
  21   2.0000      -0.678865       -18.4729
  22   2.0000      -0.605525       -16.4772
  23   2.0000      -0.599500       -16.3132
  24   2.0000      -0.597378       -16.2555
  25   2.0000      -0.570641       -15.5279
  26   2.0000      -0.527468       -14.3531
  27   2.0000      -0.506422       -13.7804
  28   2.0000      -0.498433       -13.5630
  29   2.0000      -0.493373       -13.4254
  30   2.0000      -0.474447       -12.9103
  31   2.0000      -0.459257       -12.4970
  32   2.0000      -0.447065       -12.1653
  33   2.0000      -0.444614       -12.0986
  34   2.0000      -0.421933       -11.4814
  35   2.0000      -0.412944       -11.2368
  36   2.0000      -0.404513       -11.0074
  37   2.0000      -0.389455       -10.5976
  38   2.0000      -0.379708       -10.3324
  39   2.0000      -0.366628        -9.9764
  40   2.0000      -0.358849        -9.7648
  41   2.0000      -0.358194        -9.7469
  42   2.0000      -0.351167        -9.5557
  43   2.0000      -0.328984        -8.9521
  44   2.0000      -0.316608        -8.6153
  45   2.0000      -0.308311        -8.3896
  46   2.0000      -0.295526        -8.0417
  47   2.0000      -0.272949        -7.4273
  48   2.0000      -0.264595        -7.2000
  49   2.0000      -0.256564        -6.9815
  50   2.0000      -0.243172        -6.6170
  51   0.0000       0.064255         1.7485
  52   0.0000       0.081459         2.2166
  53   0.0000       0.095728         2.6049
  54   0.0000       0.101058         2.7499
  55   0.0000       0.102031         2.7764

MULLIKEN ATOMIC CHARGES
-----------------------
   0 C :    0.324791
   1 C :   -0.301993
   2 C :   -0.318719
   3 C :   -0.008143
   4 O :   -0.500369
   5 H :    0.150168
   6 H :    0.153644
   7 H :    0.147591
   8 H :    0.141376
   9 H :    0.190339
  10 H :    0.147723
  11 H :    0.143750
  12 C :   -0.002561
  13 H :    0.136087
  14 H :    0.134996
  15 O :   -0.533687
  16 C :    0.074171
  17 C :    0.075748
  18 C :   -0.290223
  19 C :   -0.035547
  20 O :   -0.529654
  21 H :    0.155437
  22 O :   -0.603233
  23 H :    0.156045
  24 H :    0.149760
  25 H :    0.189669
  26 H :    0.153724
  27 H :    0.137947
  28 H :    0.361162
Sum of atomic charges:   -0.0000000

LOEWDIN ATOMIC CHARGES
----------------------
   0 C :    0.187287
   1 C :   -0.231845
   2 C :   -0.225594
   3 C :   -0.028031
   4 O :   -0.306000
   5 H :    0.100212
   6 H :    0.120321
   7 H :    0.114998
   8 H :    0.114652
   9 H :    0.129310
  10 H :    0.101156
  11 H :    0.103450
  12 C :   -0.037667
  13 H :    0.101378
  14 H :    0.099993
  15 O :   -0.340788
  16 C :    0.010811
  17 C :    0.038951
  18 C :   -0.241162
  19 C :   -0.035344
  20 O :   -0.333239
  21 H :    0.115180
  22 O :   -0.417225
  23 H :    0.118312
  24 H :    0.119625
  25 H :    0.138182
  26 H :    0.105602
  27 H :    0.096661
  28 H :    0.280814

  Mayer bond orders larger than 0.100000
B(  0-C ,  1-C ) :   0.9323 B(  0-C ,  4-O ) :   0.9338 B(  0-C ,  5-H ) :   0.9272
B(  0-C , 15-O ) :   0.8309 B(  1-C ,  2-C ) :   0.9498 B(  1-C ,  6-H ) :   0.9328
B(  1-C ,  7-H ) :   0.9244 B(  2-C ,  3-C ) :   0.9548 B(  2-C ,  8-H ) :   0.9451
B(  2-C ,  9-H ) :   0.9184 B(  3-C ,  4-O ) :   0.8356 B(  3-C , 10-H ) :   0.9247
B(  3-C , 11-H ) :   0.9388 B( 12-C , 13-H ) :   0.9078 B( 12-C , 14-H ) :   0.9160
B( 12-C , 15-O ) :   0.8567 B( 12-C , 16-C ) :   0.8972 B( 16-C , 17-C ) :   0.9102
B( 16-C , 20-O ) :   0.8672 B( 16-C , 21-H ) :   0.9197 B( 17-C , 18-C ) :   0.9268
B( 17-C , 22-O ) :   0.8901 B( 17-C , 23-H ) :   0.9351 B( 18-C , 19-C ) :   0.9470
B( 18-C , 24-H ) :   0.9366 B( 18-C , 25-H ) :   0.9150 B( 19-C , 20-O ) :   0.8319
B( 19-C , 26-H ) :   0.9218 B( 19-C , 27-H ) :   0.9377 B( 22-O , 28-H ) :   0.7975

FINAL SINGLE POINT ENERGY      -652.858249870994

DIPOLE MOMENT
-------------
                                X             Y             Z
Electronic contribution:     -3.21347      -1.63058      -0.96035
Nuclear contribution   :      4.09526       2.21950       0.68935
                        -----------------------------------------
Total Dipole Moment    :      0.88179       0.58893      -0.27100
                        -----------------------------------------
Magnitude (a.u.)       :      1.09446
Magnitude (Debye)      :      2.78189

Rotational constants in cm-1:     0.053150     0.016634     0.015765
Rotational constants in MHz :  1593.410682   498.662871   472.618877

                             ****ORCA TERMINATED NORMALLY****
TOTAL RUN TIME: 0 days 0 hours 28 minutes 23 seconds 969 msec
