                         Program Version 4.2.0 -  RELEASE  -
|  1> # Test redundant internal optimization
|  2> #
|  3> ! RKS B3LYP  Opt TightSCF SmallPrint
|  4>
|  5> %basis
|  6>         Basis "6-31G"
|  7> end
|  8>
|  9> %geom
| 10> Constraints
| 11> { D 4  0  15  12  330.0   C } # D for Dihedral angle
| 12> { D 0  15  12  16  255.0   C } # D for Dihedral angle
| 13> { D 0  4  3  2   C } # D for Dihedral angle
| 14> { D 4  3  2  1   C } # D for Dihedral angle
| 15> { D 3  2  1  0   C } # D for Dihedral angle
| 16> { D 2  1  0  4   C } # D for Dihedral angle
| 17> { D 1  0  4  3   C } # D for Dihedral angle
| 18> { D 16  20  19  18   C } # D for Dihedral angle
| 19> { D 20  19  18  17   C } # D for Dihedral angle
| 20> { D 19  18  17  16   C } # D for Dihedral angle
| 21> { D 18  17  16  20   C } # D for Dihedral angle
| 22> { D 17  16  20  19   C } # D for Dihedral angle
| 23> { D 15  12  16  20   C } # D for Dihedral angle
| 24> end
| 25> end
| 26>
| 27>
| 28> #%pal
| 29> #nprocs 8
| 30> #end
| 31>
| 32> * xyz 0 1
| 33> C  -21.048   26.222   46.251
| 34> C  -20.361   27.558   45.944
| 35> C  -20.329   28.222   47.341
| 36> C  -20.110   27.022   48.296
| 37> O  -20.473   25.807   47.535
| 38> H  -20.833   25.428   45.533
| 39> H  -19.344   27.382   45.576
| 40> H  -20.898   28.157   45.201
| 41> H  -19.543   28.978   47.434
| 42> H  -21.289   28.710   47.548
| 43> H  -20.733   27.082   49.195
| 44> H  -19.064   26.913   48.597
| 45> C  -23.271   25.476   47.424
| 46> H  -22.507   25.056   48.091
| 47> H  -23.980   26.051   48.033
| 48> O  -22.586   26.394   46.375
| 49> C  -24.051   24.300   46.774
| 50> C  -24.808   23.484   47.828
| 51> C  -26.050   24.372   48.081
| 52> C  -26.340   24.974   46.683
| 53> O  -25.104   24.810   45.889
| 54> H  -23.368   23.715   46.155
| 55> O  -25.227   22.109   47.239
| 56> H  -24.221   23.306   48.737
| 57> H  -26.901   23.809   48.478
| 58> H  -25.807   25.163   48.800
| 59> H  -26.597   26.039   46.731
| 60> H  -27.136   24.441   46.156
| 61> H  -25.816   22.264   46.328
| 62> *
| 63>
| 64>                          ****END OF INPUT****
 Total Charge           Charge          ....    0
 Multiplicity           Mult            ....    1
 Number of Electrons    NEL             ....  102
FINAL SINGLE POINT ENERGY      -652.835083708252
FINAL SINGLE POINT ENERGY      -652.857593562272
FINAL SINGLE POINT ENERGY      -652.861502174237
FINAL SINGLE POINT ENERGY      -652.862233729966
FINAL SINGLE POINT ENERGY      -652.862335252324
FINAL SINGLE POINT ENERGY      -652.862351141187
                    ***********************HURRAY********************

CARTESIAN COORDINATES (ANGSTROEM)
---------------------------------
  C    -21.104448   26.144262   46.302674
  C    -20.501515   27.505265   45.957004
  C    -20.396547   28.164656   47.349319
  C    -20.058444   26.980692   48.280703
  O    -20.432110   25.751942   47.521895
  H    -20.908296   25.343461   45.583788
  H    -19.511742   27.359149   45.509621
  H    -21.130915   28.064271   45.261679
  H    -19.635426   28.950190   47.386967
  H    -21.360670   28.605775   47.619056
  H    -20.614911   26.996572   49.221524
  H    -18.989551   26.895642   48.495545
  C    -23.224812   25.512852   47.458652
  H    -22.494302   25.100395   48.163686
  H    -23.890489   26.200704   47.991044
  O    -22.541615   26.320662   46.456705
  C    -24.027044   24.383656   46.811855
  C    -24.810824   23.532080   47.820970
  C    -26.083457   24.392031   48.039584
  C    -26.327620   25.013417   46.640830
  O    -25.053948   24.888199   45.894640
  H    -23.357613   23.760642   46.210246
  O    -25.135663   22.228582   47.261788
  H    -24.265773   23.321491   48.742223
  H    -26.914502   23.771772   48.384447
  H    -25.893781   25.165702   48.792441
  H    -26.609911   26.069402   46.690124
  H    -27.091447   24.474812   46.071206
  H    -25.427622   22.345724   46.332785

 Multiplicity           Mult            ....    1
 Number of Electrons    NEL             ....  102
 Basis Dimension        Dim             ....  149

ORBITAL ENERGIES
----------------

  NO   OCC          E(Eh)            E(eV)
   0   2.0000     -19.149504      -521.0845
   1   2.0000     -19.137332      -520.7533
   2   2.0000     -19.136823      -520.7394
   3   2.0000     -19.135917      -520.7148
   4   2.0000     -10.277684      -279.6700
   5   2.0000     -10.239926      -278.6426
   6   2.0000     -10.231241      -278.4062
   7   2.0000     -10.228893      -278.3423
   8   2.0000     -10.227363      -278.3007
   9   2.0000     -10.224252      -278.2160
  10   2.0000     -10.188067      -277.2314
  11   2.0000     -10.187889      -277.2265
  12   2.0000     -10.184589      -277.1368
  13   2.0000      -1.054383       -28.6912
  14   2.0000      -1.032788       -28.1036
  15   2.0000      -1.003108       -27.2959
  16   2.0000      -0.989762       -26.9328
  17   2.0000      -0.791593       -21.5403
  18   2.0000      -0.779975       -21.2242
  19   2.0000      -0.764031       -20.7903
  20   2.0000      -0.733212       -19.9517
  21   2.0000      -0.670386       -18.2421
  22   2.0000      -0.603219       -16.4144
  23   2.0000      -0.601496       -16.3675
  24   2.0000      -0.596340       -16.2272
  25   2.0000      -0.570893       -15.5348
  26   2.0000      -0.523805       -14.2535
  27   2.0000      -0.508152       -13.8275
  28   2.0000      -0.496859       -13.5202
  29   2.0000      -0.491647       -13.3784
  30   2.0000      -0.473151       -12.8751
  31   2.0000      -0.457554       -12.4507
  32   2.0000      -0.451527       -12.2867
  33   2.0000      -0.435348       -11.8464
  34   2.0000      -0.422829       -11.5058
  35   2.0000      -0.410238       -11.1631
  36   2.0000      -0.398062       -10.8318
  37   2.0000      -0.390873       -10.6362
  38   2.0000      -0.371695       -10.1143
  39   2.0000      -0.369552       -10.0560
  40   2.0000      -0.359583        -9.7847
  41   2.0000      -0.354772        -9.6538
  42   2.0000      -0.349229        -9.5030
  43   2.0000      -0.335930        -9.1411
  44   2.0000      -0.327675        -8.9165
  45   2.0000      -0.306383        -8.3371
  46   2.0000      -0.295257        -8.0344
  47   2.0000      -0.268459        -7.3051
  48   2.0000      -0.266337        -7.2474
  49   2.0000      -0.261545        -7.1170
  50   2.0000      -0.233298        -6.3484
  51   0.0000       0.069767         1.8985
  52   0.0000       0.083523         2.2728
  53   0.0000       0.090049         2.4503
  54   0.0000       0.100210         2.7268
  55   0.0000       0.108143         2.9427

MULLIKEN ATOMIC CHARGES
-----------------------
   0 C :    0.292232
   1 C :   -0.258849
   2 C :   -0.301828
   3 C :   -0.012675
   4 O :   -0.514734
   5 H :    0.151897
   6 H :    0.143732
   7 H :    0.165884
   8 H :    0.144648
   9 H :    0.159541
  10 H :    0.143459
  11 H :    0.149812
  12 C :   -0.025572
  13 H :    0.162233
  14 H :    0.137551
  15 O :   -0.518088
  16 C :    0.071746
  17 C :    0.075364
  18 C :   -0.296075
  19 C :   -0.028596
  20 O :   -0.511882
  21 H :    0.160022
  22 O :   -0.601833
  23 H :    0.151092
  24 H :    0.161627
  25 H :    0.141593
  26 H :    0.147917
  27 H :    0.144852
  28 H :    0.364928
Sum of atomic charges:    0.0000000

LOEWDIN ATOMIC CHARGES
----------------------
   0 C :    0.178114
   1 C :   -0.215029
   2 C :   -0.217390
   3 C :   -0.030566
   4 O :   -0.324446
   5 H :    0.099262
   6 H :    0.113323
   7 H :    0.128760
   8 H :    0.115653
   9 H :    0.117813
  10 H :    0.102884
  11 H :    0.106498
  12 C :   -0.050980
  13 H :    0.115233
  14 H :    0.103489
  15 O :   -0.326962
  16 C :    0.010462
  17 C :    0.034363
  18 C :   -0.241212
  19 C :   -0.038624
  20 O :   -0.323920
  21 H :    0.115723
  22 O :   -0.414980
  23 H :    0.115062
  24 H :    0.126103
  25 H :    0.111494
  26 H :    0.105010
  27 H :    0.101721
  28 H :    0.283141

  Mayer bond orders larger than 0.100000
B(  0-C ,  1-C ) :   0.9437 B(  0-C ,  4-O ) :   0.8983 B(  0-C ,  5-H ) :   0.9222
B(  0-C , 15-O ) :   0.8548 B(  1-C ,  2-C ) :   0.9536 B(  1-C ,  6-H ) :   0.9378
B(  1-C ,  7-H ) :   0.9345 B(  2-C ,  3-C ) :   0.9559 B(  2-C ,  8-H ) :   0.9448
B(  2-C ,  9-H ) :   0.9447 B(  3-C ,  4-O ) :   0.8290 B(  3-C , 10-H ) :   0.9358
B(  3-C , 11-H ) :   0.9406 B( 12-C , 13-H ) :   0.8985 B( 12-C , 14-H ) :   0.9364
B( 12-C , 15-O ) :   0.8495 B( 12-C , 16-C ) :   0.8860 B( 16-C , 17-C ) :   0.8989
B( 16-C , 20-O ) :   0.8624 B( 16-C , 21-H ) :   0.9278 B( 17-C , 18-C ) :   0.9110
B( 17-C , 22-O ) :   0.8931 B( 17-C , 23-H ) :   0.9333 B( 18-C , 19-C ) :   0.9406
B( 18-C , 24-H ) :   0.9378 B( 18-C , 25-H ) :   0.9346 B( 19-C , 20-O ) :   0.8534
B( 19-C , 26-H ) :   0.9337 B( 19-C , 27-H ) :   0.9378 B( 22-O , 28-H ) :   0.7937

FINAL SINGLE POINT ENERGY      -652.862353138853

DIPOLE MOMENT
-------------
                                X             Y             Z
Electronic contribution:     -0.80148      -4.32869      -2.72789
Nuclear contribution   :      0.94239       5.30633       3.31854
                        -----------------------------------------
Total Dipole Moment    :      0.14091       0.97765       0.59065
                        -----------------------------------------
Magnitude (a.u.)       :      1.15088
Magnitude (Debye)      :      2.92529

Rotational constants in cm-1:     0.062545     0.011920     0.011358
Rotational constants in MHz :  1875.053487   357.346495   340.492894

                             ****ORCA TERMINATED NORMALLY****
TOTAL RUN TIME: 0 days 0 hours 18 minutes 14 seconds 379 msec
