                         Program Version 4.2.0 -  RELEASE  -
|  1> # Test redundant internal optimization
|  2> #
|  3> ! RKS B3LYP  Opt TightSCF SmallPrint
|  4>
|  5> %basis
|  6>         Basis "6-31G"
|  7> end
|  8>
|  9> %geom
| 10> Constraints
| 11> { D 4  0  15  12  225.0   C } # D for Dihedral angle
| 12> { D 0  15  12  16  195.0   C } # D for Dihedral angle
| 13> { D 0  4  3  2   C } # D for Dihedral angle
| 14> { D 4  3  2  1   C } # D for Dihedral angle
| 15> { D 3  2  1  0   C } # D for Dihedral angle
| 16> { D 2  1  0  4   C } # D for Dihedral angle
| 17> { D 1  0  4  3   C } # D for Dihedral angle
| 18> { D 16  20  19  18   C } # D for Dihedral angle
| 19> { D 20  19  18  17   C } # D for Dihedral angle
| 20> { D 19  18  17  16   C } # D for Dihedral angle
| 21> { D 18  17  16  20   C } # D for Dihedral angle
| 22> { D 17  16  20  19   C } # D for Dihedral angle
| 23> { D 15  12  16  20   C } # D for Dihedral angle
| 24> end
| 25> end
| 26>
| 27>
| 28> #%pal
| 29> #nprocs 8
| 30> #end
| 31>
| 32> * xyz 0 1
| 33> C  -21.048   26.222   46.251
| 34> C  -20.361   27.558   45.944
| 35> C  -20.329   28.222   47.341
| 36> C  -20.110   27.022   48.296
| 37> O  -20.473   25.807   47.535
| 38> H  -20.833   25.428   45.533
| 39> H  -19.344   27.382   45.576
| 40> H  -20.898   28.157   45.201
| 41> H  -19.543   28.978   47.434
| 42> H  -21.289   28.710   47.548
| 43> H  -20.733   27.082   49.195
| 44> H  -19.064   26.913   48.597
| 45> C  -23.415   25.773   45.218
| 46> H  -22.945   26.025   44.259
| 47> H  -23.443   24.679   45.309
| 48> O  -22.586   26.394   46.375
| 49> C  -24.883   26.282   45.190
| 50> C  -24.945   27.785   44.895
| 51> C  -24.745   27.812   43.361
| 52> C  -25.471   26.527   42.889
| 53> O  -25.619   25.665   44.081
| 54> H  -25.384   25.981   46.113
| 55> H  -25.932   28.180   45.163
| 56> O  -23.867   28.602   45.659
| 57> H  -25.150   28.716   42.896
| 58> H  -23.676   27.762   43.121
| 59> H  -24.909   25.986   42.122
| 60> H  -26.477   26.732   42.512
| 61> H  -22.871   28.223   45.406
| 62> *
| 63>
| 64>                          ****END OF INPUT****
 Total Charge           Charge          ....    0
 Multiplicity           Mult            ....    1
 Number of Electrons    NEL             ....  102
FINAL SINGLE POINT ENERGY      -652.826182651313
FINAL SINGLE POINT ENERGY      -652.851384726054
FINAL SINGLE POINT ENERGY      -652.857712777949
FINAL SINGLE POINT ENERGY      -652.860588805181
FINAL SINGLE POINT ENERGY      -652.862385486010
FINAL SINGLE POINT ENERGY      -652.863820205528
FINAL SINGLE POINT ENERGY      -652.864740603812
FINAL SINGLE POINT ENERGY      -652.865158714783
FINAL SINGLE POINT ENERGY      -652.865232318190
FINAL SINGLE POINT ENERGY      -652.865245182340
FINAL SINGLE POINT ENERGY      -652.865247659218
                    ***********************HURRAY********************

CARTESIAN COORDINATES (ANGSTROEM)
---------------------------------
  C    -21.084793   26.176391   46.205327
  C    -20.403879   27.502360   45.871753
  C    -20.437209   28.232127   47.236658
  C    -20.245336   27.082771   48.247973
  O    -20.571246   25.835448   47.499423
  H    -20.859407   25.342540   45.535756
  H    -19.372671   27.313023   45.553346
  H    -20.923351   28.055155   45.084181
  H    -19.655133   28.992886   47.318451
  H    -21.401657   28.728778   47.381281
  H    -20.908209   27.149700   49.113643
  H    -19.211016   26.978829   48.586857
  C    -23.308049   25.720257   45.188920
  H    -22.820680   25.906181   44.221441
  H    -23.359941   24.638345   45.352600
  O    -22.537609   26.354782   46.267870
  C    -24.719302   26.317054   45.205058
  C    -24.796046   27.825401   44.915348
  C    -24.681585   27.855635   43.363400
  C    -25.431676   26.577377   42.933315
  O    -25.513432   25.706426   44.142757
  H    -25.203202   26.056983   46.150909
  H    -25.784439   28.190202   45.218951
  O    -23.792154   28.636459   45.562628
  H    -25.115220   28.764634   42.938970
  H    -23.621664   27.828926   43.089650
  H    -24.924870   26.024754   42.136173
  H    -26.461779   26.775952   42.624411
  H    -23.197446   28.035624   46.072948

 Multiplicity           Mult            ....    1
 Number of Electrons    NEL             ....  102
 Basis Dimension        Dim             ....  149

ORBITAL ENERGIES
----------------

  NO   OCC          E(Eh)            E(eV)
   0   2.0000     -19.163635      -521.4690
   1   2.0000     -19.149456      -521.0832
   2   2.0000     -19.143400      -520.9184
   3   2.0000     -19.117996      -520.2271
   4   2.0000     -10.292021      -280.0601
   5   2.0000     -10.241888      -278.6959
   6   2.0000     -10.237489      -278.5762
   7   2.0000     -10.233444      -278.4662
   8   2.0000     -10.231723      -278.4193
   9   2.0000     -10.229417      -278.3566
  10   2.0000     -10.193889      -277.3898
  11   2.0000     -10.193008      -277.3659
  12   2.0000     -10.182839      -277.0891
  13   2.0000      -1.064998       -28.9801
  14   2.0000      -1.029107       -28.0034
  15   2.0000      -1.009752       -27.4768
  16   2.0000      -0.995609       -27.0919
  17   2.0000      -0.795397       -21.6438
  18   2.0000      -0.775534       -21.1034
  19   2.0000      -0.770548       -20.9677
  20   2.0000      -0.736739       -20.0477
  21   2.0000      -0.681017       -18.5314
  22   2.0000      -0.607093       -16.5198
  23   2.0000      -0.603944       -16.4341
  24   2.0000      -0.595384       -16.2012
  25   2.0000      -0.584442       -15.9035
  26   2.0000      -0.529898       -14.4192
  27   2.0000      -0.521164       -14.1816
  28   2.0000      -0.501806       -13.6548
  29   2.0000      -0.490530       -13.3480
  30   2.0000      -0.474647       -12.9158
  31   2.0000      -0.461749       -12.5648
  32   2.0000      -0.445296       -12.1171
  33   2.0000      -0.433679       -11.8010
  34   2.0000      -0.431809       -11.7501
  35   2.0000      -0.425097       -11.5675
  36   2.0000      -0.407398       -11.0859
  37   2.0000      -0.389614       -10.6019
  38   2.0000      -0.382746       -10.4150
  39   2.0000      -0.372961       -10.1488
  40   2.0000      -0.363636        -9.8950
  41   2.0000      -0.362260        -9.8576
  42   2.0000      -0.349845        -9.5198
  43   2.0000      -0.343279        -9.3411
  44   2.0000      -0.325161        -8.8481
  45   2.0000      -0.322552        -8.7771
  46   2.0000      -0.294529        -8.0145
  47   2.0000      -0.274362        -7.4658
  48   2.0000      -0.265176        -7.2158
  49   2.0000      -0.249740        -6.7958
  50   2.0000      -0.247409        -6.7323
  51   0.0000       0.053001         1.4422
  52   0.0000       0.074545         2.0285
  53   0.0000       0.093098         2.5333
  54   0.0000       0.095163         2.5895
  55   0.0000       0.099296         2.7020

MULLIKEN ATOMIC CHARGES
-----------------------
   0 C :    0.300211
   1 C :   -0.278342
   2 C :   -0.311124
   3 C :   -0.005370
   4 O :   -0.498440
   5 H :    0.149482
   6 H :    0.151104
   7 H :    0.159000
   8 H :    0.150380
   9 H :    0.169313
  10 H :    0.157989
  11 H :    0.147004
  12 C :   -0.017683
  13 H :    0.136356
  14 H :    0.168572
  15 O :   -0.551286
  16 C :    0.045713
  17 C :    0.122171
  18 C :   -0.294928
  19 C :   -0.023863
  20 O :   -0.520650
  21 H :    0.166036
  22 H :    0.143035
  23 O :   -0.656714
  24 H :    0.150407
  25 H :    0.142465
  26 H :    0.141857
  27 H :    0.152436
  28 H :    0.404867
Sum of atomic charges:    0.0000000

LOEWDIN ATOMIC CHARGES
----------------------
   0 C :    0.179805
   1 C :   -0.228903
   2 C :   -0.217533
   3 C :   -0.026014
   4 O :   -0.306019
   5 H :    0.104531
   6 H :    0.117574
   7 H :    0.122102
   8 H :    0.119083
   9 H :    0.120435
  10 H :    0.111276
  11 H :    0.105482
  12 C :   -0.043306
  13 H :    0.095384
  14 H :    0.115486
  15 O :   -0.343580
  16 C :    0.018556
  17 C :    0.043247
  18 C :   -0.232713
  19 C :   -0.033043
  20 O :   -0.321915
  21 H :    0.118209
  22 H :    0.102904
  23 O :   -0.443179
  24 H :    0.121307
  25 H :    0.109417
  26 H :    0.101709
  27 H :    0.107394
  28 H :    0.282306

  Mayer bond orders larger than 0.100000
B(  0-C ,  1-C ) :   0.9408 B(  0-C ,  4-O ) :   0.9487 B(  0-C ,  5-H ) :   0.9215
B(  0-C , 15-O ) :   0.7949 B(  1-C ,  2-C ) :   0.9505 B(  1-C ,  6-H ) :   0.9349
B(  1-C ,  7-H ) :   0.9294 B(  2-C ,  3-C ) :   0.9515 B(  2-C ,  8-H ) :   0.9445
B(  2-C ,  9-H ) :   0.9396 B(  3-C ,  4-O ) :   0.8302 B(  3-C , 10-H ) :   0.9342
B(  3-C , 11-H ) :   0.9394 B( 12-C , 13-H ) :   0.9185 B( 12-C , 14-H ) :   0.9215
B( 12-C , 15-O ) :   0.7888 B( 12-C , 16-C ) :   0.9093 B( 15-O , 28-H ) :   0.1054
B( 16-C , 17-C ) :   0.9149 B( 16-C , 20-O ) :   0.8571 B( 16-C , 21-H ) :   0.9277
B( 17-C , 18-C ) :   0.9058 B( 17-C , 22-H ) :   0.9281 B( 17-C , 23-O ) :   0.9275
B( 18-C , 19-C ) :   0.9400 B( 18-C , 24-H ) :   0.9452 B( 18-C , 25-H ) :   0.9429
B( 19-C , 20-O ) :   0.8335 B( 19-C , 26-H ) :   0.9343 B( 19-C , 27-H ) :   0.9376
B( 23-O , 28-H ) :   0.6951

FINAL SINGLE POINT ENERGY      -652.865247783785

DIPOLE MOMENT
-------------
                                X             Y             Z
Electronic contribution:     -2.33856      -3.64868       2.32383
Nuclear contribution   :      3.14629       3.96496      -2.93462
                        -----------------------------------------
Total Dipole Moment    :      0.80774       0.31628      -0.61079
                        -----------------------------------------
Magnitude (a.u.)       :      1.06091
Magnitude (Debye)      :      2.69662

Rotational constants in cm-1:     0.060472     0.013918     0.012723
Rotational constants in MHz :  1812.906239   417.240243   381.420567

                             ****ORCA TERMINATED NORMALLY****
TOTAL RUN TIME: 0 days 0 hours 47 minutes 24 seconds 681 msec
