                         Program Version 4.2.0 -  RELEASE  -
|  1> # Test redundant internal optimization
|  2> #
|  3> ! RKS B3LYP  Opt TightSCF SmallPrint
|  4>
|  5> %basis
|  6>         Basis "6-31G"
|  7> end
|  8>
|  9> %geom
| 10> Constraints
| 11> { D 4  0  15  12  225.0   C } # D for Dihedral angle
| 12> { D 0  15  12  16  165.0   C } # D for Dihedral angle
| 13> { D 0  4  3  2   C } # D for Dihedral angle
| 14> { D 4  3  2  1   C } # D for Dihedral angle
| 15> { D 3  2  1  0   C } # D for Dihedral angle
| 16> { D 2  1  0  4   C } # D for Dihedral angle
| 17> { D 1  0  4  3   C } # D for Dihedral angle
| 18> { D 16  20  19  18   C } # D for Dihedral angle
| 19> { D 20  19  18  17   C } # D for Dihedral angle
| 20> { D 19  18  17  16   C } # D for Dihedral angle
| 21> { D 18  17  16  20   C } # D for Dihedral angle
| 22> { D 17  16  20  19   C } # D for Dihedral angle
| 23> { D 15  12  16  20   C } # D for Dihedral angle
| 24> end
| 25> end
| 26>
| 27>
| 28> #%pal
| 29> #nprocs 8
| 30> #end
| 31>
| 32> * xyz 0 1
| 33> C  -21.048   26.222   46.251
| 34> C  -20.361   27.558   45.944
| 35> C  -20.329   28.222   47.341
| 36> C  -20.110   27.022   48.296
| 37> O  -20.473   25.807   47.535
| 38> H  -20.833   25.428   45.533
| 39> H  -19.344   27.382   45.576
| 40> H  -20.898   28.157   45.201
| 41> H  -19.543   28.978   47.434
| 42> H  -21.289   28.710   47.548
| 43> H  -20.733   27.082   49.195
| 44> H  -19.064   26.913   48.597
| 45> C  -23.415   25.773   45.218
| 46> H  -23.319   26.403   44.325
| 47> H  -23.041   24.771   44.972
| 48> O  -22.586   26.394   46.375
| 49> C  -24.925   25.642   45.564
| 50> C  -25.572   27.018   45.756
| 51> C  -25.789   27.471   44.293
| 52> C  -26.124   26.147   43.561
| 53> O  -25.659   25.052   44.439
| 54> H  -25.040   24.965   46.412
| 55> O  -26.933   26.868   46.491
| 56> H  -24.947   27.712   46.328
| 57> H  -26.584   28.216   44.192
| 58> H  -24.866   27.910   43.895
| 59> H  -25.623   26.066   42.591
| 60> H  -27.199   26.010   43.417
| 61> H  -27.577   26.176   45.935
| 62> *
| 63>
| 64>                          ****END OF INPUT****
 Total Charge           Charge          ....    0
 Multiplicity           Mult            ....    1
 Number of Electrons    NEL             ....  102
FINAL SINGLE POINT ENERGY      -652.836179724125
FINAL SINGLE POINT ENERGY      -652.859421991605
FINAL SINGLE POINT ENERGY      -652.862997083694
FINAL SINGLE POINT ENERGY      -652.863625486648
FINAL SINGLE POINT ENERGY      -652.863711004069
FINAL SINGLE POINT ENERGY      -652.863721514995
                    ***********************HURRAY********************

CARTESIAN COORDINATES (ANGSTROEM)
---------------------------------
  C    -21.114176   26.171310   46.187324
  C    -20.437208   27.512886   45.913310
  C    -20.531016   28.206130   47.293192
  C    -20.363463   27.032238   48.281836
  O    -20.644228   25.802151   47.494905
  H    -20.847714   25.357287   45.505813
  H    -19.391292   27.344033   45.630651
  H    -20.929633   28.074394   45.114965
  H    -19.769206   28.979442   47.429181
  H    -21.516930   28.666673   47.406789
  H    -21.059438   27.074011   49.123163
  H    -19.341229   26.935103   48.659244
  C    -23.304060   25.732781   45.123945
  H    -23.179911   26.314878   44.199073
  H    -22.957912   24.708357   44.932276
  O    -22.558803   26.333857   46.217295
  C    -24.770721   25.693951   45.545057
  C    -25.417832   27.066338   45.778403
  C    -25.735573   27.515098   44.329451
  C    -26.105551   26.188144   43.621234
  O    -25.571137   25.093936   44.471311
  H    -24.876385   25.057875   46.427554
  O    -26.627067   26.937645   46.576752
  H    -24.772649   27.753687   46.323041
  H    -26.550370   28.243781   44.321774
  H    -24.855431   27.980006   43.871988
  H    -25.672724   26.103420   42.619845
  H    -27.187279   26.038225   43.547566
  H    -27.135060   26.157366   46.268064

 Multiplicity           Mult            ....    1
 Number of Electrons    NEL             ....  102
 Basis Dimension        Dim             ....  149

ORBITAL ENERGIES
----------------

  NO   OCC          E(Eh)            E(eV)
   0   2.0000     -19.145658      -520.9798
   1   2.0000     -19.145203      -520.9675
   2   2.0000     -19.140355      -520.8355
   3   2.0000     -19.134501      -520.6762
   4   2.0000     -10.282067      -279.7893
   5   2.0000     -10.235698      -278.5275
   6   2.0000     -10.234569      -278.4968
   7   2.0000     -10.233047      -278.4554
   8   2.0000     -10.232488      -278.4401
   9   2.0000     -10.225099      -278.2391
  10   2.0000     -10.188179      -277.2344
  11   2.0000     -10.188037      -277.2306
  12   2.0000     -10.187067      -277.2042
  13   2.0000      -1.054851       -28.7040
  14   2.0000      -1.035995       -28.1909
  15   2.0000      -1.003985       -27.3198
  16   2.0000      -0.997690       -27.1485
  17   2.0000      -0.789697       -21.4888
  18   2.0000      -0.779456       -21.2101
  19   2.0000      -0.768664       -20.9164
  20   2.0000      -0.730517       -19.8784
  21   2.0000      -0.675647       -18.3853
  22   2.0000      -0.604533       -16.4502
  23   2.0000      -0.600651       -16.3446
  24   2.0000      -0.590512       -16.0686
  25   2.0000      -0.584990       -15.9184
  26   2.0000      -0.523438       -14.2435
  27   2.0000      -0.519500       -14.1363
  28   2.0000      -0.498457       -13.5637
  29   2.0000      -0.488586       -13.2951
  30   2.0000      -0.470729       -12.8092
  31   2.0000      -0.455627       -12.3982
  32   2.0000      -0.451763       -12.2931
  33   2.0000      -0.444409       -12.0930
  34   2.0000      -0.426551       -11.6070
  35   2.0000      -0.414862       -11.2890
  36   2.0000      -0.401250       -10.9186
  37   2.0000      -0.392522       -10.6811
  38   2.0000      -0.374773       -10.1981
  39   2.0000      -0.366831        -9.9820
  40   2.0000      -0.361679        -9.8418
  41   2.0000      -0.356513        -9.7012
  42   2.0000      -0.353945        -9.6313
  43   2.0000      -0.331243        -9.0136
  44   2.0000      -0.316006        -8.5989
  45   2.0000      -0.313621        -8.5341
  46   2.0000      -0.303594        -8.2612
  47   2.0000      -0.273652        -7.4465
  48   2.0000      -0.263688        -7.1753
  49   2.0000      -0.250741        -6.8230
  50   2.0000      -0.247601        -6.7376
  51   0.0000       0.064372         1.7516
  52   0.0000       0.071184         1.9370
  53   0.0000       0.093645         2.5482
  54   0.0000       0.098321         2.6754
  55   0.0000       0.104184         2.8350

MULLIKEN ATOMIC CHARGES
-----------------------
   0 C :    0.293757
   1 C :   -0.256857
   2 C :   -0.301095
   3 C :   -0.002819
   4 O :   -0.501231
   5 H :    0.141678
   6 H :    0.144523
   7 H :    0.141769
   8 H :    0.142623
   9 H :    0.162202
  10 H :    0.155853
  11 H :    0.141962
  12 C :   -0.001348
  13 H :    0.121968
  14 H :    0.148914
  15 O :   -0.523849
  16 C :    0.055591
  17 C :    0.090411
  18 C :   -0.300432
  19 C :   -0.032042
  20 O :   -0.527498
  21 H :    0.171871
  22 O :   -0.603170
  23 H :    0.173203
  24 H :    0.164894
  25 H :    0.141756
  26 H :    0.145662
  27 H :    0.148471
  28 H :    0.363232
Sum of atomic charges:   -0.0000000

LOEWDIN ATOMIC CHARGES
----------------------
   0 C :    0.178478
   1 C :   -0.224024
   2 C :   -0.216818
   3 C :   -0.026072
   4 O :   -0.309831
   5 H :    0.099398
   6 H :    0.113425
   7 H :    0.115340
   8 H :    0.114647
   9 H :    0.118771
  10 H :    0.110022
  11 H :    0.102578
  12 C :   -0.037215
  13 H :    0.087021
  14 H :    0.105659
  15 O :   -0.337843
  16 C :    0.018417
  17 C :    0.038667
  18 C :   -0.242604
  19 C :   -0.038592
  20 O :   -0.331006
  21 H :    0.121989
  22 O :   -0.414659
  23 H :    0.126040
  24 H :    0.127428
  25 H :    0.112026
  26 H :    0.103443
  27 H :    0.103435
  28 H :    0.281879

  Mayer bond orders larger than 0.100000
B(  0-C ,  1-C ) :   0.9386 B(  0-C ,  4-O ) :   0.9360 B(  0-C ,  5-H ) :   0.9194
B(  0-C , 15-O ) :   0.8280 B(  1-C ,  2-C ) :   0.9558 B(  1-C ,  6-H ) :   0.9352
B(  1-C ,  7-H ) :   0.9391 B(  2-C ,  3-C ) :   0.9544 B(  2-C ,  8-H ) :   0.9450
B(  2-C ,  9-H ) :   0.9436 B(  3-C ,  4-O ) :   0.8363 B(  3-C , 10-H ) :   0.9341
B(  3-C , 11-H ) :   0.9397 B( 12-C , 13-H ) :   0.9185 B( 12-C , 14-H ) :   0.9138
B( 12-C , 15-O ) :   0.8307 B( 12-C , 16-C ) :   0.9072 B( 16-C , 17-C ) :   0.9150
B( 16-C , 20-O ) :   0.8421 B( 16-C , 21-H ) :   0.9239 B( 17-C , 18-C ) :   0.9109
B( 17-C , 22-O ) :   0.8907 B( 17-C , 23-H ) :   0.9246 B( 18-C , 19-C ) :   0.9418
B( 18-C , 24-H ) :   0.9370 B( 18-C , 25-H ) :   0.9353 B( 19-C , 20-O ) :   0.8431
B( 19-C , 26-H ) :   0.9357 B( 19-C , 27-H ) :   0.9380 B( 22-O , 28-H ) :   0.7955

FINAL SINGLE POINT ENERGY      -652.863723552525

DIPOLE MOMENT
-------------
                                X             Y             Z
Electronic contribution:     -2.70858      -4.76420       2.02519
Nuclear contribution   :      3.30427       5.62265      -3.07091
                        -----------------------------------------
Total Dipole Moment    :      0.59569       0.85845      -1.04571
                        -----------------------------------------
Magnitude (a.u.)       :      1.47828
Magnitude (Debye)      :      3.75748

Rotational constants in cm-1:     0.056483     0.012014     0.011598
Rotational constants in MHz :  1693.331826   360.173374   347.696215

                             ****ORCA TERMINATED NORMALLY****
TOTAL RUN TIME: 0 days 2 hours 16 minutes 38 seconds 849 msec
