                         Program Version 4.2.0 -  RELEASE  -
|  1> # Test redundant internal optimization
|  2> #
|  3> ! RKS B3LYP  Opt TightSCF SmallPrint
|  4>
|  5> %basis
|  6>         Basis "6-31G"
|  7> end
|  8>
|  9> %geom
| 10> Constraints
| 11> { D 4  0  15  12  285.0   C } # D for Dihedral angle
| 12> { D 0  15  12  16  60.0   C } # D for Dihedral angle
| 13> { D 0  4  3  2   C } # D for Dihedral angle
| 14> { D 4  3  2  1   C } # D for Dihedral angle
| 15> { D 3  2  1  0   C } # D for Dihedral angle
| 16> { D 2  1  0  4   C } # D for Dihedral angle
| 17> { D 1  0  4  3   C } # D for Dihedral angle
| 18> { D 16  20  19  18   C } # D for Dihedral angle
| 19> { D 20  19  18  17   C } # D for Dihedral angle
| 20> { D 19  18  17  16   C } # D for Dihedral angle
| 21> { D 18  17  16  20   C } # D for Dihedral angle
| 22> { D 17  16  20  19   C } # D for Dihedral angle
| 23> { D 15  12  16  20   C } # D for Dihedral angle
| 24> end
| 25> end
| 26>
| 27>
| 28> #%pal
| 29> #nprocs 8
| 30> #end
| 31>
| 32> * xyz 0 1
| 33> C  -21.048   26.222   46.251
| 34> C  -20.361   27.558   45.944
| 35> C  -20.329   28.222   47.341
| 36> C  -20.110   27.022   48.296
| 37> O  -20.473   25.807   47.535
| 38> H  -20.833   25.428   45.533
| 39> H  -19.344   27.382   45.576
| 40> H  -20.898   28.157   45.201
| 41> H  -19.543   28.978   47.434
| 42> H  -21.289   28.710   47.548
| 43> H  -20.733   27.082   49.195
| 44> H  -19.064   26.913   48.597
| 45> C  -23.396   25.070   46.435
| 46> H  -24.465   25.303   46.513
| 47> H  -23.238   24.482   45.522
| 48> O  -22.586   26.394   46.375
| 49> C  -23.001   24.179   47.646
| 50> C  -23.734   22.834   47.609
| 51> C  -22.903   22.051   46.565
| 52> C  -21.460   22.554   46.816
| 53> O  -21.581   23.818   47.575
| 54> H  -23.142   24.746   48.568
| 55> O  -23.656   22.146   48.999
| 56> H  -24.789   22.927   47.329
| 57> H  -22.992   20.966   46.678
| 58> H  -23.231   22.311   45.551
| 59> H  -20.914   22.746   45.885
| 60> H  -20.878   21.863   47.432
| 61> H  -22.607   22.042   49.300
| 62> *
| 63>
| 64>                          ****END OF INPUT****
 Total Charge           Charge          ....    0
 Multiplicity           Mult            ....    1
 Number of Electrons    NEL             ....  102
FINAL SINGLE POINT ENERGY      -652.816994056979
FINAL SINGLE POINT ENERGY      -652.841710921485
FINAL SINGLE POINT ENERGY      -652.854269684557
FINAL SINGLE POINT ENERGY      -652.856137381089
FINAL SINGLE POINT ENERGY      -652.856508735860
FINAL SINGLE POINT ENERGY      -652.856544995769
FINAL SINGLE POINT ENERGY      -652.856550556229
                    ***********************HURRAY********************

CARTESIAN COORDINATES (ANGSTROEM)
---------------------------------
  C    -20.902484   26.277988   46.241994
  C    -20.500403   27.724374   45.954146
  C    -20.469961   28.334612   47.375282
  C    -19.956724   27.166435   48.244305
  O    -20.165180   25.937160   47.435762
  H    -20.610704   25.538188   45.489139
  H    -19.502713   27.734669   45.499994
  H    -21.203453   28.223085   45.284068
  H    -19.827456   29.218044   47.440943
  H    -21.483444   28.620125   47.671062
  H    -20.497226   27.064523   49.188994
  H    -18.883474   27.227762   48.449559
  C    -23.132543   25.070190   46.493473
  H    -24.156113   25.444796   46.597897
  H    -23.064211   24.542498   45.526422
  O    -22.337302   26.280800   46.403615
  C    -22.868999   24.069007   47.623480
  C    -23.779364   22.834439   47.548908
  C    -23.005653   21.928413   46.552668
  C    -21.524067   22.232015   46.885341
  O    -21.514528   23.514428   47.634350
  H    -22.986082   24.581095   48.584393
  O    -23.904087   22.208078   48.854816
  H    -24.801239   23.049611   47.233063
  H    -23.273566   20.879458   46.700552
  H    -23.248594   22.204529   45.520228
  H    -20.900155   22.335458   45.992614
  H    -21.075335   21.475490   47.536731
  H    -23.022938   22.195731   49.285201

 Multiplicity           Mult            ....    1
 Number of Electrons    NEL             ....  102
 Basis Dimension        Dim             ....  149

ORBITAL ENERGIES
----------------

  NO   OCC          E(Eh)            E(eV)
   0   2.0000     -19.138834      -520.7941
   1   2.0000     -19.138320      -520.7802
   2   2.0000     -19.137963      -520.7705
   3   2.0000     -19.127347      -520.4816
   4   2.0000     -10.271657      -279.5060
   5   2.0000     -10.243214      -278.7320
   6   2.0000     -10.233556      -278.4692
   7   2.0000     -10.232030      -278.4277
   8   2.0000     -10.228209      -278.3237
   9   2.0000     -10.215650      -277.9820
  10   2.0000     -10.189388      -277.2673
  11   2.0000     -10.178176      -276.9623
  12   2.0000     -10.177760      -276.9509
  13   2.0000      -1.044782       -28.4300
  14   2.0000      -1.033383       -28.1198
  15   2.0000      -1.003891       -27.3173
  16   2.0000      -0.987141       -26.8615
  17   2.0000      -0.787313       -21.4239
  18   2.0000      -0.778304       -21.1787
  19   2.0000      -0.763619       -20.7791
  20   2.0000      -0.727498       -19.7962
  21   2.0000      -0.672051       -18.2874
  22   2.0000      -0.603055       -16.4100
  23   2.0000      -0.598456       -16.2848
  24   2.0000      -0.589903       -16.0521
  25   2.0000      -0.571328       -15.5466
  26   2.0000      -0.521207       -14.1828
  27   2.0000      -0.511003       -13.9051
  28   2.0000      -0.492389       -13.3986
  29   2.0000      -0.478305       -13.0154
  30   2.0000      -0.471649       -12.8342
  31   2.0000      -0.456171       -12.4130
  32   2.0000      -0.448055       -12.1922
  33   2.0000      -0.435405       -11.8480
  34   2.0000      -0.416488       -11.3332
  35   2.0000      -0.408633       -11.1195
  36   2.0000      -0.393386       -10.7046
  37   2.0000      -0.392193       -10.6721
  38   2.0000      -0.373464       -10.1625
  39   2.0000      -0.367031        -9.9874
  40   2.0000      -0.355453        -9.6724
  41   2.0000      -0.349503        -9.5105
  42   2.0000      -0.340226        -9.2580
  43   2.0000      -0.335075        -9.1179
  44   2.0000      -0.320264        -8.7148
  45   2.0000      -0.301676        -8.2090
  46   2.0000      -0.283108        -7.7038
  47   2.0000      -0.270702        -7.3662
  48   2.0000      -0.264528        -7.1982
  49   2.0000      -0.250971        -6.8293
  50   2.0000      -0.231092        -6.2883
  51   0.0000       0.064595         1.7577
  52   0.0000       0.087421         2.3788
  53   0.0000       0.090845         2.4720
  54   0.0000       0.100144         2.7251
  55   0.0000       0.107121         2.9149

MULLIKEN ATOMIC CHARGES
-----------------------
   0 C :    0.306348
   1 C :   -0.261761
   2 C :   -0.296590
   3 C :   -0.007752
   4 O :   -0.484143
   5 H :    0.133085
   6 H :    0.142794
   7 H :    0.152764
   8 H :    0.136251
   9 H :    0.159020
  10 H :    0.143326
  11 H :    0.140304
  12 C :    0.009078
  13 H :    0.151607
  14 H :    0.116182
  15 O :   -0.533721
  16 C :    0.060406
  17 C :    0.075873
  18 C :   -0.289400
  19 C :   -0.038587
  20 O :   -0.490707
  21 H :    0.163351
  22 O :   -0.603326
  23 H :    0.150010
  24 H :    0.163091
  25 H :    0.138801
  26 H :    0.148412
  27 H :    0.148138
  28 H :    0.367146
Sum of atomic charges:   -0.0000000

LOEWDIN ATOMIC CHARGES
----------------------
   0 C :    0.179147
   1 C :   -0.215910
   2 C :   -0.216797
   3 C :   -0.030996
   4 O :   -0.308531
   5 H :    0.093181
   6 H :    0.112492
   7 H :    0.121631
   8 H :    0.111129
   9 H :    0.117482
  10 H :    0.103184
  11 H :    0.101199
  12 C :   -0.037204
  13 H :    0.117147
  14 H :    0.086667
  15 O :   -0.329653
  16 C :    0.004746
  17 C :    0.036034
  18 C :   -0.240919
  19 C :   -0.041767
  20 O :   -0.309446
  21 H :    0.116897
  22 O :   -0.414239
  23 H :    0.114676
  24 H :    0.126837
  25 H :    0.110459
  26 H :    0.104622
  27 H :    0.103394
  28 H :    0.284536

  Mayer bond orders larger than 0.100000
B(  0-C ,  1-C ) :   0.9450 B(  0-C ,  4-O ) :   0.9223 B(  0-C ,  5-H ) :   0.9238
B(  0-C , 15-O ) :   0.8403 B(  1-C ,  2-C ) :   0.9588 B(  1-C ,  6-H ) :   0.9411
B(  1-C ,  7-H ) :   0.9368 B(  2-C ,  3-C ) :   0.9525 B(  2-C ,  8-H ) :   0.9456
B(  2-C ,  9-H ) :   0.9449 B(  3-C ,  4-O ) :   0.8471 B(  3-C , 10-H ) :   0.9355
B(  3-C , 11-H ) :   0.9400 B( 12-C , 13-H ) :   0.9308 B( 12-C , 14-H ) :   0.9229
B( 12-C , 15-O ) :   0.8654 B( 12-C , 16-C ) :   0.8824 B( 16-C , 17-C ) :   0.8932
B( 16-C , 20-O ) :   0.8657 B( 16-C , 21-H ) :   0.9240 B( 17-C , 18-C ) :   0.9109
B( 17-C , 22-O ) :   0.8902 B( 17-C , 23-H ) :   0.9330 B( 18-C , 19-C ) :   0.9392
B( 18-C , 24-H ) :   0.9371 B( 18-C , 25-H ) :   0.9331 B( 19-C , 20-O ) :   0.8545
B( 19-C , 26-H ) :   0.9331 B( 19-C , 27-H ) :   0.9370 B( 22-O , 28-H ) :   0.7927

FINAL SINGLE POINT ENERGY      -652.856550987727

DIPOLE MOMENT
-------------
                                X             Y             Z
Electronic contribution:     -0.94478      -2.13761       2.15005
Nuclear contribution   :      1.08129       2.28198      -2.87026
                        -----------------------------------------
Total Dipole Moment    :      0.13651       0.14437      -0.72021
                        -----------------------------------------
Magnitude (a.u.)       :      0.74711
Magnitude (Debye)      :      1.89901

Rotational constants in cm-1:     0.060241     0.013664     0.013359
Rotational constants in MHz :  1805.992144   409.649252   400.484608

                             ****ORCA TERMINATED NORMALLY****
TOTAL RUN TIME: 0 days 1 hours 9 minutes 15 seconds 177 msec
