                         Program Version 4.2.0 -  RELEASE  -
|  1> # Test redundant internal optimization
|  2> #
|  3> ! RKS B3LYP  Opt TightSCF SmallPrint
|  4>
|  5> %basis
|  6>         Basis "6-31G"
|  7> end
|  8>
|  9> %geom
| 10> Constraints
| 11> { D 4  0  15  12  255.0   C } # D for Dihedral angle
| 12> { D 0  15  12  16  15.0   C } # D for Dihedral angle
| 13> { D 0  4  3  2   C } # D for Dihedral angle
| 14> { D 4  3  2  1   C } # D for Dihedral angle
| 15> { D 3  2  1  0   C } # D for Dihedral angle
| 16> { D 2  1  0  4   C } # D for Dihedral angle
| 17> { D 1  0  4  3   C } # D for Dihedral angle
| 18> { D 16  20  19  18   C } # D for Dihedral angle
| 19> { D 20  19  18  17   C } # D for Dihedral angle
| 20> { D 19  18  17  16   C } # D for Dihedral angle
| 21> { D 18  17  16  20   C } # D for Dihedral angle
| 22> { D 17  16  20  19   C } # D for Dihedral angle
| 23> { D 15  12  16  20   C } # D for Dihedral angle
| 24> end
| 25> end
| 26>
| 27>
| 28> #%pal
| 29> #nprocs 8
| 30> #end
| 31>
| 32> * xyz 0 1
| 33> C  -21.048   26.222   46.251
| 34> C  -20.361   27.558   45.944
| 35> C  -20.329   28.222   47.341
| 36> C  -20.110   27.022   48.296
| 37> O  -20.473   25.807   47.535
| 38> H  -20.833   25.428   45.533
| 39> H  -19.344   27.382   45.576
| 40> H  -20.898   28.157   45.201
| 41> H  -19.543   28.978   47.434
| 42> H  -21.289   28.710   47.548
| 43> H  -20.733   27.082   49.195
| 44> H  -19.064   26.913   48.597
| 45> C  -23.431   25.260   45.734
| 46> H  -24.238   24.976   46.421
| 47> H  -23.885   25.603   44.795
| 48> O  -22.586   26.394   46.375
| 49> C  -22.592   23.991   45.416
| 50> C  -22.056   23.344   46.698
| 51> C  -23.301   22.580   47.208
| 52> C  -23.989   22.116   45.899
| 53> O  -23.437   22.955   44.814
| 54> H  -21.825   24.245   44.682
| 55> O  -20.908   22.355   46.355
| 56> H  -21.677   24.072   47.423
| 57> H  -23.046   21.742   47.864
| 58> H  -23.954   23.258   47.769
| 59> H  -25.077   22.241   45.931
| 60> H  -23.759   21.076   45.653
| 61> H  -21.264   21.614   45.629
| 62> *
| 63>
| 64>                          ****END OF INPUT****
 Total Charge           Charge          ....    0
 Multiplicity           Mult            ....    1
 Number of Electrons    NEL             ....  102
FINAL SINGLE POINT ENERGY      -652.829038618787
FINAL SINGLE POINT ENERGY      -652.851876706016
FINAL SINGLE POINT ENERGY      -652.857142369990
FINAL SINGLE POINT ENERGY      -652.859349996475
FINAL SINGLE POINT ENERGY      -652.859573716798
FINAL SINGLE POINT ENERGY      -652.859613639823
                    ***********************HURRAY********************

CARTESIAN COORDINATES (ANGSTROEM)
---------------------------------
  C    -20.892560   26.216413   46.242285
  C    -20.354948   27.621834   45.963984
  C    -20.501947   28.299423   47.348727
  C    -20.206149   27.143313   48.331941
  O    -20.369278   25.891903   47.552047
  H    -20.537038   25.442458   45.561942
  H    -19.300498   27.557029   45.671063
  H    -20.915002   28.125659   45.173936
  H    -19.818375   29.143162   47.480730
  H    -21.527607   28.657839   47.473536
  H    -20.891945   27.119153   49.182882
  H    -19.175396   27.150858   48.698803
  C    -23.191662   25.248826   45.724810
  H    -23.998018   25.116128   46.453302
  H    -23.637501   25.622904   44.796143
  O    -22.332861   26.297470   46.277210
  C    -22.546890   23.890544   45.415570
  C    -21.980155   23.112823   46.613246
  C    -23.268560   22.515494   47.235341
  C    -24.154549   22.216061   45.999853
  O    -23.599633   23.016815   44.877293
  H    -21.799443   23.979351   44.621552
  O    -21.070295   22.073830   46.149696
  H    -21.402794   23.721939   47.308157
  H    -23.036064   21.621740   47.819649
  H    -23.741630   23.246160   47.900066
  H    -25.202776   22.492921   46.147835
  H    -24.111250   21.165672   45.694593
  H    -21.485173   21.595280   45.400806

 Multiplicity           Mult            ....    1
 Number of Electrons    NEL             ....  102
 Basis Dimension        Dim             ....  149

ORBITAL ENERGIES
----------------

  NO   OCC          E(Eh)            E(eV)
   0   2.0000     -19.147654      -521.0342
   1   2.0000     -19.141052      -520.8545
   2   2.0000     -19.139523      -520.8129
   3   2.0000     -19.134410      -520.6738
   4   2.0000     -10.280476      -279.7460
   5   2.0000     -10.237034      -278.5639
   6   2.0000     -10.233483      -278.4672
   7   2.0000     -10.232789      -278.4483
   8   2.0000     -10.231560      -278.4149
   9   2.0000     -10.224173      -278.2139
  10   2.0000     -10.187332      -277.2114
  11   2.0000     -10.183916      -277.1185
  12   2.0000     -10.183761      -277.1142
  13   2.0000      -1.051293       -28.6071
  14   2.0000      -1.036522       -28.2052
  15   2.0000      -1.003669       -27.3112
  16   2.0000      -0.991891       -26.9907
  17   2.0000      -0.787506       -21.4291
  18   2.0000      -0.776591       -21.1321
  19   2.0000      -0.765918       -20.8417
  20   2.0000      -0.735167       -20.0049
  21   2.0000      -0.674676       -18.3589
  22   2.0000      -0.608212       -16.5503
  23   2.0000      -0.601718       -16.3736
  24   2.0000      -0.596313       -16.2265
  25   2.0000      -0.569449       -15.4955
  26   2.0000      -0.523709       -14.2508
  27   2.0000      -0.520187       -14.1550
  28   2.0000      -0.496609       -13.5134
  29   2.0000      -0.481082       -13.0909
  30   2.0000      -0.465136       -12.6570
  31   2.0000      -0.460241       -12.5238
  32   2.0000      -0.453093       -12.3293
  33   2.0000      -0.430414       -11.7122
  34   2.0000      -0.424669       -11.5558
  35   2.0000      -0.414283       -11.2732
  36   2.0000      -0.400653       -10.9023
  37   2.0000      -0.392090       -10.6693
  38   2.0000      -0.373152       -10.1540
  39   2.0000      -0.367415        -9.9979
  40   2.0000      -0.362873        -9.8743
  41   2.0000      -0.354737        -9.6529
  42   2.0000      -0.348490        -9.4829
  43   2.0000      -0.332614        -9.0509
  44   2.0000      -0.319726        -8.7002
  45   2.0000      -0.308061        -8.3828
  46   2.0000      -0.305606        -8.3160
  47   2.0000      -0.268160        -7.2970
  48   2.0000      -0.265409        -7.2221
  49   2.0000      -0.252610        -6.8739
  50   2.0000      -0.240996        -6.5578
  51   0.0000       0.062912         1.7119
  52   0.0000       0.074557         2.0288
  53   0.0000       0.094467         2.5706
  54   0.0000       0.098906         2.6914
  55   0.0000       0.100884         2.7452

MULLIKEN ATOMIC CHARGES
-----------------------
   0 C :    0.272188
   1 C :   -0.247567
   2 C :   -0.298437
   3 C :    0.000321
   4 O :   -0.508965
   5 H :    0.155652
   6 H :    0.144161
   7 H :    0.150730
   8 H :    0.139819
   9 H :    0.164243
  10 H :    0.148737
  11 H :    0.142802
  12 C :    0.021388
  13 H :    0.144766
  14 H :    0.151153
  15 O :   -0.536347
  16 C :    0.012456
  17 C :    0.066464
  18 C :   -0.304733
  19 C :   -0.034962
  20 O :   -0.527127
  21 H :    0.161677
  22 O :   -0.601605
  23 H :    0.209116
  24 H :    0.164701
  25 H :    0.152642
  26 H :    0.149483
  27 H :    0.147211
  28 H :    0.360034
Sum of atomic charges:    0.0000000

LOEWDIN ATOMIC CHARGES
----------------------
   0 C :    0.169989
   1 C :   -0.214897
   2 C :   -0.215261
   3 C :   -0.026672
   4 O :   -0.325572
   5 H :    0.103613
   6 H :    0.112863
   7 H :    0.121053
   8 H :    0.113147
   9 H :    0.120200
  10 H :    0.106156
  11 H :    0.102746
  12 C :   -0.035020
  13 H :    0.107034
  14 H :    0.108103
  15 O :   -0.334356
  16 C :   -0.001710
  17 C :    0.027928
  18 C :   -0.241068
  19 C :   -0.039512
  20 O :   -0.327732
  21 H :    0.110793
  22 O :   -0.414149
  23 H :    0.139608
  24 H :    0.127906
  25 H :    0.117263
  26 H :    0.105378
  27 H :    0.102768
  28 H :    0.279399

  Mayer bond orders larger than 0.100000
B(  0-C ,  1-C ) :   0.9458 B(  0-C ,  4-O ) :   0.8979 B(  0-C ,  5-H ) :   0.9107
B(  0-C , 15-O ) :   0.8530 B(  1-C ,  2-C ) :   0.9576 B(  1-C ,  6-H ) :   0.9386
B(  1-C ,  7-H ) :   0.9387 B(  2-C ,  3-C ) :   0.9536 B(  2-C ,  8-H ) :   0.9456
B(  2-C ,  9-H ) :   0.9433 B(  3-C ,  4-O ) :   0.8331 B(  3-C , 10-H ) :   0.9356
B(  3-C , 11-H ) :   0.9400 B( 12-C , 13-H ) :   0.9323 B( 12-C , 14-H ) :   0.9217
B( 12-C , 15-O ) :   0.8318 B( 12-C , 16-C ) :   0.8937 B( 16-C , 17-C ) :   0.8999
B( 16-C , 20-O ) :   0.8305 B( 16-C , 21-H ) :   0.9215 B( 17-C , 18-C ) :   0.9118
B( 17-C , 22-O ) :   0.8841 B( 17-C , 23-H ) :   0.8984 B( 18-C , 19-C ) :   0.9403
B( 18-C , 24-H ) :   0.9371 B( 18-C , 25-H ) :   0.9338 B( 19-C , 20-O ) :   0.8393
B( 19-C , 26-H ) :   0.9353 B( 19-C , 27-H ) :   0.9380 B( 22-O , 28-H ) :   0.7972

FINAL SINGLE POINT ENERGY      -652.859617037089

DIPOLE MOMENT
-------------
                                X             Y             Z
Electronic contribution:      0.10388      -3.23857      -2.17162
Nuclear contribution   :     -0.44586       3.73536       2.27442
                        -----------------------------------------
Total Dipole Moment    :     -0.34198       0.49678       0.10280
                        -----------------------------------------
Magnitude (a.u.)       :      0.61181
Magnitude (Debye)      :      1.55510

Rotational constants in cm-1:     0.056475     0.014189     0.013086
Rotational constants in MHz :  1693.071755   425.370071   392.295161

                             ****ORCA TERMINATED NORMALLY****
TOTAL RUN TIME: 0 days 0 hours 21 minutes 55 seconds 0 msec
