                         Program Version 4.2.0 -  RELEASE  -
|  1> # Test redundant internal optimization
|  2> #
|  3> ! RKS B3LYP  Opt TightSCF SmallPrint
|  4>
|  5> %basis
|  6>         Basis "6-31G"
|  7> end
|  8>
|  9> %geom
| 10> Constraints
| 11> { D 4  0  15  12  240.0   C } # D for Dihedral angle
| 12> { D 0  15  12  16  225.0   C } # D for Dihedral angle
| 13> { D 0  4  3  2   C } # D for Dihedral angle
| 14> { D 4  3  2  1   C } # D for Dihedral angle
| 15> { D 3  2  1  0   C } # D for Dihedral angle
| 16> { D 2  1  0  4   C } # D for Dihedral angle
| 17> { D 1  0  4  3   C } # D for Dihedral angle
| 18> { D 16  20  19  18   C } # D for Dihedral angle
| 19> { D 20  19  18  17   C } # D for Dihedral angle
| 20> { D 19  18  17  16   C } # D for Dihedral angle
| 21> { D 18  17  16  20   C } # D for Dihedral angle
| 22> { D 17  16  20  19   C } # D for Dihedral angle
| 23> { D 15  12  16  20   C } # D for Dihedral angle
| 24> end
| 25> end
| 26>
| 27>
| 28> #%pal
| 29> #nprocs 8
| 30> #end
| 31>
| 32> * xyz 0 1
| 33> C  -21.048   26.222   46.251
| 34> C  -20.361   27.558   45.944
| 35> C  -20.329   28.222   47.341
| 36> C  -20.110   27.022   48.296
| 37> O  -20.473   25.807   47.535
| 38> H  -20.833   25.428   45.533
| 39> H  -19.344   27.382   45.576
| 40> H  -20.898   28.157   45.201
| 41> H  -19.543   28.978   47.434
| 42> H  -21.289   28.710   47.548
| 43> H  -20.733   27.082   49.195
| 44> H  -19.064   26.913   48.597
| 45> C  -23.430   25.483   45.442
| 46> H  -22.779   25.054   44.670
| 47> H  -23.875   24.657   46.012
| 48> O  -22.586   26.394   46.375
| 49> C  -24.585   26.248   44.739
| 50> C  -25.488   26.952   45.758
| 51> C  -24.655   28.211   46.098
| 52> C  -23.972   28.556   44.751
| 53> O  -24.050   27.338   43.916
| 54> H  -25.108   25.567   44.066
| 55> H  -26.437   27.233   45.288
| 56> O  -25.797   26.080   47.005
| 57> H  -25.266   29.035   46.480
| 58> H  -23.904   27.971   46.861
| 59> H  -22.922   28.842   44.874
| 60> H  -24.494   29.351   44.211
| 61> H  -24.860   25.787   47.491
| 62> *
| 63>
| 64>                          ****END OF INPUT****
 Total Charge           Charge          ....    0
 Multiplicity           Mult            ....    1
 Number of Electrons    NEL             ....  102
FINAL SINGLE POINT ENERGY      -652.834056906465
FINAL SINGLE POINT ENERGY      -652.856741812732
FINAL SINGLE POINT ENERGY      -652.861076094256
FINAL SINGLE POINT ENERGY      -652.862885062211
FINAL SINGLE POINT ENERGY      -652.863008935508
FINAL SINGLE POINT ENERGY      -652.863031349368
                    ***********************HURRAY********************

CARTESIAN COORDINATES (ANGSTROEM)
---------------------------------
  C    -21.034058   26.163268   46.212529
  C    -20.388305   27.519168   45.929601
  C    -20.387110   28.172075   47.332855
  C    -20.139572   26.970256   48.271575
  O    -20.466505   25.761311   47.473810
  H    -20.801985   25.376518   45.489307
  H    -19.362833   27.361970   45.574831
  H    -20.937484   28.088250   45.177138
  H    -19.621066   28.946363   47.437063
  H    -21.362529   28.626313   47.533672
  H    -20.770586   26.982839   49.163786
  H    -19.091838   26.874542   48.571179
  C    -23.310526   25.474530   45.470053
  H    -22.697908   25.032561   44.673895
  H    -23.742693   24.660226   46.066158
  O    -22.474654   26.311862   46.323874
  C    -24.438905   26.268499   44.820752
  C    -25.426671   26.935797   45.793162
  C    -24.709712   28.285052   46.103531
  C    -24.030758   28.626049   44.761008
  O    -23.984664   27.364228   43.974461
  H    -24.963908   25.569470   44.157273
  H    -26.384031   27.101843   45.294452
  O    -25.744254   26.143228   46.960692
  H    -25.411736   29.057850   46.430451
  H    -23.965923   28.114513   46.885982
  H    -23.012719   29.004891   44.885479
  H    -24.608637   29.343056   44.169746
  H    -24.961430   26.103471   47.549686

 Multiplicity           Mult            ....    1
 Number of Electrons    NEL             ....  102
 Basis Dimension        Dim             ....  149

ORBITAL ENERGIES
----------------

  NO   OCC          E(Eh)            E(eV)
   0   2.0000     -19.149132      -521.0744
   1   2.0000     -19.142850      -520.9034
   2   2.0000     -19.139070      -520.8006
   3   2.0000     -19.137535      -520.7588
   4   2.0000     -10.284639      -279.8593
   5   2.0000     -10.237334      -278.5720
   6   2.0000     -10.233991      -278.4811
   7   2.0000     -10.231497      -278.4132
   8   2.0000     -10.228733      -278.3380
   9   2.0000     -10.225726      -278.2562
  10   2.0000     -10.190645      -277.3016
  11   2.0000     -10.188290      -277.2375
  12   2.0000     -10.181583      -277.0550
  13   2.0000      -1.056644       -28.7527
  14   2.0000      -1.028243       -27.9799
  15   2.0000      -1.010616       -27.5003
  16   2.0000      -0.997737       -27.1498
  17   2.0000      -0.790959       -21.5231
  18   2.0000      -0.774249       -21.0684
  19   2.0000      -0.768004       -20.8985
  20   2.0000      -0.733928       -19.9712
  21   2.0000      -0.680121       -18.5070
  22   2.0000      -0.603555       -16.4236
  23   2.0000      -0.602840       -16.4041
  24   2.0000      -0.597156       -16.2494
  25   2.0000      -0.577341       -15.7102
  26   2.0000      -0.527676       -14.3588
  27   2.0000      -0.508694       -13.8423
  28   2.0000      -0.497034       -13.5250
  29   2.0000      -0.492003       -13.3881
  30   2.0000      -0.471955       -12.8425
  31   2.0000      -0.463541       -12.6136
  32   2.0000      -0.440938       -11.9985
  33   2.0000      -0.435415       -11.8483
  34   2.0000      -0.423334       -11.5195
  35   2.0000      -0.418191       -11.3796
  36   2.0000      -0.405311       -11.0291
  37   2.0000      -0.394652       -10.7390
  38   2.0000      -0.383849       -10.4451
  39   2.0000      -0.369181       -10.0459
  40   2.0000      -0.360947        -9.8219
  41   2.0000      -0.354325        -9.6417
  42   2.0000      -0.349205        -9.5023
  43   2.0000      -0.328641        -8.9428
  44   2.0000      -0.319407        -8.6915
  45   2.0000      -0.314276        -8.5519
  46   2.0000      -0.306326        -8.3356
  47   2.0000      -0.272956        -7.4275
  48   2.0000      -0.264022        -7.1844
  49   2.0000      -0.255481        -6.9520
  50   2.0000      -0.239018        -6.5040
  51   0.0000       0.063972         1.7408
  52   0.0000       0.069682         1.8961
  53   0.0000       0.086968         2.3665
  54   0.0000       0.095995         2.6122
  55   0.0000       0.105234         2.8636

MULLIKEN ATOMIC CHARGES
-----------------------
   0 C :    0.292879
   1 C :   -0.263075
   2 C :   -0.305976
   3 C :   -0.001486
   4 O :   -0.502382
   5 H :    0.145403
   6 H :    0.146689
   7 H :    0.161511
   8 H :    0.144741
   9 H :    0.156343
  10 H :    0.148643
  11 H :    0.144149
  12 C :   -0.022950
  13 H :    0.143523
  14 H :    0.149256
  15 O :   -0.536991
  16 C :    0.096422
  17 C :    0.086092
  18 C :   -0.313454
  19 C :   -0.012977
  20 O :   -0.524887
  21 H :    0.149279
  22 H :    0.162949
  23 O :   -0.606885
  24 H :    0.144288
  25 H :    0.167447
  26 H :    0.139634
  27 H :    0.144485
  28 H :    0.367329
Sum of atomic charges:   -0.0000000

LOEWDIN ATOMIC CHARGES
----------------------
   0 C :    0.180218
   1 C :   -0.221364
   2 C :   -0.217508
   3 C :   -0.026750
   4 O :   -0.315988
   5 H :    0.101017
   6 H :    0.115189
   7 H :    0.122228
   8 H :    0.115406
   9 H :    0.114125
  10 H :    0.106276
  11 H :    0.103525
  12 C :   -0.043428
  13 H :    0.105497
  14 H :    0.106748
  15 O :   -0.343789
  16 C :    0.014478
  17 C :    0.037757
  18 C :   -0.242964
  19 C :   -0.026473
  20 O :   -0.326239
  21 H :    0.114588
  22 H :    0.116322
  23 O :   -0.409963
  24 H :    0.115443
  25 H :    0.120534
  26 H :    0.098582
  27 H :    0.101919
  28 H :    0.284613

  Mayer bond orders larger than 0.100000
B(  0-C ,  1-C ) :   0.9416 B(  0-C ,  4-O ) :   0.9328 B(  0-C ,  5-H ) :   0.9178
B(  0-C , 15-O ) :   0.8329 B(  1-C ,  2-C ) :   0.9568 B(  1-C ,  6-H ) :   0.9357
B(  1-C ,  7-H ) :   0.9294 B(  2-C ,  3-C ) :   0.9532 B(  2-C ,  8-H ) :   0.9448
B(  2-C ,  9-H ) :   0.9432 B(  3-C ,  4-O ) :   0.8387 B(  3-C , 10-H ) :   0.9352
B(  3-C , 11-H ) :   0.9395 B( 12-C , 13-H ) :   0.9219 B( 12-C , 14-H ) :   0.9094
B( 12-C , 15-O ) :   0.8405 B( 12-C , 16-C ) :   0.9059 B( 16-C , 17-C ) :   0.8879
B( 16-C , 20-O ) :   0.8733 B( 16-C , 21-H ) :   0.9255 B( 17-C , 18-C ) :   0.9322
B( 17-C , 22-H ) :   0.9360 B( 17-C , 23-O ) :   0.9038 B( 18-C , 19-C ) :   0.9463
B( 18-C , 24-H ) :   0.9410 B( 18-C , 25-H ) :   0.9251 B( 19-C , 20-O ) :   0.8430
B( 19-C , 26-H ) :   0.9246 B( 19-C , 27-H ) :   0.9374 B( 23-O , 28-H ) :   0.7909

FINAL SINGLE POINT ENERGY      -652.863032007674

DIPOLE MOMENT
-------------
                                X             Y             Z
Electronic contribution:     -2.52400      -4.52207      -0.95841
Nuclear contribution   :      3.23861       5.34256       1.02764
                        -----------------------------------------
Total Dipole Moment    :      0.71461       0.82049       0.06923
                        -----------------------------------------
Magnitude (a.u.)       :      1.09026
Magnitude (Debye)      :      2.77122

Rotational constants in cm-1:     0.044925     0.016434     0.015437
Rotational constants in MHz :  1346.817087   492.688306   462.783690

                             ****ORCA TERMINATED NORMALLY****
TOTAL RUN TIME: 0 days 0 hours 37 minutes 20 seconds 158 msec
