                         Program Version 4.2.0 -  RELEASE  -
|  1> # Test redundant internal optimization
|  2> #
|  3> ! RKS B3LYP  Opt TightSCF SmallPrint
|  4>
|  5> %basis
|  6>         Basis "6-31G"
|  7> end
|  8>
|  9> %geom
| 10> Constraints
| 11> { D 4  0  15  12  180.0   C } # D for Dihedral angle
| 12> { D 0  15  12  16  225.0   C } # D for Dihedral angle
| 13> { D 0  4  3  2   C } # D for Dihedral angle
| 14> { D 4  3  2  1   C } # D for Dihedral angle
| 15> { D 3  2  1  0   C } # D for Dihedral angle
| 16> { D 2  1  0  4   C } # D for Dihedral angle
| 17> { D 1  0  4  3   C } # D for Dihedral angle
| 18> { D 16  20  19  18   C } # D for Dihedral angle
| 19> { D 20  19  18  17   C } # D for Dihedral angle
| 20> { D 19  18  17  16   C } # D for Dihedral angle
| 21> { D 18  17  16  20   C } # D for Dihedral angle
| 22> { D 17  16  20  19   C } # D for Dihedral angle
| 23> { D 15  12  16  20   C } # D for Dihedral angle
| 24> end
| 25> end
| 26>
| 27>
| 28> #%pal
| 29> #nprocs 8
| 30> #end
| 31>
| 32> * xyz 0 1
| 33> C  -21.048   26.222   46.251
| 34> C  -20.361   27.558   45.944
| 35> C  -20.329   28.222   47.341
| 36> C  -20.110   27.022   48.296
| 37> O  -20.473   25.807   47.535
| 38> H  -20.833   25.428   45.533
| 39> H  -19.344   27.382   45.576
| 40> H  -20.898   28.157   45.201
| 41> H  -19.543   28.978   47.434
| 42> H  -21.289   28.710   47.548
| 43> H  -20.733   27.082   49.195
| 44> H  -19.064   26.913   48.597
| 45> C  -23.309   26.834   45.072
| 46> H  -22.565   27.195   44.351
| 47> H  -23.839   25.985   44.622
| 48> O  -22.586   26.394   46.375
| 49> C  -24.346   27.965   45.313
| 50> C  -23.664   29.254   45.785
| 51> C  -23.120   29.826   44.454
| 52> C  -24.208   29.423   43.427
| 53> O  -24.997   28.340   44.053
| 54> H  -25.128   27.597   45.980
| 55> H  -24.406   29.932   46.223
| 56> O  -22.548   29.005   46.836
| 57> H  -22.961   30.908   44.491
| 58> H  -22.161   29.355   44.207
| 59> H  -23.782   29.059   42.487
| 60> H  -24.900   30.241   43.209
| 61> H  -21.795   28.328   46.418
| 62> *
| 63>
| 64>                          ****END OF INPUT****
 Total Charge           Charge          ....    0
 Multiplicity           Mult            ....    1
 Number of Electrons    NEL             ....  102
FINAL SINGLE POINT ENERGY      -652.757915957089
FINAL SINGLE POINT ENERGY      -652.818814344785
FINAL SINGLE POINT ENERGY      -652.837422673041
FINAL SINGLE POINT ENERGY      -652.842715631630
FINAL SINGLE POINT ENERGY      -652.845742478211
FINAL SINGLE POINT ENERGY      -652.848170049065
FINAL SINGLE POINT ENERGY      -652.850249477789
FINAL SINGLE POINT ENERGY      -652.851950062555
FINAL SINGLE POINT ENERGY      -652.852952809849
FINAL SINGLE POINT ENERGY      -652.853208525239
FINAL SINGLE POINT ENERGY      -652.853255871609
FINAL SINGLE POINT ENERGY      -652.853266768561
FINAL SINGLE POINT ENERGY      -652.853269502014
                    ***********************HURRAY********************

CARTESIAN COORDINATES (ANGSTROEM)
---------------------------------
  C    -21.106051   26.254256   46.274546
  C    -20.198733   27.425354   45.885217
  C    -20.063118   28.199698   47.231118
  C    -20.063163   27.056977   48.269261
  O    -20.631174   25.873877   47.562743
  H    -20.955550   25.385926   45.622006
  H    -19.238987   27.002839   45.571374
  H    -20.579771   28.053425   45.075648
  H    -19.130406   28.772449   47.268631
  H    -20.889473   28.895911   47.359766
  H    -20.678283   27.263730   49.148991
  H    -19.058919   26.767817   48.589464
  C    -23.243502   26.830294   45.083074
  H    -22.494499   27.137647   44.343404
  H    -23.770289   25.957962   44.683473
  O    -22.578309   26.432364   46.340555
  C    -24.274266   27.957916   45.267303
  C    -23.802552   29.321716   45.785435
  C    -23.214183   29.957029   44.500844
  C    -24.139713   29.427013   43.385256
  O    -24.847614   28.245398   43.954445
  H    -25.094450   27.575700   45.884524
  H    -24.684686   29.894243   46.098116
  O    -22.902709   29.227587   46.907881
  H    -23.197170   31.049806   44.549364
  H    -22.182035   29.613840   44.372275
  H    -23.597262   29.118387   42.486314
  H    -24.912315   30.147083   43.101565
  H    -22.810818   28.275756   47.151408

 Multiplicity           Mult            ....    1
 Number of Electrons    NEL             ....  102
 Basis Dimension        Dim             ....  149

ORBITAL ENERGIES
----------------

  NO   OCC          E(Eh)            E(eV)
   0   2.0000     -19.158673      -521.3340
   1   2.0000     -19.148498      -521.0571
   2   2.0000     -19.148234      -521.0499
   3   2.0000     -19.137525      -520.7585
   4   2.0000     -10.287412      -279.9347
   5   2.0000     -10.243311      -278.7347
   6   2.0000     -10.240983      -278.6713
   7   2.0000     -10.239504      -278.6311
   8   2.0000     -10.235855      -278.5318
   9   2.0000     -10.228016      -278.3185
  10   2.0000     -10.195413      -277.4313
  11   2.0000     -10.191907      -277.3359
  12   2.0000     -10.181553      -277.0541
  13   2.0000      -1.057917       -28.7874
  14   2.0000      -1.036171       -28.1956
  15   2.0000      -1.015374       -27.6297
  16   2.0000      -1.000565       -27.2268
  17   2.0000      -0.788528       -21.4569
  18   2.0000      -0.782819       -21.3016
  19   2.0000      -0.772317       -21.0158
  20   2.0000      -0.738012       -20.0823
  21   2.0000      -0.685002       -18.6398
  22   2.0000      -0.607132       -16.5209
  23   2.0000      -0.606319       -16.4988
  24   2.0000      -0.592617       -16.1259
  25   2.0000      -0.584993       -15.9185
  26   2.0000      -0.531841       -14.4721
  27   2.0000      -0.511466       -13.9177
  28   2.0000      -0.503429       -13.6990
  29   2.0000      -0.501417       -13.6443
  30   2.0000      -0.469965       -12.7884
  31   2.0000      -0.458139       -12.4666
  32   2.0000      -0.453132       -12.3303
  33   2.0000      -0.441522       -12.0144
  34   2.0000      -0.431580       -11.7439
  35   2.0000      -0.420719       -11.4483
  36   2.0000      -0.413997       -11.2654
  37   2.0000      -0.398658       -10.8480
  38   2.0000      -0.384360       -10.4590
  39   2.0000      -0.375130       -10.2078
  40   2.0000      -0.361323        -9.8321
  41   2.0000      -0.358958        -9.7677
  42   2.0000      -0.352440        -9.5904
  43   2.0000      -0.343496        -9.3470
  44   2.0000      -0.321221        -8.7409
  45   2.0000      -0.313743        -8.5374
  46   2.0000      -0.299074        -8.1382
  47   2.0000      -0.277099        -7.5403
  48   2.0000      -0.266797        -7.2599
  49   2.0000      -0.262315        -7.1380
  50   2.0000      -0.247552        -6.7362
  51   0.0000       0.049361         1.3432
  52   0.0000       0.063138         1.7181
  53   0.0000       0.088234         2.4010
  54   0.0000       0.092617         2.5202
  55   0.0000       0.106929         2.9097

MULLIKEN ATOMIC CHARGES
-----------------------
   0 C :    0.316295
   1 C :   -0.299232
   2 C :   -0.336142
   3 C :   -0.015756
   4 O :   -0.502448
   5 H :    0.149608
   6 H :    0.156615
   7 H :    0.146619
   8 H :    0.138713
   9 H :    0.205926
  10 H :    0.154738
  11 H :    0.147322
  12 C :   -0.013370
  13 H :    0.130259
  14 H :    0.168474
  15 O :   -0.534651
  16 C :    0.031951
  17 C :    0.124163
  18 C :   -0.317501
  19 C :   -0.017105
  20 O :   -0.516723
  21 H :    0.166601
  22 H :    0.152255
  23 O :   -0.635857
  24 H :    0.158548
  25 H :    0.151496
  26 H :    0.144189
  27 H :    0.153711
  28 H :    0.391300
Sum of atomic charges:    0.0000000

LOEWDIN ATOMIC CHARGES
----------------------
   0 C :    0.179632
   1 C :   -0.232115
   2 C :   -0.235816
   3 C :   -0.028546
   4 O :   -0.298206
   5 H :    0.096888
   6 H :    0.122134
   7 H :    0.112784
   8 H :    0.114150
   9 H :    0.137263
  10 H :    0.108659
  11 H :    0.105036
  12 C :   -0.047691
  13 H :    0.097510
  14 H :    0.117741
  15 O :   -0.346201
  16 C :    0.012509
  17 C :    0.040844
  18 C :   -0.236208
  19 C :   -0.030114
  20 O :   -0.319631
  21 H :    0.116428
  22 H :    0.105616
  23 O :   -0.424306
  24 H :    0.123396
  25 H :    0.111209
  26 H :    0.103199
  27 H :    0.108181
  28 H :    0.285656

  Mayer bond orders larger than 0.100000
B(  0-C ,  1-C ) :   0.9207 B(  0-C ,  4-O ) :   0.9470 B(  0-C ,  5-H ) :   0.9258
B(  0-C , 15-O ) :   0.8061 B(  1-C ,  2-C ) :   0.9515 B(  1-C ,  6-H ) :   0.9310
B(  1-C ,  7-H ) :   0.9240 B(  2-C ,  3-C ) :   0.9503 B(  2-C ,  8-H ) :   0.9459
B(  2-C ,  9-H ) :   0.8975 B(  3-C ,  4-O ) :   0.8259 B(  3-C , 10-H ) :   0.9349
B(  3-C , 11-H ) :   0.9398 B( 12-C , 13-H ) :   0.9207 B( 12-C , 14-H ) :   0.9250
B( 12-C , 15-O ) :   0.8091 B( 12-C , 16-C ) :   0.9057 B( 16-C , 17-C ) :   0.9202
B( 16-C , 20-O ) :   0.8518 B( 16-C , 21-H ) :   0.9268 B( 17-C , 18-C ) :   0.9153
B( 17-C , 22-H ) :   0.9235 B( 17-C , 23-O ) :   0.8952 B( 18-C , 19-C ) :   0.9399
B( 18-C , 24-H ) :   0.9425 B( 18-C , 25-H ) :   0.9361 B( 19-C , 20-O ) :   0.8367
B( 19-C , 26-H ) :   0.9334 B( 19-C , 27-H ) :   0.9372 B( 23-O , 28-H ) :   0.7217

FINAL SINGLE POINT ENERGY      -652.853269449191

DIPOLE MOMENT
-------------
                                X             Y             Z
Electronic contribution:     -3.92493      -4.13768       1.95242
Nuclear contribution   :      4.67895       4.89551      -2.76503
                        -----------------------------------------
Total Dipole Moment    :      0.75402       0.75783      -0.81261
                        -----------------------------------------
Magnitude (a.u.)       :      1.34283
Magnitude (Debye)      :      3.41319

Rotational constants in cm-1:     0.053380     0.016126     0.014693
Rotational constants in MHz :  1600.286837   483.432299   440.485588

                             ****ORCA TERMINATED NORMALLY****
TOTAL RUN TIME: 0 days 0 hours 39 minutes 57 seconds 735 msec
