                         Program Version 4.2.0 -  RELEASE  -
|  1> # Test redundant internal optimization
|  2> #
|  3> ! RKS B3LYP  Opt TightSCF SmallPrint
|  4>
|  5> %basis
|  6>         Basis "6-31G"
|  7> end
|  8>
|  9> %geom
| 10> Constraints
| 11> { D 4  0  15  12  135.0   C } # D for Dihedral angle
| 12> { D 0  15  12  16  180.0   C } # D for Dihedral angle
| 13> { D 0  4  3  2   C } # D for Dihedral angle
| 14> { D 4  3  2  1   C } # D for Dihedral angle
| 15> { D 3  2  1  0   C } # D for Dihedral angle
| 16> { D 2  1  0  4   C } # D for Dihedral angle
| 17> { D 1  0  4  3   C } # D for Dihedral angle
| 18> { D 16  20  19  18   C } # D for Dihedral angle
| 19> { D 20  19  18  17   C } # D for Dihedral angle
| 20> { D 19  18  17  16   C } # D for Dihedral angle
| 21> { D 18  17  16  20   C } # D for Dihedral angle
| 22> { D 17  16  20  19   C } # D for Dihedral angle
| 23> { D 15  12  16  20   C } # D for Dihedral angle
| 24> end
| 25> end
| 26>
| 27>
| 28> #%pal
| 29> #nprocs 8
| 30> #end
| 31>
| 32> * xyz 0 1
| 33> C  -21.048   26.222   46.251
| 34> C  -20.361   27.558   45.944
| 35> C  -20.329   28.222   47.341
| 36> C  -20.110   27.022   48.296
| 37> O  -20.473   25.807   47.535
| 38> H  -20.833   25.428   45.533
| 39> H  -19.344   27.382   45.576
| 40> H  -20.898   28.157   45.201
| 41> H  -19.543   28.978   47.434
| 42> H  -21.289   28.710   47.548
| 43> H  -20.733   27.082   49.195
| 44> H  -19.064   26.913   48.597
| 45> C  -23.162   27.680   45.721
| 46> H  -22.701   28.560   46.186
| 47> H  -22.933   27.700   44.647
| 48> O  -22.586   26.394   46.375
| 49> C  -24.703   27.795   45.878
| 50> C  -25.103   27.945   47.350
| 51> C  -24.810   29.443   47.603
| 52> C  -25.174   30.106   46.251
| 53> O  -25.192   29.024   45.244
| 54> H  -25.179   26.958   45.363
| 55> H  -26.171   27.734   47.472
| 56> O  -24.306   27.007   48.297
| 57> H  -25.388   29.853   48.438
| 58> H  -23.747   29.585   47.830
| 59> H  -24.447   30.866   45.947
| 60> H  -26.171   30.554   46.261
| 61> H  -23.234   27.201   48.191
| 62> *
| 63>
| 64>                          ****END OF INPUT****
 Total Charge           Charge          ....    0
 Multiplicity           Mult            ....    1
 Number of Electrons    NEL             ....  102
FINAL SINGLE POINT ENERGY      -652.819836191932
FINAL SINGLE POINT ENERGY      -652.845107209850
FINAL SINGLE POINT ENERGY      -652.853015954821
FINAL SINGLE POINT ENERGY      -652.856442659048
FINAL SINGLE POINT ENERGY      -652.858455791513
FINAL SINGLE POINT ENERGY      -652.859867084868
FINAL SINGLE POINT ENERGY      -652.860756937261
FINAL SINGLE POINT ENERGY      -652.861116396850
FINAL SINGLE POINT ENERGY      -652.861172176986
FINAL SINGLE POINT ENERGY      -652.861186429944
FINAL SINGLE POINT ENERGY      -652.861189415048
                    ***********************HURRAY********************

CARTESIAN COORDINATES (ANGSTROEM)
---------------------------------
  C    -21.139331   26.304494   46.271586
  C    -20.196906   27.459065   45.927839
  C    -20.130986   28.233250   47.270758
  C    -20.205770   27.102021   48.319297
  O    -20.745644   25.918827   47.596084
  H    -21.043488   25.418103   45.642718
  H    -19.217945   27.038062   45.675764
  H    -20.526220   28.073556   45.085841
  H    -19.214954   28.824122   47.362362
  H    -20.981560   28.914811   47.370587
  H    -20.872736   27.331212   49.153702
  H    -19.224708   26.810541   48.702826
  C    -23.110065   27.838824   45.651635
  H    -22.659090   28.753569   46.052237
  H    -22.939701   27.808107   44.569286
  O    -22.563623   26.647897   46.303754
  C    -24.617518   27.813722   45.929437
  C    -25.006430   27.925256   47.414178
  C    -24.866884   29.456812   47.663227
  C    -25.320693   30.070627   46.322646
  O    -25.241859   28.978874   45.306931
  H    -25.051070   26.928703   45.457056
  H    -26.060508   27.637800   47.514163
  O    -24.236817   27.142211   48.345382
  H    -25.472919   29.788073   48.510170
  H    -23.819460   29.681881   47.890804
  H    -24.693353   30.903638   45.990144
  H    -26.362960   30.401306   46.341665
  H    -23.508802   26.680635   47.862918

 Multiplicity           Mult            ....    1
 Number of Electrons    NEL             ....  102
 Basis Dimension        Dim             ....  149

ORBITAL ENERGIES
----------------

  NO   OCC          E(Eh)            E(eV)
   0   2.0000     -19.161941      -521.4229
   1   2.0000     -19.152310      -521.1609
   2   2.0000     -19.141262      -520.8602
   3   2.0000     -19.107951      -519.9538
   4   2.0000     -10.294374      -280.1242
   5   2.0000     -10.242199      -278.7044
   6   2.0000     -10.235148      -278.5125
   7   2.0000     -10.234720      -278.5009
   8   2.0000     -10.228776      -278.3392
   9   2.0000     -10.227380      -278.3012
  10   2.0000     -10.204314      -277.6735
  11   2.0000     -10.202058      -277.6121
  12   2.0000     -10.179543      -276.9994
  13   2.0000      -1.066414       -29.0186
  14   2.0000      -1.026266       -27.9261
  15   2.0000      -1.007769       -27.4228
  16   2.0000      -0.987977       -26.8842
  17   2.0000      -0.801005       -21.7965
  18   2.0000      -0.777833       -21.1659
  19   2.0000      -0.768374       -20.9085
  20   2.0000      -0.739099       -20.1119
  21   2.0000      -0.683774       -18.6064
  22   2.0000      -0.614694       -16.7267
  23   2.0000      -0.599672       -16.3179
  24   2.0000      -0.596427       -16.2296
  25   2.0000      -0.577887       -15.7251
  26   2.0000      -0.529041       -14.3959
  27   2.0000      -0.520847       -14.1730
  28   2.0000      -0.511636       -13.9223
  29   2.0000      -0.488192       -13.2844
  30   2.0000      -0.478194       -13.0123
  31   2.0000      -0.460425       -12.5288
  32   2.0000      -0.446300       -12.1444
  33   2.0000      -0.437303       -11.8996
  34   2.0000      -0.429522       -11.6879
  35   2.0000      -0.421430       -11.4677
  36   2.0000      -0.411402       -11.1948
  37   2.0000      -0.392505       -10.6806
  38   2.0000      -0.384785       -10.4705
  39   2.0000      -0.373569       -10.1653
  40   2.0000      -0.368212       -10.0195
  41   2.0000      -0.364213        -9.9107
  42   2.0000      -0.350085        -9.5263
  43   2.0000      -0.340374        -9.2621
  44   2.0000      -0.324229        -8.8227
  45   2.0000      -0.312315        -8.4985
  46   2.0000      -0.291568        -7.9340
  47   2.0000      -0.276198        -7.5157
  48   2.0000      -0.265017        -7.2115
  49   2.0000      -0.247924        -6.7464
  50   2.0000      -0.240548        -6.5456
  51   0.0000       0.052673         1.4333
  52   0.0000       0.065162         1.7731
  53   0.0000       0.088074         2.3966
  54   0.0000       0.095996         2.6122
  55   0.0000       0.102792         2.7971

MULLIKEN ATOMIC CHARGES
-----------------------
   0 C :    0.327129
   1 C :   -0.298099
   2 C :   -0.311294
   3 C :   -0.011691
   4 O :   -0.497295
   5 H :    0.164650
   6 H :    0.160421
   7 H :    0.152043
   8 H :    0.150972
   9 H :    0.158688
  10 H :    0.167215
  11 H :    0.150793
  12 C :   -0.008318
  13 H :    0.132487
  14 H :    0.155758
  15 O :   -0.569958
  16 C :    0.053298
  17 C :    0.126141
  18 C :   -0.295309
  19 C :   -0.021280
  20 O :   -0.524094
  21 H :    0.162588
  22 H :    0.143599
  23 O :   -0.647976
  24 H :    0.152100
  25 H :    0.135328
  26 H :    0.139378
  27 H :    0.150037
  28 H :    0.402689
Sum of atomic charges:   -0.0000000

LOEWDIN ATOMIC CHARGES
----------------------
   0 C :    0.186045
   1 C :   -0.230583
   2 C :   -0.219273
   3 C :   -0.029479
   4 O :   -0.306728
   5 H :    0.110414
   6 H :    0.125038
   7 H :    0.118604
   8 H :    0.119306
   9 H :    0.112152
  10 H :    0.115087
  11 H :    0.107704
  12 C :   -0.042395
  13 H :    0.093408
  14 H :    0.107212
  15 O :   -0.344766
  16 C :    0.021057
  17 C :    0.043494
  18 C :   -0.233438
  19 C :   -0.033138
  20 O :   -0.324759
  21 H :    0.117207
  22 H :    0.102506
  23 O :   -0.440130
  24 H :    0.121661
  25 H :    0.106052
  26 H :    0.100194
  27 H :    0.106579
  28 H :    0.290969

  Mayer bond orders larger than 0.100000
B(  0-C ,  1-C ) :   0.9367 B(  0-C ,  4-O ) :   0.9389 B(  0-C ,  5-H ) :   0.9276
B(  0-C , 15-O ) :   0.7985 B(  1-C ,  2-C ) :   0.9484 B(  1-C ,  6-H ) :   0.9329
B(  1-C ,  7-H ) :   0.9280 B(  2-C ,  3-C ) :   0.9500 B(  2-C ,  8-H ) :   0.9448
B(  2-C ,  9-H ) :   0.9373 B(  3-C ,  4-O ) :   0.8289 B(  3-C , 10-H ) :   0.9312
B(  3-C , 11-H ) :   0.9391 B( 12-C , 13-H ) :   0.9086 B( 12-C , 14-H ) :   0.9225
B( 12-C , 15-O ) :   0.7912 B( 12-C , 16-C ) :   0.9021 B( 16-C , 17-C ) :   0.9143
B( 16-C , 20-O ) :   0.8561 B( 16-C , 21-H ) :   0.9284 B( 17-C , 18-C ) :   0.9019
B( 17-C , 22-H ) :   0.9279 B( 17-C , 23-O ) :   0.9366 B( 18-C , 19-C ) :   0.9399
B( 18-C , 24-H ) :   0.9450 B( 18-C , 25-H ) :   0.9439 B( 19-C , 20-O ) :   0.8323
B( 19-C , 26-H ) :   0.9346 B( 19-C , 27-H ) :   0.9382 B( 23-O , 28-H ) :   0.7117

FINAL SINGLE POINT ENERGY      -652.861189751758

DIPOLE MOMENT
-------------
                                X             Y             Z
Electronic contribution:     -2.87352      -5.45101      -0.85740
Nuclear contribution   :      4.12988       6.56490       0.29481
                        -----------------------------------------
Total Dipole Moment    :      1.25635       1.11388      -0.56259
                        -----------------------------------------
Magnitude (a.u.)       :      1.77078
Magnitude (Debye)      :      4.50097

Rotational constants in cm-1:     0.049370     0.015628     0.014917
Rotational constants in MHz :  1480.078378   468.512959   447.187518

                             ****ORCA TERMINATED NORMALLY****
TOTAL RUN TIME: 0 days 1 hours 1 minutes 3 seconds 757 msec
