                         Program Version 4.2.0 -  RELEASE  -
|  1> # Test redundant internal optimization
|  2> #
|  3> ! RKS B3LYP  Opt TightSCF SmallPrint
|  4>
|  5> %basis
|  6>         Basis "6-31G"
|  7> end
|  8>
|  9> %geom
| 10> Constraints
| 11> { D 4  0  15  12  285.0   C } # D for Dihedral angle
| 12> { D 0  15  12  16  135.0   C } # D for Dihedral angle
| 13> { D 0  4  3  2   C } # D for Dihedral angle
| 14> { D 4  3  2  1   C } # D for Dihedral angle
| 15> { D 3  2  1  0   C } # D for Dihedral angle
| 16> { D 2  1  0  4   C } # D for Dihedral angle
| 17> { D 1  0  4  3   C } # D for Dihedral angle
| 18> { D 16  20  19  18   C } # D for Dihedral angle
| 19> { D 20  19  18  17   C } # D for Dihedral angle
| 20> { D 19  18  17  16   C } # D for Dihedral angle
| 21> { D 18  17  16  20   C } # D for Dihedral angle
| 22> { D 17  16  20  19   C } # D for Dihedral angle
| 23> { D 15  12  16  20   C } # D for Dihedral angle
| 24> end
| 25> end
| 26>
| 27>
| 28> #%pal
| 29> #nprocs 8
| 30> #end
| 31>
| 32> * xyz 0 1
| 33> C  -21.048   26.222   46.251
| 34> C  -20.361   27.558   45.944
| 35> C  -20.329   28.222   47.341
| 36> C  -20.110   27.022   48.296
| 37> O  -20.473   25.807   47.535
| 38> H  -20.833   25.428   45.533
| 39> H  -19.344   27.382   45.576
| 40> H  -20.898   28.157   45.201
| 41> H  -19.543   28.978   47.434
| 42> H  -21.289   28.710   47.548
| 43> H  -20.733   27.082   49.195
| 44> H  -19.064   26.913   48.597
| 45> C  -23.396   25.070   46.435
| 46> H  -23.885   24.901   45.468
| 47> H  -22.730   24.221   46.636
| 48> O  -22.586   26.394   46.375
| 49> C  -24.489   25.084   47.540
| 50> C  -23.888   25.406   48.913
| 51> C  -23.731   26.944   48.833
| 52> C  -24.959   27.380   47.996
| 53> O  -25.446   26.169   47.300
| 54> H  -25.050   24.149   47.500
| 55> H  -24.593   25.131   49.705
| 56> O  -22.544   24.677   49.178
| 57> H  -23.707   27.420   49.819
| 58> H  -22.799   27.200   48.315
| 59> H  -24.711   28.146   47.254
| 60> H  -25.781   27.745   48.620
| 61> H  -21.822   24.938   48.396
| 62> *
| 63>
| 64>                          ****END OF INPUT****
 Total Charge           Charge          ....    0
 Multiplicity           Mult            ....    1
 Number of Electrons    NEL             ....  102
FINAL SINGLE POINT ENERGY      -652.843130791977
FINAL SINGLE POINT ENERGY      -652.865314922119
FINAL SINGLE POINT ENERGY      -652.869097630161
FINAL SINGLE POINT ENERGY      -652.872430036093
FINAL SINGLE POINT ENERGY      -652.872590889296
FINAL SINGLE POINT ENERGY      -652.872813322215
FINAL SINGLE POINT ENERGY      -652.872828311189
FINAL SINGLE POINT ENERGY      -652.872830588706
                    ***********************HURRAY********************

CARTESIAN COORDINATES (ANGSTROEM)
---------------------------------
  C    -21.075527   26.178681   46.232666
  C    -20.372770   27.495962   45.883789
  C    -20.323477   28.197678   47.262236
  C    -20.114866   27.029031   48.253757
  O    -20.504061   25.789959   47.517389
  H    -20.851804   25.349315   45.554272
  H    -19.366089   27.277265   45.513087
  H    -20.922031   28.060847   45.128510
  H    -19.518465   28.935934   47.329846
  H    -21.271557   28.710069   47.452365
  H    -20.725652   27.104005   49.156194
  H    -19.067672   26.898092   48.538210
  C    -23.270953   25.135124   46.395334
  H    -23.729922   24.976624   45.412928
  H    -22.607767   24.291705   46.621422
  O    -22.492343   26.383668   46.313504
  C    -24.366435   25.177156   47.452478
  C    -23.879849   25.403737   48.894856
  C    -23.811022   26.960835   48.969521
  C    -25.001802   27.395465   48.088694
  O    -25.361972   26.220722   47.249254
  H    -24.904738   24.224738   47.366822
  H    -24.628078   25.023278   49.593956
  O    -22.658958   24.717411   49.237705
  H    -23.890162   27.323467   49.998265
  H    -22.870159   27.298397   48.537085
  H    -24.758964   28.232284   47.428070
  H    -25.890920   27.645096   48.676197
  H    -21.903985   25.019454   48.675589

 Multiplicity           Mult            ....    1
 Number of Electrons    NEL             ....  102
 Basis Dimension        Dim             ....  149

ORBITAL ENERGIES
----------------

  NO   OCC          E(Eh)            E(eV)
   0   2.0000     -19.165855      -521.5294
   1   2.0000     -19.158342      -521.3250
   2   2.0000     -19.129866      -520.5501
   3   2.0000     -19.118413      -520.2385
   4   2.0000     -10.293517      -280.1008
   5   2.0000     -10.240686      -278.6632
   6   2.0000     -10.232106      -278.4298
   7   2.0000     -10.227777      -278.3120
   8   2.0000     -10.226756      -278.2842
   9   2.0000     -10.217979      -278.0454
  10   2.0000     -10.199113      -277.5320
  11   2.0000     -10.198725      -277.5214
  12   2.0000     -10.173982      -276.8481
  13   2.0000      -1.071021       -29.1440
  14   2.0000      -1.019518       -27.7425
  15   2.0000      -1.007109       -27.4048
  16   2.0000      -0.993677       -27.0393
  17   2.0000      -0.801776       -21.8174
  18   2.0000      -0.771560       -20.9952
  19   2.0000      -0.762142       -20.7389
  20   2.0000      -0.739240       -20.1157
  21   2.0000      -0.677175       -18.4269
  22   2.0000      -0.613139       -16.6844
  23   2.0000      -0.603598       -16.4247
  24   2.0000      -0.593943       -16.1620
  25   2.0000      -0.574915       -15.6442
  26   2.0000      -0.524744       -14.2790
  27   2.0000      -0.512885       -13.9563
  28   2.0000      -0.509870       -13.8743
  29   2.0000      -0.485959       -13.2236
  30   2.0000      -0.475014       -12.9258
  31   2.0000      -0.465795       -12.6749
  32   2.0000      -0.438014       -11.9190
  33   2.0000      -0.434359       -11.8195
  34   2.0000      -0.421546       -11.4709
  35   2.0000      -0.414729       -11.2853
  36   2.0000      -0.403797       -10.9879
  37   2.0000      -0.397225       -10.8090
  38   2.0000      -0.377904       -10.2833
  39   2.0000      -0.370775       -10.0893
  40   2.0000      -0.367968       -10.0129
  41   2.0000      -0.359069        -9.7708
  42   2.0000      -0.347248        -9.4491
  43   2.0000      -0.345181        -9.3929
  44   2.0000      -0.320752        -8.7281
  45   2.0000      -0.317619        -8.6428
  46   2.0000      -0.298356        -8.1187
  47   2.0000      -0.279414        -7.6032
  48   2.0000      -0.268760        -7.3133
  49   2.0000      -0.251130        -6.8336
  50   2.0000      -0.233019        -6.3408
  51   0.0000       0.067025         1.8238
  52   0.0000       0.084669         2.3040
  53   0.0000       0.090656         2.4669
  54   0.0000       0.095800         2.6068
  55   0.0000       0.102295         2.7836

MULLIKEN ATOMIC CHARGES
-----------------------
   0 C :    0.272234
   1 C :   -0.259472
   2 C :   -0.305923
   3 C :   -0.017031
   4 O :   -0.526891
   5 H :    0.154703
   6 H :    0.152604
   7 H :    0.166321
   8 H :    0.150341
   9 H :    0.167224
  10 H :    0.155081
  11 H :    0.155158
  12 C :   -0.033737
  13 H :    0.156528
  14 H :    0.150382
  15 O :   -0.513604
  16 C :    0.092850
  17 C :    0.090365
  18 C :   -0.311360
  19 C :   -0.002456
  20 O :   -0.523188
  21 H :    0.147372
  22 H :    0.155872
  23 O :   -0.644031
  24 H :    0.136931
  25 H :    0.157504
  26 H :    0.144187
  27 H :    0.138327
  28 H :    0.393708
Sum of atomic charges:   -0.0000000

LOEWDIN ATOMIC CHARGES
----------------------
   0 C :    0.168393
   1 C :   -0.211566
   2 C :   -0.215590
   3 C :   -0.033519
   4 O :   -0.332789
   5 H :    0.100058
   6 H :    0.118663
   7 H :    0.129670
   8 H :    0.118221
   9 H :    0.118815
  10 H :    0.107285
  11 H :    0.110086
  12 C :   -0.049053
  13 H :    0.113032
  14 H :    0.111425
  15 O :   -0.323810
  16 C :    0.015626
  17 C :    0.041337
  18 C :   -0.242644
  19 C :   -0.024896
  20 O :   -0.325311
  21 H :    0.114503
  22 H :    0.112777
  23 O :   -0.432213
  24 H :    0.112645
  25 H :    0.114243
  26 H :    0.103856
  27 H :    0.099953
  28 H :    0.280801

  Mayer bond orders larger than 0.100000
B(  0-C ,  1-C ) :   0.9457 B(  0-C ,  4-O ) :   0.8575 B(  0-C ,  5-H ) :   0.9176
B(  0-C , 15-O ) :   0.8931 B(  1-C ,  2-C ) :   0.9535 B(  1-C ,  6-H ) :   0.9385
B(  1-C ,  7-H ) :   0.9355 B(  2-C ,  3-C ) :   0.9548 B(  2-C ,  8-H ) :   0.9446
B(  2-C ,  9-H ) :   0.9400 B(  3-C ,  4-O ) :   0.8120 B(  3-C , 10-H ) :   0.9263
B(  3-C , 11-H ) :   0.9398 B( 12-C , 13-H ) :   0.9287 B( 12-C , 14-H ) :   0.9025
B( 12-C , 15-O ) :   0.8194 B( 12-C , 16-C ) :   0.9162 B( 16-C , 17-C ) :   0.8846
B( 16-C , 20-O ) :   0.8788 B( 16-C , 21-H ) :   0.9240 B( 17-C , 18-C ) :   0.9218
B( 17-C , 22-H ) :   0.9373 B( 17-C , 23-O ) :   0.9324 B( 18-C , 19-C ) :   0.9444
B( 18-C , 24-H ) :   0.9438 B( 18-C , 25-H ) :   0.9222 B( 19-C , 20-O ) :   0.8372
B( 19-C , 26-H ) :   0.9331 B( 19-C , 27-H ) :   0.9386 B( 23-O , 28-H ) :   0.7121

FINAL SINGLE POINT ENERGY      -652.872829901196

DIPOLE MOMENT
-------------
                                X             Y             Z
Electronic contribution:     -2.63266      -4.28975      -0.96181
Nuclear contribution   :      3.66701       5.23417       0.50440
                        -----------------------------------------
Total Dipole Moment    :      1.03434       0.94442      -0.45741
                        -----------------------------------------
Magnitude (a.u.)       :      1.47344
Magnitude (Debye)      :      3.74519

Rotational constants in cm-1:     0.043278     0.019322     0.018549
Rotational constants in MHz :  1297.441897   579.262921   556.074602

                             ****ORCA TERMINATED NORMALLY****
TOTAL RUN TIME: 0 days 0 hours 29 minutes 59 seconds 906 msec
