                         Program Version 4.2.1 -  RELEASE  -
|  1> # Test redundant internal optimization
|  2> #
|  3> ! RKS B3LYP  Opt TightSCF SmallPrint
|  4>
|  5> %basis
|  6>         Basis "6-31G"
|  7> end
|  8>
|  9> %geom
| 10> Constraints
| 11> { D 4  0  19  14  330.0   C } # D for Dihedral angle
| 12> { D 0  19  14  12  90.0   C } # D for Dihedral angle
| 13> { D 0  4  3  2   C } # D for Dihedral angle
| 14> { D 4  3  2  1   C } # D for Dihedral angle
| 15> { D 3  2  1  0   C } # D for Dihedral angle
| 16> { D 2  1  0  4   C } # D for Dihedral angle
| 17> { D 1  0  4  3   C } # D for Dihedral angle
| 18> { D 14  15  16  17   C } # D for Dihedral angle
| 19> { D 15  16  17  12   C } # D for Dihedral angle
| 20> { D 16  17  12  14   C } # D for Dihedral angle
| 21> { D 17  12  14  15   C } # D for Dihedral angle
| 22> { D 12  14  15  16   C } # D for Dihedral angle
| 23> end
| 24> end
| 25>
| 26>
| 27> #%pal
| 28> #nprocs 8
| 29> #end
| 30>
| 31> * xyz 0 1
| 32> C  -21.048   26.222   46.251
| 33> C  -20.361   27.558   45.944
| 34> C  -20.329   28.222   47.341
| 35> C  -20.110   27.022   48.296
| 36> O  -20.473   25.807   47.535
| 37> H  -20.833   25.428   45.533
| 38> H  -19.344   27.382   45.576
| 39> H  -20.898   28.157   45.201
| 40> H  -19.543   28.978   47.434
| 41> H  -21.289   28.710   47.548
| 42> H  -20.733   27.082   49.195
| 43> H  -19.064   26.913   48.597
| 44> C  -23.118   26.218   48.707
| 45> H  -23.308   25.498   49.519
| 46> C  -23.087   25.523   47.341
| 47> C  -24.594   25.350   47.043
| 48> C  -25.224   26.625   47.657
| 49> O  -24.226   27.174   48.601
| 50> H  -22.221   26.794   48.943
| 51> O  -22.472   26.381   46.366
| 52> H  -22.544   24.572   47.355
| 53> H  -24.808   25.252   45.973
| 54> H  -24.977   24.451   47.543
| 55> H  -26.153   26.416   48.199
| 56> H  -25.418   27.398   46.907
| 57> *
| 58>
| 59>                          ****END OF INPUT****
 Total Charge           Charge          ....    0
 Multiplicity           Mult            ....    1
 Number of Electrons    NEL             ....   86
FINAL SINGLE POINT ENERGY      -538.424168007503
FINAL SINGLE POINT ENERGY      -538.432389492321
FINAL SINGLE POINT ENERGY      -538.434056007528
FINAL SINGLE POINT ENERGY      -538.434476905988
FINAL SINGLE POINT ENERGY      -538.434505266919
FINAL SINGLE POINT ENERGY      -538.434515665051
                    ***********************HURRAY********************

CARTESIAN COORDINATES (ANGSTROEM)
---------------------------------
  C    -21.007254   26.202450   46.324358
  C    -20.449242   27.572435   45.937975
  C    -20.311887   28.255702   47.316808
  C    -19.913200   27.093460   48.253078
  O    -20.283357   25.844598   47.525578
  H    -20.782788   25.398516   45.614343
  H    -19.472396   27.438348   45.459769
  H    -21.113065   28.108956   45.256919
  H    -19.570812   29.060807   47.318262
  H    -21.278595   28.673975   47.614480
  H    -20.424828   27.116899   49.217875
  H    -18.834263   27.036777   48.425627
  C    -23.254945   26.113258   48.814999
  H    -23.566911   25.366529   49.561655
  C    -23.129448   25.453115   47.442442
  C    -24.600640   25.384909   46.995523
  C    -25.214984   26.679153   47.580141
  O    -24.283948   27.139471   48.634077
  H    -22.354416   26.611619   49.162440
  O    -22.447367   26.293689   46.460185
  H    -22.648344   24.469663   47.496226
  H    -24.675089   25.330142   45.907189
  H    -25.073444   24.494705   47.425531
  H    -26.203802   26.514462   48.021933
  H    -25.279976   27.479362   46.837587

 Multiplicity           Mult            ....    1
 Number of Electrons    NEL             ....   86
 Basis Dimension        Dim             ....  127

ORBITAL ENERGIES
----------------

  NO   OCC          E(Eh)            E(eV)
   0   2.0000     -19.148432      -521.0553
   1   2.0000     -19.138601      -520.7878
   2   2.0000     -19.125190      -520.4229
   3   2.0000     -10.277883      -279.6754
   4   2.0000     -10.236739      -278.5558
   5   2.0000     -10.229105      -278.3481
   6   2.0000     -10.217599      -278.0350
   7   2.0000     -10.216829      -278.0141
   8   2.0000     -10.185430      -277.1596
   9   2.0000     -10.184288      -277.1286
  10   2.0000     -10.181685      -277.0577
  11   2.0000      -1.053088       -28.6560
  12   2.0000      -1.011596       -27.5269
  13   2.0000      -0.988655       -26.9027
  14   2.0000      -0.792420       -21.5629
  15   2.0000      -0.776253       -21.1229
  16   2.0000      -0.737668       -20.0730
  17   2.0000      -0.719819       -19.5873
  18   2.0000      -0.614344       -16.7172
  19   2.0000      -0.598874       -16.2962
  20   2.0000      -0.592384       -16.1196
  21   2.0000      -0.567050       -15.4302
  22   2.0000      -0.514636       -14.0040
  23   2.0000      -0.503476       -13.7003
  24   2.0000      -0.487885       -13.2760
  25   2.0000      -0.480573       -13.0771
  26   2.0000      -0.451614       -12.2890
  27   2.0000      -0.441102       -12.0030
  28   2.0000      -0.424067       -11.5395
  29   2.0000      -0.411954       -11.2098
  30   2.0000      -0.408392       -11.1129
  31   2.0000      -0.380032       -10.3412
  32   2.0000      -0.367542       -10.0013
  33   2.0000      -0.365062        -9.9338
  34   2.0000      -0.358816        -9.7639
  35   2.0000      -0.352605        -9.5949
  36   2.0000      -0.342162        -9.3107
  37   2.0000      -0.329244        -8.9592
  38   2.0000      -0.304716        -8.2917
  39   2.0000      -0.298488        -8.1223
  40   2.0000      -0.262917        -7.1543
  41   2.0000      -0.254072        -6.9137
  42   2.0000      -0.231020        -6.2864
  43   0.0000       0.080216         2.1828
  44   0.0000       0.092700         2.5225
  45   0.0000       0.101965         2.7746
  46   0.0000       0.110669         3.0115
  47   0.0000       0.117056         3.1853

MULLIKEN ATOMIC CHARGES
-----------------------
   0 C :    0.304228
   1 C :   -0.262570
   2 C :   -0.307221
   3 C :   -0.019636
   4 O :   -0.518911
   5 H :    0.147145
   6 H :    0.144267
   7 H :    0.162136
   8 H :    0.144438
   9 H :    0.173834
  10 H :    0.145687
  11 H :    0.148720
  12 C :    0.000206
  13 H :    0.123761
  14 C :    0.074306
  15 C :   -0.287936
  16 C :   -0.000961
  17 O :   -0.524993
  18 H :    0.157630
  19 O :   -0.532933
  20 H :    0.141351
  21 H :    0.161503
  22 H :    0.138216
  23 H :    0.133929
  24 H :    0.153807
Sum of atomic charges:   -0.0000000

LOEWDIN ATOMIC CHARGES
----------------------
   0 C :    0.178880
   1 C :   -0.215231
   2 C :   -0.218810
   3 C :   -0.032870
   4 O :   -0.327932
   5 H :    0.095838
   6 H :    0.113675
   7 H :    0.126995
   8 H :    0.116030
   9 H :    0.124035
  10 H :    0.100587
  11 H :    0.105426
  12 C :   -0.043355
  13 H :    0.092315
  14 C :    0.042154
  15 C :   -0.224219
  16 C :   -0.028868
  17 O :   -0.334378
  18 H :    0.114699
  19 O :   -0.332896
  20 H :    0.104833
  21 H :    0.127239
  22 H :    0.110892
  23 H :    0.097091
  24 H :    0.107873

  Mayer bond orders larger than 0.100000
B(  0-C ,  1-C ) :   0.9431 B(  0-C ,  4-O ) :   0.8984 B(  0-C ,  5-H ) :   0.9254
B(  0-C , 19-O ) :   0.8557 B(  1-C ,  2-C ) :   0.9545 B(  1-C ,  6-H ) :   0.9379
B(  1-C ,  7-H ) :   0.9355 B(  2-C ,  3-C ) :   0.9562 B(  2-C ,  8-H ) :   0.9445
B(  2-C ,  9-H ) :   0.9396 B(  3-C ,  4-O ) :   0.8319 B(  3-C , 10-H ) :   0.9224
B(  3-C , 11-H ) :   0.9399 B( 12-C , 13-H ) :   0.9117 B( 12-C , 14-C ) :   0.9188
B( 12-C , 17-O ) :   0.8685 B( 12-C , 18-H ) :   0.9231 B( 14-C , 15-C ) :   0.9553
B( 14-C , 19-O ) :   0.8208 B( 14-C , 20-H ) :   0.9203 B( 15-C , 16-C ) :   0.9479
B( 15-C , 21-H ) :   0.9371 B( 15-C , 22-H ) :   0.9438 B( 16-C , 17-O ) :   0.8537
B( 16-C , 23-H ) :   0.9334 B( 16-C , 24-H ) :   0.9364

FINAL SINGLE POINT ENERGY      -538.434516153053

DIPOLE MOMENT
-------------
                                X             Y             Z
Electronic contribution:     -0.12003      -1.51082      -0.04309
Nuclear contribution   :      0.41939       1.33247      -0.25769
                        -----------------------------------------
Total Dipole Moment    :      0.29935      -0.17835      -0.30077
                        -----------------------------------------
Magnitude (a.u.)       :      0.46031
Magnitude (Debye)      :      1.17001

Rotational constants in cm-1:     0.071457     0.024146     0.022912
Rotational constants in MHz :  2142.218013   723.891018   686.887630

                             ****ORCA TERMINATED NORMALLY****
TOTAL RUN TIME: 0 days 0 hours 8 minutes 29 seconds 980 msec
