                         Program Version 4.2.0 -  RELEASE  -
|  1> # Test redundant internal optimization
|  2> #
|  3> ! RKS B3LYP  Opt TightSCF SmallPrint
|  4>
|  5> %basis
|  6>         Basis "6-31G"
|  7> end
|  8>
|  9> %geom
| 10> Constraints
| 11> { D 4  0  15  12  180.0   C } # D for Dihedral angle
| 12> { D 0  15  12  16  225.0   C } # D for Dihedral angle
| 13> { D 0  4  3  2   C } # D for Dihedral angle
| 14> { D 4  3  2  1   C } # D for Dihedral angle
| 15> { D 3  2  1  0   C } # D for Dihedral angle
| 16> { D 2  1  0  4   C } # D for Dihedral angle
| 17> { D 1  0  4  3   C } # D for Dihedral angle
| 18> { D 16  20  19  18   C } # D for Dihedral angle
| 19> { D 20  19  18  17   C } # D for Dihedral angle
| 20> { D 19  18  17  16   C } # D for Dihedral angle
| 21> { D 18  17  16  20   C } # D for Dihedral angle
| 22> { D 17  16  20  19   C } # D for Dihedral angle
| 23> { D 15  12  16  20   C } # D for Dihedral angle
| 24> end
| 25> end
| 26>
| 27>
| 28> #%pal
| 29> #nprocs 8
| 30> #end
| 31>
| 32> * xyz 0 1
| 33> C  -21.048   26.222   46.251
| 34> C  -20.361   27.558   45.944
| 35> C  -20.329   28.222   47.341
| 36> C  -20.110   27.022   48.296
| 37> O  -20.473   25.807   47.535
| 38> H  -20.833   25.428   45.533
| 39> H  -19.344   27.382   45.576
| 40> H  -20.898   28.157   45.201
| 41> H  -19.543   28.978   47.434
| 42> H  -21.289   28.710   47.548
| 43> H  -20.733   27.082   49.195
| 44> H  -19.064   26.913   48.597
| 45> C  -23.309   26.834   45.072
| 46> H  -22.565   27.195   44.351
| 47> H  -23.839   25.985   44.622
| 48> O  -22.586   26.394   46.375
| 49> C  -24.346   27.965   45.313
| 50> C  -25.369   27.563   46.382
| 51> C  -24.572   27.806   47.686
| 52> C  -23.709   29.046   47.345
| 53> O  -23.690   29.152   45.869
| 54> H  -24.784   28.259   44.357
| 55> O  -26.606   28.500   46.314
| 56> H  -25.714   26.528   46.282
| 57> H  -25.218   27.974   48.554
| 58> H  -23.935   26.941   47.905
| 59> H  -22.681   28.956   47.711
| 60> H  -24.141   29.975   47.729
| 61> H  -26.285   29.542   46.413
| 62> *
| 63>
| 64>                          ****END OF INPUT****
 Total Charge           Charge          ....    0
 Multiplicity           Mult            ....    1
 Number of Electrons    NEL             ....  102
FINAL SINGLE POINT ENERGY      -652.826076701057
FINAL SINGLE POINT ENERGY      -652.847537534787
FINAL SINGLE POINT ENERGY      -652.855247466495
FINAL SINGLE POINT ENERGY      -652.858659989282
FINAL SINGLE POINT ENERGY      -652.859105189523
FINAL SINGLE POINT ENERGY      -652.859151121392
FINAL SINGLE POINT ENERGY      -652.859157358005
                    ***********************HURRAY********************

CARTESIAN COORDINATES (ANGSTROEM)
---------------------------------
  C    -21.043667   26.251072   46.173261
  C    -20.281757   27.541055   45.876114
  C    -20.203480   28.199726   47.276397
  C    -20.054440   26.985590   48.215950
  O    -20.501949   25.809246   47.422151
  H    -20.862202   25.450160   45.447530
  H    -19.284969   27.275919   45.506374
  H    -20.763729   28.190268   45.141342
  H    -19.363658   28.896098   47.362336
  H    -21.123951   28.750363   47.469213
  H    -20.670060   27.052453   49.116482
  H    -19.016358   26.791819   48.499967
  C    -23.221844   26.844047   45.156834
  H    -22.525600   27.234930   44.405128
  H    -23.745165   25.984385   44.713758
  O    -22.493542   26.397398   46.337232
  C    -24.247033   27.936360   45.457002
  C    -25.396869   27.576397   46.408536
  C    -24.771096   27.892344   47.790221
  C    -23.878329   29.120566   47.502174
  O    -23.671617   29.154956   46.029770
  H    -24.670325   28.228366   44.486847
  O    -26.569664   28.392403   46.129449
  H    -25.737076   26.544829   46.314837
  H    -25.545911   28.091220   48.535050
  H    -24.161675   27.043661   48.110652
  H    -22.912863   29.059753   48.004973
  H    -24.356659   30.067818   47.773519
  H    -26.298509   29.332797   46.067903

 Multiplicity           Mult            ....    1
 Number of Electrons    NEL             ....  102
 Basis Dimension        Dim             ....  149

ORBITAL ENERGIES
----------------

  NO   OCC          E(Eh)            E(eV)
   0   2.0000     -19.145860      -520.9853
   1   2.0000     -19.145334      -520.9710
   2   2.0000     -19.144029      -520.9355
   3   2.0000     -19.135896      -520.7142
   4   2.0000     -10.282296      -279.7955
   5   2.0000     -10.237778      -278.5841
   6   2.0000     -10.236632      -278.5529
   7   2.0000     -10.236127      -278.5392
   8   2.0000     -10.228234      -278.3244
   9   2.0000     -10.228001      -278.3181
  10   2.0000     -10.188916      -277.2545
  11   2.0000     -10.187817      -277.2246
  12   2.0000     -10.178756      -276.9780
  13   2.0000      -1.055269       -28.7153
  14   2.0000      -1.035591       -28.1799
  15   2.0000      -1.005604       -27.3639
  16   2.0000      -0.995705       -27.0945
  17   2.0000      -0.788980       -21.4692
  18   2.0000      -0.779914       -21.2225
  19   2.0000      -0.768032       -20.8992
  20   2.0000      -0.735318       -20.0090
  21   2.0000      -0.678845       -18.4723
  22   2.0000      -0.606856       -16.5134
  23   2.0000      -0.599222       -16.3057
  24   2.0000      -0.597217       -16.2511
  25   2.0000      -0.575761       -15.6672
  26   2.0000      -0.526801       -14.3350
  27   2.0000      -0.506136       -13.7727
  28   2.0000      -0.497220       -13.5300
  29   2.0000      -0.492292       -13.3959
  30   2.0000      -0.478478       -13.0200
  31   2.0000      -0.460147       -12.5212
  32   2.0000      -0.450149       -12.2492
  33   2.0000      -0.446830       -12.1589
  34   2.0000      -0.418345       -11.3837
  35   2.0000      -0.411367       -11.1939
  36   2.0000      -0.407734       -11.0950
  37   2.0000      -0.394565       -10.7367
  38   2.0000      -0.376289       -10.2393
  39   2.0000      -0.370110       -10.0712
  40   2.0000      -0.360573        -9.8117
  41   2.0000      -0.357163        -9.7189
  42   2.0000      -0.352095        -9.5810
  43   2.0000      -0.331186        -9.0120
  44   2.0000      -0.317605        -8.6425
  45   2.0000      -0.310045        -8.4367
  46   2.0000      -0.301434        -8.2024
  47   2.0000      -0.272449        -7.4137
  48   2.0000      -0.262951        -7.1553
  49   2.0000      -0.259497        -7.0613
  50   2.0000      -0.244204        -6.6451
  51   0.0000       0.061726         1.6797
  52   0.0000       0.082748         2.2517
  53   0.0000       0.094134         2.5615
  54   0.0000       0.098394         2.6774
  55   0.0000       0.102303         2.7838

MULLIKEN ATOMIC CHARGES
-----------------------
   0 C :    0.310252
   1 C :   -0.284582
   2 C :   -0.314751
   3 C :   -0.003420
   4 O :   -0.503920
   5 H :    0.143358
   6 H :    0.148361
   7 H :    0.161367
   8 H :    0.143997
   9 H :    0.175145
  10 H :    0.148130
  11 H :    0.144622
  12 C :   -0.015179
  13 H :    0.137493
  14 H :    0.139478
  15 O :   -0.518264
  16 C :    0.077784
  17 C :    0.078603
  18 C :   -0.292760
  19 C :   -0.024416
  20 O :   -0.531939
  21 H :    0.153263
  22 O :   -0.603822
  23 H :    0.156126
  24 H :    0.152242
  25 H :    0.182863
  26 H :    0.141082
  27 H :    0.137325
  28 H :    0.361562
Sum of atomic charges:    0.0000000

LOEWDIN ATOMIC CHARGES
----------------------
   0 C :    0.182382
   1 C :   -0.231412
   2 C :   -0.218702
   3 C :   -0.026067
   4 O :   -0.302248
   5 H :    0.095468
   6 H :    0.116933
   7 H :    0.122270
   8 H :    0.115818
   9 H :    0.119788
  10 H :    0.106366
  11 H :    0.104083
  12 C :   -0.041324
  13 H :    0.102003
  14 H :    0.103283
  15 O :   -0.340495
  16 C :    0.011830
  17 C :    0.039278
  18 C :   -0.241072
  19 C :   -0.033595
  20 O :   -0.334075
  21 H :    0.115031
  22 O :   -0.416923
  23 H :    0.118527
  24 H :    0.120832
  25 H :    0.134427
  26 H :    0.099910
  27 H :    0.096695
  28 H :    0.280988

  Mayer bond orders larger than 0.100000
B(  0-C ,  1-C ) :   0.9261 B(  0-C ,  4-O ) :   0.9399 B(  0-C ,  5-H ) :   0.9231
B(  0-C , 15-O ) :   0.8266 B(  1-C ,  2-C ) :   0.9521 B(  1-C ,  6-H ) :   0.9323
B(  1-C ,  7-H ) :   0.9254 B(  2-C ,  3-C ) :   0.9572 B(  2-C ,  8-H ) :   0.9450
B(  2-C ,  9-H ) :   0.9225 B(  3-C ,  4-O ) :   0.8348 B(  3-C , 10-H ) :   0.9346
B(  3-C , 11-H ) :   0.9391 B( 12-C , 13-H ) :   0.9150 B( 12-C , 14-H ) :   0.9152
B( 12-C , 15-O ) :   0.8558 B( 12-C , 16-C ) :   0.9000 B( 16-C , 17-C ) :   0.9101
B( 16-C , 20-O ) :   0.8695 B( 16-C , 21-H ) :   0.9184 B( 17-C , 18-C ) :   0.9261
B( 17-C , 22-O ) :   0.8875 B( 17-C , 23-H ) :   0.9354 B( 18-C , 19-C ) :   0.9470
B( 18-C , 24-H ) :   0.9363 B( 18-C , 25-H ) :   0.9184 B( 19-C , 20-O ) :   0.8440
B( 19-C , 26-H ) :   0.9160 B( 19-C , 27-H ) :   0.9387 B( 22-O , 28-H ) :   0.7976

FINAL SINGLE POINT ENERGY      -652.859156862581

DIPOLE MOMENT
-------------
                                X             Y             Z
Electronic contribution:     -2.99272      -2.28016      -1.49645
Nuclear contribution   :      3.78318       2.92226       1.33320
                        -----------------------------------------
Total Dipole Moment    :      0.79046       0.64210      -0.16325
                        -----------------------------------------
Magnitude (a.u.)       :      1.03139
Magnitude (Debye)      :      2.62159

Rotational constants in cm-1:     0.053892     0.015702     0.014890
Rotational constants in MHz :  1615.643356   470.732223   446.383006

                             ****ORCA TERMINATED NORMALLY****
TOTAL RUN TIME: 0 days 0 hours 58 minutes 54 seconds 734 msec
