                         Program Version 4.2.0 -  RELEASE  -
|  1> # Test redundant internal optimization
|  2> #
|  3> ! RKS B3LYP  Opt TightSCF SmallPrint
|  4>
|  5> %basis
|  6>         Basis "6-31G"
|  7> end
|  8>
|  9> %geom
| 10> Constraints
| 11> { D 4  0  15  12  315.0   C } # D for Dihedral angle
| 12> { D 0  15  12  16  195.0   C } # D for Dihedral angle
| 13> { D 0  4  3  2   C } # D for Dihedral angle
| 14> { D 4  3  2  1   C } # D for Dihedral angle
| 15> { D 3  2  1  0   C } # D for Dihedral angle
| 16> { D 2  1  0  4   C } # D for Dihedral angle
| 17> { D 1  0  4  3   C } # D for Dihedral angle
| 18> { D 16  20  19  18   C } # D for Dihedral angle
| 19> { D 20  19  18  17   C } # D for Dihedral angle
| 20> { D 19  18  17  16   C } # D for Dihedral angle
| 21> { D 18  17  16  20   C } # D for Dihedral angle
| 22> { D 17  16  20  19   C } # D for Dihedral angle
| 23> { D 15  12  16  20   C } # D for Dihedral angle
| 24> end
| 25> end
| 26>
| 27>
| 28> #%pal
| 29> #nprocs 8
| 30> #end
| 31>
| 32> * xyz 0 1
| 33> C  -21.048   26.222   46.251
| 34> C  -20.361   27.558   45.944
| 35> C  -20.329   28.222   47.341
| 36> C  -20.110   27.022   48.296
| 37> O  -20.473   25.807   47.535
| 38> H  -20.833   25.428   45.533
| 39> H  -19.344   27.382   45.576
| 40> H  -20.898   28.157   45.201
| 41> H  -19.543   28.978   47.434
| 42> H  -21.289   28.710   47.548
| 43> H  -20.733   27.082   49.195
| 44> H  -19.064   26.913   48.597
| 45> C  -23.319   25.255   47.135
| 46> H  -22.935   24.286   46.792
| 47> H  -23.136   25.333   48.214
| 48> O  -22.586   26.394   46.375
| 49> C  -24.857   25.277   46.914
| 50> C  -25.453   26.639   47.288
| 51> C  -25.106   27.487   46.041
| 52> C  -25.230   26.470   44.879
| 53> O  -25.172   25.124   45.490
| 54> H  -25.305   24.429   47.434
| 55> O  -26.992   26.518   47.457
| 56> H  -25.035   27.053   48.212
| 57> H  -25.770   28.348   45.914
| 58> H  -24.079   27.864   46.116
| 59> H  -24.421   26.568   44.147
| 60> H  -26.189   26.546   44.358
| 61> H  -27.432   26.106   46.543
| 62> *
| 63>
| 64>                          ****END OF INPUT****
 Total Charge           Charge          ....    0
 Multiplicity           Mult            ....    1
 Number of Electrons    NEL             ....  102
FINAL SINGLE POINT ENERGY      -652.840411917023
FINAL SINGLE POINT ENERGY      -652.863750399362
FINAL SINGLE POINT ENERGY      -652.867910698492
FINAL SINGLE POINT ENERGY      -652.868930461409
FINAL SINGLE POINT ENERGY      -652.869048954712
FINAL SINGLE POINT ENERGY      -652.869064217986
                    ***********************HURRAY********************

CARTESIAN COORDINATES (ANGSTROEM)
---------------------------------
  C    -21.093468   26.143051   46.298325
  C    -20.455290   27.490072   45.960541
  C    -20.411526   28.173317   47.344968
  C    -20.136794   27.000036   48.311626
  O    -20.487940   25.764786   47.557258
  H    -20.880483   25.320039   45.608036
  H    -19.446106   27.319887   45.569615
  H    -21.033199   28.048060   45.220600
  H    -19.641815   28.948856   47.407023
  H    -21.380681   28.633101   47.560246
  H    -20.739079   27.040947   49.222920
  H    -19.081007   26.908578   48.581807
  C    -23.232716   25.292800   47.138153
  H    -22.875992   24.305809   46.813876
  H    -23.030436   25.389853   48.211950
  O    -22.524291   26.329576   46.395132
  C    -24.731594   25.378257   46.869136
  C    -25.432487   26.691454   47.247177
  C    -25.162189   27.567797   45.995247
  C    -25.213585   26.541905   44.836184
  O    -25.043936   25.203421   45.449773
  H    -25.202609   24.542094   47.399789
  O    -26.854287   26.467324   47.468603
  H    -25.065428   27.133858   48.173767
  H    -25.915737   28.355304   45.903156
  H    -24.168983   28.012393   46.069558
  H    -24.411969   26.697451   44.109278
  H    -26.176201   26.536741   44.313762
  H    -27.212171   25.941235   46.722493

 Multiplicity           Mult            ....    1
 Number of Electrons    NEL             ....  102
 Basis Dimension        Dim             ....  149

ORBITAL ENERGIES
----------------

  NO   OCC          E(Eh)            E(eV)
   0   2.0000     -19.149032      -521.0717
   1   2.0000     -19.148375      -521.0538
   2   2.0000     -19.135275      -520.6973
   3   2.0000     -19.132525      -520.6225
   4   2.0000     -10.282803      -279.8093
   5   2.0000     -10.234638      -278.4987
   6   2.0000     -10.231932      -278.4250
   7   2.0000     -10.231473      -278.4125
   8   2.0000     -10.228855      -278.3413
   9   2.0000     -10.220801      -278.1221
  10   2.0000     -10.191638      -277.3286
  11   2.0000     -10.190944      -277.3097
  12   2.0000     -10.174518      -276.8627
  13   2.0000      -1.060546       -28.8589
  14   2.0000      -1.030166       -28.0322
  15   2.0000      -1.002479       -27.2788
  16   2.0000      -0.994275       -27.0556
  17   2.0000      -0.795150       -21.6371
  18   2.0000      -0.774975       -21.0881
  19   2.0000      -0.762427       -20.7467
  20   2.0000      -0.733681       -19.9645
  21   2.0000      -0.671512       -18.2728
  22   2.0000      -0.605645       -16.4804
  23   2.0000      -0.597144       -16.2491
  24   2.0000      -0.594699       -16.1826
  25   2.0000      -0.573496       -15.6056
  26   2.0000      -0.525457       -14.2984
  27   2.0000      -0.508805       -13.8453
  28   2.0000      -0.497874       -13.5478
  29   2.0000      -0.488149       -13.2832
  30   2.0000      -0.469193       -12.7674
  31   2.0000      -0.462786       -12.5931
  32   2.0000      -0.447508       -12.1773
  33   2.0000      -0.431828       -11.7506
  34   2.0000      -0.422179       -11.4881
  35   2.0000      -0.409733       -11.1494
  36   2.0000      -0.403320       -10.9749
  37   2.0000      -0.385061       -10.4780
  38   2.0000      -0.379797       -10.3348
  39   2.0000      -0.364471        -9.9178
  40   2.0000      -0.363179        -9.8826
  41   2.0000      -0.356712        -9.7066
  42   2.0000      -0.349487        -9.5100
  43   2.0000      -0.341003        -9.2792
  44   2.0000      -0.320918        -8.7326
  45   2.0000      -0.305215        -8.3053
  46   2.0000      -0.299231        -8.1425
  47   2.0000      -0.269637        -7.3372
  48   2.0000      -0.264133        -7.1874
  49   2.0000      -0.259675        -7.0661
  50   2.0000      -0.240751        -6.5512
  51   0.0000       0.065984         1.7955
  52   0.0000       0.081448         2.2163
  53   0.0000       0.097121         2.6428
  54   0.0000       0.102765         2.7964
  55   0.0000       0.107652         2.9294

MULLIKEN ATOMIC CHARGES
-----------------------
   0 C :    0.298212
   1 C :   -0.263964
   2 C :   -0.301323
   3 C :   -0.009744
   4 O :   -0.513392
   5 H :    0.153595
   6 H :    0.148572
   7 H :    0.156714
   8 H :    0.145467
   9 H :    0.158186
  10 H :    0.146243
  11 H :    0.148119
  12 C :    0.019301
  13 H :    0.143879
  14 H :    0.141985
  15 O :   -0.538135
  16 C :    0.056459
  17 C :    0.079203
  18 C :   -0.290130
  19 C :   -0.016943
  20 O :   -0.526670
  21 H :    0.157912
  22 O :   -0.603652
  23 H :    0.147133
  24 H :    0.147748
  25 H :    0.171352
  26 H :    0.148152
  27 H :    0.133772
  28 H :    0.361947
Sum of atomic charges:   -0.0000000

LOEWDIN ATOMIC CHARGES
----------------------
   0 C :    0.176131
   1 C :   -0.214181
   2 C :   -0.217023
   3 C :   -0.029499
   4 O :   -0.326699
   5 H :    0.100280
   6 H :    0.116245
   7 H :    0.123755
   8 H :    0.115733
   9 H :    0.116290
  10 H :    0.104356
  11 H :    0.105634
  12 C :   -0.034664
  13 H :    0.106609
  14 H :    0.103029
  15 O :   -0.333866
  16 C :    0.013455
  17 C :    0.039841
  18 C :   -0.242930
  19 C :   -0.033282
  20 O :   -0.330725
  21 H :    0.116796
  22 O :   -0.417698
  23 H :    0.113847
  24 H :    0.117859
  25 H :    0.127655
  26 H :    0.106387
  27 H :    0.095251
  28 H :    0.281414

  Mayer bond orders larger than 0.100000
B(  0-C ,  1-C ) :   0.9508 B(  0-C ,  4-O ) :   0.8971 B(  0-C ,  5-H ) :   0.9189
B(  0-C , 15-O ) :   0.8482 B(  1-C ,  2-C ) :   0.9537 B(  1-C ,  6-H ) :   0.9384
B(  1-C ,  7-H ) :   0.9362 B(  2-C ,  3-C ) :   0.9552 B(  2-C ,  8-H ) :   0.9448
B(  2-C ,  9-H ) :   0.9448 B(  3-C ,  4-O ) :   0.8345 B(  3-C , 10-H ) :   0.9351
B(  3-C , 11-H ) :   0.9403 B( 12-C , 13-H ) :   0.9184 B( 12-C , 14-H ) :   0.9122
B( 12-C , 15-O ) :   0.8247 B( 12-C , 16-C ) :   0.9077 B( 16-C , 17-C ) :   0.9082
B( 16-C , 20-O ) :   0.8691 B( 16-C , 21-H ) :   0.9226 B( 17-C , 18-C ) :   0.9245
B( 17-C , 22-O ) :   0.8904 B( 17-C , 23-H ) :   0.9370 B( 18-C , 19-C ) :   0.9455
B( 18-C , 24-H ) :   0.9373 B( 18-C , 25-H ) :   0.9191 B( 19-C , 20-O ) :   0.8416
B( 19-C , 26-H ) :   0.9346 B( 19-C , 27-H ) :   0.9372 B( 22-O , 28-H ) :   0.7964

FINAL SINGLE POINT ENERGY      -652.869064041126

DIPOLE MOMENT
-------------
                                X             Y             Z
Electronic contribution:     -3.19376      -4.70630      -0.07644
Nuclear contribution   :      4.08848       5.52169      -0.07005
                        -----------------------------------------
Total Dipole Moment    :      0.89471       0.81539      -0.14649
                        -----------------------------------------
Magnitude (a.u.)       :      1.21936
Magnitude (Debye)      :      3.09936

Rotational constants in cm-1:     0.054225     0.013872     0.013725
Rotational constants in MHz :  1625.618954   415.863791   411.462372

                             ****ORCA TERMINATED NORMALLY****
TOTAL RUN TIME: 0 days 0 hours 13 minutes 7 seconds 526 msec
