                         Program Version 4.2.1 -  RELEASE  -
|  1> # Test redundant internal optimization
|  2> #
|  3> ! RKS B3LYP  Opt TightSCF SmallPrint
|  4>
|  5> %basis
|  6>         Basis "6-31G"
|  7> end
|  8>
|  9> %geom
| 10> Constraints
| 11> { D 4  0  19  14  15.0   C } # D for Dihedral angle
| 12> { D 0  19  14  12  135.0   C } # D for Dihedral angle
| 13> { D 0  4  3  2   C } # D for Dihedral angle
| 14> { D 4  3  2  1   C } # D for Dihedral angle
| 15> { D 3  2  1  0   C } # D for Dihedral angle
| 16> { D 2  1  0  4   C } # D for Dihedral angle
| 17> { D 1  0  4  3   C } # D for Dihedral angle
| 18> { D 14  15  16  17   C } # D for Dihedral angle
| 19> { D 15  16  17  12   C } # D for Dihedral angle
| 20> { D 16  17  12  14   C } # D for Dihedral angle
| 21> { D 17  12  14  15   C } # D for Dihedral angle
| 22> { D 12  14  15  16   C } # D for Dihedral angle
| 23> end
| 24> end
| 25>
| 26>
| 27> #%pal
| 28> #nprocs 8
| 29> #end
| 30>
| 31> * xyz 0 1
| 32> C  -21.048   26.222   46.251
| 33> C  -20.361   27.558   45.944
| 34> C  -20.329   28.222   47.341
| 35> C  -20.110   27.022   48.296
| 36> O  -20.473   25.807   47.535
| 37> H  -20.833   25.428   45.533
| 38> H  -19.344   27.382   45.576
| 39> H  -20.898   28.157   45.201
| 40> H  -19.543   28.978   47.434
| 41> H  -21.289   28.710   47.548
| 42> H  -20.733   27.082   49.195
| 43> H  -19.064   26.913   48.597
| 44> C  -23.970   27.580   47.863
| 45> H  -24.135   27.838   48.921
| 46> C  -22.954   26.442   47.718
| 47> C  -23.820   25.204   48.046
| 48> C  -25.204   25.576   47.456
| 49> O  -25.200   27.044   47.270
| 50> H  -23.718   28.486   47.309
| 51> O  -22.472   26.381   46.366
| 52> H  -22.093   26.547   48.387
| 53> H  -23.419   24.279   47.618
| 54> H  -23.888   25.067   49.132
| 55> H  -26.031   25.300   48.119
| 56> H  -25.374   25.127   46.473
| 57> *
| 58>
| 59>                          ****END OF INPUT****
 Total Charge           Charge          ....    0
 Multiplicity           Mult            ....    1
 Number of Electrons    NEL             ....   86
FINAL SINGLE POINT ENERGY      -538.415342001823
FINAL SINGLE POINT ENERGY      -538.426643394733
FINAL SINGLE POINT ENERGY      -538.428172541669
FINAL SINGLE POINT ENERGY      -538.428488718495
FINAL SINGLE POINT ENERGY      -538.428518611438
FINAL SINGLE POINT ENERGY      -538.428529454732
                    ***********************HURRAY********************

CARTESIAN COORDINATES (ANGSTROEM)
---------------------------------
  C    -21.039387   26.254702   46.362434
  C    -20.385887   27.575534   45.946335
  C    -20.151240   28.260468   47.316689
  C    -19.817319   27.071643   48.247371
  O    -20.307530   25.854510   47.543142
  H    -20.910084   25.451168   45.634468
  H    -19.433787   27.364387   45.446085
  H    -21.024224   28.153235   45.274885
  H    -19.345331   29.000013   47.287414
  H    -21.063313   28.771608   47.644038
  H    -20.299239   27.136285   49.227481
  H    -18.741249   26.935392   48.389162
  C    -24.127519   27.551201   47.883817
  H    -24.409177   27.798254   48.918775
  C    -23.083461   26.434517   47.861619
  C    -23.959050   25.184033   48.078743
  C    -25.265812   25.530243   47.327807
  O    -25.264288   26.999810   47.146820
  H    -23.803621   28.452698   47.361774
  O    -22.477615   26.379312   46.535389
  H    -22.319572   26.533583   48.634576
  H    -23.466938   24.288117   47.694617
  H    -24.144069   25.045954   49.150888
  H    -26.163206   25.238997   47.884946
  H    -25.300082   25.086335   46.329727

 Multiplicity           Mult            ....    1
 Number of Electrons    NEL             ....   86
 Basis Dimension        Dim             ....  127

ORBITAL ENERGIES
----------------

  NO   OCC          E(Eh)            E(eV)
   0   2.0000     -19.153084      -521.1819
   1   2.0000     -19.135207      -520.6955
   2   2.0000     -19.122799      -520.3578
   3   2.0000     -10.280527      -279.7474
   4   2.0000     -10.237122      -278.5663
   5   2.0000     -10.236507      -278.5495
   6   2.0000     -10.218415      -278.0572
   7   2.0000     -10.214571      -277.9526
   8   2.0000     -10.195277      -277.4276
   9   2.0000     -10.187176      -277.2072
  10   2.0000     -10.178637      -276.9748
  11   2.0000      -1.055763       -28.7288
  12   2.0000      -1.011556       -27.5258
  13   2.0000      -0.987474       -26.8705
  14   2.0000      -0.793841       -21.6015
  15   2.0000      -0.779660       -21.2156
  16   2.0000      -0.739850       -20.1323
  17   2.0000      -0.721472       -19.6322
  18   2.0000      -0.616331       -16.7712
  19   2.0000      -0.604822       -16.4581
  20   2.0000      -0.593858       -16.1597
  21   2.0000      -0.564721       -15.3668
  22   2.0000      -0.525923       -14.3111
  23   2.0000      -0.502611       -13.6767
  24   2.0000      -0.488043       -13.2803
  25   2.0000      -0.481033       -13.0896
  26   2.0000      -0.452299       -12.3077
  27   2.0000      -0.438610       -11.9352
  28   2.0000      -0.428125       -11.6499
  29   2.0000      -0.416551       -11.3349
  30   2.0000      -0.410705       -11.1758
  31   2.0000      -0.383196       -10.4273
  32   2.0000      -0.370851       -10.0914
  33   2.0000      -0.364096        -9.9076
  34   2.0000      -0.362105        -9.8534
  35   2.0000      -0.357846        -9.7375
  36   2.0000      -0.345344        -9.3973
  37   2.0000      -0.329503        -8.9662
  38   2.0000      -0.308977        -8.4077
  39   2.0000      -0.295136        -8.0311
  40   2.0000      -0.267582        -7.2813
  41   2.0000      -0.249796        -6.7973
  42   2.0000      -0.226481        -6.1629
  43   0.0000       0.067592         1.8393
  44   0.0000       0.092909         2.5282
  45   0.0000       0.095597         2.6013
  46   0.0000       0.103869         2.8264
  47   0.0000       0.113443         3.0869

MULLIKEN ATOMIC CHARGES
-----------------------
   0 C :    0.301176
   1 C :   -0.257103
   2 C :   -0.311217
   3 C :   -0.024700
   4 O :   -0.511260
   5 H :    0.159577
   6 H :    0.145582
   7 H :    0.162614
   8 H :    0.150353
   9 H :    0.151215
  10 H :    0.143835
  11 H :    0.153634
  12 C :    0.012801
  13 H :    0.118373
  14 C :    0.058883
  15 C :   -0.280962
  16 C :    0.004576
  17 O :   -0.521107
  18 H :    0.152744
  19 O :   -0.531382
  20 H :    0.144308
  21 H :    0.158368
  22 H :    0.136216
  23 H :    0.130347
  24 H :    0.153128
Sum of atomic charges:   -0.0000000

LOEWDIN ATOMIC CHARGES
----------------------
   0 C :    0.183739
   1 C :   -0.223411
   2 C :   -0.221670
   3 C :   -0.036015
   4 O :   -0.320259
   5 H :    0.107354
   6 H :    0.114730
   7 H :    0.126408
   8 H :    0.118999
   9 H :    0.111551
  10 H :    0.099700
  11 H :    0.108005
  12 C :   -0.039401
  13 H :    0.088470
  14 C :    0.037887
  15 C :   -0.228461
  16 C :   -0.027297
  17 O :   -0.330682
  18 H :    0.114338
  19 O :   -0.331270
  20 H :    0.107179
  21 H :    0.125865
  22 H :    0.109887
  23 H :    0.096223
  24 H :    0.108134

  Mayer bond orders larger than 0.100000
B(  0-C ,  1-C ) :   0.9228 B(  0-C ,  4-O ) :   0.9058 B(  0-C ,  5-H ) :   0.9324
B(  0-C , 19-O ) :   0.8637 B(  1-C ,  2-C ) :   0.9536 B(  1-C ,  6-H ) :   0.9345
B(  1-C ,  7-H ) :   0.9357 B(  2-C ,  3-C ) :   0.9506 B(  2-C ,  8-H ) :   0.9445
B(  2-C ,  9-H ) :   0.9437 B(  3-C ,  4-O ) :   0.8331 B(  3-C , 10-H ) :   0.9290
B(  3-C , 11-H ) :   0.9397 B( 12-C , 13-H ) :   0.9136 B( 12-C , 14-C ) :   0.9278
B( 12-C , 17-O ) :   0.8742 B( 12-C , 18-H ) :   0.9321 B( 14-C , 15-C ) :   0.9425
B( 14-C , 19-O ) :   0.8204 B( 14-C , 20-H ) :   0.9100 B( 15-C , 16-C ) :   0.9485
B( 15-C , 21-H ) :   0.9412 B( 15-C , 22-H ) :   0.9388 B( 16-C , 17-O ) :   0.8528
B( 16-C , 23-H ) :   0.9343 B( 16-C , 24-H ) :   0.9366

FINAL SINGLE POINT ENERGY      -538.428530227201

DIPOLE MOMENT
-------------
                                X             Y             Z
Electronic contribution:     -1.47132      -1.79940      -1.89393
Nuclear contribution   :      2.46148       2.12315       2.55229
                        -----------------------------------------
Total Dipole Moment    :      0.99016       0.32375       0.65837
                        -----------------------------------------
Magnitude (a.u.)       :      1.23235
Magnitude (Debye)      :      3.13238

Rotational constants in cm-1:     0.079507     0.021906     0.020939
Rotational constants in MHz :  2383.545294   656.729930   627.739290

                             ****ORCA TERMINATED NORMALLY****
TOTAL RUN TIME: 0 days 0 hours 7 minutes 32 seconds 154 msec
