                         Program Version 4.2.1 -  RELEASE  -
|  1> # Test redundant internal optimization
|  2> #
|  3> ! RKS B3LYP  Opt TightSCF SmallPrint
|  4>
|  5> %basis
|  6>         Basis "6-31G"
|  7> end
|  8>
|  9> %geom
| 10> Constraints
| 11> { D 4  0  19  14  135.0   C } # D for Dihedral angle
| 12> { D 0  19  14  12  45.0   C } # D for Dihedral angle
| 13> { D 0  4  3  2   C } # D for Dihedral angle
| 14> { D 4  3  2  1   C } # D for Dihedral angle
| 15> { D 3  2  1  0   C } # D for Dihedral angle
| 16> { D 2  1  0  4   C } # D for Dihedral angle
| 17> { D 1  0  4  3   C } # D for Dihedral angle
| 18> { D 14  15  16  17   C } # D for Dihedral angle
| 19> { D 15  16  17  12   C } # D for Dihedral angle
| 20> { D 16  17  12  14   C } # D for Dihedral angle
| 21> { D 17  12  14  15   C } # D for Dihedral angle
| 22> { D 12  14  15  16   C } # D for Dihedral angle
| 23> end
| 24> end
| 25>
| 26>
| 27> #%pal
| 28> #nprocs 8
| 29> #end
| 30>
| 31> * xyz 0 1
| 32> C  -21.048   26.222   46.251
| 33> C  -20.361   27.558   45.944
| 34> C  -20.329   28.222   47.341
| 35> C  -20.110   27.022   48.296
| 36> O  -20.473   25.807   47.535
| 37> H  -20.833   25.428   45.533
| 38> H  -19.344   27.382   45.576
| 39> H  -20.898   28.157   45.201
| 40> H  -19.543   28.978   47.434
| 41> H  -21.289   28.710   47.548
| 42> H  -20.733   27.082   49.195
| 43> H  -19.064   26.913   48.597
| 44> C  -22.358   27.769   44.370
| 45> H  -22.501   28.798   44.005
| 46> C  -22.986   27.575   45.755
| 47> C  -24.482   27.408   45.402
| 48> C  -24.443   26.646   44.054
| 49> O  -23.076   26.819   43.512
| 50> H  -21.299   27.513   44.313
| 51> O  -22.472   26.381   46.366
| 52> H  -22.801   28.417   46.432
| 53> H  -25.043   26.868   46.171
| 54> H  -24.952   28.392   45.275
| 55> H  -25.167   27.034   43.329
| 56> H  -24.606   25.571   44.177
| 57> *
| 58>
| 59>                          ****END OF INPUT****
 Total Charge           Charge          ....    0
 Multiplicity           Mult            ....    1
 Number of Electrons    NEL             ....   86
FINAL SINGLE POINT ENERGY      -538.355690116998
FINAL SINGLE POINT ENERGY      -538.412553116206
FINAL SINGLE POINT ENERGY      -538.417770257824
FINAL SINGLE POINT ENERGY      -538.418174472090
FINAL SINGLE POINT ENERGY      -538.418274005148
FINAL SINGLE POINT ENERGY      -538.418303952069
FINAL SINGLE POINT ENERGY      -538.418306244906
                    ***********************HURRAY********************

CARTESIAN COORDINATES (ANGSTROEM)
---------------------------------
  C    -20.991684   26.255449   46.299990
  C    -20.000711   27.390963   46.024573
  C    -20.025732   28.181532   47.365242
  C    -20.206723   27.051935   48.405263
  O    -20.706338   25.880302   47.658980
  H    -20.851813   25.362936   45.689300
  H    -19.012785   26.939936   45.874216
  H    -20.216135   28.010981   45.158658
  H    -19.109872   28.757477   47.526389
  H    -20.872618   28.876759   47.384808
  H    -20.925046   27.304003   49.190298
  H    -19.260612   26.753969   48.867473
  C    -22.673475   28.091183   44.203695
  H    -23.099118   29.077372   43.959945
  C    -23.094896   27.710937   45.623713
  C    -24.542237   27.234708   45.401216
  C    -24.488642   26.552694   44.013755
  O    -23.253516   27.043419   43.356465
  H    -21.609184   28.105720   43.988907
  O    -22.413643   26.583952   46.252895
  H    -23.045995   28.579919   46.295598
  H    -24.841508   26.556934   46.202750
  H    -25.218327   28.097636   45.394005
  H    -25.350120   26.805550   43.385742
  H    -24.400271   25.465734   44.088128

 Multiplicity           Mult            ....    1
 Number of Electrons    NEL             ....   86
 Basis Dimension        Dim             ....  127

ORBITAL ENERGIES
----------------

  NO   OCC          E(Eh)            E(eV)
   0   2.0000     -19.136864      -520.7405
   1   2.0000     -19.132216      -520.6141
   2   2.0000     -19.131589      -520.5970
   3   2.0000     -10.280488      -279.7463
   4   2.0000     -10.245047      -278.7819
   5   2.0000     -10.228011      -278.3183
   6   2.0000     -10.225939      -278.2619
   7   2.0000     -10.220557      -278.1155
   8   2.0000     -10.193397      -277.3764
   9   2.0000     -10.192242      -277.3450
  10   2.0000     -10.184083      -277.1230
  11   2.0000      -1.048578       -28.5333
  12   2.0000      -1.015319       -27.6282
  13   2.0000      -0.983311       -26.7572
  14   2.0000      -0.790450       -21.5093
  15   2.0000      -0.784546       -21.3486
  16   2.0000      -0.739327       -20.1181
  17   2.0000      -0.728950       -19.8357
  18   2.0000      -0.622153       -16.9297
  19   2.0000      -0.605437       -16.4748
  20   2.0000      -0.596233       -16.2243
  21   2.0000      -0.565782       -15.3957
  22   2.0000      -0.517479       -14.0813
  23   2.0000      -0.499976       -13.6050
  24   2.0000      -0.494732       -13.4623
  25   2.0000      -0.487949       -13.2778
  26   2.0000      -0.451743       -12.2925
  27   2.0000      -0.448867       -12.2143
  28   2.0000      -0.433988       -11.8094
  29   2.0000      -0.413736       -11.2583
  30   2.0000      -0.409717       -11.1490
  31   2.0000      -0.387506       -10.5446
  32   2.0000      -0.370535       -10.0828
  33   2.0000      -0.369581       -10.0568
  34   2.0000      -0.365363        -9.9420
  35   2.0000      -0.355836        -9.6828
  36   2.0000      -0.349657        -9.5147
  37   2.0000      -0.314306        -8.5527
  38   2.0000      -0.306622        -8.3436
  39   2.0000      -0.284675        -7.7464
  40   2.0000      -0.263676        -7.1750
  41   2.0000      -0.245343        -6.6761
  42   2.0000      -0.237981        -6.4758
  43   0.0000       0.069632         1.8948
  44   0.0000       0.089913         2.4466
  45   0.0000       0.096283         2.6200
  46   0.0000       0.104460         2.8425
  47   0.0000       0.111706         3.0397

MULLIKEN ATOMIC CHARGES
-----------------------
   0 C :    0.324185
   1 C :   -0.292528
   2 C :   -0.309095
   3 C :    0.001407
   4 O :   -0.494585
   5 H :    0.161159
   6 H :    0.153958
   7 H :    0.140153
   8 H :    0.144903
   9 H :    0.149922
  10 H :    0.148885
  11 H :    0.143934
  12 C :   -0.022110
  13 H :    0.125090
  14 C :    0.092664
  15 C :   -0.288666
  16 C :   -0.007836
  17 O :   -0.523560
  18 H :    0.159419
  19 O :   -0.543128
  20 H :    0.125381
  21 H :    0.175510
  22 H :    0.138784
  23 H :    0.136036
  24 H :    0.160117
Sum of atomic charges:   -0.0000000

LOEWDIN ATOMIC CHARGES
----------------------
   0 C :    0.191107
   1 C :   -0.232050
   2 C :   -0.219377
   3 C :   -0.028655
   4 O :   -0.306830
   5 H :    0.109139
   6 H :    0.121102
   7 H :    0.112983
   8 H :    0.115944
   9 H :    0.109437
  10 H :    0.106038
  11 H :    0.103190
  12 C :   -0.053016
  13 H :    0.094175
  14 C :    0.045394
  15 C :   -0.222351
  16 C :   -0.030107
  17 O :   -0.334130
  18 H :    0.112780
  19 O :   -0.341097
  20 H :    0.091648
  21 H :    0.134756
  22 H :    0.110267
  23 H :    0.098681
  24 H :    0.110972

  Mayer bond orders larger than 0.100000
B(  0-C ,  1-C ) :   0.9299 B(  0-C ,  4-O ) :   0.9202 B(  0-C ,  5-H ) :   0.9276
B(  0-C , 19-O ) :   0.8463 B(  1-C ,  2-C ) :   0.9487 B(  1-C ,  6-H ) :   0.9334
B(  1-C ,  7-H ) :   0.9207 B(  2-C ,  3-C ) :   0.9518 B(  2-C ,  8-H ) :   0.9454
B(  2-C ,  9-H ) :   0.9442 B(  3-C ,  4-O ) :   0.8424 B(  3-C , 10-H ) :   0.9346
B(  3-C , 11-H ) :   0.9391 B( 12-C , 13-H ) :   0.9077 B( 12-C , 14-C ) :   0.9108
B( 12-C , 17-O ) :   0.8702 B( 12-C , 18-H ) :   0.9202 B( 14-C , 15-C ) :   0.9490
B( 14-C , 19-O ) :   0.8417 B( 14-C , 20-H ) :   0.9164 B( 15-C , 16-C ) :   0.9482
B( 15-C , 21-H ) :   0.9328 B( 15-C , 22-H ) :   0.9402 B( 16-C , 17-O ) :   0.8524
B( 16-C , 23-H ) :   0.9332 B( 16-C , 24-H ) :   0.9356

FINAL SINGLE POINT ENERGY      -538.418306041679

DIPOLE MOMENT
-------------
                                X             Y             Z
Electronic contribution:     -0.44232      -3.93137      -0.53459
Nuclear contribution   :      0.67579       5.21489       0.77840
                        -----------------------------------------
Total Dipole Moment    :      0.23346       1.28353       0.24381
                        -----------------------------------------
Magnitude (a.u.)       :      1.32717
Magnitude (Debye)      :      3.37340

Rotational constants in cm-1:     0.083588     0.021278     0.020047
Rotational constants in MHz :  2505.894874   637.905253   600.982649

                             ****ORCA TERMINATED NORMALLY****
TOTAL RUN TIME: 0 days 0 hours 8 minutes 6 seconds 193 msec
