                         Program Version 4.2.0 -  RELEASE  -
|  1> # Test redundant internal optimization
|  2> #
|  3> ! RKS B3LYP  Opt TightSCF SmallPrint
|  4>
|  5> %basis
|  6>         Basis "6-31G"
|  7> end
|  8>
|  9> %geom
| 10> Constraints
| 11> { D 4  0  15  12  15.0   C } # D for Dihedral angle
| 12> { D 0  15  12  16  165.0   C } # D for Dihedral angle
| 13> { D 0  4  3  2   C } # D for Dihedral angle
| 14> { D 4  3  2  1   C } # D for Dihedral angle
| 15> { D 3  2  1  0   C } # D for Dihedral angle
| 16> { D 2  1  0  4   C } # D for Dihedral angle
| 17> { D 1  0  4  3   C } # D for Dihedral angle
| 18> { D 16  20  19  18   C } # D for Dihedral angle
| 19> { D 20  19  18  17   C } # D for Dihedral angle
| 20> { D 19  18  17  16   C } # D for Dihedral angle
| 21> { D 18  17  16  20   C } # D for Dihedral angle
| 22> { D 17  16  20  19   C } # D for Dihedral angle
| 23> { D 15  12  16  20   C } # D for Dihedral angle
| 24> end
| 25> end
| 26>
| 27>
| 28> #%pal
| 29> #nprocs 8
| 30> #end
| 31>
| 32> * xyz 0 1
| 33> C  -21.048   26.222   46.251
| 34> C  -20.361   27.558   45.944
| 35> C  -20.329   28.222   47.341
| 36> C  -20.110   27.022   48.296
| 37> O  -20.473   25.807   47.535
| 38> H  -20.833   25.428   45.533
| 39> H  -19.344   27.382   45.576
| 40> H  -20.898   28.157   45.201
| 41> H  -19.543   28.978   47.434
| 42> H  -21.289   28.710   47.548
| 43> H  -20.733   27.082   49.195
| 44> H  -19.064   26.913   48.597
| 45> C  -23.128   26.462   47.829
| 46> H  -23.107   25.458   48.271
| 47> H  -22.499   27.120   48.443
| 48> O  -22.586   26.394   46.375
| 49> C  -24.584   26.998   47.903
| 50> C  -24.710   28.366   47.221
| 51> C  -24.769   27.967   45.727
| 52> C  -25.551   26.630   45.750
| 53> O  -25.489   26.131   47.141
| 54> H  -24.921   26.978   48.941
| 55> H  -25.641   28.854   47.528
| 56> O  -23.527   29.319   47.543
| 57> H  -25.255   28.724   45.104
| 58> H  -23.755   27.814   45.338
| 59> H  -25.119   25.879   45.080
| 60> H  -26.608   26.760   45.502
| 61> H  -22.584   28.850   47.245
| 62> *
| 63>
| 64>                          ****END OF INPUT****
 Total Charge           Charge          ....    0
 Multiplicity           Mult            ....    1
 Number of Electrons    NEL             ....  102
FINAL SINGLE POINT ENERGY      -652.819784244209
FINAL SINGLE POINT ENERGY      -652.845085069089
FINAL SINGLE POINT ENERGY      -652.854111119257
FINAL SINGLE POINT ENERGY      -652.856960723741
FINAL SINGLE POINT ENERGY      -652.857652068359
FINAL SINGLE POINT ENERGY      -652.857792693944
FINAL SINGLE POINT ENERGY      -652.857803035855
FINAL SINGLE POINT ENERGY      -652.857803954474
                    ***********************HURRAY********************

CARTESIAN COORDINATES (ANGSTROEM)
---------------------------------
  C    -21.090467   26.205102   46.409253
  C    -20.400622   27.507642   45.991456
  C    -20.186461   28.211770   47.358762
  C    -19.899797   27.027389   48.311390
  O    -20.396661   25.813026   47.610510
  H    -20.959509   25.389092   45.695661
  H    -19.438086   27.267369   45.526200
  H    -20.995827   28.089302   45.283291
  H    -19.362833   28.931530   47.336578
  H    -21.088681   28.746769   47.671019
  H    -20.408032   27.111945   49.275731
  H    -18.830735   26.872546   48.482221
  C    -23.125957   26.421474   47.884856
  H    -23.123763   25.424456   48.337041
  H    -22.567541   27.100162   48.539075
  O    -22.535480   26.347275   46.551030
  C    -24.562344   26.931542   47.808909
  C    -24.761498   28.336795   47.213797
  C    -24.833111   28.033446   45.685646
  C    -25.555286   26.668077   45.649244
  O    -25.440039   26.089116   47.008746
  H    -24.951952   26.886599   48.834042
  H    -25.702274   28.756975   47.577361
  O    -23.742395   29.303180   47.583862
  H    -25.369158   28.811288   45.133579
  H    -23.816930   27.939013   45.294908
  H    -25.103053   25.975200   44.934306
  H    -26.623965   26.765790   45.434270
  H    -22.985542   29.221131   46.969255

 Multiplicity           Mult            ....    1
 Number of Electrons    NEL             ....  102
 Basis Dimension        Dim             ....  149

ORBITAL ENERGIES
----------------

  NO   OCC          E(Eh)            E(eV)
   0   2.0000     -19.155262      -521.2412
   1   2.0000     -19.145158      -520.9662
   2   2.0000     -19.143934      -520.9329
   3   2.0000     -19.130652      -520.5715
   4   2.0000     -10.285443      -279.8811
   5   2.0000     -10.238138      -278.5939
   6   2.0000     -10.237986      -278.5898
   7   2.0000     -10.228728      -278.3378
   8   2.0000     -10.226308      -278.2720
   9   2.0000     -10.220445      -278.1125
  10   2.0000     -10.200498      -277.5697
  11   2.0000     -10.196295      -277.4553
  12   2.0000     -10.182363      -277.0762
  13   2.0000      -1.059877       -28.8407
  14   2.0000      -1.028656       -27.9912
  15   2.0000      -1.010917       -27.5085
  16   2.0000      -0.995284       -27.0831
  17   2.0000      -0.798014       -21.7151
  18   2.0000      -0.774765       -21.0824
  19   2.0000      -0.767481       -20.8842
  20   2.0000      -0.737517       -20.0689
  21   2.0000      -0.676947       -18.4207
  22   2.0000      -0.612045       -16.6546
  23   2.0000      -0.603939       -16.4340
  24   2.0000      -0.600921       -16.3519
  25   2.0000      -0.562511       -15.3067
  26   2.0000      -0.524948       -14.2846
  27   2.0000      -0.517451       -14.0806
  28   2.0000      -0.503780       -13.7086
  29   2.0000      -0.494202       -13.4479
  30   2.0000      -0.469204       -12.7677
  31   2.0000      -0.453093       -12.3293
  32   2.0000      -0.448769       -12.2116
  33   2.0000      -0.427548       -11.6342
  34   2.0000      -0.425453       -11.5772
  35   2.0000      -0.423766       -11.5313
  36   2.0000      -0.403657       -10.9841
  37   2.0000      -0.400063       -10.8863
  38   2.0000      -0.381757       -10.3881
  39   2.0000      -0.372136       -10.1263
  40   2.0000      -0.368827       -10.0363
  41   2.0000      -0.359708        -9.7881
  42   2.0000      -0.350967        -9.5503
  43   2.0000      -0.333967        -9.0877
  44   2.0000      -0.321432        -8.7466
  45   2.0000      -0.312463        -8.5025
  46   2.0000      -0.311744        -8.4830
  47   2.0000      -0.268981        -7.3193
  48   2.0000      -0.265094        -7.2136
  49   2.0000      -0.252156        -6.8615
  50   2.0000      -0.236554        -6.4370
  51   0.0000       0.044758         1.2179
  52   0.0000       0.076497         2.0816
  53   0.0000       0.091540         2.4909
  54   0.0000       0.097713         2.6589
  55   0.0000       0.100558         2.7363

MULLIKEN ATOMIC CHARGES
-----------------------
   0 C :    0.307573
   1 C :   -0.267372
   2 C :   -0.324542
   3 C :   -0.017897
   4 O :   -0.507166
   5 H :    0.163985
   6 H :    0.152496
   7 H :    0.147067
   8 H :    0.153944
   9 H :    0.150375
  10 H :    0.152614
  11 H :    0.154025
  12 C :    0.004647
  13 H :    0.159952
  14 H :    0.135700
  15 O :   -0.551076
  16 C :    0.086441
  17 C :    0.085593
  18 C :   -0.322843
  19 C :   -0.001895
  20 O :   -0.518369
  21 H :    0.149100
  22 H :    0.158755
  23 O :   -0.613478
  24 H :    0.143076
  25 H :    0.161180
  26 H :    0.150786
  27 H :    0.141339
  28 H :    0.365991
Sum of atomic charges:   -0.0000000

LOEWDIN ATOMIC CHARGES
----------------------
   0 C :    0.182510
   1 C :   -0.226328
   2 C :   -0.225398
   3 C :   -0.032816
   4 O :   -0.314175
   5 H :    0.109780
   6 H :    0.118765
   7 H :    0.116045
   8 H :    0.120683
   9 H :    0.109259
  10 H :    0.105232
  11 H :    0.108474
  12 C :   -0.038177
  13 H :    0.112978
  14 H :    0.099448
  15 O :   -0.345069
  16 C :    0.020255
  17 C :    0.037965
  18 C :   -0.244205
  19 C :   -0.024158
  20 O :   -0.320499
  21 H :    0.113769
  22 H :    0.114300
  23 O :   -0.414604
  24 H :    0.113998
  25 H :    0.117792
  26 H :    0.107589
  27 H :    0.100622
  28 H :    0.275966

  Mayer bond orders larger than 0.100000
B(  0-C ,  1-C ) :   0.9215 B(  0-C ,  4-O ) :   0.9146 B(  0-C ,  5-H ) :   0.9323
B(  0-C , 15-O ) :   0.8477 B(  1-C ,  2-C ) :   0.9520 B(  1-C ,  6-H ) :   0.9335
B(  1-C ,  7-H ) :   0.9368 B(  2-C ,  3-C ) :   0.9492 B(  2-C ,  8-H ) :   0.9437
B(  2-C ,  9-H ) :   0.9276 B(  3-C ,  4-O ) :   0.8310 B(  3-C , 10-H ) :   0.9297
B(  3-C , 11-H ) :   0.9390 B( 12-C , 13-H ) :   0.9228 B( 12-C , 14-H ) :   0.8976
B( 12-C , 15-O ) :   0.8175 B( 12-C , 16-C ) :   0.9173 B( 16-C , 17-C ) :   0.8806
B( 16-C , 20-O ) :   0.8758 B( 16-C , 21-H ) :   0.9291 B( 17-C , 18-C ) :   0.9411
B( 17-C , 22-H ) :   0.9354 B( 17-C , 23-O ) :   0.8929 B( 18-C , 19-C ) :   0.9486
B( 18-C , 24-H ) :   0.9400 B( 18-C , 25-H ) :   0.9238 B( 19-C , 20-O ) :   0.8426
B( 19-C , 26-H ) :   0.9310 B( 19-C , 27-H ) :   0.9373 B( 23-O , 28-H ) :   0.7785

FINAL SINGLE POINT ENERGY      -652.857802887550

DIPOLE MOMENT
-------------
                                X             Y             Z
Electronic contribution:     -2.48870      -3.69605       1.21484
Nuclear contribution   :      3.38087       4.56335      -1.73118
                        -----------------------------------------
Total Dipole Moment    :      0.89217       0.86730      -0.51633
                        -----------------------------------------
Magnitude (a.u.)       :      1.34714
Magnitude (Debye)      :      3.42415

Rotational constants in cm-1:     0.047972     0.017203     0.015907
Rotational constants in MHz :  1438.171787   515.734764   476.874466

                             ****ORCA TERMINATED NORMALLY****
TOTAL RUN TIME: 0 days 0 hours 26 minutes 32 seconds 719 msec
