                         Program Version 4.2.0 -  RELEASE  -
|  1> # Test redundant internal optimization
|  2> #
|  3> ! RKS B3LYP  Opt TightSCF SmallPrint
|  4>
|  5> %basis
|  6>         Basis "6-31G"
|  7> end
|  8>
|  9> %geom
| 10> Constraints
| 11> { D 4  0  15  12  60.0   C } # D for Dihedral angle
| 12> { D 0  15  12  16  195.0   C } # D for Dihedral angle
| 13> { D 0  4  3  2   C } # D for Dihedral angle
| 14> { D 4  3  2  1   C } # D for Dihedral angle
| 15> { D 3  2  1  0   C } # D for Dihedral angle
| 16> { D 2  1  0  4   C } # D for Dihedral angle
| 17> { D 1  0  4  3   C } # D for Dihedral angle
| 18> { D 16  20  19  18   C } # D for Dihedral angle
| 19> { D 20  19  18  17   C } # D for Dihedral angle
| 20> { D 19  18  17  16   C } # D for Dihedral angle
| 21> { D 18  17  16  20   C } # D for Dihedral angle
| 22> { D 17  16  20  19   C } # D for Dihedral angle
| 23> { D 15  12  16  20   C } # D for Dihedral angle
| 24> end
| 25> end
| 26>
| 27>
| 28> #%pal
| 29> #nprocs 8
| 30> #end
| 31>
| 32> * xyz 0 1
| 33> C  -21.048   26.222   46.251
| 34> C  -20.361   27.558   45.944
| 35> C  -20.329   28.222   47.341
| 36> C  -20.110   27.022   48.296
| 37> O  -20.473   25.807   47.535
| 38> H  -20.833   25.428   45.533
| 39> H  -19.344   27.382   45.576
| 40> H  -20.898   28.157   45.201
| 41> H  -19.543   28.978   47.434
| 42> H  -21.289   28.710   47.548
| 43> H  -20.733   27.082   49.195
| 44> H  -19.064   26.913   48.597
| 45> C  -23.051   27.452   47.413
| 46> H  -22.470   27.332   48.337
| 47> H  -22.881   28.466   47.030
| 48> O  -22.586   26.394   46.375
| 49> C  -24.559   27.326   47.765
| 50> C  -25.008   28.453   48.701
| 51> C  -25.179   29.632   47.713
| 52> C  -25.703   28.941   46.429
| 53> O  -25.382   27.504   46.564
| 54> H  -24.756   26.320   48.142
| 55> H  -25.967   28.197   49.167
| 56> O  -23.983   28.756   49.827
| 57> H  -25.865   30.400   48.083
| 58> H  -24.210   30.110   47.526
| 59> H  -25.230   29.330   45.520
| 60> H  -26.789   29.020   46.326
| 61> H  -23.015   29.016   49.386
| 62> *
| 63>
| 64>                          ****END OF INPUT****
 Total Charge           Charge          ....    0
 Multiplicity           Mult            ....    1
 Number of Electrons    NEL             ....  102
FINAL SINGLE POINT ENERGY      -652.808121915455
FINAL SINGLE POINT ENERGY      -652.835424620964
FINAL SINGLE POINT ENERGY      -652.848834714386
FINAL SINGLE POINT ENERGY      -652.851076613810
FINAL SINGLE POINT ENERGY      -652.851497792916
FINAL SINGLE POINT ENERGY      -652.851614858912
FINAL SINGLE POINT ENERGY      -652.851634359533
FINAL SINGLE POINT ENERGY      -652.851639318726
                    ***********************HURRAY********************

CARTESIAN COORDINATES (ANGSTROEM)
---------------------------------
  C    -21.181284   26.326735   46.391257
  C    -20.277061   27.471633   45.910970
  C    -19.878068   28.155278   47.252114
  C    -19.778459   26.951254   48.224869
  O    -20.517323   25.838579   47.581944
  H    -21.207826   25.486126   45.696788
  H    -19.397724   27.044132   45.418267
  H    -20.783660   28.141362   45.211101
  H    -18.928887   28.695345   47.178780
  H    -20.641296   28.869801   47.570572
  H    -20.216559   27.150476   49.207801
  H    -18.746857   26.612351   48.359012
  C    -23.032290   27.603501   47.512802
  H    -22.539510   27.459712   48.482819
  H    -22.822271   28.618618   47.143770
  O    -22.582171   26.615306   46.552101
  C    -24.533938   27.394830   47.699189
  C    -25.185235   28.395865   48.667499
  C    -25.441518   29.620971   47.737892
  C    -25.785977   28.954759   46.387532
  O    -25.291268   27.556940   46.463154
  H    -24.687705   26.357257   48.007787
  H    -26.131150   27.986009   49.027007
  O    -24.431119   28.684864   49.870206
  H    -26.241312   30.265077   48.113328
  H    -24.526864   30.224823   47.664664
  H    -25.317777   29.454201   45.533797
  H    -26.865234   28.902742   46.215514
  H    -23.688657   29.291452   49.672465

 Multiplicity           Mult            ....    1
 Number of Electrons    NEL             ....  102
 Basis Dimension        Dim             ....  149

ORBITAL ENERGIES
----------------

  NO   OCC          E(Eh)            E(eV)
   0   2.0000     -19.151843      -521.1482
   1   2.0000     -19.142249      -520.8871
   2   2.0000     -19.141122      -520.8564
   3   2.0000     -19.135855      -520.7131
   4   2.0000     -10.276091      -279.6267
   5   2.0000     -10.245837      -278.8034
   6   2.0000     -10.232129      -278.4304
   7   2.0000     -10.231223      -278.4057
   8   2.0000     -10.230306      -278.3808
   9   2.0000     -10.229408      -278.3563
  10   2.0000     -10.197459      -277.4870
  11   2.0000     -10.195607      -277.4366
  12   2.0000     -10.190254      -277.2909
  13   2.0000      -1.052679       -28.6448
  14   2.0000      -1.034699       -28.1556
  15   2.0000      -1.016088       -27.6491
  16   2.0000      -0.995151       -27.0794
  17   2.0000      -0.789602       -21.4862
  18   2.0000      -0.784096       -21.3363
  19   2.0000      -0.772942       -21.0328
  20   2.0000      -0.733013       -19.9463
  21   2.0000      -0.683701       -18.6044
  22   2.0000      -0.612773       -16.6744
  23   2.0000      -0.605334       -16.4720
  24   2.0000      -0.598168       -16.2770
  25   2.0000      -0.572449       -15.5771
  26   2.0000      -0.526898       -14.3376
  27   2.0000      -0.510638       -13.8952
  28   2.0000      -0.502132       -13.6637
  29   2.0000      -0.495651       -13.4873
  30   2.0000      -0.474468       -12.9109
  31   2.0000      -0.462609       -12.5882
  32   2.0000      -0.445505       -12.1228
  33   2.0000      -0.433628       -11.7996
  34   2.0000      -0.423980       -11.5371
  35   2.0000      -0.420989       -11.4557
  36   2.0000      -0.413886       -11.2624
  37   2.0000      -0.401964       -10.9380
  38   2.0000      -0.383025       -10.4226
  39   2.0000      -0.376886       -10.2556
  40   2.0000      -0.361982        -9.8500
  41   2.0000      -0.356855        -9.7105
  42   2.0000      -0.349461        -9.5093
  43   2.0000      -0.331022        -9.0076
  44   2.0000      -0.318947        -8.6790
  45   2.0000      -0.315031        -8.5724
  46   2.0000      -0.303663        -8.2631
  47   2.0000      -0.272189        -7.4066
  48   2.0000      -0.265123        -7.2144
  49   2.0000      -0.251117        -6.8332
  50   2.0000      -0.240757        -6.5513
  51   0.0000       0.042616         1.1596
  52   0.0000       0.070335         1.9139
  53   0.0000       0.083317         2.2672
  54   0.0000       0.090573         2.4646
  55   0.0000       0.101562         2.7636

MULLIKEN ATOMIC CHARGES
-----------------------
   0 C :    0.296649
   1 C :   -0.274009
   2 C :   -0.310319
   3 C :   -0.013376
   4 O :   -0.504839
   5 H :    0.169121
   6 H :    0.154695
   7 H :    0.151532
   8 H :    0.145641
   9 H :    0.136513
  10 H :    0.143405
  11 H :    0.148713
  12 C :   -0.013536
  13 H :    0.145543
  14 H :    0.112595
  15 O :   -0.505032
  16 C :    0.093447
  17 C :    0.084676
  18 C :   -0.326947
  19 C :   -0.009032
  20 O :   -0.502294
  21 H :    0.171003
  22 H :    0.169845
  23 O :   -0.599197
  24 H :    0.158821
  25 H :    0.130199
  26 H :    0.142785
  27 H :    0.150561
  28 H :    0.352837
Sum of atomic charges:   -0.0000000

LOEWDIN ATOMIC CHARGES
----------------------
   0 C :    0.173805
   1 C :   -0.228997
   2 C :   -0.223725
   3 C :   -0.034970
   4 O :   -0.321047
   5 H :    0.115533
   6 H :    0.121192
   7 H :    0.119931
   8 H :    0.115689
   9 H :    0.104098
  10 H :    0.100433
  11 H :    0.105012
  12 C :   -0.053672
  13 H :    0.104829
  14 H :    0.082653
  15 O :   -0.302970
  16 C :    0.023305
  17 C :    0.035284
  18 C :   -0.242629
  19 C :   -0.029987
  20 O :   -0.310602
  21 H :    0.123924
  22 H :    0.120860
  23 O :   -0.407109
  24 H :    0.122578
  25 H :    0.101842
  26 H :    0.102377
  27 H :    0.106504
  28 H :    0.275859

  Mayer bond orders larger than 0.100000
B(  0-C ,  1-C ) :   0.9148 B(  0-C ,  4-O ) :   0.8961 B(  0-C ,  5-H ) :   0.9356
B(  0-C , 15-O ) :   0.9075 B(  1-C ,  2-C ) :   0.9562 B(  1-C ,  6-H ) :   0.9356
B(  1-C ,  7-H ) :   0.9372 B(  2-C ,  3-C ) :   0.9474 B(  2-C ,  8-H ) :   0.9453
B(  2-C ,  9-H ) :   0.9426 B(  3-C ,  4-O ) :   0.8469 B(  3-C , 10-H ) :   0.9317
B(  3-C , 11-H ) :   0.9386 B( 12-C , 13-H ) :   0.8966 B( 12-C , 14-H ) :   0.9113
B( 12-C , 15-O ) :   0.8452 B( 12-C , 16-C ) :   0.9058 B( 16-C , 17-C ) :   0.8722
B( 16-C , 20-O ) :   0.8725 B( 16-C , 21-H ) :   0.9277 B( 17-C , 18-C ) :   0.9245
B( 17-C , 22-H ) :   0.9332 B( 17-C , 23-O ) :   0.8930 B( 18-C , 19-C ) :   0.9383
B( 18-C , 24-H ) :   0.9416 B( 18-C , 25-H ) :   0.9406 B( 19-C , 20-O ) :   0.8535
B( 19-C , 26-H ) :   0.9317 B( 19-C , 27-H ) :   0.9375 B( 23-O , 28-H ) :   0.8001

FINAL SINGLE POINT ENERGY      -652.851629134164

DIPOLE MOMENT
-------------
                                X             Y             Z
Electronic contribution:     -3.01206      -5.59795       0.14510
Nuclear contribution   :      3.71504       7.46051      -0.22496
                        -----------------------------------------
Total Dipole Moment    :      0.70298       1.86256      -0.07986
                        -----------------------------------------
Magnitude (a.u.)       :      1.99241
Magnitude (Debye)      :      5.06430

Rotational constants in cm-1:     0.048094     0.014272     0.012973
Rotational constants in MHz :  1441.811323   427.865304   388.910883

                             ****ORCA TERMINATED NORMALLY****
TOTAL RUN TIME: 0 days 0 hours 26 minutes 33 seconds 91 msec
