                         Program Version 4.2.0 -  RELEASE  -
|  1> # Test redundant internal optimization
|  2> #
|  3> ! RKS B3LYP  Opt TightSCF SmallPrint
|  4>
|  5> %basis
|  6>         Basis "6-31G"
|  7> end
|  8>
|  9> %geom
| 10> Constraints
| 11> { D 4  0  15  12  240.0   C } # D for Dihedral angle
| 12> { D 0  15  12  16  270.0   C } # D for Dihedral angle
| 13> { D 0  4  3  2   C } # D for Dihedral angle
| 14> { D 4  3  2  1   C } # D for Dihedral angle
| 15> { D 3  2  1  0   C } # D for Dihedral angle
| 16> { D 2  1  0  4   C } # D for Dihedral angle
| 17> { D 1  0  4  3   C } # D for Dihedral angle
| 18> { D 16  20  19  18   C } # D for Dihedral angle
| 19> { D 20  19  18  17   C } # D for Dihedral angle
| 20> { D 19  18  17  16   C } # D for Dihedral angle
| 21> { D 18  17  16  20   C } # D for Dihedral angle
| 22> { D 17  16  20  19   C } # D for Dihedral angle
| 23> { D 15  12  16  20   C } # D for Dihedral angle
| 24> end
| 25> end
| 26>
| 27>
| 28> #%pal
| 29> #nprocs 8
| 30> #end
| 31>
| 32> * xyz 0 1
| 33> C  -21.048   26.222   46.251
| 34> C  -20.361   27.558   45.944
| 35> C  -20.329   28.222   47.341
| 36> C  -20.110   27.022   48.296
| 37> O  -20.473   25.807   47.535
| 38> H  -20.833   25.428   45.533
| 39> H  -19.344   27.382   45.576
| 40> H  -20.898   28.157   45.201
| 41> H  -19.543   28.978   47.434
| 42> H  -21.289   28.710   47.548
| 43> H  -20.733   27.082   49.195
| 44> H  -19.064   26.913   48.597
| 45> C  -23.430   25.483   45.442
| 46> H  -22.889   24.544   45.267
| 47> H  -24.393   25.241   45.910
| 48> O  -22.586   26.394   46.375
| 49> C  -23.725   26.141   44.066
| 50> C  -24.403   27.506   44.235
| 51> C  -23.198   28.413   44.584
| 52> C  -22.048   27.809   43.740
| 53> O  -22.474   26.444   43.364
| 54> H  -24.279   25.436   43.444
| 55> O  -25.052   27.948   42.896
| 56> H  -25.176   27.510   45.012
| 57> H  -23.378   29.467   44.350
| 58> H  -22.970   28.341   45.654
| 59> H  -21.105   27.751   44.296
| 60> H  -21.877   28.361   42.811
| 61> H  -24.295   27.952   42.103
| 62> *
| 63>
| 64>                          ****END OF INPUT****
 Total Charge           Charge          ....    0
 Multiplicity           Mult            ....    1
 Number of Electrons    NEL             ....  102
FINAL SINGLE POINT ENERGY      -652.772652276532
FINAL SINGLE POINT ENERGY      -652.830898135890
FINAL SINGLE POINT ENERGY      -652.852002437689
FINAL SINGLE POINT ENERGY      -652.857000671324
FINAL SINGLE POINT ENERGY      -652.857946688426
FINAL SINGLE POINT ENERGY      -652.858065617488
FINAL SINGLE POINT ENERGY      -652.858072935058
FINAL SINGLE POINT ENERGY      -652.858072808367
                    ***********************HURRAY********************

CARTESIAN COORDINATES (ANGSTROEM)
---------------------------------
  C    -20.927515   26.175600   46.337824
  C    -20.205824   27.516271   46.187511
  C    -20.253974   28.076584   47.635075
  C    -20.113614   26.796719   48.490044
  O    -20.448064   25.668933   47.594869
  H    -20.711660   25.428610   45.570062
  H    -19.170501   27.336294   45.874330
  H    -20.680638   28.181953   45.470866
  H    -19.460000   28.802265   47.833238
  H    -21.220937   28.557097   47.812406
  H    -20.791709   26.777324   49.347039
  H    -19.088948   26.631462   48.837219
  C    -23.239080   25.670625   45.523923
  H    -22.799114   24.678819   45.340632
  H    -24.170207   25.517683   46.081861
  O    -22.365872   26.396260   46.432501
  C    -23.617203   26.261281   44.159488
  C    -24.443116   27.556170   44.153203
  C    -23.332736   28.640116   44.146101
  C    -22.221645   27.992539   43.281743
  O    -22.511069   26.540171   43.245278
  H    -24.209638   25.470070   43.679389
  O    -25.287282   27.627300   42.970136
  H    -25.125763   27.645648   44.998201
  H    -23.700805   29.582700   43.734976
  H    -22.986601   28.803775   45.171716
  H    -21.214005   28.152361   43.666180
  H    -22.248989   28.344391   42.244434
  H    -24.756492   27.392981   42.179755

 Multiplicity           Mult            ....    1
 Number of Electrons    NEL             ....  102
 Basis Dimension        Dim             ....  149

ORBITAL ENERGIES
----------------

  NO   OCC          E(Eh)            E(eV)
   0   2.0000     -19.150020      -521.0985
   1   2.0000     -19.145017      -520.9624
   2   2.0000     -19.139705      -520.8179
   3   2.0000     -19.138241      -520.7780
   4   2.0000     -10.280376      -279.7433
   5   2.0000     -10.241795      -278.6934
   6   2.0000     -10.238320      -278.5988
   7   2.0000     -10.236007      -278.5359
   8   2.0000     -10.234123      -278.4846
   9   2.0000     -10.224185      -278.2142
  10   2.0000     -10.187936      -277.2278
  11   2.0000     -10.186932      -277.2005
  12   2.0000     -10.186824      -277.1976
  13   2.0000      -1.053519       -28.6677
  14   2.0000      -1.040396       -28.3106
  15   2.0000      -1.009193       -27.4615
  16   2.0000      -0.994545       -27.0630
  17   2.0000      -0.789197       -21.4751
  18   2.0000      -0.781601       -21.2684
  19   2.0000      -0.771518       -20.9941
  20   2.0000      -0.733636       -19.9633
  21   2.0000      -0.680560       -18.5190
  22   2.0000      -0.606646       -16.5077
  23   2.0000      -0.601960       -16.3802
  24   2.0000      -0.599817       -16.3219
  25   2.0000      -0.578734       -15.7481
  26   2.0000      -0.527207       -14.3460
  27   2.0000      -0.509697       -13.8696
  28   2.0000      -0.503650       -13.7050
  29   2.0000      -0.486036       -13.2257
  30   2.0000      -0.472626       -12.8608
  31   2.0000      -0.463199       -12.6043
  32   2.0000      -0.454127       -12.3574
  33   2.0000      -0.435661       -11.8549
  34   2.0000      -0.434711       -11.8291
  35   2.0000      -0.414706       -11.2847
  36   2.0000      -0.400289       -10.8924
  37   2.0000      -0.395931       -10.7738
  38   2.0000      -0.379610       -10.3297
  39   2.0000      -0.369008       -10.0412
  40   2.0000      -0.363845        -9.9007
  41   2.0000      -0.356047        -9.6885
  42   2.0000      -0.350654        -9.5418
  43   2.0000      -0.335358        -9.1255
  44   2.0000      -0.317155        -8.6302
  45   2.0000      -0.311023        -8.4634
  46   2.0000      -0.305205        -8.3051
  47   2.0000      -0.277445        -7.5497
  48   2.0000      -0.268995        -7.3197
  49   2.0000      -0.255847        -6.9620
  50   2.0000      -0.240896        -6.5551
  51   0.0000       0.059663         1.6235
  52   0.0000       0.079080         2.1519
  53   0.0000       0.086622         2.3571
  54   0.0000       0.099009         2.6942
  55   0.0000       0.102095         2.7782

MULLIKEN ATOMIC CHARGES
-----------------------
   0 C :    0.284430
   1 C :   -0.261152
   2 C :   -0.306561
   3 C :    0.002805
   4 O :   -0.500836
   5 H :    0.157227
   6 H :    0.145526
   7 H :    0.144840
   8 H :    0.141686
   9 H :    0.160995
  10 H :    0.151579
  11 H :    0.140214
  12 C :   -0.022807
  13 H :    0.144189
  14 H :    0.153012
  15 O :   -0.518021
  16 C :    0.077432
  17 C :    0.080601
  18 C :   -0.295553
  19 C :   -0.031255
  20 O :   -0.531663
  21 H :    0.155876
  22 O :   -0.604295
  23 H :    0.156802
  24 H :    0.155822
  25 H :    0.164009
  26 H :    0.148752
  27 H :    0.142100
  28 H :    0.364244
Sum of atomic charges:   -0.0000000

LOEWDIN ATOMIC CHARGES
----------------------
   0 C :    0.177733
   1 C :   -0.222581
   2 C :   -0.217910
   3 C :   -0.025990
   4 O :   -0.313034
   5 H :    0.107026
   6 H :    0.114909
   7 H :    0.114758
   8 H :    0.113920
   9 H :    0.117432
  10 H :    0.107574
  11 H :    0.101449
  12 C :   -0.038864
  13 H :    0.104028
  14 H :    0.116646
  15 O :   -0.335374
  16 C :    0.001419
  17 C :    0.037832
  18 C :   -0.239880
  19 C :   -0.037784
  20 O :   -0.332129
  21 H :    0.117400
  22 O :   -0.416468
  23 H :    0.118598
  24 H :    0.123592
  25 H :    0.121936
  26 H :    0.101794
  27 H :    0.099448
  28 H :    0.282523

  Mayer bond orders larger than 0.100000
B(  0-C ,  1-C ) :   0.9431 B(  0-C ,  4-O ) :   0.9274 B(  0-C ,  5-H ) :   0.9147
B(  0-C , 15-O ) :   0.8313 B(  1-C ,  2-C ) :   0.9517 B(  1-C ,  6-H ) :   0.9373
B(  1-C ,  7-H ) :   0.9205 B(  2-C ,  3-C ) :   0.9539 B(  2-C ,  8-H ) :   0.9450
B(  2-C ,  9-H ) :   0.9433 B(  3-C ,  4-O ) :   0.8378 B(  3-C , 10-H ) :   0.9348
B(  3-C , 11-H ) :   0.9399 B( 12-C , 13-H ) :   0.9206 B( 12-C , 14-H ) :   0.9267
B( 12-C , 15-O ) :   0.8822 B( 12-C , 16-C ) :   0.8816 B( 16-C , 17-C ) :   0.9061
B( 16-C , 20-O ) :   0.8602 B( 16-C , 21-H ) :   0.9133 B( 17-C , 18-C ) :   0.9199
B( 17-C , 22-O ) :   0.8921 B( 17-C , 23-H ) :   0.9346 B( 18-C , 19-C ) :   0.9443
B( 18-C , 24-H ) :   0.9369 B( 18-C , 25-H ) :   0.9215 B( 19-C , 20-O ) :   0.8431
B( 19-C , 26-H ) :   0.9166 B( 19-C , 27-H ) :   0.9357 B( 22-O , 28-H ) :   0.7956

FINAL SINGLE POINT ENERGY      -652.858071210390

DIPOLE MOMENT
-------------
                                X             Y             Z
Electronic contribution:     -2.76796      -4.37861      -1.74625
Nuclear contribution   :      3.36057       5.16402       1.69070
                        -----------------------------------------
Total Dipole Moment    :      0.59261       0.78541      -0.05555
                        -----------------------------------------
Magnitude (a.u.)       :      0.98546
Magnitude (Debye)      :      2.50485

Rotational constants in cm-1:     0.058241     0.014377     0.013469
Rotational constants in MHz :  1746.010194   430.999901   403.781062

                             ****ORCA TERMINATED NORMALLY****
TOTAL RUN TIME: 0 days 0 hours 47 minutes 56 seconds 174 msec
