                         Program Version 4.2.1 -  RELEASE  -
|  1> # Test redundant internal optimization
|  2> #
|  3> ! RKS B3LYP  Opt TightSCF SmallPrint
|  4>
|  5> %basis
|  6>         Basis "6-31G"
|  7> end
|  8>
|  9> %geom
| 10> Constraints
| 11> { D 4  0  19  14  165.0   C } # D for Dihedral angle
| 12> { D 0  19  14  12  150.0   C } # D for Dihedral angle
| 13> { D 0  4  3  2   C } # D for Dihedral angle
| 14> { D 4  3  2  1   C } # D for Dihedral angle
| 15> { D 3  2  1  0   C } # D for Dihedral angle
| 16> { D 2  1  0  4   C } # D for Dihedral angle
| 17> { D 1  0  4  3   C } # D for Dihedral angle
| 18> { D 14  15  16  17   C } # D for Dihedral angle
| 19> { D 15  16  17  12   C } # D for Dihedral angle
| 20> { D 16  17  12  14   C } # D for Dihedral angle
| 21> { D 17  12  14  15   C } # D for Dihedral angle
| 22> { D 12  14  15  16   C } # D for Dihedral angle
| 23> end
| 24> end
| 25>
| 26>
| 27> #%pal
| 28> #nprocs 8
| 29> #end
| 30>
| 31> * xyz 0 1
| 32> C  -21.048   26.222   46.251
| 33> C  -20.361   27.558   45.944
| 34> C  -20.329   28.222   47.341
| 35> C  -20.110   27.022   48.296
| 36> O  -20.473   25.807   47.535
| 37> H  -20.833   25.428   45.533
| 38> H  -19.344   27.382   45.576
| 39> H  -20.898   28.157   45.201
| 40> H  -19.543   28.978   47.434
| 41> H  -21.289   28.710   47.548
| 42> H  -20.733   27.082   49.195
| 43> H  -19.064   26.913   48.597
| 44> C  -24.515   26.615   45.063
| 45> H  -24.899   26.926   44.080
| 46> C  -23.077   27.101   45.280
| 47> C  -23.301   28.582   45.664
| 48> C  -24.623   28.541   46.472
| 49> O  -25.279   27.257   46.138
| 50> H  -24.650   25.538   45.176
| 51> O  -22.472   26.381   46.366
| 52> H  -22.445   26.983   44.393
| 53> H  -22.472   29.002   46.242
| 54> H  -23.421   29.192   44.760
| 55> H  -25.297   29.365   46.217
| 56> H  -24.452   28.543   47.553
| 57> *
| 58>
| 59>                          ****END OF INPUT****
 Total Charge           Charge          ....    0
 Multiplicity           Mult            ....    1
 Number of Electrons    NEL             ....   86
FINAL SINGLE POINT ENERGY      -538.417150520655
FINAL SINGLE POINT ENERGY      -538.423670268983
FINAL SINGLE POINT ENERGY      -538.424555011788
FINAL SINGLE POINT ENERGY      -538.424698444448
FINAL SINGLE POINT ENERGY      -538.424712724020
FINAL SINGLE POINT ENERGY      -538.424719450830
                    ***********************HURRAY********************

CARTESIAN COORDINATES (ANGSTROEM)
---------------------------------
  C    -21.002486   26.260870   46.221367
  C    -20.200222   27.538096   45.966684
  C    -20.213749   28.217192   47.364282
  C    -20.152100   27.006411   48.321174
  O    -20.557178   25.831410   47.512333
  H    -20.782834   25.447975   45.520972
  H    -19.179037   27.254341   45.688697
  H    -20.602095   28.172333   45.172192
  H    -19.370343   28.900571   47.501915
  H    -21.138290   28.781104   47.513283
  H    -20.831227   27.095092   49.172634
  H    -19.140159   26.803427   48.683290
  C    -24.538537   26.590991   45.104697
  H    -24.990383   26.858202   44.137451
  C    -23.129240   27.172889   45.226384
  C    -23.428535   28.637118   45.603249
  C    -24.691459   28.526112   46.490109
  O    -25.278416   27.196814   46.213778
  H    -24.556737   25.509815   45.244649
  O    -22.452229   26.432400   46.287955
  H    -22.568535   27.089977   44.285011
  H    -22.597995   29.124972   46.113801
  H    -23.642034   29.203355   44.687844
  H    -25.431505   29.302341   46.264527
  H    -24.452674   28.553189   47.556720

 Multiplicity           Mult            ....    1
 Number of Electrons    NEL             ....   86
 Basis Dimension        Dim             ....  127

ORBITAL ENERGIES
----------------

  NO   OCC          E(Eh)            E(eV)
   0   2.0000     -19.141618      -520.8699
   1   2.0000     -19.137569      -520.7597
   2   2.0000     -19.127004      -520.4722
   3   2.0000     -10.281497      -279.7737
   4   2.0000     -10.243599      -278.7425
   5   2.0000     -10.227617      -278.3076
   6   2.0000     -10.221301      -278.1357
   7   2.0000     -10.220578      -278.1161
   8   2.0000     -10.194012      -277.3932
   9   2.0000     -10.193442      -277.3777
  10   2.0000     -10.189426      -277.2684
  11   2.0000      -1.053537       -28.6682
  12   2.0000      -1.014323       -27.6011
  13   2.0000      -0.988620       -26.9017
  14   2.0000      -0.790899       -21.5214
  15   2.0000      -0.784748       -21.3541
  16   2.0000      -0.743534       -20.2326
  17   2.0000      -0.724621       -19.7179
  18   2.0000      -0.616397       -16.7730
  19   2.0000      -0.601375       -16.3642
  20   2.0000      -0.600137       -16.3305
  21   2.0000      -0.572018       -15.5654
  22   2.0000      -0.519750       -14.1431
  23   2.0000      -0.507081       -13.7984
  24   2.0000      -0.494399       -13.4533
  25   2.0000      -0.483274       -13.1506
  26   2.0000      -0.453284       -12.3345
  27   2.0000      -0.444531       -12.0963
  28   2.0000      -0.428491       -11.6598
  29   2.0000      -0.419417       -11.4129
  30   2.0000      -0.412397       -11.2219
  31   2.0000      -0.387712       -10.5502
  32   2.0000      -0.374432       -10.1888
  33   2.0000      -0.368598       -10.0301
  34   2.0000      -0.365152        -9.9363
  35   2.0000      -0.358836        -9.7644
  36   2.0000      -0.356057        -9.6888
  37   2.0000      -0.315970        -8.5980
  38   2.0000      -0.302719        -8.2374
  39   2.0000      -0.294658        -8.0181
  40   2.0000      -0.260717        -7.0945
  41   2.0000      -0.255894        -6.9632
  42   2.0000      -0.230611        -6.2752
  43   0.0000       0.069686         1.8963
  44   0.0000       0.086209         2.3459
  45   0.0000       0.092968         2.5298
  46   0.0000       0.107940         2.9372
  47   0.0000       0.115240         3.1358

MULLIKEN ATOMIC CHARGES
-----------------------
   0 C :    0.316936
   1 C :   -0.294166
   2 C :   -0.306740
   3 C :   -0.000555
   4 O :   -0.498065
   5 H :    0.143882
   6 H :    0.152737
   7 H :    0.143081
   8 H :    0.145224
   9 H :    0.158504
  10 H :    0.156552
  11 H :    0.143506
  12 C :    0.009553
  13 H :    0.119314
  14 C :    0.056508
  15 C :   -0.300319
  16 C :    0.002161
  17 O :   -0.516147
  18 H :    0.172631
  19 O :   -0.506869
  20 H :    0.123677
  21 H :    0.148907
  22 H :    0.140367
  23 H :    0.135061
  24 H :    0.154261
Sum of atomic charges:   -0.0000000

LOEWDIN ATOMIC CHARGES
----------------------
   0 C :    0.184317
   1 C :   -0.235484
   2 C :   -0.218565
   3 C :   -0.025016
   4 O :   -0.300286
   5 H :    0.096893
   6 H :    0.119853
   7 H :    0.112784
   8 H :    0.115707
   9 H :    0.111795
  10 H :    0.110364
  11 H :    0.103280
  12 C :   -0.033680
  13 H :    0.088929
  14 C :    0.035213
  15 C :   -0.237244
  16 C :   -0.028518
  17 O :   -0.326366
  18 H :    0.125475
  19 O :   -0.329334
  20 H :    0.094059
  21 H :    0.117362
  22 H :    0.112260
  23 H :    0.098194
  24 H :    0.108008

  Mayer bond orders larger than 0.100000
B(  0-C ,  1-C ) :   0.9236 B(  0-C ,  4-O ) :   0.9379 B(  0-C ,  5-H ) :   0.9230
B(  0-C , 19-O ) :   0.8469 B(  1-C ,  2-C ) :   0.9523 B(  1-C ,  6-H ) :   0.9326
B(  1-C ,  7-H ) :   0.9292 B(  2-C ,  3-C ) :   0.9523 B(  2-C ,  8-H ) :   0.9449
B(  2-C ,  9-H ) :   0.9334 B(  3-C ,  4-O ) :   0.8369 B(  3-C , 10-H ) :   0.9337
B(  3-C , 11-H ) :   0.9396 B( 12-C , 13-H ) :   0.9151 B( 12-C , 14-C ) :   0.9309
B( 12-C , 17-O ) :   0.8713 B( 12-C , 18-H ) :   0.9297 B( 14-C , 15-C ) :   0.9297
B( 14-C , 19-O ) :   0.8388 B( 14-C , 20-H ) :   0.9195 B( 15-C , 16-C ) :   0.9471
B( 15-C , 21-H ) :   0.9288 B( 15-C , 22-H ) :   0.9358 B( 16-C , 17-O ) :   0.8627
B( 16-C , 23-H ) :   0.9323 B( 16-C , 24-H ) :   0.9349

FINAL SINGLE POINT ENERGY      -538.424719772030

DIPOLE MOMENT
-------------
                                X             Y             Z
Electronic contribution:     -2.19584      -5.32545       1.02318
Nuclear contribution   :      3.27589       6.70155      -1.92748
                        -----------------------------------------
Total Dipole Moment    :      1.08005       1.37610      -0.90430
                        -----------------------------------------
Magnitude (a.u.)       :      1.96924
Magnitude (Debye)      :      5.00540

Rotational constants in cm-1:     0.074022     0.022355     0.021208
Rotational constants in MHz :  2219.122086   670.194470   635.797622

                             ****ORCA TERMINATED NORMALLY****
TOTAL RUN TIME: 0 days 0 hours 7 minutes 6 seconds 901 msec
