                         Program Version 4.2.1 -  RELEASE  -
|  1> # Test redundant internal optimization
|  2> #
|  3> ! RKS B3LYP  Opt TightSCF SmallPrint
|  4>
|  5> %basis
|  6>         Basis "6-31G"
|  7> end
|  8>
|  9> %geom
| 10> Constraints
| 11> { D 4  0  19  14  120.0   C } # D for Dihedral angle
| 12> { D 0  19  14  12  165.0   C } # D for Dihedral angle
| 13> { D 0  4  3  2   C } # D for Dihedral angle
| 14> { D 4  3  2  1   C } # D for Dihedral angle
| 15> { D 3  2  1  0   C } # D for Dihedral angle
| 16> { D 2  1  0  4   C } # D for Dihedral angle
| 17> { D 1  0  4  3   C } # D for Dihedral angle
| 18> { D 14  15  16  17   C } # D for Dihedral angle
| 19> { D 15  16  17  12   C } # D for Dihedral angle
| 20> { D 16  17  12  14   C } # D for Dihedral angle
| 21> { D 17  12  14  15   C } # D for Dihedral angle
| 22> { D 12  14  15  16   C } # D for Dihedral angle
| 23> end
| 24> end
| 25>
| 26>
| 27> #%pal
| 28> #nprocs 8
| 29> #end
| 30>
| 31> * xyz 0 1
| 32> C  -21.048   26.222   46.251
| 33> C  -20.361   27.558   45.944
| 34> C  -20.329   28.222   47.341
| 35> C  -20.110   27.022   48.296
| 36> O  -20.473   25.807   47.535
| 37> H  -20.833   25.428   45.533
| 38> H  -19.344   27.382   45.576
| 39> H  -20.898   28.157   45.201
| 40> H  -19.543   28.978   47.434
| 41> H  -21.289   28.710   47.548
| 42> H  -20.733   27.082   49.195
| 43> H  -19.064   26.913   48.597
| 44> C  -24.464   27.683   45.854
| 45> H  -24.810   28.598   45.349
| 46> C  -22.946   27.704   46.069
| 47> C  -22.817   28.622   47.307
| 48> C  -24.079   28.275   48.136
| 49> O  -25.019   27.605   47.210
| 50> H  -24.832   26.812   45.309
| 51> O  -22.472   26.381   46.366
| 52> H  -22.395   28.082   45.201
| 53> H  -21.891   28.454   47.866
| 54> H  -22.835   29.675   47.000
| 55> H  -24.562   29.162   48.559
| 56> H  -23.866   27.568   48.945
| 57> *
| 58>
| 59>                          ****END OF INPUT****
 Total Charge           Charge          ....    0
 Multiplicity           Mult            ....    1
 Number of Electrons    NEL             ....   86
FINAL SINGLE POINT ENERGY      -538.253452039210
FINAL SINGLE POINT ENERGY      -538.323783309256
FINAL SINGLE POINT ENERGY      -538.362101897491
FINAL SINGLE POINT ENERGY      -538.385075935673
FINAL SINGLE POINT ENERGY      -538.398731700085
FINAL SINGLE POINT ENERGY      -538.406639299692
FINAL SINGLE POINT ENERGY      -538.411002819965
FINAL SINGLE POINT ENERGY      -538.413153751037
FINAL SINGLE POINT ENERGY      -538.414080596936
FINAL SINGLE POINT ENERGY      -538.414607214233
FINAL SINGLE POINT ENERGY      -538.416742992594
FINAL SINGLE POINT ENERGY      -538.416871502936
FINAL SINGLE POINT ENERGY      -538.416988540143
FINAL SINGLE POINT ENERGY      -538.417152124257
FINAL SINGLE POINT ENERGY      -538.417354859066
FINAL SINGLE POINT ENERGY      -538.417532763132
FINAL SINGLE POINT ENERGY      -538.417616574402
FINAL SINGLE POINT ENERGY      -538.417637150703
FINAL SINGLE POINT ENERGY      -538.417641636349
                    ***********************HURRAY********************

CARTESIAN COORDINATES (ANGSTROEM)
---------------------------------
  C    -21.068164   26.379238   46.321930
  C    -20.053094   27.462483   45.934069
  C    -19.779705   28.156125   47.300833
  C    -19.862638   26.973252   48.298144
  O    -20.580552   25.887291   47.587028
  H    -21.001689   25.510272   45.661418
  H    -19.151903   26.960040   45.570078
  H    -20.400143   28.151033   45.158257
  H    -18.795114   28.634871   47.325240
  H    -20.520381   28.928442   47.507450
  H    -20.405894   27.221357   49.215208
  H    -18.876545   26.581798   48.562547
  C    -24.616501   27.588791   45.839722
  H    -25.129627   28.421657   45.335595
  C    -23.145610   27.926212   46.083268
  C    -23.234743   28.820314   47.334343
  C    -24.403225   28.200881   48.135348
  O    -25.165515   27.365317   47.179948
  H    -24.742671   26.667425   45.271051
  O    -22.493888   26.645493   46.333970
  H    -22.681673   28.437467   45.229459
  H    -22.316649   28.839165   47.917879
  H    -23.465137   29.848249   47.027365
  H    -25.068872   28.958956   48.563032
  H    -24.053069   27.535870   48.928817

 Multiplicity           Mult            ....    1
 Number of Electrons    NEL             ....   86
 Basis Dimension        Dim             ....  127

ORBITAL ENERGIES
----------------

  NO   OCC          E(Eh)            E(eV)
   0   2.0000     -19.139695      -520.8176
   1   2.0000     -19.138495      -520.7849
   2   2.0000     -19.125446      -520.4298
   3   2.0000     -10.279645      -279.7234
   4   2.0000     -10.245727      -278.8004
   5   2.0000     -10.229493      -278.3587
   6   2.0000     -10.220784      -278.1217
   7   2.0000     -10.219215      -278.0790
   8   2.0000     -10.198059      -277.5033
   9   2.0000     -10.196194      -277.4525
  10   2.0000     -10.188305      -277.2379
  11   2.0000      -1.048266       -28.5248
  12   2.0000      -1.012991       -27.5649
  13   2.0000      -0.988457       -26.8973
  14   2.0000      -0.792463       -21.5640
  15   2.0000      -0.787576       -21.4310
  16   2.0000      -0.743819       -20.2403
  17   2.0000      -0.724102       -19.7038
  18   2.0000      -0.623524       -16.9670
  19   2.0000      -0.605878       -16.4868
  20   2.0000      -0.599231       -16.3059
  21   2.0000      -0.563891       -15.3442
  22   2.0000      -0.520263       -14.1571
  23   2.0000      -0.507781       -13.8174
  24   2.0000      -0.492640       -13.4054
  25   2.0000      -0.484409       -13.1814
  26   2.0000      -0.453736       -12.3468
  27   2.0000      -0.443063       -12.0564
  28   2.0000      -0.428019       -11.6470
  29   2.0000      -0.423573       -11.5260
  30   2.0000      -0.411403       -11.1949
  31   2.0000      -0.386780       -10.5248
  32   2.0000      -0.379347       -10.3225
  33   2.0000      -0.368982       -10.0405
  34   2.0000      -0.365697        -9.9511
  35   2.0000      -0.358964        -9.7679
  36   2.0000      -0.351855        -9.5745
  37   2.0000      -0.316097        -8.6014
  38   2.0000      -0.300954        -8.1894
  39   2.0000      -0.286481        -7.7955
  40   2.0000      -0.264920        -7.2089
  41   2.0000      -0.254880        -6.9356
  42   2.0000      -0.230215        -6.2645
  43   0.0000       0.064524         1.7558
  44   0.0000       0.087197         2.3727
  45   0.0000       0.090222         2.4551
  46   0.0000       0.107740         2.9317
  47   0.0000       0.115373         3.1395

MULLIKEN ATOMIC CHARGES
-----------------------
   0 C :    0.318644
   1 C :   -0.298467
   2 C :   -0.312284
   3 C :   -0.007385
   4 O :   -0.493755
   5 H :    0.160382
   6 H :    0.161460
   7 H :    0.144437
   8 H :    0.145005
   9 H :    0.148670
  10 H :    0.144694
  11 H :    0.147458
  12 C :    0.011511
  13 H :    0.121063
  14 C :    0.075805
  15 C :   -0.302769
  16 C :    0.004008
  17 O :   -0.515954
  18 H :    0.170450
  19 O :   -0.526134
  20 H :    0.121577
  21 H :    0.151313
  22 H :    0.138348
  23 H :    0.133387
  24 H :    0.158537
Sum of atomic charges:   -0.0000000

LOEWDIN ATOMIC CHARGES
----------------------
   0 C :    0.179209
   1 C :   -0.229812
   2 C :   -0.223704
   3 C :   -0.032414
   4 O :   -0.312515
   5 H :    0.106067
   6 H :    0.125432
   7 H :    0.114562
   8 H :    0.115522
   9 H :    0.108887
  10 H :    0.103089
  11 H :    0.105493
  12 C :   -0.032033
  13 H :    0.089480
  14 C :    0.042550
  15 C :   -0.239572
  16 C :   -0.027214
  17 O :   -0.325858
  18 H :    0.125014
  19 O :   -0.322674
  20 H :    0.092850
  21 H :    0.117646
  22 H :    0.111871
  23 H :    0.097594
  24 H :    0.110530

  Mayer bond orders larger than 0.100000
B(  0-C ,  1-C ) :   0.9233 B(  0-C ,  4-O ) :   0.9113 B(  0-C ,  5-H ) :   0.9347
B(  0-C , 19-O ) :   0.8878 B(  1-C ,  2-C ) :   0.9540 B(  1-C ,  6-H ) :   0.9338
B(  1-C ,  7-H ) :   0.9319 B(  2-C ,  3-C ) :   0.9497 B(  2-C ,  8-H ) :   0.9450
B(  2-C ,  9-H ) :   0.9315 B(  3-C ,  4-O ) :   0.8497 B(  3-C , 10-H ) :   0.9327
B(  3-C , 11-H ) :   0.9382 B( 12-C , 13-H ) :   0.9150 B( 12-C , 14-C ) :   0.9344
B( 12-C , 17-O ) :   0.8737 B( 12-C , 18-H ) :   0.9292 B( 14-C , 15-C ) :   0.9331
B( 14-C , 19-O ) :   0.8329 B( 14-C , 20-H ) :   0.9177 B( 15-C , 16-C ) :   0.9418
B( 15-C , 21-H ) :   0.9240 B( 15-C , 22-H ) :   0.9358 B( 16-C , 17-O ) :   0.8608
B( 16-C , 23-H ) :   0.9326 B( 16-C , 24-H ) :   0.9349

FINAL SINGLE POINT ENERGY      -538.417643170588

DIPOLE MOMENT
-------------
                                X             Y             Z
Electronic contribution:     -3.08194      -5.13749      -0.48547
Nuclear contribution   :      4.30399       6.78725      -0.00093
                        -----------------------------------------
Total Dipole Moment    :      1.22205       1.64976      -0.48639
                        -----------------------------------------
Magnitude (a.u.)       :      2.10990
Magnitude (Debye)      :      5.36295

Rotational constants in cm-1:     0.072300     0.022978     0.021969
Rotational constants in MHz :  2167.498001   688.867741   658.603990

                             ****ORCA TERMINATED NORMALLY****
TOTAL RUN TIME: 0 days 0 hours 28 minutes 31 seconds 173 msec
