                         Program Version 4.2.0 -  RELEASE  -
|  1> # Test redundant internal optimization
|  2> #
|  3> ! RKS B3LYP  Opt TightSCF SmallPrint
|  4>
|  5> %basis
|  6>         Basis "6-31G"
|  7> end
|  8>
|  9> %geom
| 10> Constraints
| 11> { D 4  0  15  12  285.0   C } # D for Dihedral angle
| 12> { D 0  15  12  16  255.0   C } # D for Dihedral angle
| 13> { D 0  4  3  2   C } # D for Dihedral angle
| 14> { D 4  3  2  1   C } # D for Dihedral angle
| 15> { D 3  2  1  0   C } # D for Dihedral angle
| 16> { D 2  1  0  4   C } # D for Dihedral angle
| 17> { D 1  0  4  3   C } # D for Dihedral angle
| 18> { D 16  20  19  18   C } # D for Dihedral angle
| 19> { D 20  19  18  17   C } # D for Dihedral angle
| 20> { D 19  18  17  16   C } # D for Dihedral angle
| 21> { D 18  17  16  20   C } # D for Dihedral angle
| 22> { D 17  16  20  19   C } # D for Dihedral angle
| 23> { D 15  12  16  20   C } # D for Dihedral angle
| 24> end
| 25> end
| 26>
| 27>
| 28> #%pal
| 29> #nprocs 8
| 30> #end
| 31>
| 32> * xyz 0 1
| 33> C  -21.048   26.222   46.251
| 34> C  -20.361   27.558   45.944
| 35> C  -20.329   28.222   47.341
| 36> C  -20.110   27.022   48.296
| 37> O  -20.473   25.807   47.535
| 38> H  -20.833   25.428   45.533
| 39> H  -19.344   27.382   45.576
| 40> H  -20.898   28.157   45.201
| 41> H  -19.543   28.978   47.434
| 42> H  -21.289   28.710   47.548
| 43> H  -20.733   27.082   49.195
| 44> H  -19.064   26.913   48.597
| 45> C  -23.396   25.070   46.435
| 46> H  -22.715   24.239   46.655
| 47> H  -24.149   25.116   47.232
| 48> O  -22.586   26.394   46.375
| 49> C  -24.135   24.757   45.105
| 50> C  -25.042   25.919   44.685
| 51> C  -24.022   26.904   44.065
| 52> C  -22.989   25.966   43.394
| 53> O  -23.175   24.631   44.003
| 54> H  -24.645   23.796   45.196
| 55> H  -25.760   25.581   43.930
| 56> O  -25.832   26.537   45.871
| 57> H  -24.480   27.598   43.353
| 58> H  -23.547   27.500   44.854
| 59> H  -21.956   26.293   43.555
| 60> H  -23.161   25.856   42.319
| 61> H  -25.131   26.882   46.639
| 62> *
| 63>
| 64>                          ****END OF INPUT****
 Total Charge           Charge          ....    0
 Multiplicity           Mult            ....    1
 Number of Electrons    NEL             ....  102
FINAL SINGLE POINT ENERGY      -652.837002731843
FINAL SINGLE POINT ENERGY      -652.861587796635
FINAL SINGLE POINT ENERGY      -652.866220855928
FINAL SINGLE POINT ENERGY      -652.868269088626
FINAL SINGLE POINT ENERGY      -652.868427441094
FINAL SINGLE POINT ENERGY      -652.868453187139
FINAL SINGLE POINT ENERGY      -652.868454418467
                    ***********************HURRAY********************

CARTESIAN COORDINATES (ANGSTROEM)
---------------------------------
  C    -21.030919   26.175439   46.280443
  C    -20.397305   27.539722   46.009171
  C    -20.370945   28.164621   47.423500
  C    -20.098787   26.948347   48.336441
  O    -20.435013   25.750025   47.525785
  H    -20.831931   25.387969   45.550287
  H    -19.381361   27.392860   45.625401
  H    -20.966690   28.128785   45.286894
  H    -19.606692   28.940960   47.527045
  H    -21.346227   28.605932   47.649062
  H    -20.710998   26.945644   49.241697
  H    -19.044866   26.851652   48.613185
  C    -23.255431   25.150435   46.477538
  H    -22.604225   24.307010   46.730134
  H    -23.978822   25.276178   47.290594
  O    -22.461170   26.378614   46.411580
  C    -24.004522   24.855808   45.182777
  C    -25.017633   25.923637   44.731159
  C    -24.107481   26.914986   43.942000
  C    -23.073618   25.977671   43.283127
  O    -23.127908   24.690068   44.026087
  H    -24.503600   23.888487   45.323035
  H    -25.768406   25.471603   44.079784
  O    -25.770835   26.529014   45.807609
  H    -24.672558   27.500679   43.211151
  H    -23.624637   27.590970   44.652656
  H    -22.053213   26.370921   43.327897
  H    -23.318891   25.749466   42.240986
  H    -25.181316   27.112497   46.329976

 Multiplicity           Mult            ....    1
 Number of Electrons    NEL             ....  102
 Basis Dimension        Dim             ....  149

ORBITAL ENERGIES
----------------

  NO   OCC          E(Eh)            E(eV)
   0   2.0000     -19.149406      -521.0818
   1   2.0000     -19.141862      -520.8765
   2   2.0000     -19.140873      -520.8496
   3   2.0000     -19.139242      -520.8053
   4   2.0000     -10.279743      -279.7260
   5   2.0000     -10.238239      -278.5967
   6   2.0000     -10.229808      -278.3672
   7   2.0000     -10.227793      -278.3124
   8   2.0000     -10.227636      -278.3081
   9   2.0000     -10.227300      -278.2990
  10   2.0000     -10.189455      -277.2692
  11   2.0000     -10.188622      -277.2465
  12   2.0000     -10.183219      -277.0995
  13   2.0000      -1.056700       -28.7543
  14   2.0000      -1.028777       -27.9944
  15   2.0000      -1.011796       -27.5324
  16   2.0000      -0.994802       -27.0699
  17   2.0000      -0.791681       -21.5427
  18   2.0000      -0.773639       -21.0518
  19   2.0000      -0.766819       -20.8662
  20   2.0000      -0.732297       -19.9268
  21   2.0000      -0.678077       -18.4514
  22   2.0000      -0.604741       -16.4558
  23   2.0000      -0.602461       -16.3938
  24   2.0000      -0.596646       -16.2356
  25   2.0000      -0.570618       -15.5273
  26   2.0000      -0.527267       -14.3477
  27   2.0000      -0.508978       -13.8500
  28   2.0000      -0.499473       -13.5914
  29   2.0000      -0.490705       -13.3528
  30   2.0000      -0.463706       -12.6181
  31   2.0000      -0.459232       -12.4963
  32   2.0000      -0.446516       -12.1503
  33   2.0000      -0.433875       -11.8063
  34   2.0000      -0.423790       -11.5319
  35   2.0000      -0.411571       -11.1994
  36   2.0000      -0.406536       -11.0624
  37   2.0000      -0.397050       -10.8043
  38   2.0000      -0.384632       -10.4664
  39   2.0000      -0.361863        -9.8468
  40   2.0000      -0.361787        -9.8447
  41   2.0000      -0.356129        -9.6908
  42   2.0000      -0.347464        -9.4550
  43   2.0000      -0.332433        -9.0460
  44   2.0000      -0.325900        -8.8682
  45   2.0000      -0.309869        -8.4320
  46   2.0000      -0.303218        -8.2510
  47   2.0000      -0.279032        -7.5929
  48   2.0000      -0.262964        -7.1556
  49   2.0000      -0.256751        -6.9866
  50   2.0000      -0.238839        -6.4991
  51   0.0000       0.066631         1.8131
  52   0.0000       0.073914         2.0113
  53   0.0000       0.088489         2.4079
  54   0.0000       0.099609         2.7105
  55   0.0000       0.101832         2.7710

MULLIKEN ATOMIC CHARGES
-----------------------
   0 C :    0.279913
   1 C :   -0.267923
   2 C :   -0.299171
   3 C :   -0.002356
   4 O :   -0.510912
   5 H :    0.169879
   6 H :    0.149268
   7 H :    0.151189
   8 H :    0.142833
   9 H :    0.157884
  10 H :    0.147987
  11 H :    0.144261
  12 C :   -0.043736
  13 H :    0.167300
  14 H :    0.151596
  15 O :   -0.535850
  16 C :    0.095180
  17 C :    0.092636
  18 C :   -0.311365
  19 C :   -0.013276
  20 O :   -0.523927
  21 H :    0.148751
  22 H :    0.162138
  23 O :   -0.607221
  24 H :    0.144605
  25 H :    0.160814
  26 H :    0.137226
  27 H :    0.146494
  28 H :    0.365785
Sum of atomic charges:   -0.0000000

LOEWDIN ATOMIC CHARGES
----------------------
   0 C :    0.169979
   1 C :   -0.216426
   2 C :   -0.216063
   3 C :   -0.027106
   4 O :   -0.326053
   5 H :    0.109824
   6 H :    0.116314
   7 H :    0.118821
   8 H :    0.114104
   9 H :    0.116879
  10 H :    0.106014
  11 H :    0.103673
  12 C :   -0.050603
  13 H :    0.118750
  14 H :    0.112957
  15 O :   -0.341323
  16 C :    0.010747
  17 C :    0.038544
  18 C :   -0.242662
  19 C :   -0.028330
  20 O :   -0.327446
  21 H :    0.114219
  22 H :    0.116422
  23 O :   -0.410150
  24 H :    0.115732
  25 H :    0.118273
  26 H :    0.098029
  27 H :    0.103217
  28 H :    0.283662

  Mayer bond orders larger than 0.100000
B(  0-C ,  1-C ) :   0.9474 B(  0-C ,  4-O ) :   0.9049 B(  0-C ,  5-H ) :   0.9122
B(  0-C , 15-O ) :   0.8412 B(  1-C ,  2-C ) :   0.9544 B(  1-C ,  6-H ) :   0.9399
B(  1-C ,  7-H ) :   0.9363 B(  2-C ,  3-C ) :   0.9555 B(  2-C ,  8-H ) :   0.9451
B(  2-C ,  9-H ) :   0.9452 B(  3-C ,  4-O ) :   0.8368 B(  3-C , 10-H ) :   0.9357
B(  3-C , 11-H ) :   0.9402 B( 12-C , 13-H ) :   0.9208 B( 12-C , 14-H ) :   0.9199
B( 12-C , 15-O ) :   0.8409 B( 12-C , 16-C ) :   0.8987 B( 16-C , 17-C ) :   0.8865
B( 16-C , 20-O ) :   0.8685 B( 16-C , 21-H ) :   0.9242 B( 17-C , 18-C ) :   0.9307
B( 17-C , 22-H ) :   0.9362 B( 17-C , 23-O ) :   0.9024 B( 18-C , 19-C ) :   0.9449
B( 18-C , 24-H ) :   0.9412 B( 18-C , 25-H ) :   0.9272 B( 19-C , 20-O ) :   0.8387
B( 19-C , 26-H ) :   0.9302 B( 19-C , 27-H ) :   0.9379 B( 23-O , 28-H ) :   0.7926

FINAL SINGLE POINT ENERGY      -652.868453020560

DIPOLE MOMENT
-------------
                                X             Y             Z
Electronic contribution:     -2.63859      -4.46106       0.23720
Nuclear contribution   :      3.23586       5.47972      -0.31277
                        -----------------------------------------
Total Dipole Moment    :      0.59726       1.01866      -0.07557
                        -----------------------------------------
Magnitude (a.u.)       :      1.18326
Magnitude (Debye)      :      3.00760

Rotational constants in cm-1:     0.048827     0.015543     0.015015
Rotational constants in MHz :  1463.798941   465.967638   450.152124

                             ****ORCA TERMINATED NORMALLY****
TOTAL RUN TIME: 0 days 0 hours 25 minutes 50 seconds 943 msec
