                         Program Version 4.2.0 -  RELEASE  -
|  1> # Test redundant internal optimization
|  2> #
|  3> ! RKS B3LYP  Opt TightSCF SmallPrint
|  4>
|  5> %basis
|  6>         Basis "6-31G"
|  7> end
|  8>
|  9> %geom
| 10> Constraints
| 11> { D 4  0  15  12  225.0   C } # D for Dihedral angle
| 12> { D 0  15  12  16  240.0   C } # D for Dihedral angle
| 13> { D 0  4  3  2   C } # D for Dihedral angle
| 14> { D 4  3  2  1   C } # D for Dihedral angle
| 15> { D 3  2  1  0   C } # D for Dihedral angle
| 16> { D 2  1  0  4   C } # D for Dihedral angle
| 17> { D 1  0  4  3   C } # D for Dihedral angle
| 18> { D 16  20  19  18   C } # D for Dihedral angle
| 19> { D 20  19  18  17   C } # D for Dihedral angle
| 20> { D 19  18  17  16   C } # D for Dihedral angle
| 21> { D 18  17  16  20   C } # D for Dihedral angle
| 22> { D 17  16  20  19   C } # D for Dihedral angle
| 23> { D 15  12  16  20   C } # D for Dihedral angle
| 24> end
| 25> end
| 26>
| 27>
| 28> #%pal
| 29> #nprocs 8
| 30> #end
| 31>
| 32> * xyz 0 1
| 33> C  -21.048   26.222   46.251
| 34> C  -20.361   27.558   45.944
| 35> C  -20.329   28.222   47.341
| 36> C  -20.110   27.022   48.296
| 37> O  -20.473   25.807   47.535
| 38> H  -20.833   25.428   45.533
| 39> H  -19.344   27.382   45.576
| 40> H  -20.898   28.157   45.201
| 41> H  -19.543   28.978   47.434
| 42> H  -21.289   28.710   47.548
| 43> H  -20.733   27.082   49.195
| 44> H  -19.064   26.913   48.597
| 45> C  -23.415   25.773   45.218
| 46> H  -22.735   25.299   44.499
| 47> H  -24.097   25.004   45.604
| 48> O  -22.586   26.394   46.375
| 49> C  -24.271   26.825   44.460
| 50> C  -25.186   27.595   45.420
| 51> C  -24.202   28.615   46.041
| 52> C  -23.250   28.946   44.864
| 53> O  -23.412   27.859   43.874
| 54> H  -24.792   26.336   43.635
| 55> O  -26.301   28.324   44.623
| 56> H  -25.661   26.953   46.170
| 57> H  -24.704   29.505   46.433
| 58> H  -23.649   28.151   46.866
| 59> H  -22.201   28.996   45.174
| 60> H  -23.515   29.881   44.362
| 61> H  -25.849   28.974   43.866
| 62> *
| 63>
| 64>                          ****END OF INPUT****
 Total Charge           Charge          ....    0
 Multiplicity           Mult            ....    1
 Number of Electrons    NEL             ....  102
FINAL SINGLE POINT ENERGY      -652.828937957845
FINAL SINGLE POINT ENERGY      -652.851174319925
FINAL SINGLE POINT ENERGY      -652.857372674313
FINAL SINGLE POINT ENERGY      -652.860890324656
FINAL SINGLE POINT ENERGY      -652.861256534153
FINAL SINGLE POINT ENERGY      -652.861302143901
FINAL SINGLE POINT ENERGY      -652.861306891365
                    ***********************HURRAY********************

CARTESIAN COORDINATES (ANGSTROEM)
---------------------------------
  C    -21.028107   26.178662   46.221412
  C    -20.296156   27.491592   45.953289
  C    -20.256935   28.130168   47.361576
  C    -20.090156   26.906692   48.289232
  O    -20.492624   25.730607   47.477194
  H    -20.837413   25.390063   45.486937
  H    -19.280840   27.264662   45.606157
  H    -20.793934   28.096077   45.194883
  H    -19.442722   28.852334   47.474812
  H    -21.201460   28.644434   47.566734
  H    -20.722830   26.949583   49.179062
  H    -19.051434   26.740770   48.589723
  C    -23.305023   25.839016   45.289711
  H    -22.674547   25.344701   44.538263
  H    -23.974383   25.083332   45.722563
  O    -22.469082   26.364344   46.358544
  C    -24.154978   26.890251   44.577734
  C    -25.199853   27.640296   45.417099
  C    -24.361530   28.811713   45.987903
  C    -23.382121   29.139704   44.836772
  O    -23.373413   27.953438   43.940442
  H    -24.669534   26.362287   43.763955
  O    -26.298468   28.099441   44.579959
  H    -25.664573   27.027110   46.189355
  H    -25.000008   29.655515   46.261570
  H    -23.816502   28.461878   46.868193
  H    -22.368326   29.335630   45.190312
  H    -23.710706   29.989979   44.229479
  H    -25.933340   28.536720   43.782137

 Multiplicity           Mult            ....    1
 Number of Electrons    NEL             ....  102
 Basis Dimension        Dim             ....  149

ORBITAL ENERGIES
----------------

  NO   OCC          E(Eh)            E(eV)
   0   2.0000     -19.147024      -521.0170
   1   2.0000     -19.145545      -520.9768
   2   2.0000     -19.140842      -520.8488
   3   2.0000     -19.137079      -520.7464
   4   2.0000     -10.281947      -279.7860
   5   2.0000     -10.239189      -278.6225
   6   2.0000     -10.236607      -278.5522
   7   2.0000     -10.236350      -278.5452
   8   2.0000     -10.230268      -278.3797
   9   2.0000     -10.226527      -278.2780
  10   2.0000     -10.189037      -277.2578
  11   2.0000     -10.185602      -277.1643
  12   2.0000     -10.181732      -277.0590
  13   2.0000      -1.054361       -28.6906
  14   2.0000      -1.036373       -28.2011
  15   2.0000      -1.006468       -27.3874
  16   2.0000      -0.995489       -27.0886
  17   2.0000      -0.789659       -21.4877
  18   2.0000      -0.779907       -21.2224
  19   2.0000      -0.769157       -20.9298
  20   2.0000      -0.733653       -19.9637
  21   2.0000      -0.678851       -18.4725
  22   2.0000      -0.602396       -16.3920
  23   2.0000      -0.601420       -16.3655
  24   2.0000      -0.598322       -16.2812
  25   2.0000      -0.582363       -15.8469
  26   2.0000      -0.526342       -14.3225
  27   2.0000      -0.507629       -13.8133
  28   2.0000      -0.496572       -13.5124
  29   2.0000      -0.490867       -13.3572
  30   2.0000      -0.476786       -12.9740
  31   2.0000      -0.462655       -12.5895
  32   2.0000      -0.451180       -12.2772
  33   2.0000      -0.441587       -12.0162
  34   2.0000      -0.426320       -11.6008
  35   2.0000      -0.412215       -11.2169
  36   2.0000      -0.401248       -10.9185
  37   2.0000      -0.390725       -10.6322
  38   2.0000      -0.378472       -10.2988
  39   2.0000      -0.370132       -10.0718
  40   2.0000      -0.360860        -9.8195
  41   2.0000      -0.357697        -9.7334
  42   2.0000      -0.352921        -9.6035
  43   2.0000      -0.331128        -9.0104
  44   2.0000      -0.315676        -8.5900
  45   2.0000      -0.313975        -8.5437
  46   2.0000      -0.304430        -8.2840
  47   2.0000      -0.275361        -7.4930
  48   2.0000      -0.265765        -7.2318
  49   2.0000      -0.257680        -7.0118
  50   2.0000      -0.241383        -6.5684
  51   0.0000       0.060825         1.6551
  52   0.0000       0.077872         2.1190
  53   0.0000       0.087399         2.3783
  54   0.0000       0.098058         2.6683
  55   0.0000       0.101903         2.7729

MULLIKEN ATOMIC CHARGES
-----------------------
   0 C :    0.295039
   1 C :   -0.268128
   2 C :   -0.308986
   3 C :   -0.000593
   4 O :   -0.501271
   5 H :    0.142767
   6 H :    0.144919
   7 H :    0.164974
   8 H :    0.143594
   9 H :    0.156795
  10 H :    0.151858
  11 H :    0.142531
  12 C :   -0.011030
  13 H :    0.139561
  14 H :    0.145446
  15 O :   -0.519867
  16 C :    0.078911
  17 C :    0.076642
  18 C :   -0.293178
  19 C :   -0.026439
  20 O :   -0.531963
  21 H :    0.153625
  22 O :   -0.603103
  23 H :    0.157792
  24 H :    0.152233
  25 H :    0.175783
  26 H :    0.138731
  27 H :    0.140721
  28 H :    0.362635
Sum of atomic charges:   -0.0000000

LOEWDIN ATOMIC CHARGES
----------------------
   0 C :    0.181662
   1 C :   -0.225899
   2 C :   -0.218529
   3 C :   -0.025608
   4 O :   -0.309663
   5 H :    0.098551
   6 H :    0.114907
   7 H :    0.123755
   8 H :    0.114875
   9 H :    0.113532
  10 H :    0.108032
  11 H :    0.102668
  12 C :   -0.035043
  13 H :    0.103308
  14 H :    0.107980
  15 O :   -0.337367
  16 C :    0.008043
  17 C :    0.038400
  18 C :   -0.240841
  19 C :   -0.035037
  20 O :   -0.334680
  21 H :    0.115305
  22 O :   -0.416664
  23 H :    0.118985
  24 H :    0.121138
  25 H :    0.128548
  26 H :    0.099635
  27 H :    0.098332
  28 H :    0.281674

  Mayer bond orders larger than 0.100000
B(  0-C ,  1-C ) :   0.9359 B(  0-C ,  4-O ) :   0.9354 B(  0-C ,  5-H ) :   0.9169
B(  0-C , 15-O ) :   0.8316 B(  1-C ,  2-C ) :   0.9557 B(  1-C ,  6-H ) :   0.9337
B(  1-C ,  7-H ) :   0.9211 B(  2-C ,  3-C ) :   0.9528 B(  2-C ,  8-H ) :   0.9449
B(  2-C ,  9-H ) :   0.9414 B(  3-C ,  4-O ) :   0.8385 B(  3-C , 10-H ) :   0.9347
B(  3-C , 11-H ) :   0.9394 B( 12-C , 13-H ) :   0.9178 B( 12-C , 14-H ) :   0.9198
B( 12-C , 15-O ) :   0.8653 B( 12-C , 16-C ) :   0.8936 B( 16-C , 17-C ) :   0.9101
B( 16-C , 20-O ) :   0.8642 B( 16-C , 21-H ) :   0.9175 B( 17-C , 18-C ) :   0.9229
B( 17-C , 22-O ) :   0.8912 B( 17-C , 23-H ) :   0.9346 B( 18-C , 19-C ) :   0.9462
B( 18-C , 24-H ) :   0.9366 B( 18-C , 25-H ) :   0.9183 B( 19-C , 20-O ) :   0.8441
B( 19-C , 26-H ) :   0.9221 B( 19-C , 27-H ) :   0.9382 B( 22-O , 28-H ) :   0.7963

FINAL SINGLE POINT ENERGY      -652.861306069523

DIPOLE MOMENT
-------------
                                X             Y             Z
Electronic contribution:     -2.96116      -3.62934      -1.89709
Nuclear contribution   :      3.66095       4.28674       1.83902
                        -----------------------------------------
Total Dipole Moment    :      0.69979       0.65739      -0.05807
                        -----------------------------------------
Magnitude (a.u.)       :      0.96189
Magnitude (Debye)      :      2.44494

Rotational constants in cm-1:     0.055825     0.014952     0.014008
Rotational constants in MHz :  1673.591478   448.246719   419.952827

                             ****ORCA TERMINATED NORMALLY****
TOTAL RUN TIME: 0 days 1 hours 0 minutes 57 seconds 233 msec
