                         Program Version 4.2.0 -  RELEASE  -
|  1> # Test redundant internal optimization
|  2> #
|  3> ! RKS B3LYP  Opt TightSCF SmallPrint
|  4>
|  5> %basis
|  6>         Basis "6-31G"
|  7> end
|  8>
|  9> %geom
| 10> Constraints
| 11> { D 4  0  15  12  210.0   C } # D for Dihedral angle
| 12> { D 0  15  12  16  210.0   C } # D for Dihedral angle
| 13> { D 0  4  3  2   C } # D for Dihedral angle
| 14> { D 4  3  2  1   C } # D for Dihedral angle
| 15> { D 3  2  1  0   C } # D for Dihedral angle
| 16> { D 2  1  0  4   C } # D for Dihedral angle
| 17> { D 1  0  4  3   C } # D for Dihedral angle
| 18> { D 16  20  19  18   C } # D for Dihedral angle
| 19> { D 20  19  18  17   C } # D for Dihedral angle
| 20> { D 19  18  17  16   C } # D for Dihedral angle
| 21> { D 18  17  16  20   C } # D for Dihedral angle
| 22> { D 17  16  20  19   C } # D for Dihedral angle
| 23> { D 15  12  16  20   C } # D for Dihedral angle
| 24> end
| 25> end
| 26>
| 27>
| 28> #%pal
| 29> #nprocs 8
| 30> #end
| 31>
| 32> * xyz 0 1
| 33> C  -21.048   26.222   46.251
| 34> C  -20.361   27.558   45.944
| 35> C  -20.329   28.222   47.341
| 36> C  -20.110   27.022   48.296
| 37> O  -20.473   25.807   47.535
| 38> H  -20.833   25.428   45.533
| 39> H  -19.344   27.382   45.576
| 40> H  -20.898   28.157   45.201
| 41> H  -19.543   28.978   47.434
| 42> H  -21.289   28.710   47.548
| 43> H  -20.733   27.082   49.195
| 44> H  -19.064   26.913   48.597
| 45> C  -23.389   26.110   45.076
| 46> H  -22.765   26.347   44.205
| 47> H  -23.668   25.050   45.021
| 48> O  -22.586   26.394   46.375
| 49> C  -24.695   26.948   44.982
| 50> C  -25.581   26.737   46.215
| 51> C  -24.890   27.648   47.258
| 52> C  -24.389   28.840   46.406
| 53> O  -24.387   28.381   44.999
| 54> H  -25.187   26.737   44.031
| 55> O  -27.024   27.233   45.925
| 56> H  -25.634   25.690   46.534
| 57> H  -25.564   27.962   48.061
| 58> H  -24.045   27.120   47.718
| 59> H  -23.377   29.158   46.681
| 60> H  -25.058   29.704   46.461
| 61> H  -26.996   28.280   45.604
| 62> *
| 63>
| 64>                          ****END OF INPUT****
 Total Charge           Charge          ....    0
 Multiplicity           Mult            ....    1
 Number of Electrons    NEL             ....  102
FINAL SINGLE POINT ENERGY      -652.835682132098
FINAL SINGLE POINT ENERGY      -652.858150001341
FINAL SINGLE POINT ENERGY      -652.861754327568
FINAL SINGLE POINT ENERGY      -652.862800301263
FINAL SINGLE POINT ENERGY      -652.862916114331
FINAL SINGLE POINT ENERGY      -652.862930449156
                    ***********************HURRAY********************

CARTESIAN COORDINATES (ANGSTROEM)
---------------------------------
  C    -21.082202   26.209297   46.194407
  C    -20.394713   27.538277   45.890879
  C    -20.354570   28.203745   47.286510
  C    -20.137189   27.005930   48.235167
  O    -20.516655   25.800608   47.448194
  H    -20.888319   25.405787   45.477098
  H    -19.381402   27.348417   45.517871
  H    -20.938589   28.132547   45.151501
  H    -19.561670   28.952958   47.371390
  H    -21.311256   28.691616   47.492570
  H    -20.758170   27.045055   49.133251
  H    -19.090254   26.873039   48.522488
  C    -23.295723   26.122042   45.140520
  H    -22.700163   26.375864   44.252978
  H    -23.556385   25.054401   45.089407
  O    -22.522839   26.386102   46.346940
  C    -24.564573   26.968041   45.095630
  C    -25.568354   26.776242   46.241194
  C    -24.988409   27.715235   47.330459
  C    -24.412371   28.892639   46.506540
  O    -24.268662   28.401787   45.113747
  H    -25.056836   26.761294   44.137261
  O    -26.906023   27.169257   45.821646
  H    -25.664927   25.741631   46.570415
  H    -25.768578   28.025040   48.031274
  H    -24.192085   27.197257   47.867475
  H    -23.434153   29.216617   46.868840
  H    -25.082840   29.758158   46.471909
  H    -26.862089   28.051117   45.395441

 Multiplicity           Mult            ....    1
 Number of Electrons    NEL             ....  102
 Basis Dimension        Dim             ....  149

ORBITAL ENERGIES
----------------

  NO   OCC          E(Eh)            E(eV)
   0   2.0000     -19.146100      -520.9919
   1   2.0000     -19.143888      -520.9317
   2   2.0000     -19.141433      -520.8649
   3   2.0000     -19.134698      -520.6816
   4   2.0000     -10.282800      -279.8092
   5   2.0000     -10.236657      -278.5536
   6   2.0000     -10.236237      -278.5422
   7   2.0000     -10.235933      -278.5339
   8   2.0000     -10.228074      -278.3200
   9   2.0000     -10.225522      -278.2506
  10   2.0000     -10.189207      -277.2624
  11   2.0000     -10.187057      -277.2039
  12   2.0000     -10.176331      -276.9120
  13   2.0000      -1.056524       -28.7495
  14   2.0000      -1.033653       -28.1271
  15   2.0000      -1.004777       -27.3414
  16   2.0000      -0.996178       -27.1074
  17   2.0000      -0.789667       -21.4879
  18   2.0000      -0.777988       -21.1701
  19   2.0000      -0.765479       -20.8298
  20   2.0000      -0.733658       -19.9638
  21   2.0000      -0.676132       -18.3985
  22   2.0000      -0.603334       -16.4176
  23   2.0000      -0.597787       -16.2666
  24   2.0000      -0.596423       -16.2295
  25   2.0000      -0.580801       -15.8044
  26   2.0000      -0.527152       -14.3445
  27   2.0000      -0.505094       -13.7443
  28   2.0000      -0.496818       -13.5191
  29   2.0000      -0.487657       -13.2698
  30   2.0000      -0.479308       -13.0426
  31   2.0000      -0.459863       -12.5135
  32   2.0000      -0.448159       -12.1950
  33   2.0000      -0.444404       -12.0929
  34   2.0000      -0.419722       -11.4212
  35   2.0000      -0.409306       -11.1378
  36   2.0000      -0.405446       -11.0327
  37   2.0000      -0.389711       -10.6046
  38   2.0000      -0.375656       -10.2221
  39   2.0000      -0.371585       -10.1113
  40   2.0000      -0.358573        -9.7573
  41   2.0000      -0.358405        -9.7527
  42   2.0000      -0.353796        -9.6273
  43   2.0000      -0.328712        -8.9447
  44   2.0000      -0.316567        -8.6142
  45   2.0000      -0.312968        -8.5163
  46   2.0000      -0.301870        -8.2143
  47   2.0000      -0.269345        -7.3292
  48   2.0000      -0.265642        -7.2285
  49   2.0000      -0.255207        -6.9445
  50   2.0000      -0.243380        -6.6227
  51   0.0000       0.061644         1.6774
  52   0.0000       0.082704         2.2505
  53   0.0000       0.089353         2.4314
  54   0.0000       0.097828         2.6620
  55   0.0000       0.104143         2.8339

MULLIKEN ATOMIC CHARGES
-----------------------
   0 C :    0.294042
   1 C :   -0.263973
   2 C :   -0.311868
   3 C :   -0.003161
   4 O :   -0.503921
   5 H :    0.141818
   6 H :    0.143819
   7 H :    0.161194
   8 H :    0.144754
   9 H :    0.165086
  10 H :    0.151239
  11 H :    0.144189
  12 C :   -0.001903
  13 H :    0.139595
  14 H :    0.135932
  15 O :   -0.518869
  16 C :    0.064459
  17 C :    0.078928
  18 C :   -0.287220
  19 C :   -0.031722
  20 O :   -0.528947
  21 H :    0.155919
  22 O :   -0.603405
  23 H :    0.155398
  24 H :    0.148515
  25 H :    0.181599
  26 H :    0.148692
  27 H :    0.137764
  28 H :    0.362047
Sum of atomic charges:   -0.0000000

LOEWDIN ATOMIC CHARGES
----------------------
   0 C :    0.179463
   1 C :   -0.227222
   2 C :   -0.217289
   3 C :   -0.025799
   4 O :   -0.306567
   5 H :    0.098336
   6 H :    0.113671
   7 H :    0.124007
   8 H :    0.115893
   9 H :    0.115090
  10 H :    0.107676
  11 H :    0.103650
  12 C :   -0.038026
  13 H :    0.101510
  14 H :    0.100184
  15 O :   -0.339509
  16 C :    0.013461
  17 C :    0.040033
  18 C :   -0.241299
  19 C :   -0.034703
  20 O :   -0.332517
  21 H :    0.116236
  22 O :   -0.417261
  23 H :    0.118237
  24 H :    0.118730
  25 H :    0.133822
  26 H :    0.102112
  27 H :    0.096688
  28 H :    0.281393

  Mayer bond orders larger than 0.100000
B(  0-C ,  1-C ) :   0.9323 B(  0-C ,  4-O ) :   0.9389 B(  0-C ,  5-H ) :   0.9207
B(  0-C , 15-O ) :   0.8236 B(  1-C ,  2-C ) :   0.9539 B(  1-C ,  6-H ) :   0.9339
B(  1-C ,  7-H ) :   0.9318 B(  2-C ,  3-C ) :   0.9541 B(  2-C ,  8-H ) :   0.9447
B(  2-C ,  9-H ) :   0.9349 B(  3-C ,  4-O ) :   0.8359 B(  3-C , 10-H ) :   0.9348
B(  3-C , 11-H ) :   0.9395 B( 12-C , 13-H ) :   0.9159 B( 12-C , 14-H ) :   0.9114
B( 12-C , 15-O ) :   0.8492 B( 12-C , 16-C ) :   0.9061 B( 16-C , 17-C ) :   0.9104
B( 16-C , 20-O ) :   0.8693 B( 16-C , 21-H ) :   0.9208 B( 17-C , 18-C ) :   0.9244
B( 17-C , 22-O ) :   0.8912 B( 17-C , 23-H ) :   0.9349 B( 18-C , 19-C ) :   0.9461
B( 18-C , 24-H ) :   0.9371 B( 18-C , 25-H ) :   0.9177 B( 19-C , 20-O ) :   0.8401
B( 19-C , 26-H ) :   0.9257 B( 19-C , 27-H ) :   0.9364 B( 22-O , 28-H ) :   0.7962

FINAL SINGLE POINT ENERGY      -652.862930564790

DIPOLE MOMENT
-------------
                                X             Y             Z
Electronic contribution:     -3.09152      -3.01596      -1.72998
Nuclear contribution   :      3.90352       3.65423       1.60751
                        -----------------------------------------
Total Dipole Moment    :      0.81200       0.63827      -0.12247
                        -----------------------------------------
Magnitude (a.u.)       :      1.04007
Magnitude (Debye)      :      2.64364

Rotational constants in cm-1:     0.055231     0.014706     0.014149
Rotational constants in MHz :  1655.792471   440.882717   424.183926

                             ****ORCA TERMINATED NORMALLY****
TOTAL RUN TIME: 0 days 0 hours 23 minutes 50 seconds 289 msec
