                         Program Version 4.2.0 -  RELEASE  -
|  1> # Test redundant internal optimization
|  2> #
|  3> ! RKS B3LYP  Opt TightSCF SmallPrint
|  4>
|  5> %basis
|  6>         Basis "6-31G"
|  7> end
|  8>
|  9> %geom
| 10> Constraints
| 11> { D 4  0  15  12  270.0   C } # D for Dihedral angle
| 12> { D 0  15  12  16  240.0   C } # D for Dihedral angle
| 13> { D 0  4  3  2   C } # D for Dihedral angle
| 14> { D 4  3  2  1   C } # D for Dihedral angle
| 15> { D 3  2  1  0   C } # D for Dihedral angle
| 16> { D 2  1  0  4   C } # D for Dihedral angle
| 17> { D 1  0  4  3   C } # D for Dihedral angle
| 18> { D 16  20  19  18   C } # D for Dihedral angle
| 19> { D 20  19  18  17   C } # D for Dihedral angle
| 20> { D 19  18  17  16   C } # D for Dihedral angle
| 21> { D 18  17  16  20   C } # D for Dihedral angle
| 22> { D 17  16  20  19   C } # D for Dihedral angle
| 23> { D 15  12  16  20   C } # D for Dihedral angle
| 24> end
| 25> end
| 26>
| 27>
| 28> #%pal
| 29> #nprocs 8
| 30> #end
| 31>
| 32> * xyz 0 1
| 33> C  -21.048   26.222   46.251
| 34> C  -20.361   27.558   45.944
| 35> C  -20.329   28.222   47.341
| 36> C  -20.110   27.022   48.296
| 37> O  -20.473   25.807   47.535
| 38> H  -20.833   25.428   45.533
| 39> H  -19.344   27.382   45.576
| 40> H  -20.898   28.157   45.201
| 41> H  -19.543   28.978   47.434
| 42> H  -21.289   28.710   47.548
| 43> H  -20.733   27.082   49.195
| 44> H  -19.064   26.913   48.597
| 45> C  -23.420   25.119   46.072
| 46> H  -22.741   24.293   45.824
| 47> H  -24.008   24.827   46.952
| 48> O  -22.586   26.394   46.375
| 49> C  -24.406   25.313   44.887
| 50> C  -25.291   24.078   44.692
| 51> C  -26.349   24.270   45.805
| 52> C  -26.534   25.807   45.852
| 53> O  -25.354   26.393   45.181
| 54> H  -23.845   25.613   44.000
| 55> H  -25.762   24.104   43.702
| 56> O  -24.512   22.741   44.827
| 57> H  -27.285   23.743   45.596
| 58> H  -25.961   23.898   46.761
| 59> H  -26.592   26.191   46.876
| 60> H  -27.417   26.138   45.298
| 61> H  -24.032   22.691   45.810
| 62> *
| 63>
| 64>                          ****END OF INPUT****
 Total Charge           Charge          ....    0
 Multiplicity           Mult            ....    1
 Number of Electrons    NEL             ....  102
FINAL SINGLE POINT ENERGY      -652.829433376522
FINAL SINGLE POINT ENERGY      -652.853281408622
FINAL SINGLE POINT ENERGY      -652.857951839356
FINAL SINGLE POINT ENERGY      -652.858813731808
FINAL SINGLE POINT ENERGY      -652.858963299938
FINAL SINGLE POINT ENERGY      -652.858992307699
FINAL SINGLE POINT ENERGY      -652.858996763324
                    ***********************HURRAY********************

CARTESIAN COORDINATES (ANGSTROEM)
---------------------------------
  C    -21.059572   26.148768   46.234168
  C    -20.506499   27.537948   45.913591
  C    -20.491194   28.203213   47.309816
  C    -20.137122   27.029577   48.250755
  O    -20.418945   25.791611   47.482493
  H    -20.809321   25.356731   45.521101
  H    -19.490215   27.439287   45.514623
  H    -21.127645   28.067878   45.189153
  H    -19.770281   29.023680   47.378473
  H    -21.486841   28.593933   47.538237
  H    -20.734606   27.020427   49.165968
  H    -19.074996   27.000404   48.513003
  C    -23.289973   25.081842   46.159245
  H    -22.647772   24.225515   45.912331
  H    -23.816441   24.861359   47.096217
  O    -22.488317   26.274391   46.378740
  C    -24.272166   25.313652   45.011665
  C    -25.196727   24.116198   44.738793
  C    -26.320749   24.330637   45.797218
  C    -26.440123   25.868967   45.858606
  O    -25.192264   26.417614   45.268729
  H    -23.702010   25.602768   44.123468
  H    -25.604439   24.196245   43.728902
  O    -24.557518   22.816098   44.772376
  H    -27.255259   23.840513   45.512009
  H    -26.001523   23.914333   46.761858
  H    -26.548239   26.247649   46.879401
  H    -27.271113   26.244552   45.254167
  H    -24.408129   22.528209   45.695895

 Multiplicity           Mult            ....    1
 Number of Electrons    NEL             ....  102
 Basis Dimension        Dim             ....  149

ORBITAL ENERGIES
----------------

  NO   OCC          E(Eh)            E(eV)
   0   2.0000     -19.151260      -521.1323
   1   2.0000     -19.139348      -520.8081
   2   2.0000     -19.136429      -520.7287
   3   2.0000     -19.133132      -520.6390
   4   2.0000     -10.275054      -279.5984
   5   2.0000     -10.245932      -278.8060
   6   2.0000     -10.229991      -278.3722
   7   2.0000     -10.229831      -278.3679
   8   2.0000     -10.229643      -278.3627
   9   2.0000     -10.219610      -278.0897
  10   2.0000     -10.196453      -277.4596
  11   2.0000     -10.179200      -276.9901
  12   2.0000     -10.179013      -276.9850
  13   2.0000      -1.049241       -28.5513
  14   2.0000      -1.033872       -28.1331
  15   2.0000      -1.015378       -27.6298
  16   2.0000      -0.989755       -26.9326
  17   2.0000      -0.785376       -21.3712
  18   2.0000      -0.780779       -21.2461
  19   2.0000      -0.765186       -20.8218
  20   2.0000      -0.727590       -19.7987
  21   2.0000      -0.678675       -18.4677
  22   2.0000      -0.612537       -16.6680
  23   2.0000      -0.594503       -16.1772
  24   2.0000      -0.590065       -16.0565
  25   2.0000      -0.574165       -15.6238
  26   2.0000      -0.530816       -14.4442
  27   2.0000      -0.510760       -13.8985
  28   2.0000      -0.495562       -13.4849
  29   2.0000      -0.488549       -13.2941
  30   2.0000      -0.465649       -12.6709
  31   2.0000      -0.451753       -12.2928
  32   2.0000      -0.441801       -12.0220
  33   2.0000      -0.436889       -11.8884
  34   2.0000      -0.428576       -11.6622
  35   2.0000      -0.415182       -11.2977
  36   2.0000      -0.408274       -11.1097
  37   2.0000      -0.396230       -10.7820
  38   2.0000      -0.378082       -10.2881
  39   2.0000      -0.362453        -9.8629
  40   2.0000      -0.356311        -9.6957
  41   2.0000      -0.350557        -9.5391
  42   2.0000      -0.342537        -9.3209
  43   2.0000      -0.331185        -9.0120
  44   2.0000      -0.318929        -8.6785
  45   2.0000      -0.314670        -8.5626
  46   2.0000      -0.296707        -8.0738
  47   2.0000      -0.272413        -7.4127
  48   2.0000      -0.267724        -7.2851
  49   2.0000      -0.249871        -6.7993
  50   2.0000      -0.234485        -6.3807
  51   0.0000       0.050268         1.3679
  52   0.0000       0.077465         2.1079
  53   0.0000       0.088433         2.4064
  54   0.0000       0.094322         2.5666
  55   0.0000       0.105292         2.8651

MULLIKEN ATOMIC CHARGES
-----------------------
   0 C :    0.275038
   1 C :   -0.256015
   2 C :   -0.299316
   3 C :   -0.000959
   4 O :   -0.510807
   5 H :    0.139947
   6 H :    0.141925
   7 H :    0.159191
   8 H :    0.138360
   9 H :    0.167420
  10 H :    0.145538
  11 H :    0.139513
  12 C :   -0.011669
  13 H :    0.136300
  14 H :    0.135923
  15 O :   -0.505931
  16 C :    0.097743
  17 C :    0.085590
  18 C :   -0.323728
  19 C :   -0.007073
  20 O :   -0.505354
  21 H :    0.151898
  22 H :    0.166295
  23 O :   -0.602043
  24 H :    0.157168
  25 H :    0.133968
  26 H :    0.145830
  27 H :    0.147666
  28 H :    0.357584
Sum of atomic charges:   -0.0000000

LOEWDIN ATOMIC CHARGES
----------------------
   0 C :    0.170980
   1 C :   -0.216351
   2 C :   -0.216049
   3 C :   -0.027557
   4 O :   -0.330861
   5 H :    0.095717
   6 H :    0.112305
   7 H :    0.125061
   8 H :    0.112177
   9 H :    0.121717
  10 H :    0.104687
  11 H :    0.100907
  12 C :   -0.046158
  13 H :    0.103483
  14 H :    0.100127
  15 O :   -0.314585
  16 C :    0.015349
  17 C :    0.033952
  18 C :   -0.240578
  19 C :   -0.028901
  20 O :   -0.314431
  21 H :    0.113905
  22 H :    0.119201
  23 O :   -0.409016
  24 H :    0.122452
  25 H :    0.104034
  26 H :    0.104106
  27 H :    0.105453
  28 H :    0.278874

  Mayer bond orders larger than 0.100000
B(  0-C ,  1-C ) :   0.9480 B(  0-C ,  4-O ) :   0.9125 B(  0-C ,  5-H ) :   0.9174
B(  0-C , 15-O ) :   0.8669 B(  1-C ,  2-C ) :   0.9583 B(  1-C ,  6-H ) :   0.9400
B(  1-C ,  7-H ) :   0.9358 B(  2-C ,  3-C ) :   0.9548 B(  2-C ,  8-H ) :   0.9454
B(  2-C ,  9-H ) :   0.9432 B(  3-C ,  4-O ) :   0.8398 B(  3-C , 10-H ) :   0.9359
B(  3-C , 11-H ) :   0.9403 B( 12-C , 13-H ) :   0.9049 B( 12-C , 14-H ) :   0.9316
B( 12-C , 15-O ) :   0.8463 B( 12-C , 16-C ) :   0.8980 B( 16-C , 17-C ) :   0.8704
B( 16-C , 20-O ) :   0.8699 B( 16-C , 21-H ) :   0.9330 B( 17-C , 18-C ) :   0.9237
B( 17-C , 22-H ) :   0.9331 B( 17-C , 23-O ) :   0.8953 B( 18-C , 19-C ) :   0.9378
B( 18-C , 24-H ) :   0.9420 B( 18-C , 25-H ) :   0.9410 B( 19-C , 20-O ) :   0.8513
B( 19-C , 26-H ) :   0.9318 B( 19-C , 27-H ) :   0.9378 B( 23-O , 28-H ) :   0.7978

FINAL SINGLE POINT ENERGY      -652.858997146269

DIPOLE MOMENT
-------------
                                X             Y             Z
Electronic contribution:     -0.36274      -2.25021      -1.76559
Nuclear contribution   :      0.01909       2.19928       2.14401
                        -----------------------------------------
Total Dipole Moment    :     -0.34364      -0.05093       0.37842
                        -----------------------------------------
Magnitude (a.u.)       :      0.51370
Magnitude (Debye)      :      1.30571

Rotational constants in cm-1:     0.057128     0.012008     0.011076
Rotational constants in MHz :  1712.653707   359.991126   332.053347

                             ****ORCA TERMINATED NORMALLY****
TOTAL RUN TIME: 0 days 0 hours 52 minutes 4 seconds 101 msec
