                         Program Version 4.2.1 -  RELEASE  -
|  1> # Test redundant internal optimization
|  2> #
|  3> ! RKS B3LYP  Opt TightSCF SmallPrint
|  4>
|  5> %basis
|  6>         Basis "6-31G"
|  7> end
|  8>
|  9> %geom
| 10> Constraints
| 11> { D 4  0  19  14  285.0   C } # D for Dihedral angle
| 12> { D 0  19  14  12  270.0   C } # D for Dihedral angle
| 13> { D 0  4  3  2   C } # D for Dihedral angle
| 14> { D 4  3  2  1   C } # D for Dihedral angle
| 15> { D 3  2  1  0   C } # D for Dihedral angle
| 16> { D 2  1  0  4   C } # D for Dihedral angle
| 17> { D 1  0  4  3   C } # D for Dihedral angle
| 18> { D 14  15  16  17   C } # D for Dihedral angle
| 19> { D 15  16  17  12   C } # D for Dihedral angle
| 20> { D 16  17  12  14   C } # D for Dihedral angle
| 21> { D 17  12  14  15   C } # D for Dihedral angle
| 22> { D 12  14  15  16   C } # D for Dihedral angle
| 23> end
| 24> end
| 25>
| 26>
| 27> #%pal
| 28> #nprocs 8
| 29> #end
| 30>
| 31> * xyz 0 1
| 32> C  -21.048   26.222   46.251
| 33> C  -20.361   27.558   45.944
| 34> C  -20.329   28.222   47.341
| 35> C  -20.110   27.022   48.296
| 36> O  -20.473   25.807   47.535
| 37> H  -20.833   25.428   45.533
| 38> H  -19.344   27.382   45.576
| 39> H  -20.898   28.157   45.201
| 40> H  -19.543   28.978   47.434
| 41> H  -21.289   28.710   47.548
| 42> H  -20.733   27.082   49.195
| 43> H  -19.064   26.913   48.597
| 44> C  -23.586   24.699   45.005
| 45> H  -24.378   23.934   45.026
| 46> C  -23.203   25.146   46.420
| 47> C  -22.287   23.988   46.878
| 48> C  -21.553   23.583   45.575
| 49> O  -22.347   24.137   44.456
| 50> H  -23.890   25.510   44.341
| 51> O  -22.472   26.381   46.366
| 52> H  -24.070   25.286   47.076
| 53> H  -21.594   24.282   47.673
| 54> H  -22.892   23.153   47.255
| 55> H  -21.475   22.497   45.456
| 56> H  -20.552   24.019   45.506
| 57> *
| 58>
| 59>                          ****END OF INPUT****
 Total Charge           Charge          ....    0
 Multiplicity           Mult            ....    1
 Number of Electrons    NEL             ....   86
FINAL SINGLE POINT ENERGY      -538.410245759995
FINAL SINGLE POINT ENERGY      -538.432909563359
FINAL SINGLE POINT ENERGY      -538.435502459104
FINAL SINGLE POINT ENERGY      -538.435957607984
FINAL SINGLE POINT ENERGY      -538.435999406672
FINAL SINGLE POINT ENERGY      -538.436010295517
                    ***********************HURRAY********************

CARTESIAN COORDINATES (ANGSTROEM)
---------------------------------
  C    -20.853066   26.316200   46.197577
  C    -20.395402   27.760578   45.981687
  C    -20.423172   28.320528   47.424076
  C    -19.988922   27.107058   48.277918
  O    -20.186667   25.911107   47.420797
  H    -20.549177   25.611165   45.422723
  H    -19.376447   27.758641   45.578299
  H    -21.051800   28.298464   45.295341
  H    -19.757812   29.178952   47.556121
  H    -21.441682   28.626176   47.678745
  H    -20.582087   26.992159   49.188993
  H    -18.926992   27.131082   48.540635
  C    -23.514425   24.702700   44.963615
  H    -24.432957   24.098807   45.003699
  C    -23.078259   25.123396   46.370077
  C    -22.396346   23.837436   46.880142
  C    -21.727172   23.255184   45.611802
  O    -22.390884   23.904767   44.453084
  H    -23.655000   25.549526   44.290869
  O    -22.287979   26.355794   46.336091
  H    -23.936661   25.394517   46.992022
  H    -21.680809   24.041667   47.678099
  H    -23.173715   23.163640   47.257172
  H    -21.857181   22.170009   45.528750
  H    -20.659386   23.486444   45.555665

 Multiplicity           Mult            ....    1
 Number of Electrons    NEL             ....   86
 Basis Dimension        Dim             ....  127

ORBITAL ENERGIES
----------------

  NO   OCC          E(Eh)            E(eV)
   0   2.0000     -19.140398      -520.8367
   1   2.0000     -19.139686      -520.8173
   2   2.0000     -19.130845      -520.5768
   3   2.0000     -10.274717      -279.5893
   4   2.0000     -10.237805      -278.5848
   5   2.0000     -10.224472      -278.2220
   6   2.0000     -10.220753      -278.1208
   7   2.0000     -10.218866      -278.0695
   8   2.0000     -10.182834      -277.0890
   9   2.0000     -10.181813      -277.0612
  10   2.0000     -10.181528      -277.0535
  11   2.0000      -1.050899       -28.5964
  12   2.0000      -1.012262       -27.5450
  13   2.0000      -0.987739       -26.8778
  14   2.0000      -0.790765       -21.5178
  15   2.0000      -0.772431       -21.0189
  16   2.0000      -0.742599       -20.2071
  17   2.0000      -0.717554       -19.5256
  18   2.0000      -0.614116       -16.7110
  19   2.0000      -0.599019       -16.3001
  20   2.0000      -0.594542       -16.1783
  21   2.0000      -0.565056       -15.3759
  22   2.0000      -0.521196       -14.1825
  23   2.0000      -0.497725       -13.5438
  24   2.0000      -0.480530       -13.0759
  25   2.0000      -0.476120       -12.9559
  26   2.0000      -0.449680       -12.2364
  27   2.0000      -0.446234       -12.1426
  28   2.0000      -0.416205       -11.3255
  29   2.0000      -0.412503       -11.2248
  30   2.0000      -0.405570       -11.0361
  31   2.0000      -0.392527       -10.6812
  32   2.0000      -0.369359       -10.0508
  33   2.0000      -0.365304        -9.9404
  34   2.0000      -0.355099        -9.6627
  35   2.0000      -0.353260        -9.6127
  36   2.0000      -0.341841        -9.3020
  37   2.0000      -0.322518        -8.7762
  38   2.0000      -0.307618        -8.3707
  39   2.0000      -0.290515        -7.9053
  40   2.0000      -0.266328        -7.2472
  41   2.0000      -0.252138        -6.8610
  42   2.0000      -0.234687        -6.3861
  43   0.0000       0.078164         2.1270
  44   0.0000       0.100728         2.7409
  45   0.0000       0.106136         2.8881
  46   0.0000       0.110769         3.0142
  47   0.0000       0.117681         3.2023

MULLIKEN ATOMIC CHARGES
-----------------------
   0 C :    0.282019
   1 C :   -0.257925
   2 C :   -0.296320
   3 C :   -0.004280
   4 O :   -0.517590
   5 H :    0.166483
   6 H :    0.144726
   7 H :    0.157607
   8 H :    0.138924
   9 H :    0.161610
  10 H :    0.144492
  11 H :    0.142889
  12 C :   -0.007396
  13 H :    0.124926
  14 C :    0.079604
  15 C :   -0.319339
  16 C :   -0.030834
  17 O :   -0.525870
  18 H :    0.162746
  19 O :   -0.528610
  20 H :    0.145664
  21 H :    0.193162
  22 H :    0.143928
  23 H :    0.142504
  24 H :    0.156879
Sum of atomic charges:   -0.0000000

LOEWDIN ATOMIC CHARGES
----------------------
   0 C :    0.170956
   1 C :   -0.212283
   2 C :   -0.215466
   3 C :   -0.028597
   4 O :   -0.332838
   5 H :    0.106928
   6 H :    0.113581
   7 H :    0.124652
   8 H :    0.112566
   9 H :    0.118971
  10 H :    0.103726
  11 H :    0.102543
  12 C :   -0.046775
  13 H :    0.092261
  14 C :    0.041531
  15 C :   -0.243663
  16 C :   -0.039360
  17 O :   -0.339279
  18 H :    0.118884
  19 O :   -0.322806
  20 H :    0.110534
  21 H :    0.141144
  22 H :    0.116723
  23 H :    0.101404
  24 H :    0.104664

  Mayer bond orders larger than 0.100000
B(  0-C ,  1-C ) :   0.9471 B(  0-C ,  4-O ) :   0.8866 B(  0-C ,  5-H ) :   0.9063
B(  0-C , 19-O ) :   0.8563 B(  1-C ,  2-C ) :   0.9564 B(  1-C ,  6-H ) :   0.9413
B(  1-C ,  7-H ) :   0.9370 B(  2-C ,  3-C ) :   0.9555 B(  2-C ,  8-H ) :   0.9456
B(  2-C ,  9-H ) :   0.9441 B(  3-C ,  4-O ) :   0.8351 B(  3-C , 10-H ) :   0.9362
B(  3-C , 11-H ) :   0.9404 B( 12-C , 13-H ) :   0.9131 B( 12-C , 14-C ) :   0.9166
B( 12-C , 17-O ) :   0.8638 B( 12-C , 18-H ) :   0.9326 B( 14-C , 15-C ) :   0.9401
B( 14-C , 19-O ) :   0.8613 B( 14-C , 20-H ) :   0.9360 B( 15-C , 16-C ) :   0.9462
B( 15-C , 21-H ) :   0.9138 B( 15-C , 22-H ) :   0.9359 B( 16-C , 17-O ) :   0.8479
B( 16-C , 23-H ) :   0.9355 B( 16-C , 24-H ) :   0.9282

FINAL SINGLE POINT ENERGY      -538.436010804461

DIPOLE MOMENT
-------------
                                X             Y             Z
Electronic contribution:     -0.86281      -1.46176      -1.79288
Nuclear contribution   :      0.78898       1.85322       2.47802
                        -----------------------------------------
Total Dipole Moment    :     -0.07383       0.39145       0.68514
                        -----------------------------------------
Magnitude (a.u.)       :      0.79253
Magnitude (Debye)      :      2.01445

Rotational constants in cm-1:     0.079132     0.023398     0.021835
Rotational constants in MHz :  2372.332149   701.459577   654.584080

                             ****ORCA TERMINATED NORMALLY****
TOTAL RUN TIME: 0 days 0 hours 7 minutes 41 seconds 704 msec
