                         Program Version 4.2.1 -  RELEASE  -
|  1> # Test redundant internal optimization
|  2> #
|  3> ! RKS B3LYP  Opt TightSCF SmallPrint
|  4>
|  5> %basis
|  6>         Basis "6-31G"
|  7> end
|  8>
|  9> %geom
| 10> Constraints
| 11> { D 4  0  19  14  150.0   C } # D for Dihedral angle
| 12> { D 0  19  14  12  45.0   C } # D for Dihedral angle
| 13> { D 0  4  3  2   C } # D for Dihedral angle
| 14> { D 4  3  2  1   C } # D for Dihedral angle
| 15> { D 3  2  1  0   C } # D for Dihedral angle
| 16> { D 2  1  0  4   C } # D for Dihedral angle
| 17> { D 1  0  4  3   C } # D for Dihedral angle
| 18> { D 14  15  16  17   C } # D for Dihedral angle
| 19> { D 15  16  17  12   C } # D for Dihedral angle
| 20> { D 16  17  12  14   C } # D for Dihedral angle
| 21> { D 17  12  14  15   C } # D for Dihedral angle
| 22> { D 12  14  15  16   C } # D for Dihedral angle
| 23> end
| 24> end
| 25>
| 26>
| 27> #%pal
| 28> #nprocs 8
| 29> #end
| 30>
| 31> * xyz 0 1
| 32> C  -21.048   26.222   46.251
| 33> C  -20.361   27.558   45.944
| 34> C  -20.329   28.222   47.341
| 35> C  -20.110   27.022   48.296
| 36> O  -20.473   25.807   47.535
| 37> H  -20.833   25.428   45.533
| 38> H  -19.344   27.382   45.576
| 39> H  -20.898   28.157   45.201
| 40> H  -19.543   28.978   47.434
| 41> H  -21.289   28.710   47.548
| 42> H  -20.733   27.082   49.195
| 43> H  -19.064   26.913   48.597
| 44> C  -22.444   27.212   44.078
| 45> H  -22.621   28.111   43.467
| 46> C  -23.030   27.370   45.486
| 47> C  -24.531   27.092   45.234
| 48> C  -24.508   26.010   44.126
| 49> O  -23.161   26.062   43.516
| 50> H  -21.381   26.968   44.056
| 51> O  -22.472   26.381   46.366
| 52> H  -22.848   28.360   45.919
| 53> H  -25.058   26.758   46.133
| 54> H  -25.028   28.002   44.875
| 55> H  -25.260   26.187   43.349
| 56> H  -24.642   25.000   44.525
| 57> *
| 58>
| 59>                          ****END OF INPUT****
 Total Charge           Charge          ....    0
 Multiplicity           Mult            ....    1
 Number of Electrons    NEL             ....   86
FINAL SINGLE POINT ENERGY      -538.405657572991
FINAL SINGLE POINT ENERGY      -538.421868463519
FINAL SINGLE POINT ENERGY      -538.423220935011
FINAL SINGLE POINT ENERGY      -538.423448364653
FINAL SINGLE POINT ENERGY      -538.423492407748
FINAL SINGLE POINT ENERGY      -538.423504159590
FINAL SINGLE POINT ENERGY      -538.423505264495
                    ***********************HURRAY********************

CARTESIAN COORDINATES (ANGSTROEM)
---------------------------------
  C    -20.973438   26.227082   46.261100
  C    -20.103044   27.459228   45.998661
  C    -20.187684   28.216057   47.355576
  C    -20.242927   27.055968   48.373606
  O    -20.635869   25.854674   47.605539
  H    -20.775023   25.363657   45.623871
  H    -19.076271   27.123520   45.811856
  H    -20.410204   28.078947   45.157110
  H    -19.330673   28.876237   47.518068
  H    -21.100248   28.819744   47.398328
  H    -20.973911   27.218192   49.170160
  H    -19.266960   26.839407   48.818495
  C    -22.644532   27.399337   43.907162
  H    -23.022122   28.295460   43.390804
  C    -23.072273   27.443583   45.374880
  C    -24.539820   26.982435   45.283400
  C    -24.520841   25.942529   44.138860
  O    -23.271204   26.183437   43.379864
  H    -21.577246   27.304438   43.715610
  O    -22.411707   26.490676   46.259325
  H    -22.977753   28.455973   45.792388
  H    -24.864986   26.563407   46.237484
  H    -25.180735   27.836866   45.035591
  H    -25.375360   26.046335   43.461411
  H    -24.474169   24.916812   44.511855

 Multiplicity           Mult            ....    1
 Number of Electrons    NEL             ....   86
 Basis Dimension        Dim             ....  127

ORBITAL ENERGIES
----------------

  NO   OCC          E(Eh)            E(eV)
   0   2.0000     -19.138274      -520.7789
   1   2.0000     -19.134582      -520.6784
   2   2.0000     -19.131781      -520.6022
   3   2.0000     -10.279343      -279.7152
   4   2.0000     -10.243508      -278.7400
   5   2.0000     -10.227983      -278.3176
   6   2.0000     -10.225659      -278.2543
   7   2.0000     -10.219984      -278.0999
   8   2.0000     -10.192021      -277.3390
   9   2.0000     -10.191850      -277.3343
  10   2.0000     -10.184794      -277.1423
  11   2.0000      -1.050994       -28.5990
  12   2.0000      -1.016093       -27.6493
  13   2.0000      -0.985554       -26.8183
  14   2.0000      -0.789795       -21.4914
  15   2.0000      -0.783398       -21.3173
  16   2.0000      -0.738797       -20.1037
  17   2.0000      -0.729320       -19.8458
  18   2.0000      -0.620469       -16.8838
  19   2.0000      -0.605777       -16.4840
  20   2.0000      -0.594849       -16.1867
  21   2.0000      -0.565016       -15.3749
  22   2.0000      -0.521175       -14.1819
  23   2.0000      -0.498468       -13.5640
  24   2.0000      -0.495074       -13.4717
  25   2.0000      -0.486952       -13.2506
  26   2.0000      -0.452598       -12.3158
  27   2.0000      -0.450495       -12.2586
  28   2.0000      -0.431218       -11.7340
  29   2.0000      -0.413300       -11.2465
  30   2.0000      -0.411084       -11.1862
  31   2.0000      -0.385543       -10.4912
  32   2.0000      -0.371247       -10.1021
  33   2.0000      -0.368185       -10.0188
  34   2.0000      -0.366060        -9.9610
  35   2.0000      -0.355589        -9.6761
  36   2.0000      -0.351712        -9.5706
  37   2.0000      -0.314696        -8.5633
  38   2.0000      -0.307658        -8.3718
  39   2.0000      -0.289759        -7.8847
  40   2.0000      -0.261534        -7.1167
  41   2.0000      -0.248121        -6.7517
  42   2.0000      -0.238346        -6.4857
  43   0.0000       0.071098         1.9347
  44   0.0000       0.093794         2.5523
  45   0.0000       0.097595         2.6557
  46   0.0000       0.101891         2.7726
  47   0.0000       0.110924         3.0184

MULLIKEN ATOMIC CHARGES
-----------------------
   0 C :    0.316998
   1 C :   -0.296307
   2 C :   -0.303320
   3 C :    0.001581
   4 O :   -0.497772
   5 H :    0.161409
   6 H :    0.153370
   7 H :    0.142080
   8 H :    0.144388
   9 H :    0.152690
  10 H :    0.151508
  11 H :    0.143166
  12 C :   -0.019778
  13 H :    0.126919
  14 C :    0.086908
  15 C :   -0.290640
  16 C :    0.000745
  17 O :   -0.525165
  18 H :    0.156625
  19 O :   -0.530095
  20 H :    0.120775
  21 H :    0.172440
  22 H :    0.138277
  23 H :    0.135031
  24 H :    0.158167
Sum of atomic charges:   -0.0000000

LOEWDIN ATOMIC CHARGES
----------------------
   0 C :    0.187100
   1 C :   -0.235834
   2 C :   -0.217314
   3 C :   -0.026760
   4 O :   -0.302849
   5 H :    0.108058
   6 H :    0.120196
   7 H :    0.112825
   8 H :    0.115460
   9 H :    0.111601
  10 H :    0.107651
  11 H :    0.103029
  12 C :   -0.054621
  13 H :    0.094422
  14 C :    0.040072
  15 C :   -0.221234
  16 C :   -0.027262
  17 O :   -0.333619
  18 H :    0.112794
  19 O :   -0.336574
  20 H :    0.090478
  21 H :    0.133306
  22 H :    0.109917
  23 H :    0.098337
  24 H :    0.110821

  Mayer bond orders larger than 0.100000
B(  0-C ,  1-C ) :   0.9299 B(  0-C ,  4-O ) :   0.9264 B(  0-C ,  5-H ) :   0.9231
B(  0-C , 19-O ) :   0.8346 B(  1-C ,  2-C ) :   0.9463 B(  1-C ,  6-H ) :   0.9345
B(  1-C ,  7-H ) :   0.9253 B(  2-C ,  3-C ) :   0.9536 B(  2-C ,  8-H ) :   0.9450
B(  2-C ,  9-H ) :   0.9448 B(  3-C ,  4-O ) :   0.8387 B(  3-C , 10-H ) :   0.9347
B(  3-C , 11-H ) :   0.9395 B( 12-C , 13-H ) :   0.9097 B( 12-C , 14-C ) :   0.9088
B( 12-C , 17-O ) :   0.8693 B( 12-C , 18-H ) :   0.9259 B( 14-C , 15-C ) :   0.9506
B( 14-C , 19-O ) :   0.8434 B( 14-C , 20-H ) :   0.9162 B( 15-C , 16-C ) :   0.9451
B( 15-C , 21-H ) :   0.9345 B( 15-C , 22-H ) :   0.9405 B( 16-C , 17-O ) :   0.8517
B( 16-C , 23-H ) :   0.9337 B( 16-C , 24-H ) :   0.9363

FINAL SINGLE POINT ENERGY      -538.423505443178

DIPOLE MOMENT
-------------
                                X             Y             Z
Electronic contribution:     -0.20068      -4.27195      -0.20079
Nuclear contribution   :      0.35837       5.72435       0.28967
                        -----------------------------------------
Total Dipole Moment    :      0.15769       1.45239       0.08889
                        -----------------------------------------
Magnitude (a.u.)       :      1.46363
Magnitude (Debye)      :      3.72025

Rotational constants in cm-1:     0.085133     0.021094     0.020239
Rotational constants in MHz :  2552.228459   632.379835   606.757365

                             ****ORCA TERMINATED NORMALLY****
TOTAL RUN TIME: 0 days 0 hours 16 minutes 43 seconds 951 msec
