                         Program Version 4.2.0 -  RELEASE  -
|  1> # Test redundant internal optimization
|  2> #
|  3> ! RKS B3LYP  Opt TightSCF SmallPrint
|  4>
|  5> %basis
|  6>         Basis "6-31G"
|  7> end
|  8>
|  9> %geom
| 10> Constraints
| 11> { D 4  0  15  12  225.0   C } # D for Dihedral angle
| 12> { D 0  15  12  16  270.0   C } # D for Dihedral angle
| 13> { D 0  4  3  2   C } # D for Dihedral angle
| 14> { D 4  3  2  1   C } # D for Dihedral angle
| 15> { D 3  2  1  0   C } # D for Dihedral angle
| 16> { D 2  1  0  4   C } # D for Dihedral angle
| 17> { D 1  0  4  3   C } # D for Dihedral angle
| 18> { D 16  20  19  18   C } # D for Dihedral angle
| 19> { D 20  19  18  17   C } # D for Dihedral angle
| 20> { D 19  18  17  16   C } # D for Dihedral angle
| 21> { D 18  17  16  20   C } # D for Dihedral angle
| 22> { D 17  16  20  19   C } # D for Dihedral angle
| 23> { D 15  12  16  20   C } # D for Dihedral angle
| 24> end
| 25> end
| 26>
| 27>
| 28> #%pal
| 29> #nprocs 8
| 30> #end
| 31>
| 32> * xyz 0 1
| 33> C  -21.048   26.222   46.251
| 34> C  -20.361   27.558   45.944
| 35> C  -20.329   28.222   47.341
| 36> C  -20.110   27.022   48.296
| 37> O  -20.473   25.807   47.535
| 38> H  -20.833   25.428   45.533
| 39> H  -19.344   27.382   45.576
| 40> H  -20.898   28.157   45.201
| 41> H  -19.543   28.978   47.434
| 42> H  -21.289   28.710   47.548
| 43> H  -20.733   27.082   49.195
| 44> H  -19.064   26.913   48.597
| 45> C  -23.415   25.773   45.218
| 46> H  -22.885   24.898   44.822
| 47> H  -24.397   25.443   45.583
| 48> O  -22.586   26.394   46.375
| 49> C  -23.656   26.769   44.050
| 50> C  -24.572   26.162   42.981
| 51> C  -25.967   26.342   43.626
| 52> C  -25.835   27.688   44.381
| 53> O  -24.387   27.949   44.524
| 54> H  -22.692   27.118   43.673
| 55> O  -24.468   26.978   41.664
| 56> H  -24.339   25.115   42.758
| 57> H  -26.777   26.355   42.889
| 58> H  -26.166   25.523   44.328
| 59> H  -26.294   27.658   45.376
| 60> H  -26.260   28.525   43.820
| 61> H  -24.698   28.031   41.863
| 62> *
| 63>
| 64>                          ****END OF INPUT****
 Total Charge           Charge          ....    0
 Multiplicity           Mult            ....    1
 Number of Electrons    NEL             ....  102
FINAL SINGLE POINT ENERGY      -652.831741375360
FINAL SINGLE POINT ENERGY      -652.854477219353
FINAL SINGLE POINT ENERGY      -652.858310606496
FINAL SINGLE POINT ENERGY      -652.859003412741
FINAL SINGLE POINT ENERGY      -652.859088163788
FINAL SINGLE POINT ENERGY      -652.859096878688
FINAL SINGLE POINT ENERGY      -652.859098340170
                    ***********************HURRAY********************

CARTESIAN COORDINATES (ANGSTROEM)
---------------------------------
  C    -21.064067   26.208920   46.158044
  C    -20.427253   27.571539   45.889286
  C    -20.450276   28.218664   47.295200
  C    -20.204205   27.016304   48.231567
  O    -20.510228   25.807345   47.423081
  H    -20.826241   25.422585   45.433235
  H    -19.396567   27.430696   45.541016
  H    -20.977084   28.153172   45.145961
  H    -19.695262   29.001795   47.411347
  H    -21.437194   28.653767   47.477868
  H    -20.849776   27.017569   49.113013
  H    -19.159833   26.926445   48.545320
  C    -23.332894   25.772439   45.248280
  H    -22.857180   24.868513   44.834184
  H    -24.260267   25.474910   45.746245
  O    -22.505535   26.342371   46.291250
  C    -23.628259   26.756306   44.110847
  C    -24.554929   26.179525   43.029962
  C    -25.953869   26.389532   43.669338
  C    -25.790590   27.726531   44.434861
  O    -24.332838   27.948521   44.587835
  H    -22.689590   27.106757   43.670027
  O    -24.415928   26.913733   41.782556
  H    -24.348169   25.138908   42.775326
  H    -26.727413   26.428173   42.898384
  H    -26.187450   25.565041   44.351821
  H    -26.253120   27.707249   45.425920
  H    -26.190822   28.580531   43.879525
  H    -24.392161   27.874158   41.980702

 Multiplicity           Mult            ....    1
 Number of Electrons    NEL             ....  102
 Basis Dimension        Dim             ....  149

ORBITAL ENERGIES
----------------

  NO   OCC          E(Eh)            E(eV)
   0   2.0000     -19.144314      -520.9433
   1   2.0000     -19.142632      -520.8975
   2   2.0000     -19.138674      -520.7898
   3   2.0000     -19.135488      -520.7031
   4   2.0000     -10.277254      -279.6583
   5   2.0000     -10.247262      -278.8422
   6   2.0000     -10.237441      -278.5749
   7   2.0000     -10.235507      -278.5223
   8   2.0000     -10.233645      -278.4716
   9   2.0000     -10.220118      -278.1035
  10   2.0000     -10.193648      -277.3833
  11   2.0000     -10.181018      -277.0396
  12   2.0000     -10.180125      -277.0153
  13   2.0000      -1.050705       -28.5911
  14   2.0000      -1.039393       -28.2833
  15   2.0000      -1.009927       -27.4815
  16   2.0000      -0.991870       -26.9902
  17   2.0000      -0.788819       -21.4649
  18   2.0000      -0.780624       -21.2419
  19   2.0000      -0.768658       -20.9163
  20   2.0000      -0.731164       -19.8960
  21   2.0000      -0.675587       -18.3837
  22   2.0000      -0.608640       -16.5619
  23   2.0000      -0.601291       -16.3620
  24   2.0000      -0.593824       -16.1588
  25   2.0000      -0.579434       -15.7672
  26   2.0000      -0.526825       -14.3356
  27   2.0000      -0.514423       -13.9982
  28   2.0000      -0.494543       -13.4572
  29   2.0000      -0.489772       -13.3274
  30   2.0000      -0.472895       -12.8681
  31   2.0000      -0.455844       -12.4042
  32   2.0000      -0.451677       -12.2907
  33   2.0000      -0.447513       -12.1775
  34   2.0000      -0.425328       -11.5738
  35   2.0000      -0.413637       -11.2556
  36   2.0000      -0.399186       -10.8624
  37   2.0000      -0.395491       -10.7619
  38   2.0000      -0.376612       -10.2481
  39   2.0000      -0.367214        -9.9924
  40   2.0000      -0.363323        -9.8865
  41   2.0000      -0.352608        -9.5949
  42   2.0000      -0.348446        -9.4817
  43   2.0000      -0.334907        -9.1133
  44   2.0000      -0.314001        -8.5444
  45   2.0000      -0.310164        -8.4400
  46   2.0000      -0.302241        -8.2244
  47   2.0000      -0.275115        -7.4863
  48   2.0000      -0.267210        -7.2711
  49   2.0000      -0.253492        -6.8979
  50   2.0000      -0.236501        -6.4355
  51   0.0000       0.062960         1.7132
  52   0.0000       0.081913         2.2290
  53   0.0000       0.086989         2.3671
  54   0.0000       0.089244         2.4285
  55   0.0000       0.102221         2.7816

MULLIKEN ATOMIC CHARGES
-----------------------
   0 C :    0.282224
   1 C :   -0.258787
   2 C :   -0.301390
   3 C :   -0.000905
   4 O :   -0.502606
   5 H :    0.135504
   6 H :    0.139682
   7 H :    0.155660
   8 H :    0.139530
   9 H :    0.170754
  10 H :    0.152303
  11 H :    0.139119
  12 C :   -0.007248
  13 H :    0.121612
  14 H :    0.152200
  15 O :   -0.497547
  16 C :    0.062252
  17 C :    0.075777
  18 C :   -0.296054
  19 C :   -0.030292
  20 O :   -0.512580
  21 H :    0.155326
  22 O :   -0.600018
  23 H :    0.151529
  24 H :    0.165189
  25 H :    0.144954
  26 H :    0.153202
  27 H :    0.146305
  28 H :    0.364303
Sum of atomic charges:   -0.0000000

LOEWDIN ATOMIC CHARGES
----------------------
   0 C :    0.175893
   1 C :   -0.225159
   2 C :   -0.216391
   3 C :   -0.025849
   4 O :   -0.311723
   5 H :    0.095026
   6 H :    0.110935
   7 H :    0.119955
   8 H :    0.113293
   9 H :    0.123587
  10 H :    0.108317
  11 H :    0.100933
  12 C :   -0.038273
  13 H :    0.094244
  14 H :    0.112366
  15 O :   -0.319312
  16 C :    0.003134
  17 C :    0.034318
  18 C :   -0.241000
  19 C :   -0.037750
  20 O :   -0.324025
  21 H :    0.111129
  22 O :   -0.413443
  23 H :    0.115096
  24 H :    0.127808
  25 H :    0.113580
  26 H :    0.107711
  27 H :    0.102635
  28 H :    0.282964

  Mayer bond orders larger than 0.100000
B(  0-C ,  1-C ) :   0.9373 B(  0-C ,  4-O ) :   0.9349 B(  0-C ,  5-H ) :   0.9162
B(  0-C , 15-O ) :   0.8404 B(  1-C ,  2-C ) :   0.9560 B(  1-C ,  6-H ) :   0.9354
B(  1-C ,  7-H ) :   0.9330 B(  2-C ,  3-C ) :   0.9549 B(  2-C ,  8-H ) :   0.9452
B(  2-C ,  9-H ) :   0.9416 B(  3-C ,  4-O ) :   0.8361 B(  3-C , 10-H ) :   0.9349
B(  3-C , 11-H ) :   0.9398 B( 12-C , 13-H ) :   0.9107 B( 12-C , 14-H ) :   0.9371
B( 12-C , 15-O ) :   0.8718 B( 12-C , 16-C ) :   0.8762 B( 16-C , 17-C ) :   0.8978
B( 16-C , 20-O ) :   0.8642 B( 16-C , 21-H ) :   0.9244 B( 17-C , 18-C ) :   0.9117
B( 17-C , 22-O ) :   0.8913 B( 17-C , 23-H ) :   0.9329 B( 18-C , 19-C ) :   0.9413
B( 18-C , 24-H ) :   0.9369 B( 18-C , 25-H ) :   0.9337 B( 19-C , 20-O ) :   0.8468
B( 19-C , 26-H ) :   0.9334 B( 19-C , 27-H ) :   0.9378 B( 22-O , 28-H ) :   0.7947

FINAL SINGLE POINT ENERGY      -652.859098134825

DIPOLE MOMENT
-------------
                                X             Y             Z
Electronic contribution:      0.01414      -1.52300      -0.77642
Nuclear contribution   :     -0.32851       1.80963       0.56998
                        -----------------------------------------
Total Dipole Moment    :     -0.31437       0.28663      -0.20644
                        -----------------------------------------
Magnitude (a.u.)       :      0.47287
Magnitude (Debye)      :      1.20193

Rotational constants in cm-1:     0.063293     0.011768     0.011690
Rotational constants in MHz :  1897.464881   352.798619   350.448813

                             ****ORCA TERMINATED NORMALLY****
TOTAL RUN TIME: 0 days 0 hours 20 minutes 54 seconds 407 msec
