                         Program Version 4.2.0 -  RELEASE  -
|  1> # Test redundant internal optimization
|  2> #
|  3> ! RKS B3LYP  Opt TightSCF SmallPrint
|  4>
|  5> %basis
|  6>         Basis "6-31G"
|  7> end
|  8>
|  9> %geom
| 10> Constraints
| 11> { D 4  0  15  12  90.0   C } # D for Dihedral angle
| 12> { D 0  15  12  16  210.0   C } # D for Dihedral angle
| 13> { D 0  4  3  2   C } # D for Dihedral angle
| 14> { D 4  3  2  1   C } # D for Dihedral angle
| 15> { D 3  2  1  0   C } # D for Dihedral angle
| 16> { D 2  1  0  4   C } # D for Dihedral angle
| 17> { D 1  0  4  3   C } # D for Dihedral angle
| 18> { D 16  20  19  18   C } # D for Dihedral angle
| 19> { D 20  19  18  17   C } # D for Dihedral angle
| 20> { D 19  18  17  16   C } # D for Dihedral angle
| 21> { D 18  17  16  20   C } # D for Dihedral angle
| 22> { D 17  16  20  19   C } # D for Dihedral angle
| 23> { D 15  12  16  20   C } # D for Dihedral angle
| 24> end
| 25> end
| 26>
| 27>
| 28> #%pal
| 29> #nprocs 8
| 30> #end
| 31>
| 32> * xyz 0 1
| 33> C  -21.048   26.222   46.251
| 34> C  -20.361   27.558   45.944
| 35> C  -20.329   28.222   47.341
| 36> C  -20.110   27.022   48.296
| 37> O  -20.473   25.807   47.535
| 38> H  -20.833   25.428   45.533
| 39> H  -19.344   27.382   45.576
| 40> H  -20.898   28.157   45.201
| 41> H  -19.543   28.978   47.434
| 42> H  -21.289   28.710   47.548
| 43> H  -20.733   27.082   49.195
| 44> H  -19.064   26.913   48.597
| 45> C  -23.061   27.816   46.783
| 46> H  -22.289   28.291   47.402
| 47> H  -23.218   28.438   45.893
| 48> O  -22.586   26.394   46.375
| 49> C  -24.390   27.797   47.588
| 50> C  -24.888   29.218   47.873
| 51> C  -25.533   29.601   46.521
| 52> C  -26.135   28.262   46.026
| 53> O  -25.463   27.191   46.792
| 54> H  -24.261   27.176   48.477
| 55> H  -25.640   29.201   48.670
| 56> O  -23.751   30.189   48.295
| 57> H  -26.289   30.388   46.618
| 58> H  -24.765   29.960   45.825
| 59> H  -25.966   28.097   44.956
| 60> H  -27.206   28.184   46.233
| 61> H  -22.986   30.224   47.513
| 62> *
| 63>
| 64>                          ****END OF INPUT****
 Total Charge           Charge          ....    0
 Multiplicity           Mult            ....    1
 Number of Electrons    NEL             ....  102
FINAL SINGLE POINT ENERGY      -652.782557166778
FINAL SINGLE POINT ENERGY      -652.821725536036
FINAL SINGLE POINT ENERGY      -652.841790819386
FINAL SINGLE POINT ENERGY      -652.845969065738
FINAL SINGLE POINT ENERGY      -652.846632013456
FINAL SINGLE POINT ENERGY      -652.846862306933
FINAL SINGLE POINT ENERGY      -652.846902061862
FINAL SINGLE POINT ENERGY      -652.846910901548
FINAL SINGLE POINT ENERGY      -652.846910935291
                    ***********************HURRAY********************

CARTESIAN COORDINATES (ANGSTROEM)
---------------------------------
  C    -21.182363   26.353349   46.401076
  C    -20.161904   27.405538   45.939828
  C    -19.799787   28.118402   47.278265
  C    -19.858922   26.953257   48.300458
  O    -20.637241   25.872495   47.652337
  H    -21.204567   25.475387   45.753353
  H    -19.288646   26.885344   45.534233
  H    -20.552072   28.081724   45.173508
  H    -18.805600   28.575703   47.244897
  H    -20.513488   28.909322   47.518834
  H    -20.343937   27.231426   49.240994
  H    -18.867728   26.545284   48.518716
  C    -23.066162   28.025112   46.796171
  H    -22.416953   28.541650   47.510493
  H    -23.139880   28.630289   45.880363
  O    -22.578431   26.700437   46.457849
  C    -24.426952   27.851527   47.470964
  C    -25.100046   29.177796   47.862297
  C    -25.791015   29.592781   46.528957
  C    -26.217236   28.233083   45.931681
  O    -25.414396   27.194067   46.622126
  H    -24.284037   27.187630   48.328128
  H    -25.844873   28.990011   48.638419
  O    -24.214757   30.176915   48.430365
  H    -26.633545   30.270599   46.690945
  H    -25.063432   30.104126   45.883868
  H    -26.038410   28.165983   44.853476
  H    -27.270113   28.007852   46.128106
  H    -23.735505   30.650912   47.720294

 Multiplicity           Mult            ....    1
 Number of Electrons    NEL             ....  102
 Basis Dimension        Dim             ....  149

ORBITAL ENERGIES
----------------

  NO   OCC          E(Eh)            E(eV)
   0   2.0000     -19.153095      -521.1822
   1   2.0000     -19.138663      -520.7895
   2   2.0000     -19.136190      -520.7222
   3   2.0000     -19.134701      -520.6817
   4   2.0000     -10.275176      -279.6017
   5   2.0000     -10.246329      -278.8168
   6   2.0000     -10.232125      -278.4303
   7   2.0000     -10.230220      -278.3784
   8   2.0000     -10.228979      -278.3447
   9   2.0000     -10.226424      -278.2751
  10   2.0000     -10.198217      -277.5076
  11   2.0000     -10.194259      -277.3999
  12   2.0000     -10.193333      -277.3747
  13   2.0000      -1.047615       -28.5071
  14   2.0000      -1.034772       -28.1576
  15   2.0000      -1.015496       -27.6330
  16   2.0000      -0.992521       -27.0079
  17   2.0000      -0.788396       -21.4533
  18   2.0000      -0.784296       -21.3418
  19   2.0000      -0.772155       -21.0114
  20   2.0000      -0.731506       -19.9053
  21   2.0000      -0.684505       -18.6263
  22   2.0000      -0.613270       -16.6879
  23   2.0000      -0.604972       -16.4621
  24   2.0000      -0.596344       -16.2273
  25   2.0000      -0.570147       -15.5145
  26   2.0000      -0.524762       -14.2795
  27   2.0000      -0.513199       -13.9648
  28   2.0000      -0.502244       -13.6668
  29   2.0000      -0.494692       -13.4613
  30   2.0000      -0.469937       -12.7876
  31   2.0000      -0.460240       -12.5238
  32   2.0000      -0.439950       -11.9717
  33   2.0000      -0.435846       -11.8600
  34   2.0000      -0.427968       -11.6456
  35   2.0000      -0.419271       -11.4090
  36   2.0000      -0.416233       -11.3263
  37   2.0000      -0.402347       -10.9484
  38   2.0000      -0.382697       -10.4137
  39   2.0000      -0.378459       -10.2984
  40   2.0000      -0.361186        -9.8284
  41   2.0000      -0.355912        -9.6848
  42   2.0000      -0.347445        -9.4545
  43   2.0000      -0.329435        -8.9644
  44   2.0000      -0.318002        -8.6533
  45   2.0000      -0.311438        -8.4746
  46   2.0000      -0.289827        -7.8866
  47   2.0000      -0.272867        -7.4251
  48   2.0000      -0.267038        -7.2665
  49   2.0000      -0.249614        -6.7923
  50   2.0000      -0.238650        -6.4940
  51   0.0000       0.044537         1.2119
  52   0.0000       0.069170         1.8822
  53   0.0000       0.083721         2.2782
  54   0.0000       0.091647         2.4938
  55   0.0000       0.098829         2.6893

MULLIKEN ATOMIC CHARGES
-----------------------
   0 C :    0.303110
   1 C :   -0.289102
   2 C :   -0.312358
   3 C :   -0.007693
   4 O :   -0.498654
   5 H :    0.167584
   6 H :    0.159075
   7 H :    0.144114
   8 H :    0.144247
   9 H :    0.143923
  10 H :    0.147369
  11 H :    0.146375
  12 C :   -0.022935
  13 H :    0.139377
  14 H :    0.117506
  15 O :   -0.506859
  16 C :    0.100853
  17 C :    0.080945
  18 C :   -0.333062
  19 C :   -0.012027
  20 O :   -0.499470
  21 H :    0.171635
  22 H :    0.170807
  23 O :   -0.599866
  24 H :    0.160919
  25 H :    0.131534
  26 H :    0.148139
  27 H :    0.150793
  28 H :    0.353719
Sum of atomic charges:   -0.0000000

LOEWDIN ATOMIC CHARGES
----------------------
   0 C :    0.174374
   1 C :   -0.230713
   2 C :   -0.223572
   3 C :   -0.033307
   4 O :   -0.319651
   5 H :    0.112963
   6 H :    0.124151
   7 H :    0.115310
   8 H :    0.115030
   9 H :    0.105625
  10 H :    0.104361
  11 H :    0.104263
  12 C :   -0.052946
  13 H :    0.100601
  14 H :    0.088185
  15 O :   -0.305771
  16 C :    0.022378
  17 C :    0.033689
  18 C :   -0.243665
  19 C :   -0.030735
  20 O :   -0.308758
  21 H :    0.124118
  22 H :    0.120671
  23 O :   -0.409511
  24 H :    0.123107
  25 H :    0.102573
  26 H :    0.104337
  27 H :    0.106442
  28 H :    0.276450

  Mayer bond orders larger than 0.100000
B(  0-C ,  1-C ) :   0.9197 B(  0-C ,  4-O ) :   0.8985 B(  0-C ,  5-H ) :   0.9353
B(  0-C , 15-O ) :   0.9131 B(  1-C ,  2-C ) :   0.9536 B(  1-C ,  6-H ) :   0.9355
B(  1-C ,  7-H ) :   0.9367 B(  2-C ,  3-C ) :   0.9465 B(  2-C ,  8-H ) :   0.9450
B(  2-C ,  9-H ) :   0.9387 B(  3-C ,  4-O ) :   0.8514 B(  3-C , 10-H ) :   0.9337
B(  3-C , 11-H ) :   0.9388 B( 12-C , 13-H ) :   0.8868 B( 12-C , 14-H ) :   0.9235
B( 12-C , 15-O ) :   0.8443 B( 12-C , 16-C ) :   0.9042 B( 16-C , 17-C ) :   0.8700
B( 16-C , 20-O ) :   0.8760 B( 16-C , 21-H ) :   0.9271 B( 17-C , 18-C ) :   0.9278
B( 17-C , 22-H ) :   0.9322 B( 17-C , 23-O ) :   0.8910 B( 18-C , 19-C ) :   0.9396
B( 18-C , 24-H ) :   0.9403 B( 18-C , 25-H ) :   0.9399 B( 19-C , 20-O ) :   0.8526
B( 19-C , 26-H ) :   0.9304 B( 19-C , 27-H ) :   0.9372 B( 23-O , 28-H ) :   0.8004

FINAL SINGLE POINT ENERGY      -652.846900027319

DIPOLE MOMENT
-------------
                                X             Y             Z
Electronic contribution:     -2.63800      -4.73991       1.41513
Nuclear contribution   :      3.15509       6.52844      -2.18512
                        -----------------------------------------
Total Dipole Moment    :      0.51708       1.78852      -0.76999
                        -----------------------------------------
Magnitude (a.u.)       :      2.01472
Magnitude (Debye)      :      5.12100

Rotational constants in cm-1:     0.050652     0.013773     0.012364
Rotational constants in MHz :  1518.523047   412.907278   370.673590

                             ****ORCA TERMINATED NORMALLY****
TOTAL RUN TIME: 0 days 0 hours 29 minutes 22 seconds 623 msec
