                         Program Version 4.2.0 -  RELEASE  -
|  1> # Test redundant internal optimization
|  2> #
|  3> ! RKS B3LYP  Opt TightSCF SmallPrint
|  4>
|  5> %basis
|  6>         Basis "6-31G"
|  7> end
|  8>
|  9> %geom
| 10> Constraints
| 11> { D 4  0  15  12  60.0   C } # D for Dihedral angle
| 12> { D 0  15  12  16  150.0   C } # D for Dihedral angle
| 13> { D 0  4  3  2   C } # D for Dihedral angle
| 14> { D 4  3  2  1   C } # D for Dihedral angle
| 15> { D 3  2  1  0   C } # D for Dihedral angle
| 16> { D 2  1  0  4   C } # D for Dihedral angle
| 17> { D 1  0  4  3   C } # D for Dihedral angle
| 18> { D 16  20  19  18   C } # D for Dihedral angle
| 19> { D 20  19  18  17   C } # D for Dihedral angle
| 20> { D 19  18  17  16   C } # D for Dihedral angle
| 21> { D 18  17  16  20   C } # D for Dihedral angle
| 22> { D 17  16  20  19   C } # D for Dihedral angle
| 23> { D 15  12  16  20   C } # D for Dihedral angle
| 24> end
| 25> end
| 26>
| 27>
| 28> #%pal
| 29> #nprocs 8
| 30> #end
| 31>
| 32> * xyz 0 1
| 33> C  -21.048   26.222   46.251
| 34> C  -20.361   27.558   45.944
| 35> C  -20.329   28.222   47.341
| 36> C  -20.110   27.022   48.296
| 37> O  -20.473   25.807   47.535
| 38> H  -20.833   25.428   45.533
| 39> H  -19.344   27.382   45.576
| 40> H  -20.898   28.157   45.201
| 41> H  -19.543   28.978   47.434
| 42> H  -21.289   28.710   47.548
| 43> H  -20.733   27.082   49.195
| 44> H  -19.064   26.913   48.597
| 45> C  -23.051   27.452   47.413
| 46> H  -23.173   26.969   48.391
| 47> H  -22.300   28.246   47.514
| 48> O  -22.586   26.394   46.375
| 49> C  -24.399   28.121   47.027
| 50> C  -25.546   27.104   47.029
| 51> C  -25.859   26.988   48.540
| 52> C  -25.611   28.426   49.062
| 53> O  -24.789   29.108   48.039
| 54> H  -24.274   28.660   46.086
| 55> O  -26.766   27.676   46.258
| 56> H  -25.272   26.145   46.577
| 57> H  -26.879   26.643   48.736
| 58> H  -25.169   26.280   49.014
| 59> H  -25.077   28.438   50.017
| 60> H  -26.537   28.997   49.166
| 61> H  -27.060   28.639   46.694
| 62> *
| 63>
| 64>                          ****END OF INPUT****
 Total Charge           Charge          ....    0
 Multiplicity           Mult            ....    1
 Number of Electrons    NEL             ....  102
FINAL SINGLE POINT ENERGY      -652.798472051503
FINAL SINGLE POINT ENERGY      -652.835505893103
FINAL SINGLE POINT ENERGY      -652.854795394557
FINAL SINGLE POINT ENERGY      -652.858017854425
FINAL SINGLE POINT ENERGY      -652.858436052351
FINAL SINGLE POINT ENERGY      -652.858523541013
FINAL SINGLE POINT ENERGY      -652.858537050077
FINAL SINGLE POINT ENERGY      -652.858538744472
FINAL SINGLE POINT ENERGY      -652.858537544262
                    ***********************HURRAY********************

CARTESIAN COORDINATES (ANGSTROEM)
---------------------------------
  C    -21.250211   26.395039   46.433446
  C    -20.383846   27.550901   45.909170
  C    -19.900252   28.221725   47.230893
  C    -19.732476   27.006467   48.178655
  O    -20.507794   25.897417   47.570770
  H    -21.304993   25.564001   45.727926
  H    -19.537575   27.127519   45.358378
  H    -20.933672   28.227202   45.249628
  H    -18.955565   28.759132   47.098515
  H    -20.632177   28.940087   47.606312
  H    -20.108093   27.191622   49.189544
  H    -18.693538   26.669597   48.240340
  C    -23.128548   27.587257   47.681120
  H    -23.241323   27.073733   48.643683
  H    -22.458099   28.437400   47.822285
  O    -22.647285   26.642829   46.681826
  C    -24.464701   28.124123   47.168713
  C    -25.572078   27.071938   47.015913
  C    -26.067133   26.925873   48.476862
  C    -25.932459   28.361267   49.043470
  O    -25.007095   29.086817   48.135009
  H    -24.304159   28.660526   46.229516
  O    -26.624798   27.554968   46.134293
  H    -25.216544   26.142859   46.574579
  H    -27.094051   26.553239   48.501053
  H    -25.432906   26.219708   49.023474
  H    -25.522832   28.383406   50.057973
  H    -26.880947   28.907139   49.037807
  H    -26.837852   28.483209   46.367846

 Multiplicity           Mult            ....    1
 Number of Electrons    NEL             ....  102
 Basis Dimension        Dim             ....  149

ORBITAL ENERGIES
----------------

  NO   OCC          E(Eh)            E(eV)
   0   2.0000     -19.147003      -521.0164
   1   2.0000     -19.145190      -520.9671
   2   2.0000     -19.144613      -520.9514
   3   2.0000     -19.133581      -520.6512
   4   2.0000     -10.281244      -279.7669
   5   2.0000     -10.233485      -278.4673
   6   2.0000     -10.232679      -278.4454
   7   2.0000     -10.232368      -278.4369
   8   2.0000     -10.232310      -278.4353
   9   2.0000     -10.231622      -278.4166
  10   2.0000     -10.195777      -277.4412
  11   2.0000     -10.192874      -277.3622
  12   2.0000     -10.185998      -277.1751
  13   2.0000      -1.054352       -28.6904
  14   2.0000      -1.035142       -28.1676
  15   2.0000      -1.003230       -27.2993
  16   2.0000      -0.998657       -27.1748
  17   2.0000      -0.791036       -21.5252
  18   2.0000      -0.781811       -21.2741
  19   2.0000      -0.770700       -20.9718
  20   2.0000      -0.733378       -19.9562
  21   2.0000      -0.679126       -18.4800
  22   2.0000      -0.607355       -16.5270
  23   2.0000      -0.603532       -16.4229
  24   2.0000      -0.597226       -16.2513
  25   2.0000      -0.575567       -15.6620
  26   2.0000      -0.524912       -14.2836
  27   2.0000      -0.513501       -13.9731
  28   2.0000      -0.504497       -13.7281
  29   2.0000      -0.489713       -13.3258
  30   2.0000      -0.472941       -12.8694
  31   2.0000      -0.460528       -12.5316
  32   2.0000      -0.447481       -12.1766
  33   2.0000      -0.439591       -11.9619
  34   2.0000      -0.425372       -11.5750
  35   2.0000      -0.417342       -11.3565
  36   2.0000      -0.408943       -11.1279
  37   2.0000      -0.391275       -10.6471
  38   2.0000      -0.384150       -10.4533
  39   2.0000      -0.366939        -9.9849
  40   2.0000      -0.362851        -9.8737
  41   2.0000      -0.359041        -9.7700
  42   2.0000      -0.351046        -9.5524
  43   2.0000      -0.330021        -8.9803
  44   2.0000      -0.319544        -8.6952
  45   2.0000      -0.313142        -8.5210
  46   2.0000      -0.302305        -8.2261
  47   2.0000      -0.271487        -7.3875
  48   2.0000      -0.266821        -7.2606
  49   2.0000      -0.256077        -6.9682
  50   2.0000      -0.244806        -6.6615
  51   0.0000       0.064473         1.7544
  52   0.0000       0.067805         1.8451
  53   0.0000       0.091677         2.4947
  54   0.0000       0.096648         2.6299
  55   0.0000       0.102811         2.7976

MULLIKEN ATOMIC CHARGES
-----------------------
   0 C :    0.302774
   1 C :   -0.273383
   2 C :   -0.320243
   3 C :   -0.012422
   4 O :   -0.506442
   5 H :    0.167781
   6 H :    0.156831
   7 H :    0.151850
   8 H :    0.146855
   9 H :    0.155279
  10 H :    0.145724
  11 H :    0.150321
  12 C :   -0.013932
  13 H :    0.143041
  14 H :    0.144499
  15 O :   -0.530441
  16 C :    0.060596
  17 C :    0.095091
  18 C :   -0.302502
  19 C :   -0.032486
  20 O :   -0.530364
  21 H :    0.160761
  22 O :   -0.603673
  23 H :    0.178123
  24 H :    0.160567
  25 H :    0.151330
  26 H :    0.145903
  27 H :    0.147225
  28 H :    0.361337
Sum of atomic charges:   -0.0000000

LOEWDIN ATOMIC CHARGES
----------------------
   0 C :    0.176076
   1 C :   -0.228147
   2 C :   -0.224382
   3 C :   -0.033989
   4 O :   -0.321803
   5 H :    0.113883
   6 H :    0.122497
   7 H :    0.120392
   8 H :    0.116257
   9 H :    0.110054
  10 H :    0.103265
  11 H :    0.106062
  12 C :   -0.042286
  13 H :    0.101153
  14 H :    0.103605
  15 O :   -0.324731
  16 C :    0.016963
  17 C :    0.039776
  18 C :   -0.241867
  19 C :   -0.038555
  20 O :   -0.334140
  21 H :    0.115878
  22 O :   -0.415181
  23 H :    0.129457
  24 H :    0.126415
  25 H :    0.116587
  26 H :    0.103610
  27 H :    0.102543
  28 H :    0.280610

  Mayer bond orders larger than 0.100000
B(  0-C ,  1-C ) :   0.9167 B(  0-C ,  4-O ) :   0.9036 B(  0-C ,  5-H ) :   0.9362
B(  0-C , 15-O ) :   0.8914 B(  1-C ,  2-C ) :   0.9548 B(  1-C ,  6-H ) :   0.9345
B(  1-C ,  7-H ) :   0.9370 B(  2-C ,  3-C ) :   0.9472 B(  2-C ,  8-H ) :   0.9441
B(  2-C ,  9-H ) :   0.9358 B(  3-C ,  4-O ) :   0.8441 B(  3-C , 10-H ) :   0.9339
B(  3-C , 11-H ) :   0.9386 B( 12-C , 13-H ) :   0.9250 B( 12-C , 14-H ) :   0.9013
B( 12-C , 15-O ) :   0.8177 B( 12-C , 16-C ) :   0.9009 B( 16-C , 17-C ) :   0.9150
B( 16-C , 20-O ) :   0.8459 B( 16-C , 21-H ) :   0.9260 B( 17-C , 18-C ) :   0.9129
B( 17-C , 22-O ) :   0.8901 B( 17-C , 23-H ) :   0.9235 B( 18-C , 19-C ) :   0.9408
B( 18-C , 24-H ) :   0.9384 B( 18-C , 25-H ) :   0.9337 B( 19-C , 20-O ) :   0.8409
B( 19-C , 26-H ) :   0.9358 B( 19-C , 27-H ) :   0.9378 B( 22-O , 28-H ) :   0.7966

FINAL SINGLE POINT ENERGY      -652.858526533214

DIPOLE MOMENT
-------------
                                X             Y             Z
Electronic contribution:     -2.99089      -1.74129      -2.25338
Nuclear contribution   :      3.70739       2.43064       2.84438
                        -----------------------------------------
Total Dipole Moment    :      0.71651       0.68934       0.59100
                        -----------------------------------------
Magnitude (a.u.)       :      1.15666
Magnitude (Debye)      :      2.93998

Rotational constants in cm-1:     0.056732     0.012605     0.012072
Rotational constants in MHz :  1700.782600   377.876897   361.916300

                             ****ORCA TERMINATED NORMALLY****
TOTAL RUN TIME: 0 days 0 hours 28 minutes 55 seconds 847 msec
