                         Program Version 4.2.0 -  RELEASE  -
|  1> # Test redundant internal optimization
|  2> #
|  3> ! RKS B3LYP  Opt TightSCF SmallPrint
|  4>
|  5> %basis
|  6>         Basis "6-31G"
|  7> end
|  8>
|  9> %geom
| 10> Constraints
| 11> { D 4  0  15  12  300.0   C } # D for Dihedral angle
| 12> { D 0  15  12  16  240.0   C } # D for Dihedral angle
| 13> { D 0  4  3  2   C } # D for Dihedral angle
| 14> { D 4  3  2  1   C } # D for Dihedral angle
| 15> { D 3  2  1  0   C } # D for Dihedral angle
| 16> { D 2  1  0  4   C } # D for Dihedral angle
| 17> { D 1  0  4  3   C } # D for Dihedral angle
| 18> { D 16  20  19  18   C } # D for Dihedral angle
| 19> { D 20  19  18  17   C } # D for Dihedral angle
| 20> { D 19  18  17  16   C } # D for Dihedral angle
| 21> { D 18  17  16  20   C } # D for Dihedral angle
| 22> { D 17  16  20  19   C } # D for Dihedral angle
| 23> { D 15  12  16  20   C } # D for Dihedral angle
| 24> end
| 25> end
| 26>
| 27>
| 28> #%pal
| 29> #nprocs 8
| 30> #end
| 31>
| 32> * xyz 0 1
| 33> C  -21.048   26.222   46.251
| 34> C  -20.361   27.558   45.944
| 35> C  -20.329   28.222   47.341
| 36> C  -20.110   27.022   48.296
| 37> O  -20.473   25.807   47.535
| 38> H  -20.833   25.428   45.533
| 39> H  -19.344   27.382   45.576
| 40> H  -20.898   28.157   45.201
| 41> H  -19.543   28.978   47.434
| 42> H  -21.289   28.710   47.548
| 43> H  -20.733   27.082   49.195
| 44> H  -19.064   26.913   48.597
| 45> C  -23.362   25.116   46.798
| 46> H  -22.651   24.294   46.946
| 47> H  -23.893   25.285   47.743
| 48> O  -22.586   26.394   46.375
| 49> C  -24.409   24.672   45.740
| 50> C  -23.733   24.251   44.430
| 51> C  -23.246   22.823   44.773
| 52> C  -24.362   22.285   45.702
| 53> O  -25.110   23.464   46.188
| 54> H  -25.161   25.455   45.629
| 55> O  -24.777   24.213   43.280
| 56> H  -22.917   24.919   44.132
| 57> H  -23.104   22.198   43.885
| 58> H  -22.288   22.870   45.305
| 59> H  -23.964   21.734   46.561
| 60> H  -25.075   21.647   45.173
| 61> H  -25.605   23.549   43.556
| 62> *
| 63>
| 64>                          ****END OF INPUT****
 Total Charge           Charge          ....    0
 Multiplicity           Mult            ....    1
 Number of Electrons    NEL             ....  102
FINAL SINGLE POINT ENERGY      -652.839923122737
FINAL SINGLE POINT ENERGY      -652.863298483704
FINAL SINGLE POINT ENERGY      -652.867095541191
FINAL SINGLE POINT ENERGY      -652.867799446318
FINAL SINGLE POINT ENERGY      -652.867894273261
FINAL SINGLE POINT ENERGY      -652.867905204895
FINAL SINGLE POINT ENERGY      -652.867906398134
                    ***********************HURRAY********************

CARTESIAN COORDINATES (ANGSTROEM)
---------------------------------
  C    -21.073980   26.118710   46.269724
  C    -20.476446   27.482740   45.925925
  C    -20.467016   28.178704   47.304796
  C    -20.163367   27.022640   48.283140
  O    -20.467522   25.771012   47.537315
  H    -20.828330   25.298700   45.586943
  H    -19.458772   27.343958   45.544168
  H    -21.069071   28.014555   45.178759
  H    -19.723593   28.979500   47.366402
  H    -21.453849   28.604882   47.505790
  H    -20.776038   27.051645   49.187571
  H    -19.107532   26.966895   48.563587
  C    -23.261374   25.123260   46.826489
  H    -22.580692   24.301725   47.074939
  H    -23.797145   25.399156   47.738971
  O    -22.503698   26.289961   46.371218
  C    -24.270428   24.709062   45.752595
  C    -23.663089   24.253363   44.417139
  C    -23.240046   22.797223   44.744335
  C    -24.350242   22.318166   45.712665
  O    -25.018948   23.538963   46.225745
  H    -24.992523   25.514132   45.591996
  O    -24.657874   24.297214   43.356171
  H    -22.846191   24.886035   44.073748
  H    -23.182093   22.198202   43.832431
  H    -22.257085   22.783280   45.227893
  H    -23.958994   21.745071   46.558690
  H    -25.116435   21.718993   45.210116
  H    -25.505625   23.942252   43.697739

 Multiplicity           Mult            ....    1
 Number of Electrons    NEL             ....  102
 Basis Dimension        Dim             ....  149

ORBITAL ENERGIES
----------------

  NO   OCC          E(Eh)            E(eV)
   0   2.0000     -19.146949      -521.0150
   1   2.0000     -19.144906      -520.9594
   2   2.0000     -19.144139      -520.9385
   3   2.0000     -19.136450      -520.7293
   4   2.0000     -10.282310      -279.7959
   5   2.0000     -10.238497      -278.6037
   6   2.0000     -10.232095      -278.4295
   7   2.0000     -10.231517      -278.4137
   8   2.0000     -10.227678      -278.3093
   9   2.0000     -10.226938      -278.2891
  10   2.0000     -10.188826      -277.2520
  11   2.0000     -10.187122      -277.2057
  12   2.0000     -10.186517      -277.1892
  13   2.0000      -1.056928       -28.7605
  14   2.0000      -1.036448       -28.2032
  15   2.0000      -1.005032       -27.3483
  16   2.0000      -0.995583       -27.0912
  17   2.0000      -0.791675       -21.5426
  18   2.0000      -0.778753       -21.1909
  19   2.0000      -0.766658       -20.8618
  20   2.0000      -0.732240       -19.9253
  21   2.0000      -0.674232       -18.3468
  22   2.0000      -0.603539       -16.4231
  23   2.0000      -0.601500       -16.3677
  24   2.0000      -0.592582       -16.1250
  25   2.0000      -0.582285       -15.8448
  26   2.0000      -0.521566       -14.1925
  27   2.0000      -0.520019       -14.1504
  28   2.0000      -0.498243       -13.5579
  29   2.0000      -0.490378       -13.3439
  30   2.0000      -0.470513       -12.8033
  31   2.0000      -0.458595       -12.4790
  32   2.0000      -0.448359       -12.2005
  33   2.0000      -0.435249       -11.8437
  34   2.0000      -0.424873       -11.5614
  35   2.0000      -0.414424       -11.2771
  36   2.0000      -0.404681       -11.0119
  37   2.0000      -0.393277       -10.7016
  38   2.0000      -0.377007       -10.2589
  39   2.0000      -0.368577       -10.0295
  40   2.0000      -0.359243        -9.7755
  41   2.0000      -0.352920        -9.6035
  42   2.0000      -0.349660        -9.5147
  43   2.0000      -0.337025        -9.1709
  44   2.0000      -0.328992        -8.9523
  45   2.0000      -0.307068        -8.3557
  46   2.0000      -0.299852        -8.1594
  47   2.0000      -0.276860        -7.5338
  48   2.0000      -0.268955        -7.3186
  49   2.0000      -0.258958        -7.0466
  50   2.0000      -0.242049        -6.5865
  51   0.0000       0.066046         1.7972
  52   0.0000       0.070022         1.9054
  53   0.0000       0.094390         2.5685
  54   0.0000       0.099641         2.7114
  55   0.0000       0.104456         2.8424

MULLIKEN ATOMIC CHARGES
-----------------------
   0 C :    0.282949
   1 C :   -0.261432
   2 C :   -0.298769
   3 C :   -0.005402
   4 O :   -0.514968
   5 H :    0.139814
   6 H :    0.145569
   7 H :    0.161295
   8 H :    0.142422
   9 H :    0.164742
  10 H :    0.148462
  11 H :    0.144360
  12 C :   -0.013790
  13 H :    0.148949
  14 H :    0.159140
  15 O :   -0.526288
  16 C :    0.063715
  17 C :    0.085464
  18 C :   -0.300569
  19 C :   -0.032176
  20 O :   -0.527683
  21 H :    0.165852
  22 O :   -0.604412
  23 H :    0.161613
  24 H :    0.163838
  25 H :    0.145333
  26 H :    0.150571
  27 H :    0.147388
  28 H :    0.364012
Sum of atomic charges:    0.0000000

LOEWDIN ATOMIC CHARGES
----------------------
   0 C :    0.170207
   1 C :   -0.214133
   2 C :   -0.215718
   3 C :   -0.027670
   4 O :   -0.331456
   5 H :    0.091856
   6 H :    0.114520
   7 H :    0.126207
   8 H :    0.114256
   9 H :    0.120431
  10 H :    0.106191
  11 H :    0.103706
  12 C :   -0.040728
  13 H :    0.107866
  14 H :    0.115910
  15 O :   -0.331686
  16 C :    0.012933
  17 C :    0.036062
  18 C :   -0.242639
  19 C :   -0.038649
  20 O :   -0.331186
  21 H :    0.118189
  22 O :   -0.415049
  23 H :    0.119275
  24 H :    0.127322
  25 H :    0.112913
  26 H :    0.105735
  27 H :    0.102957
  28 H :    0.282375

  Mayer bond orders larger than 0.100000
B(  0-C ,  1-C ) :   0.9506 B(  0-C ,  4-O ) :   0.9025 B(  0-C ,  5-H ) :   0.9169
B(  0-C , 15-O ) :   0.8609 B(  1-C ,  2-C ) :   0.9558 B(  1-C ,  6-H ) :   0.9396
B(  1-C ,  7-H ) :   0.9353 B(  2-C ,  3-C ) :   0.9560 B(  2-C ,  8-H ) :   0.9449
B(  2-C ,  9-H ) :   0.9439 B(  3-C ,  4-O ) :   0.8331 B(  3-C , 10-H ) :   0.9358
B(  3-C , 11-H ) :   0.9405 B( 12-C , 13-H ) :   0.9209 B( 12-C , 14-H ) :   0.9306
B( 12-C , 15-O ) :   0.8161 B( 12-C , 16-C ) :   0.8965 B( 16-C , 17-C ) :   0.9115
B( 16-C , 20-O ) :   0.8385 B( 16-C , 21-H ) :   0.9255 B( 17-C , 18-C ) :   0.9131
B( 17-C , 22-O ) :   0.8912 B( 17-C , 23-H ) :   0.9265 B( 18-C , 19-C ) :   0.9402
B( 18-C , 24-H ) :   0.9372 B( 18-C , 25-H ) :   0.9335 B( 19-C , 20-O ) :   0.8435
B( 19-C , 26-H ) :   0.9346 B( 19-C , 27-H ) :   0.9378 B( 22-O , 28-H ) :   0.7948

FINAL SINGLE POINT ENERGY      -652.867906216788

DIPOLE MOMENT
-------------
                                X             Y             Z
Electronic contribution:     -4.01588      -1.29463      -0.86924
Nuclear contribution   :      4.74679       1.31366       1.11906
                        -----------------------------------------
Total Dipole Moment    :      0.73091       0.01902       0.24982
                        -----------------------------------------
Magnitude (a.u.)       :      0.77266
Magnitude (Debye)      :      1.96394

Rotational constants in cm-1:     0.059335     0.012708     0.011972
Rotational constants in MHz :  1778.824233   380.980313   358.925713

                             ****ORCA TERMINATED NORMALLY****
TOTAL RUN TIME: 0 days 0 hours 28 minutes 54 seconds 565 msec
