                         Program Version 4.2.0 -  RELEASE  -
|  1> # Test redundant internal optimization
|  2> #
|  3> ! RKS B3LYP  Opt TightSCF SmallPrint
|  4>
|  5> %basis
|  6>         Basis "6-31G"
|  7> end
|  8>
|  9> %geom
| 10> Constraints
| 11> { D 4  0  15  12  270.0   C } # D for Dihedral angle
| 12> { D 0  15  12  16  30.0   C } # D for Dihedral angle
| 13> { D 0  4  3  2   C } # D for Dihedral angle
| 14> { D 4  3  2  1   C } # D for Dihedral angle
| 15> { D 3  2  1  0   C } # D for Dihedral angle
| 16> { D 2  1  0  4   C } # D for Dihedral angle
| 17> { D 1  0  4  3   C } # D for Dihedral angle
| 18> { D 16  20  19  18   C } # D for Dihedral angle
| 19> { D 20  19  18  17   C } # D for Dihedral angle
| 20> { D 19  18  17  16   C } # D for Dihedral angle
| 21> { D 18  17  16  20   C } # D for Dihedral angle
| 22> { D 17  16  20  19   C } # D for Dihedral angle
| 23> { D 15  12  16  20   C } # D for Dihedral angle
| 24> end
| 25> end
| 26>
| 27>
| 28> #%pal
| 29> #nprocs 8
| 30> #end
| 31>
| 32> * xyz 0 1
| 33> C  -21.048   26.222   46.251
| 34> C  -20.361   27.558   45.944
| 35> C  -20.329   28.222   47.341
| 36> C  -20.110   27.022   48.296
| 37> O  -20.473   25.807   47.535
| 38> H  -20.833   25.428   45.533
| 39> H  -19.344   27.382   45.576
| 40> H  -20.898   28.157   45.201
| 41> H  -19.543   28.978   47.434
| 42> H  -21.289   28.710   47.548
| 43> H  -20.733   27.082   49.195
| 44> H  -19.064   26.913   48.597
| 45> C  -23.420   25.119   46.072
| 46> H  -24.348   25.147   46.656
| 47> H  -23.684   25.077   45.008
| 48> O  -22.586   26.394   46.375
| 49> C  -22.662   23.808   46.423
| 50> C  -22.400   23.704   47.930
| 51> C  -23.776   23.230   48.455
| 52> C  -24.287   22.306   47.321
| 53> O  -23.493   22.639   46.119
| 54> H  -21.767   23.736   45.802
| 55> H  -21.631   22.948   48.126
| 56> O  -21.941   25.045   48.564
| 57> H  -23.708   22.712   49.416
| 58> H  -24.445   24.090   48.585
| 59> H  -25.349   22.458   47.102
| 60> H  -24.118   21.248   47.537
| 61> H  -22.697   25.816   48.380
| 62> *
| 63>
| 64>                          ****END OF INPUT****
 Total Charge           Charge          ....    0
 Multiplicity           Mult            ....    1
 Number of Electrons    NEL             ....  102
FINAL SINGLE POINT ENERGY      -652.765775032311
FINAL SINGLE POINT ENERGY      -652.819931278159
FINAL SINGLE POINT ENERGY      -652.840810913349
FINAL SINGLE POINT ENERGY      -652.846904404509
FINAL SINGLE POINT ENERGY      -652.849736976311
FINAL SINGLE POINT ENERGY      -652.853131225113
FINAL SINGLE POINT ENERGY      -652.856647352658
FINAL SINGLE POINT ENERGY      -652.858635841119
FINAL SINGLE POINT ENERGY      -652.859324098106
FINAL SINGLE POINT ENERGY      -652.861004967735
FINAL SINGLE POINT ENERGY      -652.861946568949
FINAL SINGLE POINT ENERGY      -652.862822075484
FINAL SINGLE POINT ENERGY      -652.863443128499
FINAL SINGLE POINT ENERGY      -652.863701444439
FINAL SINGLE POINT ENERGY      -652.863701397026
FINAL SINGLE POINT ENERGY      -652.863759102087
FINAL SINGLE POINT ENERGY      -652.863757970462
                    ***********************HURRAY********************

CARTESIAN COORDINATES (ANGSTROEM)
---------------------------------
  C    -20.889583   26.253903   46.270595
  C    -20.440209   27.672385   45.903652
  C    -20.571143   28.409629   47.261971
  C    -20.174884   27.321224   48.288265
  O    -20.299792   26.021279   47.572050
  H    -20.504242   25.462216   45.620781
  H    -19.397071   27.653119   45.568309
  H    -21.065128   28.097365   45.117371
  H    -19.926249   29.290192   47.328258
  H    -21.608089   28.720202   47.413431
  H    -20.830255   27.288997   49.161244
  H    -19.133045   27.393512   48.610084
  C    -23.137020   25.061168   46.074874
  H    -24.063336   25.287969   46.607737
  H    -23.370375   24.998888   45.005388
  O    -22.325045   26.276321   46.279866
  C    -22.650088   23.654237   46.493283
  C    -22.447450   23.372670   47.998162
  C    -23.924444   23.221876   48.501471
  C    -24.615620   22.546893   47.297523
  O    -23.742261   22.757713   46.116523
  H    -21.782353   23.347782   45.899656
  H    -21.935253   22.399704   48.072996
  O    -21.819272   24.341282   48.836023
  H    -23.978012   22.628372   49.416884
  H    -24.309269   24.223158   48.712545
  H    -25.605438   22.959928   47.077427
  H    -24.710448   21.463793   47.423457
  H    -21.081627   24.832223   48.392175

 Multiplicity           Mult            ....    1
 Number of Electrons    NEL             ....  102
 Basis Dimension        Dim             ....  149

ORBITAL ENERGIES
----------------

  NO   OCC          E(Eh)            E(eV)
   0   2.0000     -19.168080      -521.5900
   1   2.0000     -19.148770      -521.0645
   2   2.0000     -19.138226      -520.7776
   3   2.0000     -19.098191      -519.6882
   4   2.0000     -10.293404      -280.0978
   5   2.0000     -10.238687      -278.6088
   6   2.0000     -10.232993      -278.4539
   7   2.0000     -10.228143      -278.3219
   8   2.0000     -10.225679      -278.2549
   9   2.0000     -10.221262      -278.1347
  10   2.0000     -10.193858      -277.3890
  11   2.0000     -10.193436      -277.3775
  12   2.0000     -10.172480      -276.8073
  13   2.0000      -1.068248       -29.0685
  14   2.0000      -1.023214       -27.8431
  15   2.0000      -1.004860       -27.3436
  16   2.0000      -0.983326       -26.7577
  17   2.0000      -0.797088       -21.6899
  18   2.0000      -0.765651       -20.8344
  19   2.0000      -0.760582       -20.6965
  20   2.0000      -0.738830       -20.1046
  21   2.0000      -0.674665       -18.3586
  22   2.0000      -0.610469       -16.6117
  23   2.0000      -0.603945       -16.4342
  24   2.0000      -0.588392       -16.0109
  25   2.0000      -0.573532       -15.6066
  26   2.0000      -0.530990       -14.4490
  27   2.0000      -0.510123       -13.8812
  28   2.0000      -0.497565       -13.5394
  29   2.0000      -0.490250       -13.3404
  30   2.0000      -0.468152       -12.7391
  31   2.0000      -0.454132       -12.3576
  32   2.0000      -0.445034       -12.1100
  33   2.0000      -0.433109       -11.7855
  34   2.0000      -0.425995       -11.5919
  35   2.0000      -0.416750       -11.3403
  36   2.0000      -0.401542       -10.9265
  37   2.0000      -0.379794       -10.3347
  38   2.0000      -0.376012       -10.2318
  39   2.0000      -0.366772        -9.9804
  40   2.0000      -0.359019        -9.7694
  41   2.0000      -0.358086        -9.7440
  42   2.0000      -0.348812        -9.4917
  43   2.0000      -0.340761        -9.2726
  44   2.0000      -0.327114        -8.9012
  45   2.0000      -0.311139        -8.4665
  46   2.0000      -0.293195        -7.9782
  47   2.0000      -0.265108        -7.2140
  48   2.0000      -0.263360        -7.1664
  49   2.0000      -0.244024        -6.6402
  50   2.0000      -0.233338        -6.3495
  51   0.0000       0.061616         1.6766
  52   0.0000       0.086737         2.3602
  53   0.0000       0.094800         2.5796
  54   0.0000       0.098414         2.6780
  55   0.0000       0.104659         2.8479

MULLIKEN ATOMIC CHARGES
-----------------------
   0 C :    0.291608
   1 C :   -0.252193
   2 C :   -0.296863
   3 C :   -0.003010
   4 O :   -0.555068
   5 H :    0.149802
   6 H :    0.145732
   7 H :    0.164281
   8 H :    0.145700
   9 H :    0.171573
  10 H :    0.171017
  11 H :    0.153036
  12 C :    0.004041
  13 H :    0.156298
  14 H :    0.153109
  15 O :   -0.528462
  16 C :    0.026036
  17 C :    0.127332
  18 C :   -0.292872
  19 C :   -0.024446
  20 O :   -0.522133
  21 H :    0.144767
  22 H :    0.125651
  23 O :   -0.660028
  24 H :    0.149204
  25 H :    0.157373
  26 H :    0.140176
  27 H :    0.149019
  28 H :    0.409322
Sum of atomic charges:   -0.0000000

LOEWDIN ATOMIC CHARGES
----------------------
   0 C :    0.174750
   1 C :   -0.210538
   2 C :   -0.211892
   3 C :   -0.022489
   4 O :   -0.323569
   5 H :    0.098953
   6 H :    0.113779
   7 H :    0.127746
   8 H :    0.116491
   9 H :    0.124184
  10 H :    0.118235
  11 H :    0.108541
  12 C :   -0.044546
  13 H :    0.116255
  14 H :    0.107719
  15 O :   -0.327502
  16 C :    0.002803
  17 C :    0.041588
  18 C :   -0.225528
  19 C :   -0.035752
  20 O :   -0.320192
  21 H :    0.104227
  22 H :    0.089237
  23 O :   -0.454200
  24 H :    0.120962
  25 H :    0.117341
  26 H :    0.100484
  27 H :    0.104970
  28 H :    0.287944

  Mayer bond orders larger than 0.100000
B(  0-C ,  1-C ) :   0.9488 B(  0-C ,  4-O ) :   0.8366 B(  0-C ,  5-H ) :   0.9194
B(  0-C , 15-O ) :   0.8950 B(  1-C ,  2-C ) :   0.9575 B(  1-C ,  6-H ) :   0.9396
B(  1-C ,  7-H ) :   0.9381 B(  2-C ,  3-C ) :   0.9586 B(  2-C ,  8-H ) :   0.9449
B(  2-C ,  9-H ) :   0.9418 B(  3-C ,  4-O ) :   0.7861 B(  3-C , 10-H ) :   0.9329
B(  3-C , 11-H ) :   0.9408 B(  4-O , 28-H ) :   0.1236 B( 12-C , 13-H ) :   0.9370
B( 12-C , 14-H ) :   0.9249 B( 12-C , 15-O ) :   0.8148 B( 12-C , 16-C ) :   0.8883
B( 16-C , 17-C ) :   0.8873 B( 16-C , 20-O ) :   0.8348 B( 16-C , 21-H ) :   0.9295
B( 17-C , 18-C ) :   0.9229 B( 17-C , 22-H ) :   0.9162 B( 17-C , 23-O ) :   0.9582
B( 18-C , 19-C ) :   0.9420 B( 18-C , 24-H ) :   0.9448 B( 18-C , 25-H ) :   0.9390
B( 19-C , 20-O ) :   0.8261 B( 19-C , 26-H ) :   0.9350 B( 19-C , 27-H ) :   0.9382
B( 23-O , 28-H ) :   0.6776

FINAL SINGLE POINT ENERGY      -652.863757672842

DIPOLE MOMENT
-------------
                                X             Y             Z
Electronic contribution:      0.56517      -2.66604      -1.16633
Nuclear contribution   :     -0.06107       3.53191       0.87260
                        -----------------------------------------
Total Dipole Moment    :      0.50410       0.86587      -0.29373
                        -----------------------------------------
Magnitude (a.u.)       :      1.04409
Magnitude (Debye)      :      2.65386

Rotational constants in cm-1:     0.059186     0.015427     0.013550
Rotational constants in MHz :  1774.346454   462.498446   406.231012

                             ****ORCA TERMINATED NORMALLY****
TOTAL RUN TIME: 0 days 0 hours 47 minutes 40 seconds 449 msec
