                         Program Version 4.2.0 -  RELEASE  -
|  1> # Test redundant internal optimization
|  2> #
|  3> ! RKS B3LYP  Opt TightSCF SmallPrint
|  4>
|  5> %basis
|  6>         Basis "6-31G"
|  7> end
|  8>
|  9> %geom
| 10> Constraints
| 11> { D 4  0  15  12  300.0   C } # D for Dihedral angle
| 12> { D 0  15  12  16  285.0   C } # D for Dihedral angle
| 13> { D 0  4  3  2   C } # D for Dihedral angle
| 14> { D 4  3  2  1   C } # D for Dihedral angle
| 15> { D 3  2  1  0   C } # D for Dihedral angle
| 16> { D 2  1  0  4   C } # D for Dihedral angle
| 17> { D 1  0  4  3   C } # D for Dihedral angle
| 18> { D 16  20  19  18   C } # D for Dihedral angle
| 19> { D 20  19  18  17   C } # D for Dihedral angle
| 20> { D 19  18  17  16   C } # D for Dihedral angle
| 21> { D 18  17  16  20   C } # D for Dihedral angle
| 22> { D 17  16  20  19   C } # D for Dihedral angle
| 23> { D 15  12  16  20   C } # D for Dihedral angle
| 24> end
| 25> end
| 26>
| 27>
| 28> #%pal
| 29> #nprocs 8
| 30> #end
| 31>
| 32> * xyz 0 1
| 33> C  -21.048   26.222   46.251
| 34> C  -20.361   27.558   45.944
| 35> C  -20.329   28.222   47.341
| 36> C  -20.110   27.022   48.296
| 37> O  -20.473   25.807   47.535
| 38> H  -20.833   25.428   45.533
| 39> H  -19.344   27.382   45.576
| 40> H  -20.898   28.157   45.201
| 41> H  -19.543   28.978   47.434
| 42> H  -21.289   28.710   47.548
| 43> H  -20.733   27.082   49.195
| 44> H  -19.064   26.913   48.597
| 45> C  -23.362   25.116   46.798
| 46> H  -22.840   24.637   47.635
| 47> H  -24.376   25.374   47.128
| 48> O  -22.586   26.394   46.375
| 49> C  -23.489   24.082   45.645
| 50> C  -24.356   22.889   46.061
| 51> C  -25.782   23.469   45.906
| 52> C  -25.649   24.407   44.680
| 53> O  -24.204   24.669   44.507
| 54> H  -22.491   23.814   45.292
| 55> O  -24.137   21.703   45.082
| 56> H  -24.148   22.540   47.078
| 57> H  -26.542   22.694   45.758
| 58> H  -26.056   24.040   46.801
| 59> H  -26.172   25.359   44.822
| 60> H  -26.005   23.941   43.757
| 61> H  -24.340   22.030   44.056
| 62> *
| 63>
| 64>                          ****END OF INPUT****
 Total Charge           Charge          ....    0
 Multiplicity           Mult            ....    1
 Number of Electrons    NEL             ....  102
FINAL SINGLE POINT ENERGY      -652.836764908104
FINAL SINGLE POINT ENERGY      -652.860789159922
FINAL SINGLE POINT ENERGY      -652.865136522075
FINAL SINGLE POINT ENERGY      -652.865961229567
FINAL SINGLE POINT ENERGY      -652.866078999155
FINAL SINGLE POINT ENERGY      -652.866091100570
                    ***********************HURRAY********************

CARTESIAN COORDINATES (ANGSTROEM)
---------------------------------
  C    -21.091051   26.147115   46.223628
  C    -20.469092   27.514219   45.938151
  C    -20.427058   28.141018   47.349215
  C    -20.135208   26.932108   48.265668
  O    -20.474493   25.724506   47.466331
  H    -20.870878   25.363525   45.493583
  H    -19.459845   27.374364   45.534923
  H    -21.062603   28.090953   45.226035
  H    -19.665839   28.922121   47.440623
  H    -21.402056   28.577006   47.584512
  H    -20.734210   26.931199   49.179876
  H    -19.076918   26.842554   48.528132
  C    -23.283419   25.183234   46.776744
  H    -22.791904   24.708630   47.635964
  H    -24.244702   25.593714   47.095349
  O    -22.513548   26.349448   46.362262
  C    -23.474426   24.154447   45.659550
  C    -24.334135   22.953524   46.079617
  C    -25.769881   23.514436   45.898427
  C    -25.629473   24.438456   44.662192
  O    -24.182675   24.716757   44.505529
  H    -22.502536   23.814514   45.288620
  O    -24.091160   21.811273   45.213007
  H    -24.132497   22.595762   47.090222
  H    -26.483813   22.701399   45.746241
  H    -26.074476   24.078018   46.787269
  H    -26.164456   25.385809   44.778048
  H    -25.968837   23.958019   43.739049
  H    -24.048811   22.120873   44.283234

 Multiplicity           Mult            ....    1
 Number of Electrons    NEL             ....  102
 Basis Dimension        Dim             ....  149

ORBITAL ENERGIES
----------------

  NO   OCC          E(Eh)            E(eV)
   0   2.0000     -19.141684      -520.8717
   1   2.0000     -19.140220      -520.8319
   2   2.0000     -19.140133      -520.8295
   3   2.0000     -19.139061      -520.8003
   4   2.0000     -10.274949      -279.5956
   5   2.0000     -10.243407      -278.7373
   6   2.0000     -10.233568      -278.4695
   7   2.0000     -10.230359      -278.3822
   8   2.0000     -10.226992      -278.2906
   9   2.0000     -10.224593      -278.2253
  10   2.0000     -10.190305      -277.2923
  11   2.0000     -10.183014      -277.0939
  12   2.0000     -10.182112      -277.0693
  13   2.0000      -1.053175       -28.6584
  14   2.0000      -1.035826       -28.1862
  15   2.0000      -1.006060       -27.3763
  16   2.0000      -0.990407       -26.9504
  17   2.0000      -0.789367       -21.4798
  18   2.0000      -0.780997       -21.2520
  19   2.0000      -0.764431       -20.8012
  20   2.0000      -0.731762       -19.9123
  21   2.0000      -0.671834       -18.2815
  22   2.0000      -0.605504       -16.4766
  23   2.0000      -0.603103       -16.4113
  24   2.0000      -0.595848       -16.2139
  25   2.0000      -0.569378       -15.4936
  26   2.0000      -0.527102       -14.3432
  27   2.0000      -0.509719       -13.8702
  28   2.0000      -0.492392       -13.3987
  29   2.0000      -0.490267       -13.3408
  30   2.0000      -0.473223       -12.8770
  31   2.0000      -0.456279       -12.4160
  32   2.0000      -0.451757       -12.2929
  33   2.0000      -0.436647       -11.8818
  34   2.0000      -0.427300       -11.6274
  35   2.0000      -0.404682       -11.0119
  36   2.0000      -0.400296       -10.8926
  37   2.0000      -0.393585       -10.7100
  38   2.0000      -0.374238       -10.1835
  39   2.0000      -0.368277       -10.0213
  40   2.0000      -0.358555        -9.7568
  41   2.0000      -0.354553        -9.6479
  42   2.0000      -0.345293        -9.3959
  43   2.0000      -0.333221        -9.0674
  44   2.0000      -0.329249        -8.9593
  45   2.0000      -0.307903        -8.3785
  46   2.0000      -0.294795        -8.0218
  47   2.0000      -0.274520        -7.4701
  48   2.0000      -0.269498        -7.3334
  49   2.0000      -0.254043        -6.9129
  50   2.0000      -0.238291        -6.4842
  51   0.0000       0.066621         1.8129
  52   0.0000       0.088628         2.4117
  53   0.0000       0.089753         2.4423
  54   0.0000       0.095449         2.5973
  55   0.0000       0.105248         2.8640

MULLIKEN ATOMIC CHARGES
-----------------------
   0 C :    0.280646
   1 C :   -0.261131
   2 C :   -0.299147
   3 C :   -0.004880
   4 O :   -0.516891
   5 H :    0.149879
   6 H :    0.144272
   7 H :    0.163573
   8 H :    0.140747
   9 H :    0.162611
  10 H :    0.144633
  11 H :    0.143511
  12 C :   -0.008273
  13 H :    0.151295
  14 H :    0.145024
  15 O :   -0.508029
  16 C :    0.048969
  17 C :    0.078555
  18 C :   -0.294605
  19 C :   -0.028240
  20 O :   -0.513150
  21 H :    0.163282
  22 O :   -0.601731
  23 H :    0.152992
  24 H :    0.164577
  25 H :    0.142109
  26 H :    0.151269
  27 H :    0.143599
  28 H :    0.364535
Sum of atomic charges:   -0.0000000

LOEWDIN ATOMIC CHARGES
----------------------
   0 C :    0.170672
   1 C :   -0.212844
   2 C :   -0.216418
   3 C :   -0.028286
   4 O :   -0.332648
   5 H :    0.096994
   6 H :    0.113658
   7 H :    0.127706
   8 H :    0.113250
   9 H :    0.119323
  10 H :    0.103982
  11 H :    0.103108
  12 C :   -0.046964
  13 H :    0.108838
  14 H :    0.111083
  15 O :   -0.315127
  16 C :    0.004409
  17 C :    0.036876
  18 C :   -0.240758
  19 C :   -0.037883
  20 O :   -0.325559
  21 H :    0.113983
  22 O :   -0.414222
  23 H :    0.116159
  24 H :    0.127328
  25 H :    0.112304
  26 H :    0.106471
  27 H :    0.101562
  28 H :    0.283003

  Mayer bond orders larger than 0.100000
B(  0-C ,  1-C ) :   0.9507 B(  0-C ,  4-O ) :   0.8926 B(  0-C ,  5-H ) :   0.9139
B(  0-C , 15-O ) :   0.8665 B(  1-C ,  2-C ) :   0.9553 B(  1-C ,  6-H ) :   0.9407
B(  1-C ,  7-H ) :   0.9347 B(  2-C ,  3-C ) :   0.9560 B(  2-C ,  8-H ) :   0.9452
B(  2-C ,  9-H ) :   0.9443 B(  3-C ,  4-O ) :   0.8358 B(  3-C , 10-H ) :   0.9362
B(  3-C , 11-H ) :   0.9406 B( 12-C , 13-H ) :   0.9064 B( 12-C , 14-H ) :   0.9408
B( 12-C , 15-O ) :   0.8569 B( 12-C , 16-C ) :   0.8817 B( 16-C , 17-C ) :   0.8989
B( 16-C , 20-O ) :   0.8610 B( 16-C , 21-H ) :   0.9214 B( 17-C , 18-C ) :   0.9128
B( 17-C , 22-O ) :   0.8907 B( 17-C , 23-H ) :   0.9333 B( 18-C , 19-C ) :   0.9405
B( 18-C , 24-H ) :   0.9371 B( 18-C , 25-H ) :   0.9346 B( 19-C , 20-O ) :   0.8494
B( 19-C , 26-H ) :   0.9335 B( 19-C , 27-H ) :   0.9382 B( 22-O , 28-H ) :   0.7946

FINAL SINGLE POINT ENERGY      -652.866093436559

DIPOLE MOMENT
-------------
                                X             Y             Z
Electronic contribution:      0.09833      -3.34948      -2.17297
Nuclear contribution   :     -0.38629       3.99655       2.48713
                        -----------------------------------------
Total Dipole Moment    :     -0.28796       0.64706       0.31417
                        -----------------------------------------
Magnitude (a.u.)       :      0.77480
Magnitude (Debye)      :      1.96938

Rotational constants in cm-1:     0.065248     0.011941     0.011301
Rotational constants in MHz :  1956.088085   357.986194   338.803611

                             ****ORCA TERMINATED NORMALLY****
TOTAL RUN TIME: 0 days 0 hours 25 minutes 58 seconds 620 msec
