                         Program Version 4.2.0 -  RELEASE  -
|  1> # Test redundant internal optimization
|  2> #
|  3> ! RKS B3LYP  Opt TightSCF SmallPrint
|  4>
|  5> %basis
|  6>         Basis "6-31G"
|  7> end
|  8>
|  9> %geom
| 10> Constraints
| 11> { D 4  0  15  12  165.0   C } # D for Dihedral angle
| 12> { D 0  15  12  16  180.0   C } # D for Dihedral angle
| 13> { D 0  4  3  2   C } # D for Dihedral angle
| 14> { D 4  3  2  1   C } # D for Dihedral angle
| 15> { D 3  2  1  0   C } # D for Dihedral angle
| 16> { D 2  1  0  4   C } # D for Dihedral angle
| 17> { D 1  0  4  3   C } # D for Dihedral angle
| 18> { D 16  20  19  18   C } # D for Dihedral angle
| 19> { D 20  19  18  17   C } # D for Dihedral angle
| 20> { D 19  18  17  16   C } # D for Dihedral angle
| 21> { D 18  17  16  20   C } # D for Dihedral angle
| 22> { D 17  16  20  19   C } # D for Dihedral angle
| 23> { D 15  12  16  20   C } # D for Dihedral angle
| 24> end
| 25> end
| 26>
| 27>
| 28> #%pal
| 29> #nprocs 8
| 30> #end
| 31>
| 32> * xyz 0 1
| 33> C  -21.048   26.222   46.251
| 34> C  -20.361   27.558   45.944
| 35> C  -20.329   28.222   47.341
| 36> C  -20.110   27.022   48.296
| 37> O  -20.473   25.807   47.535
| 38> H  -20.833   25.428   45.533
| 39> H  -19.344   27.382   45.576
| 40> H  -20.898   28.157   45.201
| 41> H  -19.543   28.978   47.434
| 42> H  -21.289   28.710   47.548
| 43> H  -20.733   27.082   49.195
| 44> H  -19.064   26.913   48.597
| 45> C  -23.260   27.170   45.210
| 46> H  -22.827   28.177   45.148
| 47> H  -23.081   26.660   44.255
| 48> O  -22.586   26.394   46.375
| 49> C  -24.797   27.309   45.391
| 50> C  -25.138   28.160   46.620
| 51> C  -24.916   29.593   46.080
| 52> C  -25.376   29.488   44.604
| 53> O  -25.380   28.048   44.267
| 54> H  -25.248   26.316   45.390
| 55> H  -26.186   28.011   46.901
| 56> O  -24.250   27.836   47.852
| 57> H  -25.477   30.349   46.639
| 58> H  -23.853   29.856   46.136
| 59> H  -24.706   30.015   43.917
| 60> H  -26.395   29.856   44.457
| 61> H  -23.195   27.979   47.593
| 62> *
| 63>
| 64>                          ****END OF INPUT****
 Total Charge           Charge          ....    0
 Multiplicity           Mult            ....    1
 Number of Electrons    NEL             ....  102
FINAL SINGLE POINT ENERGY      -652.823329129134
FINAL SINGLE POINT ENERGY      -652.848201410853
FINAL SINGLE POINT ENERGY      -652.855509873343
FINAL SINGLE POINT ENERGY      -652.858653386087
FINAL SINGLE POINT ENERGY      -652.860790093957
FINAL SINGLE POINT ENERGY      -652.862383625760
FINAL SINGLE POINT ENERGY      -652.863489580002
FINAL SINGLE POINT ENERGY      -652.864067646168
FINAL SINGLE POINT ENERGY      -652.864156257780
FINAL SINGLE POINT ENERGY      -652.864176046712
FINAL SINGLE POINT ENERGY      -652.864178763204
                    ***********************HURRAY********************

CARTESIAN COORDINATES (ANGSTROEM)
---------------------------------
  C    -21.093805   26.257354   46.203342
  C    -20.263762   27.505769   45.911056
  C    -20.346316   28.270113   47.256514
  C    -20.353154   27.132383   48.296460
  O    -20.729765   25.904037   47.540014
  H    -20.907866   25.394663   45.559350
  H    -19.233911   27.192419   45.704430
  H    -20.609363   28.092218   45.056673
  H    -19.510188   28.960990   47.396334
  H    -21.280593   28.838272   47.313731
  H    -21.080696   27.283130   49.097456
  H    -19.368087   26.937075   48.728646
  C    -23.166326   27.223416   45.104354
  H    -22.728830   28.219420   44.971251
  H    -23.040658   26.656663   44.173628
  O    -22.539699   26.524018   46.227395
  C    -24.656910   27.335477   45.445304
  C    -24.965281   28.177441   46.696247
  C    -24.869224   29.627249   46.133834
  C    -25.420871   29.480092   44.699858
  O    -25.358199   28.026933   44.367461
  H    -25.084109   26.330969   45.509261
  H    -25.996579   27.971224   47.008560
  O    -24.093865   27.979504   47.829870
  H    -25.439616   30.337382   46.737761
  H    -23.819598   29.939038   46.147197
  H    -24.844620   30.036000   43.953471
  H    -26.472064   29.771323   44.620524
  H    -23.422045   27.293427   47.596015

 Multiplicity           Mult            ....    1
 Number of Electrons    NEL             ....  102
 Basis Dimension        Dim             ....  149

ORBITAL ENERGIES
----------------

  NO   OCC          E(Eh)            E(eV)
   0   2.0000     -19.162712      -521.4439
   1   2.0000     -19.152228      -521.1586
   2   2.0000     -19.142114      -520.8834
   3   2.0000     -19.113377      -520.1014
   4   2.0000     -10.294193      -280.1192
   5   2.0000     -10.241238      -278.6782
   6   2.0000     -10.236509      -278.5496
   7   2.0000     -10.233097      -278.4567
   8   2.0000     -10.231920      -278.4247
   9   2.0000     -10.228569      -278.3335
  10   2.0000     -10.199498      -277.5425
  11   2.0000     -10.195188      -277.4252
  12   2.0000     -10.181748      -277.0595
  13   2.0000      -1.067709       -29.0538
  14   2.0000      -1.027986       -27.9729
  15   2.0000      -1.008408       -27.4402
  16   2.0000      -0.991483       -26.9796
  17   2.0000      -0.797159       -21.6918
  18   2.0000      -0.776531       -21.1305
  19   2.0000      -0.769755       -20.9461
  20   2.0000      -0.738738       -20.1021
  21   2.0000      -0.682724       -18.5779
  22   2.0000      -0.610828       -16.6215
  23   2.0000      -0.600473       -16.3397
  24   2.0000      -0.595992       -16.2178
  25   2.0000      -0.580170       -15.7872
  26   2.0000      -0.531718       -14.4688
  27   2.0000      -0.519242       -14.1293
  28   2.0000      -0.507189       -13.8013
  29   2.0000      -0.491128       -13.3643
  30   2.0000      -0.476615       -12.9694
  31   2.0000      -0.460083       -12.5195
  32   2.0000      -0.449789       -12.2394
  33   2.0000      -0.438124       -11.9220
  34   2.0000      -0.430004       -11.7010
  35   2.0000      -0.415650       -11.3104
  36   2.0000      -0.412962       -11.2373
  37   2.0000      -0.389040       -10.5863
  38   2.0000      -0.384930       -10.4745
  39   2.0000      -0.369506       -10.0548
  40   2.0000      -0.368456       -10.0262
  41   2.0000      -0.365031        -9.9330
  42   2.0000      -0.351278        -9.5588
  43   2.0000      -0.342297        -9.3144
  44   2.0000      -0.324643        -8.8340
  45   2.0000      -0.315321        -8.5803
  46   2.0000      -0.290858        -7.9147
  47   2.0000      -0.275264        -7.4903
  48   2.0000      -0.267233        -7.2718
  49   2.0000      -0.248626        -6.7655
  50   2.0000      -0.245491        -6.6802
  51   0.0000       0.056284         1.5316
  52   0.0000       0.067882         1.8472
  53   0.0000       0.091345         2.4856
  54   0.0000       0.094813         2.5800
  55   0.0000       0.105144         2.8611

MULLIKEN ATOMIC CHARGES
-----------------------
   0 C :    0.322883
   1 C :   -0.292744
   2 C :   -0.309290
   3 C :   -0.014472
   4 O :   -0.499882
   5 H :    0.156106
   6 H :    0.156249
   7 H :    0.147934
   8 H :    0.148169
   9 H :    0.168642
  10 H :    0.168128
  11 H :    0.149648
  12 C :   -0.008957
  13 H :    0.136897
  14 H :    0.152811
  15 O :   -0.560467
  16 C :    0.045318
  17 C :    0.123169
  18 C :   -0.303735
  19 C :   -0.019827
  20 O :   -0.521543
  21 H :    0.166621
  22 H :    0.143971
  23 O :   -0.650211
  24 H :    0.153986
  25 H :    0.144390
  26 H :    0.140905
  27 H :    0.149783
  28 H :    0.405521
Sum of atomic charges:   -0.0000000

LOEWDIN ATOMIC CHARGES
----------------------
   0 C :    0.187017
   1 C :   -0.232782
   2 C :   -0.220601
   3 C :   -0.027715
   4 O :   -0.300925
   5 H :    0.106484
   6 H :    0.121146
   7 H :    0.115884
   8 H :    0.118168
   9 H :    0.119341
  10 H :    0.115185
  11 H :    0.107066
  12 C :   -0.045024
  13 H :    0.094722
  14 H :    0.107720
  15 O :   -0.344374
  16 C :    0.019509
  17 C :    0.042928
  18 C :   -0.234673
  19 C :   -0.032783
  20 O :   -0.322952
  21 H :    0.118430
  22 H :    0.102619
  23 O :   -0.442482
  24 H :    0.122457
  25 H :    0.109205
  26 H :    0.101053
  27 H :    0.106455
  28 H :    0.288921

  Mayer bond orders larger than 0.100000
B(  0-C ,  1-C ) :   0.9333 B(  0-C ,  4-O ) :   0.9504 B(  0-C ,  5-H ) :   0.9239
B(  0-C , 15-O ) :   0.7808 B(  1-C ,  2-C ) :   0.9463 B(  1-C ,  6-H ) :   0.9330
B(  1-C ,  7-H ) :   0.9280 B(  2-C ,  3-C ) :   0.9530 B(  2-C ,  8-H ) :   0.9445
B(  2-C ,  9-H ) :   0.9336 B(  3-C ,  4-O ) :   0.8233 B(  3-C , 10-H ) :   0.9316
B(  3-C , 11-H ) :   0.9397 B( 12-C , 13-H ) :   0.9106 B( 12-C , 14-H ) :   0.9232
B( 12-C , 15-O ) :   0.7919 B( 12-C , 16-C ) :   0.9046 B( 16-C , 17-C ) :   0.9159
B( 16-C , 20-O ) :   0.8586 B( 16-C , 21-H ) :   0.9273 B( 17-C , 18-C ) :   0.9059
B( 17-C , 22-H ) :   0.9273 B( 17-C , 23-O ) :   0.9289 B( 18-C , 19-C ) :   0.9412
B( 18-C , 24-H ) :   0.9440 B( 18-C , 25-H ) :   0.9423 B( 19-C , 20-O ) :   0.8318
B( 19-C , 26-H ) :   0.9342 B( 19-C , 27-H ) :   0.9386 B( 23-O , 28-H ) :   0.7065

FINAL SINGLE POINT ENERGY      -652.864179080472

DIPOLE MOMENT
-------------
                                X             Y             Z
Electronic contribution:     -2.51567      -5.63001       0.40178
Nuclear contribution   :      3.54627       6.54268      -1.10281
                        -----------------------------------------
Total Dipole Moment    :      1.03060       0.91267      -0.70103
                        -----------------------------------------
Magnitude (a.u.)       :      1.54484
Magnitude (Debye)      :      3.92668

Rotational constants in cm-1:     0.052951     0.015302     0.014499
Rotational constants in MHz :  1587.421497   458.742519   434.666881

                             ****ORCA TERMINATED NORMALLY****
TOTAL RUN TIME: 0 days 0 hours 34 minutes 18 seconds 860 msec
