                         Program Version 4.2.0 -  RELEASE  -
|  1> # Test redundant internal optimization
|  2> #
|  3> ! RKS B3LYP  Opt TightSCF SmallPrint
|  4>
|  5> %basis
|  6>         Basis "6-31G"
|  7> end
|  8>
|  9> %geom
| 10> Constraints
| 11> { D 4  0  15  12  270.0   C } # D for Dihedral angle
| 12> { D 0  15  12  16  300.0   C } # D for Dihedral angle
| 13> { D 0  4  3  2   C } # D for Dihedral angle
| 14> { D 4  3  2  1   C } # D for Dihedral angle
| 15> { D 3  2  1  0   C } # D for Dihedral angle
| 16> { D 2  1  0  4   C } # D for Dihedral angle
| 17> { D 1  0  4  3   C } # D for Dihedral angle
| 18> { D 16  20  19  18   C } # D for Dihedral angle
| 19> { D 20  19  18  17   C } # D for Dihedral angle
| 20> { D 19  18  17  16   C } # D for Dihedral angle
| 21> { D 18  17  16  20   C } # D for Dihedral angle
| 22> { D 17  16  20  19   C } # D for Dihedral angle
| 23> { D 15  12  16  20   C } # D for Dihedral angle
| 24> end
| 25> end
| 26>
| 27>
| 28> #%pal
| 29> #nprocs 8
| 30> #end
| 31>
| 32> * xyz 0 1
| 33> C  -21.048   26.222   46.251
| 34> C  -20.361   27.558   45.944
| 35> C  -20.329   28.222   47.341
| 36> C  -20.110   27.022   48.296
| 37> O  -20.473   25.807   47.535
| 38> H  -20.833   25.428   45.533
| 39> H  -19.344   27.382   45.576
| 40> H  -20.898   28.157   45.201
| 41> H  -19.543   28.978   47.434
| 42> H  -21.289   28.710   47.548
| 43> H  -20.733   27.082   49.195
| 44> H  -19.064   26.913   48.597
| 45> C  -23.420   25.119   46.072
| 46> H  -23.140   24.328   46.779
| 47> H  -24.491   25.323   46.192
| 48> O  -22.586   26.394   46.375
| 49> C  -23.199   24.585   44.630
| 50> C  -24.121   23.399   44.328
| 51> C  -25.460   24.111   44.025
| 52> C  -25.012   25.414   43.316
| 53> O  -23.583   25.601   43.643
| 54> H  -22.136   24.381   44.483
| 55> O  -23.612   22.633   43.076
| 56> H  -24.196   22.690   45.160
| 57> H  -26.131   23.508   43.404
| 58> H  -25.985   24.341   44.960
| 59> H  -25.575   26.291   43.656
| 60> H  -25.088   25.344   42.227
| 61> H  -23.529   23.324   42.230
| 62> *
| 63>
| 64>                          ****END OF INPUT****
 Total Charge           Charge          ....    0
 Multiplicity           Mult            ....    1
 Number of Electrons    NEL             ....  102
FINAL SINGLE POINT ENERGY      -652.833487692216
FINAL SINGLE POINT ENERGY      -652.856847208605
FINAL SINGLE POINT ENERGY      -652.861522619957
FINAL SINGLE POINT ENERGY      -652.862326959328
FINAL SINGLE POINT ENERGY      -652.862444160163
FINAL SINGLE POINT ENERGY      -652.862458364301
                    ***********************HURRAY********************

CARTESIAN COORDINATES (ANGSTROEM)
---------------------------------
  C    -21.017139   26.175510   46.181652
  C    -20.442172   27.571643   45.939005
  C    -20.456863   28.171998   47.363903
  C    -20.139138   26.953334   48.259530
  O    -20.412551   25.754043   47.429474
  H    -20.751168   25.421767   45.439442
  H    -19.416873   27.480829   45.561892
  H    -21.039485   28.136988   45.221557
  H    -19.729843   28.980294   47.488810
  H    -21.453860   28.563499   47.585607
  H    -20.759659   26.909823   49.158328
  H    -19.084408   26.900978   48.546698
  C    -23.292077   25.172694   46.038780
  H    -23.071952   24.370895   46.760359
  H    -24.303678   25.540127   46.227542
  O    -22.446456   26.324145   46.312408
  C    -23.177456   24.606865   44.620215
  C    -24.139414   23.436915   44.365253
  C    -25.464078   24.179761   44.045130
  C    -24.980426   25.442718   43.288030
  O    -23.539408   25.597027   43.601111
  H    -22.150506   24.300359   44.403150
  O    -23.688641   22.629240   43.243629
  H    -24.223637   22.741844   45.201552
  H    -26.125351   23.548515   43.446040
  H    -25.986678   24.443837   44.971086
  H    -25.510412   26.349065   43.595803
  H    -25.065612   25.340695   42.201323
  H    -23.420059   23.221592   42.509690

 Multiplicity           Mult            ....    1
 Number of Electrons    NEL             ....  102
 Basis Dimension        Dim             ....  149

ORBITAL ENERGIES
----------------

  NO   OCC          E(Eh)            E(eV)
   0   2.0000     -19.145104      -520.9648
   1   2.0000     -19.142925      -520.9055
   2   2.0000     -19.140286      -520.8336
   3   2.0000     -19.132732      -520.6281
   4   2.0000     -10.273305      -279.5508
   5   2.0000     -10.247183      -278.8400
   6   2.0000     -10.238309      -278.5986
   7   2.0000     -10.234537      -278.4959
   8   2.0000     -10.232368      -278.4369
   9   2.0000     -10.219349      -278.0826
  10   2.0000     -10.194120      -277.3961
  11   2.0000     -10.179152      -276.9888
  12   2.0000     -10.178145      -276.9614
  13   2.0000      -1.049554       -28.5598
  14   2.0000      -1.038901       -28.2699
  15   2.0000      -1.009751       -27.4767
  16   2.0000      -0.988960       -26.9110
  17   2.0000      -0.790057       -21.4986
  18   2.0000      -0.780178       -21.2297
  19   2.0000      -0.766931       -20.8693
  20   2.0000      -0.730828       -19.8868
  21   2.0000      -0.673972       -18.3397
  22   2.0000      -0.608956       -16.5705
  23   2.0000      -0.607057       -16.5189
  24   2.0000      -0.591819       -16.1042
  25   2.0000      -0.569390       -15.4939
  26   2.0000      -0.531046       -14.4505
  27   2.0000      -0.512490       -13.9456
  28   2.0000      -0.492101       -13.3908
  29   2.0000      -0.487508       -13.2658
  30   2.0000      -0.473702       -12.8901
  31   2.0000      -0.456011       -12.4087
  32   2.0000      -0.452778       -12.3207
  33   2.0000      -0.436298       -11.8723
  34   2.0000      -0.430544       -11.7157
  35   2.0000      -0.408269       -11.1096
  36   2.0000      -0.398828       -10.8527
  37   2.0000      -0.395300       -10.7566
  38   2.0000      -0.376999       -10.2587
  39   2.0000      -0.369281       -10.0486
  40   2.0000      -0.360367        -9.8061
  41   2.0000      -0.350343        -9.5333
  42   2.0000      -0.344417        -9.3721
  43   2.0000      -0.335555        -9.1309
  44   2.0000      -0.320332        -8.7167
  45   2.0000      -0.310785        -8.4569
  46   2.0000      -0.298221        -8.1150
  47   2.0000      -0.276755        -7.5309
  48   2.0000      -0.269041        -7.3210
  49   2.0000      -0.247309        -6.7296
  50   2.0000      -0.240398        -6.5416
  51   0.0000       0.062327         1.6960
  52   0.0000       0.086939         2.3657
  53   0.0000       0.089391         2.4324
  54   0.0000       0.092695         2.5224
  55   0.0000       0.100701         2.7402

MULLIKEN ATOMIC CHARGES
-----------------------
   0 C :    0.279605
   1 C :   -0.254799
   2 C :   -0.298934
   3 C :   -0.000644
   4 O :   -0.513276
   5 H :    0.144335
   6 H :    0.141353
   7 H :    0.162584
   8 H :    0.138217
   9 H :    0.162543
  10 H :    0.145588
  11 H :    0.139383
  12 C :    0.003728
  13 H :    0.140896
  14 H :    0.149644
  15 O :   -0.511658
  16 C :    0.040565
  17 C :    0.078558
  18 C :   -0.305705
  19 C :   -0.027825
  20 O :   -0.515411
  21 H :    0.166643
  22 O :   -0.600064
  23 H :    0.156399
  24 H :    0.165941
  25 H :    0.148507
  26 H :    0.150611
  27 H :    0.148383
  28 H :    0.364833
Sum of atomic charges:   -0.0000000

LOEWDIN ATOMIC CHARGES
----------------------
   0 C :    0.172055
   1 C :   -0.214492
   2 C :   -0.216391
   3 C :   -0.027346
   4 O :   -0.330431
   5 H :    0.097742
   6 H :    0.111982
   7 H :    0.126838
   8 H :    0.112060
   9 H :    0.119257
  10 H :    0.104564
  11 H :    0.100946
  12 C :   -0.040755
  13 H :    0.102350
  14 H :    0.113587
  15 O :   -0.316535
  16 C :    0.001115
  17 C :    0.036767
  18 C :   -0.242434
  19 C :   -0.037669
  20 O :   -0.327880
  21 H :    0.113975
  22 O :   -0.412948
  23 H :    0.117712
  24 H :    0.127849
  25 H :    0.114665
  26 H :    0.106713
  27 H :    0.103256
  28 H :    0.283448

  Mayer bond orders larger than 0.100000
B(  0-C ,  1-C ) :   0.9494 B(  0-C ,  4-O ) :   0.9063 B(  0-C ,  5-H ) :   0.9127
B(  0-C , 15-O ) :   0.8582 B(  1-C ,  2-C ) :   0.9572 B(  1-C ,  6-H ) :   0.9407
B(  1-C ,  7-H ) :   0.9351 B(  2-C ,  3-C ) :   0.9547 B(  2-C ,  8-H ) :   0.9455
B(  2-C ,  9-H ) :   0.9442 B(  3-C ,  4-O ) :   0.8403 B(  3-C , 10-H ) :   0.9359
B(  3-C , 11-H ) :   0.9404 B( 12-C , 13-H ) :   0.9098 B( 12-C , 14-H ) :   0.9398
B( 12-C , 15-O ) :   0.8604 B( 12-C , 16-C ) :   0.8823 B( 16-C , 17-C ) :   0.8947
B( 16-C , 20-O ) :   0.8611 B( 16-C , 21-H ) :   0.9165 B( 17-C , 18-C ) :   0.9124
B( 17-C , 22-O ) :   0.8940 B( 17-C , 23-H ) :   0.9320 B( 18-C , 19-C ) :   0.9400
B( 18-C , 24-H ) :   0.9370 B( 18-C , 25-H ) :   0.9333 B( 19-C , 20-O ) :   0.8485
B( 19-C , 26-H ) :   0.9342 B( 19-C , 27-H ) :   0.9371 B( 22-O , 28-H ) :   0.7940

FINAL SINGLE POINT ENERGY      -652.862460240881

DIPOLE MOMENT
-------------
                                X             Y             Z
Electronic contribution:      0.57896      -3.12495      -1.55371
Nuclear contribution   :     -1.09920       3.66540       1.48456
                        -----------------------------------------
Total Dipole Moment    :     -0.52024       0.54045      -0.06915
                        -----------------------------------------
Magnitude (a.u.)       :      0.75333
Magnitude (Debye)      :      1.91482

Rotational constants in cm-1:     0.066315     0.011792     0.011224
Rotational constants in MHz :  1988.059923   353.515460   336.478917

                             ****ORCA TERMINATED NORMALLY****
TOTAL RUN TIME: 0 days 0 hours 25 minutes 57 seconds 101 msec
