                         Program Version 4.2.0 -  RELEASE  -
|  1> # Test redundant internal optimization
|  2> #
|  3> ! RKS B3LYP  Opt TightSCF SmallPrint
|  4>
|  5> %basis
|  6>         Basis "6-31G"
|  7> end
|  8>
|  9> %geom
| 10> Constraints
| 11> { D 4  0  15  12  15.0   C } # D for Dihedral angle
| 12> { D 0  15  12  16  225.0   C } # D for Dihedral angle
| 13> { D 0  4  3  2   C } # D for Dihedral angle
| 14> { D 4  3  2  1   C } # D for Dihedral angle
| 15> { D 3  2  1  0   C } # D for Dihedral angle
| 16> { D 2  1  0  4   C } # D for Dihedral angle
| 17> { D 1  0  4  3   C } # D for Dihedral angle
| 18> { D 16  20  19  18   C } # D for Dihedral angle
| 19> { D 20  19  18  17   C } # D for Dihedral angle
| 20> { D 19  18  17  16   C } # D for Dihedral angle
| 21> { D 18  17  16  20   C } # D for Dihedral angle
| 22> { D 17  16  20  19   C } # D for Dihedral angle
| 23> { D 15  12  16  20   C } # D for Dihedral angle
| 24> end
| 25> end
| 26>
| 27>
| 28> #%pal
| 29> #nprocs 8
| 30> #end
| 31>
| 32> * xyz 0 1
| 33> C  -21.048   26.222   46.251
| 34> C  -20.361   27.558   45.944
| 35> C  -20.329   28.222   47.341
| 36> C  -20.110   27.022   48.296
| 37> O  -20.473   25.807   47.535
| 38> H  -20.833   25.428   45.533
| 39> H  -19.344   27.382   45.576
| 40> H  -20.898   28.157   45.201
| 41> H  -19.543   28.978   47.434
| 42> H  -21.289   28.710   47.548
| 43> H  -20.733   27.082   49.195
| 44> H  -19.064   26.913   48.597
| 45> C  -23.128   26.462   47.829
| 46> H  -22.350   26.118   48.522
| 47> H  -23.390   27.495   48.093
| 48> O  -22.586   26.394   46.375
| 49> C  -24.393   25.585   48.041
| 50> C  -25.497   25.949   47.041
| 51> C  -25.016   25.220   45.764
| 52> C  -24.363   23.930   46.319
| 53> O  -24.095   24.178   47.753
| 54> H  -24.695   25.640   49.088
| 55> O  -26.858   25.376   47.520
| 56> H  -25.608   27.029   46.897
| 57> H  -25.831   25.008   45.064
| 58> H  -24.274   25.833   45.237
| 59> H  -23.423   23.684   45.815
| 60> H  -25.032   23.066   46.262
| 61> H  -26.771   24.294   47.670
| 62> *
| 63>
| 64>                          ****END OF INPUT****
 Total Charge           Charge          ....    0
 Multiplicity           Mult            ....    1
 Number of Electrons    NEL             ....  102
FINAL SINGLE POINT ENERGY      -652.831719027892
FINAL SINGLE POINT ENERGY      -652.854452027288
FINAL SINGLE POINT ENERGY      -652.859038441395
FINAL SINGLE POINT ENERGY      -652.860660718050
FINAL SINGLE POINT ENERGY      -652.860784927334
FINAL SINGLE POINT ENERGY      -652.860808176815
                    ***********************HURRAY********************

CARTESIAN COORDINATES (ANGSTROEM)
---------------------------------
  C    -21.097139   26.253956   46.395291
  C    -20.427241   27.571796   46.001110
  C    -20.237064   28.257335   47.377250
  C    -19.937772   27.070220   48.319285
  O    -20.409009   25.854078   47.596090
  H    -20.963741   25.445896   45.674455
  H    -19.459154   27.357929   45.533466
  H    -21.038413   28.152712   45.307170
  H    -19.428210   28.994299   47.372812
  H    -21.157686   28.771945   47.673132
  H    -20.457912   27.132810   49.278782
  H    -18.868634   26.927187   48.497809
  C    -23.155954   26.472213   47.851131
  H    -22.442533   26.111654   48.596212
  H    -23.431939   27.512322   48.078534
  O    -22.545349   26.400828   46.532219
  C    -24.398476   25.583996   47.932207
  C    -25.541022   25.897288   46.955524
  C    -25.085989   25.139379   45.680989
  C    -24.391810   23.880133   46.254558
  O    -24.085099   24.179433   47.673505
  H    -24.768100   25.640581   48.964055
  O    -26.808646   25.399285   47.472661
  H    -25.699401   26.963797   46.791381
  H    -25.943478   24.902630   45.044713
  H    -24.373171   25.753228   45.128081
  H    -23.458899   23.643843   45.735985
  H    -25.037879   22.995735   46.245522
  H    -26.685280   24.475491   47.777070

 Multiplicity           Mult            ....    1
 Number of Electrons    NEL             ....  102
 Basis Dimension        Dim             ....  149

ORBITAL ENERGIES
----------------

  NO   OCC          E(Eh)            E(eV)
   0   2.0000     -19.154914      -521.2317
   1   2.0000     -19.142810      -520.9023
   2   2.0000     -19.133150      -520.6395
   3   2.0000     -19.130073      -520.5557
   4   2.0000     -10.283682      -279.8332
   5   2.0000     -10.236638      -278.5531
   6   2.0000     -10.231339      -278.4089
   7   2.0000     -10.228759      -278.3387
   8   2.0000     -10.228525      -278.3323
   9   2.0000     -10.218768      -278.0668
  10   2.0000     -10.196393      -277.4580
  11   2.0000     -10.190045      -277.2852
  12   2.0000     -10.171650      -276.7847
  13   2.0000      -1.058858       -28.8130
  14   2.0000      -1.028189       -27.9784
  15   2.0000      -1.000558       -27.2266
  16   2.0000      -0.991912       -26.9913
  17   2.0000      -0.794863       -21.6293
  18   2.0000      -0.775475       -21.1017
  19   2.0000      -0.761263       -20.7150
  20   2.0000      -0.735572       -20.0159
  21   2.0000      -0.671674       -18.2772
  22   2.0000      -0.608675       -16.5629
  23   2.0000      -0.601329       -16.3630
  24   2.0000      -0.592072       -16.1111
  25   2.0000      -0.566562       -15.4169
  26   2.0000      -0.525384       -14.2964
  27   2.0000      -0.510068       -13.8797
  28   2.0000      -0.496447       -13.5090
  29   2.0000      -0.484887       -13.1945
  30   2.0000      -0.474886       -12.9223
  31   2.0000      -0.460143       -12.5211
  32   2.0000      -0.447769       -12.1844
  33   2.0000      -0.437284       -11.8991
  34   2.0000      -0.422080       -11.4854
  35   2.0000      -0.409106       -11.1323
  36   2.0000      -0.397225       -10.8091
  37   2.0000      -0.382853       -10.4180
  38   2.0000      -0.378838       -10.3087
  39   2.0000      -0.367747       -10.0069
  40   2.0000      -0.364915        -9.9298
  41   2.0000      -0.358147        -9.7457
  42   2.0000      -0.348632        -9.4868
  43   2.0000      -0.332835        -9.0569
  44   2.0000      -0.322752        -8.7825
  45   2.0000      -0.308708        -8.4004
  46   2.0000      -0.294947        -8.0259
  47   2.0000      -0.270930        -7.3724
  48   2.0000      -0.263564        -7.1719
  49   2.0000      -0.254731        -6.9316
  50   2.0000      -0.235303        -6.4029
  51   0.0000       0.069509         1.8914
  52   0.0000       0.078230         2.1287
  53   0.0000       0.093803         2.5525
  54   0.0000       0.101693         2.7672
  55   0.0000       0.108187         2.9439

MULLIKEN ATOMIC CHARGES
-----------------------
   0 C :    0.305381
   1 C :   -0.256552
   2 C :   -0.312468
   3 C :   -0.020985
   4 O :   -0.503813
   5 H :    0.160890
   6 H :    0.146702
   7 H :    0.157276
   8 H :    0.150450
   9 H :    0.154100
  10 H :    0.146831
  11 H :    0.154516
  12 C :   -0.008930
  13 H :    0.174596
  14 H :    0.119610
  15 O :   -0.543374
  16 C :    0.073342
  17 C :    0.074058
  18 C :   -0.288653
  19 C :   -0.018531
  20 O :   -0.524047
  21 H :    0.150594
  22 O :   -0.604590
  23 H :    0.149475
  24 H :    0.147538
  25 H :    0.173373
  26 H :    0.146877
  27 H :    0.134524
  28 H :    0.361812
Sum of atomic charges:   -0.0000000

LOEWDIN ATOMIC CHARGES
----------------------
   0 C :    0.184347
   1 C :   -0.223460
   2 C :   -0.220989
   3 C :   -0.033534
   4 O :   -0.311204
   5 H :    0.108797
   6 H :    0.115209
   7 H :    0.123730
   8 H :    0.118894
   9 H :    0.113251
  10 H :    0.103191
  11 H :    0.109017
  12 C :   -0.043103
  13 H :    0.120602
  14 H :    0.091428
  15 O :   -0.342032
  16 C :    0.013311
  17 C :    0.037327
  18 C :   -0.243007
  19 C :   -0.032442
  20 O :   -0.328155
  21 H :    0.113508
  22 O :   -0.419010
  23 H :    0.114818
  24 H :    0.117630
  25 H :    0.129938
  26 H :    0.105317
  27 H :    0.095469
  28 H :    0.281154

  Mayer bond orders larger than 0.100000
B(  0-C ,  1-C ) :   0.9243 B(  0-C ,  4-O ) :   0.9188 B(  0-C ,  5-H ) :   0.9322
B(  0-C , 15-O ) :   0.8419 B(  1-C ,  2-C ) :   0.9536 B(  1-C ,  6-H ) :   0.9344
B(  1-C ,  7-H ) :   0.9367 B(  2-C ,  3-C ) :   0.9505 B(  2-C ,  8-H ) :   0.9447
B(  2-C ,  9-H ) :   0.9449 B(  3-C ,  4-O ) :   0.8300 B(  3-C , 10-H ) :   0.9318
B(  3-C , 11-H ) :   0.9403 B( 12-C , 13-H ) :   0.9023 B( 12-C , 14-H ) :   0.9142
B( 12-C , 15-O ) :   0.8468 B( 12-C , 16-C ) :   0.8985 B( 16-C , 17-C ) :   0.9104
B( 16-C , 20-O ) :   0.8758 B( 16-C , 21-H ) :   0.9211 B( 17-C , 18-C ) :   0.9267
B( 17-C , 22-O ) :   0.8890 B( 17-C , 23-H ) :   0.9356 B( 18-C , 19-C ) :   0.9451
B( 18-C , 24-H ) :   0.9369 B( 18-C , 25-H ) :   0.9193 B( 19-C , 20-O ) :   0.8416
B( 19-C , 26-H ) :   0.9350 B( 19-C , 27-H ) :   0.9376 B( 22-O , 28-H ) :   0.7962

FINAL SINGLE POINT ENERGY      -652.860809304071

DIPOLE MOMENT
-------------
                                X             Y             Z
Electronic contribution:     -2.82467      -3.87105       1.39224
Nuclear contribution   :      3.82054       4.79868      -1.64790
                        -----------------------------------------
Total Dipole Moment    :      0.99588       0.92763      -0.25566
                        -----------------------------------------
Magnitude (a.u.)       :      1.38479
Magnitude (Debye)      :      3.51985

Rotational constants in cm-1:     0.061551     0.013574     0.013440
Rotational constants in MHz :  1845.252365   406.930338   402.913812

                             ****ORCA TERMINATED NORMALLY****
TOTAL RUN TIME: 0 days 0 hours 20 minutes 47 seconds 238 msec
