                         Program Version 4.2.0 -  RELEASE  -
|  1> # Test redundant internal optimization
|  2> #
|  3> ! RKS B3LYP  Opt TightSCF SmallPrint
|  4>
|  5> %basis
|  6>         Basis "6-31G"
|  7> end
|  8>
|  9> %geom
| 10> Constraints
| 11> { D 4  0  15  12  165.0   C } # D for Dihedral angle
| 12> { D 0  15  12  16  60.0   C } # D for Dihedral angle
| 13> { D 0  4  3  2   C } # D for Dihedral angle
| 14> { D 4  3  2  1   C } # D for Dihedral angle
| 15> { D 3  2  1  0   C } # D for Dihedral angle
| 16> { D 2  1  0  4   C } # D for Dihedral angle
| 17> { D 1  0  4  3   C } # D for Dihedral angle
| 18> { D 16  20  19  18   C } # D for Dihedral angle
| 19> { D 20  19  18  17   C } # D for Dihedral angle
| 20> { D 19  18  17  16   C } # D for Dihedral angle
| 21> { D 18  17  16  20   C } # D for Dihedral angle
| 22> { D 17  16  20  19   C } # D for Dihedral angle
| 23> { D 15  12  16  20   C } # D for Dihedral angle
| 24> end
| 25> end
| 26>
| 27>
| 28> #%pal
| 29> #nprocs 8
| 30> #end
| 31>
| 32> * xyz 0 1
| 33> C  -21.048   26.222   46.251
| 34> C  -20.361   27.558   45.944
| 35> C  -20.329   28.222   47.341
| 36> C  -20.110   27.022   48.296
| 37> O  -20.473   25.807   47.535
| 38> H  -20.833   25.428   45.533
| 39> H  -19.344   27.382   45.576
| 40> H  -20.898   28.157   45.201
| 41> H  -19.543   28.978   47.434
| 42> H  -21.289   28.710   47.548
| 43> H  -20.733   27.082   49.195
| 44> H  -19.064   26.913   48.597
| 45> C  -23.260   27.170   45.210
| 46> H  -24.338   27.242   45.400
| 47> H  -22.855   28.188   45.142
| 48> O  -22.586   26.394   46.375
| 49> C  -23.051   26.485   43.832
| 50> C  -23.738   25.115   43.781
| 51> C  -25.212   25.514   43.532
| 52> C  -25.091   26.762   42.622
| 53> O  -23.706   27.257   42.771
| 54> H  -21.984   26.464   43.600
| 55> H  -23.349   24.530   42.940
| 56> O  -23.548   24.288   45.082
| 57> H  -25.796   24.713   43.067
| 58> H  -25.697   25.773   44.481
| 59> H  -25.789   27.556   42.905
| 60> H  -25.236   26.523   41.565
| 61> H  -23.931   24.856   45.937
| 62> *
| 63>
| 64>                          ****END OF INPUT****
 Total Charge           Charge          ....    0
 Multiplicity           Mult            ....    1
 Number of Electrons    NEL             ....  102
FINAL SINGLE POINT ENERGY      -652.827698686876
FINAL SINGLE POINT ENERGY      -652.852627777439
FINAL SINGLE POINT ENERGY      -652.858897062155
FINAL SINGLE POINT ENERGY      -652.860867280044
FINAL SINGLE POINT ENERGY      -652.861353338037
FINAL SINGLE POINT ENERGY      -652.861551152246
FINAL SINGLE POINT ENERGY      -652.861584417905
FINAL SINGLE POINT ENERGY      -652.861589100092
                    ***********************HURRAY********************

CARTESIAN COORDINATES (ANGSTROEM)
---------------------------------
  C    -21.086481   26.237425   46.222715
  C    -20.275274   27.497939   45.933489
  C    -20.318550   28.229318   47.297790
  C    -20.283557   27.066462   48.309522
  O    -20.675858   25.855680   47.538432
  H    -20.909097   25.384763   45.564034
  H    -19.250818   27.197391   45.685793
  H    -20.654005   28.103940   45.106793
  H    -19.479467   28.919640   47.425729
  H    -21.248581   28.798688   47.391612
  H    -20.983631   27.191600   49.138729
  H    -19.282004   26.871726   48.702735
  C    -23.206887   27.206407   45.210454
  H    -24.250904   27.262380   45.529234
  H    -22.826388   28.230548   45.123066
  O    -22.538993   26.485434   46.299866
  C    -23.075467   26.501675   43.853046
  C    -23.745239   25.117928   43.788288
  C    -25.239002   25.502903   43.588093
  C    -25.165205   26.767750   42.709114
  O    -23.767504   27.287198   42.832624
  H    -22.025606   26.463144   43.545564
  H    -23.382563   24.582784   42.905280
  O    -23.483237   24.252278   44.911171
  H    -25.805755   24.693769   43.119633
  H    -25.694027   25.704790   44.564619
  H    -25.860278   27.554636   43.018500
  H    -25.322917   26.553914   41.648121
  H    -23.354702   24.788893   45.728956

 Multiplicity           Mult            ....    1
 Number of Electrons    NEL             ....  102
 Basis Dimension        Dim             ....  149

ORBITAL ENERGIES
----------------

  NO   OCC          E(Eh)            E(eV)
   0   2.0000     -19.158256      -521.3226
   1   2.0000     -19.147884      -521.0404
   2   2.0000     -19.145313      -520.9704
   3   2.0000     -19.124369      -520.4005
   4   2.0000     -10.288418      -279.9621
   5   2.0000     -10.239616      -278.6341
   6   2.0000     -10.238510      -278.6040
   7   2.0000     -10.236879      -278.5596
   8   2.0000     -10.231820      -278.4220
   9   2.0000     -10.231248      -278.4064
  10   2.0000     -10.197225      -277.4806
  11   2.0000     -10.194962      -277.4190
  12   2.0000     -10.185220      -277.1539
  13   2.0000      -1.062330       -28.9075
  14   2.0000      -1.029813       -28.0226
  15   2.0000      -1.006770       -27.3956
  16   2.0000      -0.997381       -27.1401
  17   2.0000      -0.794971       -21.6323
  18   2.0000      -0.777327       -21.1522
  19   2.0000      -0.769849       -20.9487
  20   2.0000      -0.741171       -20.1683
  21   2.0000      -0.684794       -18.6342
  22   2.0000      -0.609549       -16.5867
  23   2.0000      -0.608118       -16.5477
  24   2.0000      -0.600975       -16.3534
  25   2.0000      -0.571626       -15.5547
  26   2.0000      -0.536828       -14.6078
  27   2.0000      -0.517196       -14.0736
  28   2.0000      -0.502247       -13.6668
  29   2.0000      -0.491659       -13.3787
  30   2.0000      -0.474266       -12.9054
  31   2.0000      -0.462925       -12.5968
  32   2.0000      -0.449381       -12.2283
  33   2.0000      -0.433710       -11.8018
  34   2.0000      -0.426351       -11.6016
  35   2.0000      -0.420944       -11.4545
  36   2.0000      -0.408085       -11.1046
  37   2.0000      -0.398882       -10.8541
  38   2.0000      -0.385274       -10.4839
  39   2.0000      -0.373188       -10.1550
  40   2.0000      -0.366592        -9.9755
  41   2.0000      -0.363859        -9.9011
  42   2.0000      -0.353188        -9.6107
  43   2.0000      -0.339033        -9.2256
  44   2.0000      -0.325977        -8.8703
  45   2.0000      -0.312323        -8.4987
  46   2.0000      -0.300793        -8.1850
  47   2.0000      -0.275801        -7.5049
  48   2.0000      -0.265275        -7.2185
  49   2.0000      -0.255659        -6.9568
  50   2.0000      -0.242220        -6.5911
  51   0.0000       0.057142         1.5549
  52   0.0000       0.070115         1.9079
  53   0.0000       0.087981         2.3941
  54   0.0000       0.093836         2.5534
  55   0.0000       0.102257         2.7826

MULLIKEN ATOMIC CHARGES
-----------------------
   0 C :    0.298835
   1 C :   -0.295322
   2 C :   -0.298600
   3 C :   -0.002641
   4 O :   -0.499045
   5 H :    0.165261
   6 H :    0.157652
   7 H :    0.151872
   8 H :    0.147363
   9 H :    0.158607
  10 H :    0.157120
  11 H :    0.147129
  12 C :   -0.047884
  13 H :    0.163465
  14 H :    0.152482
  15 O :   -0.533758
  16 C :    0.050859
  17 C :    0.112783
  18 C :   -0.310077
  19 C :   -0.025391
  20 O :   -0.521472
  21 H :    0.153140
  22 H :    0.152855
  23 O :   -0.629785
  24 H :    0.156418
  25 H :    0.147109
  26 H :    0.145447
  27 H :    0.153500
  28 H :    0.392079
Sum of atomic charges:   -0.0000000

LOEWDIN ATOMIC CHARGES
----------------------
   0 C :    0.174764
   1 C :   -0.231776
   2 C :   -0.215986
   3 C :   -0.024613
   4 O :   -0.298813
   5 H :    0.107368
   6 H :    0.121983
   7 H :    0.117626
   8 H :    0.117048
   9 H :    0.116164
  10 H :    0.111157
  11 H :    0.105588
  12 C :   -0.056149
  13 H :    0.116624
  14 H :    0.105827
  15 O :   -0.339227
  16 C :    0.001495
  17 C :    0.039975
  18 C :   -0.240045
  19 C :   -0.032939
  20 O :   -0.324513
  21 H :    0.109023
  22 H :    0.110007
  23 O :   -0.425672
  24 H :    0.123609
  25 H :    0.111666
  26 H :    0.103486
  27 H :    0.107980
  28 H :    0.288343

  Mayer bond orders larger than 0.100000
B(  0-C ,  1-C ) :   0.9346 B(  0-C ,  4-O ) :   0.9402 B(  0-C ,  5-H ) :   0.9150
B(  0-C , 15-O ) :   0.7900 B(  1-C ,  2-C ) :   0.9487 B(  1-C ,  6-H ) :   0.9340
B(  1-C ,  7-H ) :   0.9271 B(  2-C ,  3-C ) :   0.9549 B(  2-C ,  8-H ) :   0.9447
B(  2-C ,  9-H ) :   0.9450 B(  3-C ,  4-O ) :   0.8308 B(  3-C , 10-H ) :   0.9345
B(  3-C , 11-H ) :   0.9395 B( 12-C , 13-H ) :   0.9353 B( 12-C , 14-H ) :   0.9176
B( 12-C , 15-O ) :   0.8162 B( 12-C , 16-C ) :   0.8813 B( 16-C , 17-C ) :   0.9024
B( 16-C , 20-O ) :   0.8494 B( 16-C , 21-H ) :   0.9284 B( 17-C , 18-C ) :   0.9029
B( 17-C , 22-H ) :   0.9337 B( 17-C , 23-O ) :   0.9335 B( 18-C , 19-C ) :   0.9401
B( 18-C , 24-H ) :   0.9432 B( 18-C , 25-H ) :   0.9425 B( 19-C , 20-O ) :   0.8319
B( 19-C , 26-H ) :   0.9333 B( 19-C , 27-H ) :   0.9378 B( 23-O , 28-H ) :   0.7281

FINAL SINGLE POINT ENERGY      -652.861589864792

DIPOLE MOMENT
-------------
                                X             Y             Z
Electronic contribution:     -0.05237      -3.53300       0.12462
Nuclear contribution   :      0.20558       4.80749      -0.24235
                        -----------------------------------------
Total Dipole Moment    :      0.15320       1.27449      -0.11773
                        -----------------------------------------
Magnitude (a.u.)       :      1.28905
Magnitude (Debye)      :      3.27650

Rotational constants in cm-1:     0.061286     0.014035     0.012518
Rotational constants in MHz :  1837.303160   420.762745   375.274468

                             ****ORCA TERMINATED NORMALLY****
TOTAL RUN TIME: 0 days 0 hours 24 minutes 16 seconds 381 msec
