                         Program Version 4.2.0 -  RELEASE  -
|  1> # Test redundant internal optimization
|  2> #
|  3> ! RKS B3LYP  Opt TightSCF SmallPrint
|  4>
|  5> %basis
|  6>         Basis "6-31G"
|  7> end
|  8>
|  9> %geom
| 10> Constraints
| 11> { D 4  0  15  12  60.0   C } # D for Dihedral angle
| 12> { D 0  15  12  16  165.0   C } # D for Dihedral angle
| 13> { D 0  4  3  2   C } # D for Dihedral angle
| 14> { D 4  3  2  1   C } # D for Dihedral angle
| 15> { D 3  2  1  0   C } # D for Dihedral angle
| 16> { D 2  1  0  4   C } # D for Dihedral angle
| 17> { D 1  0  4  3   C } # D for Dihedral angle
| 18> { D 16  20  19  18   C } # D for Dihedral angle
| 19> { D 20  19  18  17   C } # D for Dihedral angle
| 20> { D 19  18  17  16   C } # D for Dihedral angle
| 21> { D 18  17  16  20   C } # D for Dihedral angle
| 22> { D 17  16  20  19   C } # D for Dihedral angle
| 23> { D 15  12  16  20   C } # D for Dihedral angle
| 24> end
| 25> end
| 26>
| 27>
| 28> #%pal
| 29> #nprocs 8
| 30> #end
| 31>
| 32> * xyz 0 1
| 33> C  -21.048   26.222   46.251
| 34> C  -20.361   27.558   45.944
| 35> C  -20.329   28.222   47.341
| 36> C  -20.110   27.022   48.296
| 37> O  -20.473   25.807   47.535
| 38> H  -20.833   25.428   45.533
| 39> H  -19.344   27.382   45.576
| 40> H  -20.898   28.157   45.201
| 41> H  -19.543   28.978   47.434
| 42> H  -21.289   28.710   47.548
| 43> H  -20.733   27.082   49.195
| 44> H  -19.064   26.913   48.597
| 45> C  -23.051   27.452   47.413
| 46> H  -22.917   27.049   48.425
| 47> H  -22.449   28.366   47.326
| 48> O  -22.586   26.394   46.375
| 49> C  -24.543   27.849   47.239
| 50> C  -25.471   26.660   47.514
| 51> C  -25.498   26.635   49.061
| 52> C  -25.427   28.136   49.439
| 53> O  -24.928   28.847   48.243
| 54> H  -24.678   28.311   46.260
| 55> H  -26.470   26.863   47.114
| 56> O  -24.957   25.330   46.898
| 57> H  -26.391   26.145   49.462
| 58> H  -24.621   26.098   49.444
| 59> H  -24.750   28.326   50.278
| 60> H  -26.410   28.553   49.675
| 61> H  -23.957   25.107   47.286
| 62> *
| 63>
| 64>                          ****END OF INPUT****
 Total Charge           Charge          ....    0
 Multiplicity           Mult            ....    1
 Number of Electrons    NEL             ....  102
FINAL SINGLE POINT ENERGY      -652.802337196712
FINAL SINGLE POINT ENERGY      -652.834748303602
FINAL SINGLE POINT ENERGY      -652.853491057771
FINAL SINGLE POINT ENERGY      -652.858465643708
FINAL SINGLE POINT ENERGY      -652.860282873094
FINAL SINGLE POINT ENERGY      -652.861406170220
FINAL SINGLE POINT ENERGY      -652.861913346307
FINAL SINGLE POINT ENERGY      -652.862041268803
FINAL SINGLE POINT ENERGY      -652.862068462949
FINAL SINGLE POINT ENERGY      -652.862071200632
                    ***********************HURRAY********************

CARTESIAN COORDINATES (ANGSTROEM)
---------------------------------
  C    -21.186581   26.342939   46.467538
  C    -20.350097   27.504370   45.913142
  C    -19.917293   28.244275   47.213981
  C    -19.727783   27.077799   48.215212
  O    -20.454994   25.918407   47.635079
  H    -21.215459   25.482648   45.797421
  H    -19.479933   27.087211   45.396400
  H    -20.907247   28.135035   45.215537
  H    -18.989569   28.808764   47.076063
  H    -20.680981   28.949862   47.546710
  H    -20.132344   27.288141   49.209213
  H    -18.681323   26.775221   48.310560
  C    -23.104358   27.568283   47.644028
  H    -22.956768   27.201966   48.666664
  H    -22.597240   28.529613   47.534755
  O    -22.599249   26.576965   46.690179
  C    -24.588424   27.785036   47.322864
  C    -25.491232   26.553235   47.509305
  C    -25.693073   26.541437   49.053156
  C    -25.731617   28.039649   49.413776
  O    -25.125828   28.769928   48.258738
  H    -24.676538   28.211808   46.320316
  H    -26.452022   26.752361   47.021065
  O    -24.993517   25.313056   46.976277
  H    -26.605924   26.011860   49.338426
  H    -24.846549   26.024409   49.518263
  H    -25.165721   28.285118   50.317863
  H    -26.750318   28.422522   49.521224
  H    -24.027017   25.400085   46.799246

 Multiplicity           Mult            ....    1
 Number of Electrons    NEL             ....  102
 Basis Dimension        Dim             ....  149

ORBITAL ENERGIES
----------------

  NO   OCC          E(Eh)            E(eV)
   0   2.0000     -19.166050      -521.5347
   1   2.0000     -19.154489      -521.2201
   2   2.0000     -19.140716      -520.8454
   3   2.0000     -19.110255      -520.0165
   4   2.0000     -10.292764      -280.0804
   5   2.0000     -10.240168      -278.6491
   6   2.0000     -10.239310      -278.6258
   7   2.0000     -10.234469      -278.4941
   8   2.0000     -10.228401      -278.3290
   9   2.0000     -10.226251      -278.2704
  10   2.0000     -10.201960      -277.6095
  11   2.0000     -10.200848      -277.5792
  12   2.0000     -10.177452      -276.9426
  13   2.0000      -1.066429       -29.0190
  14   2.0000      -1.026069       -27.9208
  15   2.0000      -1.010372       -27.4936
  16   2.0000      -0.990564       -26.9546
  17   2.0000      -0.798577       -21.7304
  18   2.0000      -0.780108       -21.2278
  19   2.0000      -0.767664       -20.8892
  20   2.0000      -0.738393       -20.0927
  21   2.0000      -0.683644       -18.6029
  22   2.0000      -0.614558       -16.7230
  23   2.0000      -0.602175       -16.3860
  24   2.0000      -0.595379       -16.2011
  25   2.0000      -0.577962       -15.7271
  26   2.0000      -0.532284       -14.4842
  27   2.0000      -0.514309       -13.9951
  28   2.0000      -0.511631       -13.9222
  29   2.0000      -0.486713       -13.2441
  30   2.0000      -0.476557       -12.9678
  31   2.0000      -0.465008       -12.6535
  32   2.0000      -0.442907       -12.0521
  33   2.0000      -0.433313       -11.7910
  34   2.0000      -0.427671       -11.6375
  35   2.0000      -0.423701       -11.5295
  36   2.0000      -0.411518       -11.1980
  37   2.0000      -0.392588       -10.6829
  38   2.0000      -0.387660       -10.5488
  39   2.0000      -0.370616       -10.0850
  40   2.0000      -0.368076       -10.0159
  41   2.0000      -0.359802        -9.7907
  42   2.0000      -0.348495        -9.4830
  43   2.0000      -0.339380        -9.2350
  44   2.0000      -0.328284        -8.9331
  45   2.0000      -0.319993        -8.7075
  46   2.0000      -0.293499        -7.9865
  47   2.0000      -0.273710        -7.4480
  48   2.0000      -0.267726        -7.2852
  49   2.0000      -0.250109        -6.8058
  50   2.0000      -0.239523        -6.5178
  51   0.0000       0.055359         1.5064
  52   0.0000       0.069945         1.9033
  53   0.0000       0.087316         2.3760
  54   0.0000       0.097959         2.6656
  55   0.0000       0.100199         2.7266

MULLIKEN ATOMIC CHARGES
-----------------------
   0 C :    0.311636
   1 C :   -0.274985
   2 C :   -0.319365
   3 C :   -0.013578
   4 O :   -0.503927
   5 H :    0.171286
   6 H :    0.161103
   7 H :    0.155586
   8 H :    0.150833
   9 H :    0.154532
  10 H :    0.149190
  11 H :    0.154290
  12 C :   -0.021485
  13 H :    0.150927
  14 H :    0.156000
  15 O :   -0.563719
  16 C :    0.056557
  17 C :    0.122240
  18 C :   -0.304119
  19 C :   -0.018210
  20 O :   -0.524838
  21 H :    0.158055
  22 H :    0.145885
  23 O :   -0.638182
  24 H :    0.151634
  25 H :    0.149095
  26 H :    0.138632
  27 H :    0.148498
  28 H :    0.396430
Sum of atomic charges:   -0.0000000

LOEWDIN ATOMIC CHARGES
----------------------
   0 C :    0.177800
   1 C :   -0.225834
   2 C :   -0.223594
   3 C :   -0.032512
   4 O :   -0.317478
   5 H :    0.116064
   6 H :    0.124911
   7 H :    0.122379
   8 H :    0.118402
   9 H :    0.111151
  10 H :    0.105165
  11 H :    0.108275
  12 C :   -0.047958
  13 H :    0.104481
  14 H :    0.107415
  15 O :   -0.331027
  16 C :    0.020119
  17 C :    0.042277
  18 C :   -0.237573
  19 C :   -0.031615
  20 O :   -0.326419
  21 H :    0.114775
  22 H :    0.105318
  23 O :   -0.433134
  24 H :    0.121525
  25 H :    0.112554
  26 H :    0.100288
  27 H :    0.105955
  28 H :    0.288287

  Mayer bond orders larger than 0.100000
B(  0-C ,  1-C ) :   0.9241 B(  0-C ,  4-O ) :   0.9192 B(  0-C ,  5-H ) :   0.9350
B(  0-C , 15-O ) :   0.8474 B(  1-C ,  2-C ) :   0.9551 B(  1-C ,  6-H ) :   0.9338
B(  1-C ,  7-H ) :   0.9358 B(  2-C ,  3-C ) :   0.9472 B(  2-C ,  8-H ) :   0.9440
B(  2-C ,  9-H ) :   0.9365 B(  3-C ,  4-O ) :   0.8373 B(  3-C , 10-H ) :   0.9336
B(  3-C , 11-H ) :   0.9385 B( 12-C , 13-H ) :   0.9223 B( 12-C , 14-H ) :   0.9090
B( 12-C , 15-O ) :   0.7806 B( 12-C , 16-C ) :   0.9046 B( 16-C , 17-C ) :   0.9134
B( 16-C , 20-O ) :   0.8568 B( 16-C , 21-H ) :   0.9295 B( 17-C , 18-C ) :   0.8994
B( 17-C , 22-H ) :   0.9298 B( 17-C , 23-O ) :   0.9397 B( 18-C , 19-C ) :   0.9373
B( 18-C , 24-H ) :   0.9452 B( 18-C , 25-H ) :   0.9428 B( 19-C , 20-O ) :   0.8309
B( 19-C , 26-H ) :   0.9351 B( 19-C , 27-H ) :   0.9390 B( 23-O , 28-H ) :   0.7237

FINAL SINGLE POINT ENERGY      -652.862072378782

DIPOLE MOMENT
-------------
                                X             Y             Z
Electronic contribution:     -2.40920      -2.84039      -2.19256
Nuclear contribution   :      3.61123       3.84662       2.42990
                        -----------------------------------------
Total Dipole Moment    :      1.20203       1.00623       0.23734
                        -----------------------------------------
Magnitude (a.u.)       :      1.58547
Magnitude (Debye)      :      4.02995

Rotational constants in cm-1:     0.050410     0.014372     0.013184
Rotational constants in MHz :  1511.263498   430.864269   395.247232

                             ****ORCA TERMINATED NORMALLY****
TOTAL RUN TIME: 0 days 0 hours 31 minutes 2 seconds 212 msec
