                         Program Version 4.2.0 -  RELEASE  -
|  1> # Test redundant internal optimization
|  2> #
|  3> ! RKS B3LYP  Opt TightSCF SmallPrint
|  4>
|  5> %basis
|  6>         Basis "6-31G"
|  7> end
|  8>
|  9> %geom
| 10> Constraints
| 11> { D 4  0  15  12  315.0   C } # D for Dihedral angle
| 12> { D 0  15  12  16  165.0   C } # D for Dihedral angle
| 13> { D 0  4  3  2   C } # D for Dihedral angle
| 14> { D 4  3  2  1   C } # D for Dihedral angle
| 15> { D 3  2  1  0   C } # D for Dihedral angle
| 16> { D 2  1  0  4   C } # D for Dihedral angle
| 17> { D 1  0  4  3   C } # D for Dihedral angle
| 18> { D 16  20  19  18   C } # D for Dihedral angle
| 19> { D 20  19  18  17   C } # D for Dihedral angle
| 20> { D 19  18  17  16   C } # D for Dihedral angle
| 21> { D 18  17  16  20   C } # D for Dihedral angle
| 22> { D 17  16  20  19   C } # D for Dihedral angle
| 23> { D 15  12  16  20   C } # D for Dihedral angle
| 24> end
| 25> end
| 26>
| 27>
| 28> #%pal
| 29> #nprocs 8
| 30> #end
| 31>
| 32> * xyz 0 1
| 33> C  -21.048   26.222   46.251
| 34> C  -20.361   27.558   45.944
| 35> C  -20.329   28.222   47.341
| 36> C  -20.110   27.022   48.296
| 37> O  -20.473   25.807   47.535
| 38> H  -20.833   25.428   45.533
| 39> H  -19.344   27.382   45.576
| 40> H  -20.898   28.157   45.201
| 41> H  -19.543   28.978   47.434
| 42> H  -21.289   28.710   47.548
| 43> H  -20.733   27.082   49.195
| 44> H  -19.064   26.913   48.597
| 45> C  -23.319   25.255   47.135
| 46> H  -23.372   24.367   46.492
| 47> H  -22.769   24.986   48.046
| 48> O  -22.586   26.394   46.375
| 49> C  -24.764   25.644   47.552
| 50> C  -24.776   26.933   48.382
| 51> C  -24.638   28.014   47.282
| 52> C  -25.435   27.414   46.097
| 53> O  -25.570   25.967   46.370
| 54> H  -25.238   24.789   48.038
| 55> O  -26.133   27.077   49.123
| 56> H  -23.971   26.976   49.123
| 57> H  -25.025   28.989   47.594
| 58> H  -23.583   28.143   47.012
| 59> H  -24.927   27.553   45.137
| 60> H  -26.447   27.823   46.025
| 61> H  -26.955   27.037   48.399
| 62> *
| 63>
| 64>                          ****END OF INPUT****
 Total Charge           Charge          ....    0
 Multiplicity           Mult            ....    1
 Number of Electrons    NEL             ....  102
FINAL SINGLE POINT ENERGY      -652.839308529064
FINAL SINGLE POINT ENERGY      -652.862485356553
FINAL SINGLE POINT ENERGY      -652.866788702179
FINAL SINGLE POINT ENERGY      -652.867917738269
FINAL SINGLE POINT ENERGY      -652.868039796260
FINAL SINGLE POINT ENERGY      -652.868057186970
                    ***********************HURRAY********************

CARTESIAN COORDINATES (ANGSTROEM)
---------------------------------
  C    -21.085661   26.139412   46.304900
  C    -20.444299   27.481932   45.953503
  C    -20.394369   28.177835   47.332350
  C    -20.120246   27.011679   48.307986
  O    -20.477495   25.771020   47.564978
  H    -20.863909   25.313956   45.619698
  H    -19.436460   27.305550   45.562417
  H    -21.023435   28.033377   45.209775
  H    -19.618793   28.948437   47.384547
  H    -21.357120   28.649842   47.549215
  H    -20.718111   27.061905   49.221679
  H    -19.063793   26.918655   48.574386
  C    -23.233413   25.284092   47.133522
  H    -23.298210   24.379536   46.512777
  H    -22.680998   25.039552   48.047551
  O    -22.520038   26.320174   46.389357
  C    -24.646637   25.736120   47.482804
  C    -24.782834   26.991365   48.357002
  C    -24.704932   28.124495   47.298176
  C    -25.422949   27.503842   46.073219
  O    -25.445628   26.040378   46.295219
  H    -25.135927   24.887900   47.977804
  O    -26.053385   26.987152   49.067067
  H    -24.021583   27.070259   49.133999
  H    -25.192176   29.032144   47.664058
  H    -23.661125   28.332554   47.062219
  H    -24.896756   27.707515   45.137021
  H    -26.463341   27.832082   45.978521
  H    -26.769376   26.759242   48.437253

 Multiplicity           Mult            ....    1
 Number of Electrons    NEL             ....  102
 Basis Dimension        Dim             ....  149

ORBITAL ENERGIES
----------------

  NO   OCC          E(Eh)            E(eV)
   0   2.0000     -19.150969      -521.1244
   1   2.0000     -19.148625      -521.0606
   2   2.0000     -19.135295      -520.6979
   3   2.0000     -19.133570      -520.6509
   4   2.0000     -10.283517      -279.8287
   5   2.0000     -10.235540      -278.5232
   6   2.0000     -10.233905      -278.4787
   7   2.0000     -10.231909      -278.4244
   8   2.0000     -10.226285      -278.2714
   9   2.0000     -10.220998      -278.1275
  10   2.0000     -10.193521      -277.3798
  11   2.0000     -10.191852      -277.3344
  12   2.0000     -10.175968      -276.9022
  13   2.0000      -1.060703       -28.8632
  14   2.0000      -1.030993       -28.0547
  15   2.0000      -1.003127       -27.2965
  16   2.0000      -0.995102       -27.0781
  17   2.0000      -0.796102       -21.6630
  18   2.0000      -0.775551       -21.1038
  19   2.0000      -0.763072       -20.7642
  20   2.0000      -0.734909       -19.9979
  21   2.0000      -0.671849       -18.2819
  22   2.0000      -0.607335       -16.5264
  23   2.0000      -0.597457       -16.2576
  24   2.0000      -0.595498       -16.2043
  25   2.0000      -0.574032       -15.6202
  26   2.0000      -0.524380       -14.2691
  27   2.0000      -0.509464       -13.8632
  28   2.0000      -0.500603       -13.6221
  29   2.0000      -0.489076       -13.3084
  30   2.0000      -0.470585       -12.8053
  31   2.0000      -0.463242       -12.6055
  32   2.0000      -0.448140       -12.1945
  33   2.0000      -0.430423       -11.7124
  34   2.0000      -0.422177       -11.4880
  35   2.0000      -0.411656       -11.2017
  36   2.0000      -0.405651       -11.0383
  37   2.0000      -0.385228       -10.4826
  38   2.0000      -0.380491       -10.3537
  39   2.0000      -0.365264        -9.9393
  40   2.0000      -0.364563        -9.9203
  41   2.0000      -0.355282        -9.6677
  42   2.0000      -0.351003        -9.5513
  43   2.0000      -0.343664        -9.3516
  44   2.0000      -0.322464        -8.7747
  45   2.0000      -0.304200        -8.2777
  46   2.0000      -0.300732        -8.1833
  47   2.0000      -0.268557        -7.3078
  48   2.0000      -0.266140        -7.2420
  49   2.0000      -0.260742        -7.0952
  50   2.0000      -0.240383        -6.5412
  51   0.0000       0.061263         1.6671
  52   0.0000       0.078425         2.1340
  53   0.0000       0.094430         2.5696
  54   0.0000       0.100522         2.7353
  55   0.0000       0.106124         2.8878

MULLIKEN ATOMIC CHARGES
-----------------------
   0 C :    0.300936
   1 C :   -0.265140
   2 C :   -0.306243
   3 C :   -0.011431
   4 O :   -0.513712
   5 H :    0.150219
   6 H :    0.149337
   7 H :    0.159139
   8 H :    0.146950
   9 H :    0.159697
  10 H :    0.147263
  11 H :    0.149742
  12 C :    0.003218
  13 H :    0.142394
  14 H :    0.156673
  15 O :   -0.534845
  16 C :    0.062240
  17 C :    0.075365
  18 C :   -0.293044
  19 C :   -0.014187
  20 O :   -0.527260
  21 H :    0.155126
  22 O :   -0.604558
  23 H :    0.147010
  24 H :    0.144580
  25 H :    0.172850
  26 H :    0.149133
  27 H :    0.135067
  28 H :    0.363482
Sum of atomic charges:   -0.0000000

LOEWDIN ATOMIC CHARGES
----------------------
   0 C :    0.176472
   1 C :   -0.213843
   2 C :   -0.217252
   3 C :   -0.029769
   4 O :   -0.325291
   5 H :    0.098192
   6 H :    0.116810
   7 H :    0.125236
   8 H :    0.116478
   9 H :    0.114406
  10 H :    0.104504
  11 H :    0.106511
  12 C :   -0.042268
  13 H :    0.103758
  14 H :    0.111477
  15 O :   -0.333280
  16 C :    0.014765
  17 C :    0.038744
  18 C :   -0.242140
  19 C :   -0.031617
  20 O :   -0.330288
  21 H :    0.116003
  22 O :   -0.417728
  23 H :    0.113501
  24 H :    0.117095
  25 H :    0.124021
  26 H :    0.107343
  27 H :    0.095826
  28 H :    0.282333

  Mayer bond orders larger than 0.100000
B(  0-C ,  1-C ) :   0.9480 B(  0-C ,  4-O ) :   0.8969 B(  0-C ,  5-H ) :   0.9205
B(  0-C , 15-O ) :   0.8529 B(  1-C ,  2-C ) :   0.9543 B(  1-C ,  6-H ) :   0.9384
B(  1-C ,  7-H ) :   0.9355 B(  2-C ,  3-C ) :   0.9550 B(  2-C ,  8-H ) :   0.9442
B(  2-C ,  9-H ) :   0.9394 B(  3-C ,  4-O ) :   0.8326 B(  3-C , 10-H ) :   0.9348
B(  3-C , 11-H ) :   0.9402 B( 12-C , 13-H ) :   0.9195 B( 12-C , 14-H ) :   0.9000
B( 12-C , 15-O ) :   0.8294 B( 12-C , 16-C ) :   0.9149 B( 16-C , 17-C ) :   0.9084
B( 16-C , 20-O ) :   0.8675 B( 16-C , 21-H ) :   0.9224 B( 17-C , 18-C ) :   0.9235
B( 17-C , 22-O ) :   0.8903 B( 17-C , 23-H ) :   0.9357 B( 18-C , 19-C ) :   0.9456
B( 18-C , 24-H ) :   0.9379 B( 18-C , 25-H ) :   0.9129 B( 19-C , 20-O ) :   0.8419
B( 19-C , 26-H ) :   0.9348 B( 19-C , 27-H ) :   0.9375 B( 22-O , 28-H ) :   0.7952

FINAL SINGLE POINT ENERGY      -652.868057570478

DIPOLE MOMENT
-------------
                                X             Y             Z
Electronic contribution:     -3.44204      -4.53109      -0.02799
Nuclear contribution   :      4.33681       5.26747      -0.22790
                        -----------------------------------------
Total Dipole Moment    :      0.89477       0.73638      -0.25589
                        -----------------------------------------
Magnitude (a.u.)       :      1.18674
Magnitude (Debye)      :      3.01645

Rotational constants in cm-1:     0.048663     0.015392     0.015070
Rotational constants in MHz :  1458.886218   461.451060   451.780702

                             ****ORCA TERMINATED NORMALLY****
TOTAL RUN TIME: 0 days 0 hours 20 minutes 4 seconds 472 msec
