                         Program Version 4.2.0 -  RELEASE  -
|  1> # Test redundant internal optimization
|  2> #
|  3> ! RKS B3LYP  Opt TightSCF SmallPrint
|  4>
|  5> %basis
|  6>         Basis "6-31G"
|  7> end
|  8>
|  9> %geom
| 10> Constraints
| 11> { D 4  0  15  12  150.0   C } # D for Dihedral angle
| 12> { D 0  15  12  16  15.0   C } # D for Dihedral angle
| 13> { D 0  4  3  2   C } # D for Dihedral angle
| 14> { D 4  3  2  1   C } # D for Dihedral angle
| 15> { D 3  2  1  0   C } # D for Dihedral angle
| 16> { D 2  1  0  4   C } # D for Dihedral angle
| 17> { D 1  0  4  3   C } # D for Dihedral angle
| 18> { D 16  20  19  18   C } # D for Dihedral angle
| 19> { D 20  19  18  17   C } # D for Dihedral angle
| 20> { D 19  18  17  16   C } # D for Dihedral angle
| 21> { D 18  17  16  20   C } # D for Dihedral angle
| 22> { D 17  16  20  19   C } # D for Dihedral angle
| 23> { D 15  12  16  20   C } # D for Dihedral angle
| 24> end
| 25> end
| 26>
| 27>
| 28> #%pal
| 29> #nprocs 8
| 30> #end
| 31>
| 32> * xyz 0 1
| 33> C  -21.048   26.222   46.251
| 34> C  -20.361   27.558   45.944
| 35> C  -20.329   28.222   47.341
| 36> C  -20.110   27.022   48.296
| 37> O  -20.473   25.807   47.535
| 38> H  -20.833   25.428   45.533
| 39> H  -19.344   27.382   45.576
| 40> H  -20.898   28.157   45.201
| 41> H  -19.543   28.978   47.434
| 42> H  -21.289   28.710   47.548
| 43> H  -20.733   27.082   49.195
| 44> H  -19.064   26.913   48.597
| 45> C  -23.210   27.459   45.431
| 46> H  -24.122   27.051   44.979
| 47> H  -23.480   28.360   45.996
| 48> O  -22.586   26.394   46.375
| 49> C  -22.247   27.887   44.290
| 50> C  -21.949   26.717   43.345
| 51> C  -23.224   26.689   42.469
| 52> C  -23.597   28.187   42.343
| 53> O  -22.885   28.891   43.431
| 54> H  -21.362   28.354   44.724
| 55> H  -21.066   26.942   42.736
| 56> O  -21.700   25.378   44.092
| 57> H  -23.059   26.217   41.495
| 58> H  -24.019   26.133   42.980
| 59> H  -24.673   28.361   42.448
| 60> H  -23.258   28.624   41.400
| 61> H  -22.573   25.133   44.708
| 62> *
| 63>
| 64>                          ****END OF INPUT****
 Total Charge           Charge          ....    0
 Multiplicity           Mult            ....    1
 Number of Electrons    NEL             ....  102
FINAL SINGLE POINT ENERGY      -652.660504249748
FINAL SINGLE POINT ENERGY      -652.734772450623
FINAL SINGLE POINT ENERGY      -652.777711715509
FINAL SINGLE POINT ENERGY      -652.803356938279
FINAL SINGLE POINT ENERGY      -652.818367447137
FINAL SINGLE POINT ENERGY      -652.827294685079
FINAL SINGLE POINT ENERGY      -652.832473889726
FINAL SINGLE POINT ENERGY      -652.835118689786
FINAL SINGLE POINT ENERGY      -652.835882498789
FINAL SINGLE POINT ENERGY      -652.836010200657
FINAL SINGLE POINT ENERGY      -652.837965835991
FINAL SINGLE POINT ENERGY      -652.839245807021
FINAL SINGLE POINT ENERGY      -652.840202451654
FINAL SINGLE POINT ENERGY      -652.840770150418
FINAL SINGLE POINT ENERGY      -652.841251122189
FINAL SINGLE POINT ENERGY      -652.841467563562
FINAL SINGLE POINT ENERGY      -652.841542185600
FINAL SINGLE POINT ENERGY      -652.841565523220
FINAL SINGLE POINT ENERGY      -652.841578136361
                    ***********************HURRAY********************

CARTESIAN COORDINATES (ANGSTROEM)
---------------------------------
  C    -20.992423   26.198665   46.465417
  C    -19.942634   27.278591   46.200899
  C    -20.065101   28.168539   47.465661
  C    -20.381983   27.135605   48.569599
  O    -20.851803   25.921483   47.865532
  H    -20.821897   25.262302   45.936698
  H    -18.962809   26.786707   46.176998
  H    -20.059376   27.817956   45.265215
  H    -19.149838   28.732002   47.669963
  H    -20.886830   28.884077   47.352139
  H    -21.163592   27.467419   49.258343
  H    -19.496114   26.844083   49.142435
  C    -23.039672   27.504573   45.336865
  H    -23.964782   26.988584   45.055396
  H    -23.332282   28.406327   45.888116
  O    -22.394958   26.597090   46.291797
  C    -22.339336   27.998229   44.054680
  C    -22.006837   26.913289   43.013102
  C    -23.399827   26.663294   42.354607
  C    -24.038537   28.069220   42.368036
  O    -23.279729   28.875968   43.360668
  H    -21.480860   28.627363   44.287929
  H    -21.298696   27.307026   42.280231
  O    -21.380833   25.713158   43.523342
  H    -23.307248   26.247385   41.348326
  H    -23.969030   25.951377   42.964383
  H    -25.095019   28.059762   42.653508
  H    -23.938549   28.580448   41.405933
  H    -21.994405   25.257477   44.137181

 Multiplicity           Mult            ....    1
 Number of Electrons    NEL             ....  102
 Basis Dimension        Dim             ....  149

ORBITAL ENERGIES
----------------

  NO   OCC          E(Eh)            E(eV)
   0   2.0000     -19.153144      -521.1835
   1   2.0000     -19.150346      -521.1074
   2   2.0000     -19.135643      -520.7073
   3   2.0000     -19.133380      -520.6457
   4   2.0000     -10.279499      -279.7194
   5   2.0000     -10.250766      -278.9375
   6   2.0000     -10.241798      -278.6935
   7   2.0000     -10.237921      -278.5880
   8   2.0000     -10.234722      -278.5010
   9   2.0000     -10.223042      -278.1831
  10   2.0000     -10.198831      -277.5243
  11   2.0000     -10.187522      -277.2166
  12   2.0000     -10.185607      -277.1644
  13   2.0000      -1.047416       -28.5016
  14   2.0000      -1.039562       -28.2879
  15   2.0000      -1.024020       -27.8650
  16   2.0000      -0.982034       -26.7225
  17   2.0000      -0.786611       -21.4048
  18   2.0000      -0.784814       -21.3559
  19   2.0000      -0.772209       -21.0129
  20   2.0000      -0.736348       -20.0370
  21   2.0000      -0.684181       -18.6175
  22   2.0000      -0.617700       -16.8085
  23   2.0000      -0.606186       -16.4952
  24   2.0000      -0.599061       -16.3013
  25   2.0000      -0.569228       -15.4895
  26   2.0000      -0.536541       -14.6000
  27   2.0000      -0.513208       -13.9651
  28   2.0000      -0.500291       -13.6136
  29   2.0000      -0.485811       -13.2196
  30   2.0000      -0.470190       -12.7945
  31   2.0000      -0.459040       -12.4911
  32   2.0000      -0.443609       -12.0712
  33   2.0000      -0.441006       -12.0004
  34   2.0000      -0.433534       -11.7971
  35   2.0000      -0.417943       -11.3728
  36   2.0000      -0.412572       -11.2267
  37   2.0000      -0.402442       -10.9510
  38   2.0000      -0.384493       -10.4626
  39   2.0000      -0.374237       -10.1835
  40   2.0000      -0.362303        -9.8588
  41   2.0000      -0.355327        -9.6689
  42   2.0000      -0.352273        -9.5858
  43   2.0000      -0.341587        -9.2950
  44   2.0000      -0.320962        -8.7338
  45   2.0000      -0.310468        -8.4483
  46   2.0000      -0.295073        -8.0293
  47   2.0000      -0.273879        -7.4526
  48   2.0000      -0.259327        -7.0567
  49   2.0000      -0.251269        -6.8374
  50   2.0000      -0.243096        -6.6150
  51   0.0000       0.048611         1.3228
  52   0.0000       0.067547         1.8380
  53   0.0000       0.078252         2.1293
  54   0.0000       0.090740         2.4692
  55   0.0000       0.099213         2.6997

MULLIKEN ATOMIC CHARGES
-----------------------
   0 C :    0.319444
   1 C :   -0.278574
   2 C :   -0.305131
   3 C :   -0.003089
   4 O :   -0.497425
   5 H :    0.146943
   6 H :    0.151310
   7 H :    0.144533
   8 H :    0.142549
   9 H :    0.152830
  10 H :    0.151556
  11 H :    0.144744
  12 C :   -0.001169
  13 H :    0.142652
  14 H :    0.157366
  15 O :   -0.554984
  16 C :    0.047618
  17 C :    0.089662
  18 C :   -0.321918
  19 C :   -0.018187
  20 O :   -0.521580
  21 H :    0.162558
  22 H :    0.166418
  23 O :   -0.599972
  24 H :    0.160740
  25 H :    0.145624
  26 H :    0.150932
  27 H :    0.154229
  28 H :    0.370322
Sum of atomic charges:   -0.0000000

LOEWDIN ATOMIC CHARGES
----------------------
   0 C :    0.189039
   1 C :   -0.226963
   2 C :   -0.219441
   3 C :   -0.027707
   4 O :   -0.303188
   5 H :    0.099748
   6 H :    0.120446
   7 H :    0.114294
   8 H :    0.114929
   9 H :    0.112491
  10 H :    0.107668
  11 H :    0.103242
  12 C :   -0.045888
  13 H :    0.104590
  14 H :    0.111275
  15 O :   -0.360366
  16 C :    0.003296
  17 C :    0.033001
  18 C :   -0.240456
  19 C :   -0.031560
  20 O :   -0.317901
  21 H :    0.111902
  22 H :    0.118650
  23 O :   -0.404424
  24 H :    0.125264
  25 H :    0.110267
  26 H :    0.105679
  27 H :    0.108223
  28 H :    0.283889

  Mayer bond orders larger than 0.100000
B(  0-C ,  1-C ) :   0.9321 B(  0-C ,  4-O ) :   0.9243 B(  0-C ,  5-H ) :   0.9186
B(  0-C , 15-O ) :   0.8211 B(  1-C ,  2-C ) :   0.9483 B(  1-C ,  6-H ) :   0.9326
B(  1-C ,  7-H ) :   0.9212 B(  2-C ,  3-C ) :   0.9535 B(  2-C ,  8-H ) :   0.9455
B(  2-C ,  9-H ) :   0.9456 B(  3-C ,  4-O ) :   0.8373 B(  3-C , 10-H ) :   0.9346
B(  3-C , 11-H ) :   0.9392 B( 12-C , 13-H ) :   0.9317 B( 12-C , 14-H ) :   0.9214
B( 12-C , 15-O ) :   0.8362 B( 12-C , 16-C ) :   0.8850 B( 16-C , 17-C ) :   0.8827
B( 16-C , 20-O ) :   0.8262 B( 16-C , 21-H ) :   0.9196 B( 17-C , 18-C ) :   0.9216
B( 17-C , 22-H ) :   0.9328 B( 17-C , 23-O ) :   0.9088 B( 18-C , 19-C ) :   0.9392
B( 18-C , 24-H ) :   0.9412 B( 18-C , 25-H ) :   0.9403 B( 19-C , 20-O ) :   0.8329
B( 19-C , 26-H ) :   0.9322 B( 19-C , 27-H ) :   0.9377 B( 23-O , 28-H ) :   0.7786

FINAL SINGLE POINT ENERGY      -652.841577345256

DIPOLE MOMENT
-------------
                                X             Y             Z
Electronic contribution:     -0.81165      -2.30105       0.66547
Nuclear contribution   :      0.79766       2.78840      -1.41006
                        -----------------------------------------
Total Dipole Moment    :     -0.01399       0.48735      -0.74459
                        -----------------------------------------
Magnitude (a.u.)       :      0.89001
Magnitude (Debye)      :      2.26223

Rotational constants in cm-1:     0.058806     0.014547     0.013657
Rotational constants in MHz :  1762.969880   436.119090   409.417811

                             ****ORCA TERMINATED NORMALLY****
TOTAL RUN TIME: 0 days 2 hours 21 minutes 35 seconds 340 msec
