                         Program Version 4.2.0 -  RELEASE  -
|  1> # Test redundant internal optimization
|  2> #
|  3> ! RKS B3LYP  Opt TightSCF SmallPrint
|  4>
|  5> %basis
|  6>         Basis "6-31G"
|  7> end
|  8>
|  9> %geom
| 10> Constraints
| 11> { D 4  0  15  12  240.0   C } # D for Dihedral angle
| 12> { D 0  15  12  16  90.0   C } # D for Dihedral angle
| 13> { D 0  4  3  2   C } # D for Dihedral angle
| 14> { D 4  3  2  1   C } # D for Dihedral angle
| 15> { D 3  2  1  0   C } # D for Dihedral angle
| 16> { D 2  1  0  4   C } # D for Dihedral angle
| 17> { D 1  0  4  3   C } # D for Dihedral angle
| 18> { D 16  20  19  18   C } # D for Dihedral angle
| 19> { D 20  19  18  17   C } # D for Dihedral angle
| 20> { D 19  18  17  16   C } # D for Dihedral angle
| 21> { D 18  17  16  20   C } # D for Dihedral angle
| 22> { D 17  16  20  19   C } # D for Dihedral angle
| 23> { D 15  12  16  20   C } # D for Dihedral angle
| 24> end
| 25> end
| 26>
| 27>
| 28> #%pal
| 29> #nprocs 8
| 30> #end
| 31>
| 32> * xyz 0 1
| 33> C  -21.048   26.222   46.251
| 34> C  -20.361   27.558   45.944
| 35> C  -20.329   28.222   47.341
| 36> C  -20.110   27.022   48.296
| 37> O  -20.473   25.807   47.535
| 38> H  -20.833   25.428   45.533
| 39> H  -19.344   27.382   45.576
| 40> H  -20.898   28.157   45.201
| 41> H  -19.543   28.978   47.434
| 42> H  -21.289   28.710   47.548
| 43> H  -20.733   27.082   49.195
| 44> H  -19.064   26.913   48.597
| 45> C  -23.430   25.483   45.442
| 46> H  -24.364   25.996   45.183
| 47> H  -22.884   25.274   44.513
| 48> O  -22.586   26.394   46.375
| 49> C  -23.787   24.120   46.097
| 50> C  -24.518   23.203   45.110
| 51> C  -23.346   22.661   44.258
| 52> C  -22.192   22.539   45.284
| 53> O  -22.568   23.381   46.441
| 54> H  -24.325   24.301   47.030
| 55> O  -25.220   22.047   45.875
| 56> H  -25.271   23.728   44.512
| 57> H  -23.578   21.706   43.775
| 58> H  -23.089   23.380   43.471
| 59> H  -21.235   22.889   44.882
| 60> H  -22.069   21.517   45.655
| 61> H  -24.484   21.507   46.481
| 62> *
| 63>
| 64>                          ****END OF INPUT****
 Total Charge           Charge          ....    0
 Multiplicity           Mult            ....    1
 Number of Electrons    NEL             ....  102
FINAL SINGLE POINT ENERGY      -652.832148415758
FINAL SINGLE POINT ENERGY      -652.854799886272
FINAL SINGLE POINT ENERGY      -652.858855742197
FINAL SINGLE POINT ENERGY      -652.859549701091
FINAL SINGLE POINT ENERGY      -652.859621044468
FINAL SINGLE POINT ENERGY      -652.859630336961
                    ***********************HURRAY********************

CARTESIAN COORDINATES (ANGSTROEM)
---------------------------------
  C    -21.011991   26.200801   46.192667
  C    -20.423355   27.592403   45.964034
  C    -20.466878   28.197262   47.388707
  C    -20.177512   26.975852   48.287857
  O    -20.441762   25.782591   47.446042
  H    -20.750013   25.442878   45.451116
  H    -19.388186   27.497674   45.613904
  H    -20.993415   28.169763   45.232573
  H    -19.740089   29.003028   47.528432
  H    -21.467546   28.592766   47.587398
  H    -20.819512   26.930435   49.170971
  H    -19.129809   26.915548   48.598392
  C    -23.279986   25.503996   45.422846
  H    -24.196959   26.078360   45.252563
  H    -22.780010   25.362817   44.451826
  O    -22.457941   26.323626   46.290063
  C    -23.633327   24.155555   46.051452
  C    -24.472878   23.233856   45.155098
  C    -23.383173   22.581933   44.264849
  C    -22.178896   22.443516   45.229014
  O    -22.439055   23.364247   46.363185
  H    -24.130022   24.341216   47.008697
  O    -25.183765   22.243773   45.946904
  H    -25.243726   23.751939   44.582138
  H    -23.729550   21.623210   43.872346
  H    -23.144955   23.234167   43.416804
  H    -21.226264   22.711591   44.761545
  H    -22.088098   21.436266   45.646161
  H    -24.592328   21.915932   46.657417

 Multiplicity           Mult            ....    1
 Number of Electrons    NEL             ....  102
 Basis Dimension        Dim             ....  149

ORBITAL ENERGIES
----------------

  NO   OCC          E(Eh)            E(eV)
   0   2.0000     -19.141827      -520.8756
   1   2.0000     -19.138996      -520.7986
   2   2.0000     -19.137106      -520.7471
   3   2.0000     -19.129438      -520.5385
   4   2.0000     -10.272737      -279.5354
   5   2.0000     -10.243833      -278.7489
   6   2.0000     -10.235012      -278.5088
   7   2.0000     -10.231619      -278.4165
   8   2.0000     -10.230845      -278.3954
   9   2.0000     -10.216750      -278.0119
  10   2.0000     -10.190861      -277.3074
  11   2.0000     -10.179412      -276.9959
  12   2.0000     -10.179299      -276.9928
  13   2.0000      -1.046539       -28.4778
  14   2.0000      -1.035035       -28.1647
  15   2.0000      -1.006291       -27.3826
  16   2.0000      -0.988567       -26.9003
  17   2.0000      -0.786860       -21.4116
  18   2.0000      -0.779113       -21.2007
  19   2.0000      -0.765390       -20.8273
  20   2.0000      -0.727093       -19.7852
  21   2.0000      -0.673971       -18.3397
  22   2.0000      -0.604535       -16.4502
  23   2.0000      -0.595635       -16.2080
  24   2.0000      -0.591054       -16.0834
  25   2.0000      -0.579644       -15.7729
  26   2.0000      -0.525210       -14.2917
  27   2.0000      -0.508663       -13.8414
  28   2.0000      -0.495604       -13.4861
  29   2.0000      -0.483631       -13.1603
  30   2.0000      -0.472375       -12.8540
  31   2.0000      -0.456061       -12.4101
  32   2.0000      -0.450542       -12.2599
  33   2.0000      -0.438582       -11.9344
  34   2.0000      -0.422498       -11.4967
  35   2.0000      -0.409778       -11.1506
  36   2.0000      -0.394835       -10.7440
  37   2.0000      -0.392211       -10.6726
  38   2.0000      -0.374443       -10.1891
  39   2.0000      -0.368249       -10.0206
  40   2.0000      -0.357724        -9.7342
  41   2.0000      -0.350446        -9.5361
  42   2.0000      -0.344942        -9.3863
  43   2.0000      -0.334240        -9.0951
  44   2.0000      -0.310720        -8.4551
  45   2.0000      -0.304190        -8.2774
  46   2.0000      -0.300014        -8.1638
  47   2.0000      -0.272085        -7.4038
  48   2.0000      -0.265937        -7.2365
  49   2.0000      -0.249931        -6.8010
  50   2.0000      -0.232020        -6.3136
  51   0.0000       0.059706         1.6247
  52   0.0000       0.084731         2.3057
  53   0.0000       0.087308         2.3758
  54   0.0000       0.101619         2.7652
  55   0.0000       0.108518         2.9529

MULLIKEN ATOMIC CHARGES
-----------------------
   0 C :    0.300494
   1 C :   -0.254502
   2 C :   -0.300127
   3 C :   -0.000789
   4 O :   -0.492048
   5 H :    0.138075
   6 H :    0.139565
   7 H :    0.142629
   8 H :    0.137905
   9 H :    0.161388
  10 H :    0.150030
  11 H :    0.137633
  12 C :   -0.026447
  13 H :    0.150445
  14 H :    0.120175
  15 O :   -0.511378
  16 C :    0.074659
  17 C :    0.079478
  18 C :   -0.293826
  19 C :   -0.026808
  20 O :   -0.505256
  21 H :    0.170495
  22 O :   -0.603217
  23 H :    0.149746
  24 H :    0.162465
  25 H :    0.140739
  26 H :    0.142694
  27 H :    0.148260
  28 H :    0.367524
Sum of atomic charges:   -0.0000000

LOEWDIN ATOMIC CHARGES
----------------------
   0 C :    0.180151
   1 C :   -0.222763
   2 C :   -0.217027
   3 C :   -0.027283
   4 O :   -0.305797
   5 H :    0.098368
   6 H :    0.110587
   7 H :    0.116201
   8 H :    0.112017
   9 H :    0.118757
  10 H :    0.106978
  11 H :    0.100101
  12 C :   -0.040147
  13 H :    0.113548
  14 H :    0.089409
  15 O :   -0.327169
  16 C :    0.006519
  17 C :    0.034981
  18 C :   -0.241216
  19 C :   -0.037809
  20 O :   -0.318094
  21 H :    0.121423
  22 O :   -0.414569
  23 H :    0.114378
  24 H :    0.127136
  25 H :    0.110514
  26 H :    0.101803
  27 H :    0.104022
  28 H :    0.284980

  Mayer bond orders larger than 0.100000
B(  0-C ,  1-C ) :   0.9402 B(  0-C ,  4-O ) :   0.9329 B(  0-C ,  5-H ) :   0.9195
B(  0-C , 15-O ) :   0.8265 B(  1-C ,  2-C ) :   0.9575 B(  1-C ,  6-H ) :   0.9376
B(  1-C ,  7-H ) :   0.9389 B(  2-C ,  3-C ) :   0.9531 B(  2-C ,  8-H ) :   0.9456
B(  2-C ,  9-H ) :   0.9439 B(  3-C ,  4-O ) :   0.8440 B(  3-C , 10-H ) :   0.9347
B(  3-C , 11-H ) :   0.9398 B( 12-C , 13-H ) :   0.9289 B( 12-C , 14-H ) :   0.9228
B( 12-C , 15-O ) :   0.8781 B( 12-C , 16-C ) :   0.8816 B( 16-C , 17-C ) :   0.8935
B( 16-C , 20-O ) :   0.8643 B( 16-C , 21-H ) :   0.9237 B( 17-C , 18-C ) :   0.9096
B( 17-C , 22-O ) :   0.8920 B( 17-C , 23-H ) :   0.9339 B( 18-C , 19-C ) :   0.9373
B( 18-C , 24-H ) :   0.9376 B( 18-C , 25-H ) :   0.9341 B( 19-C , 20-O ) :   0.8508
B( 19-C , 26-H ) :   0.9340 B( 19-C , 27-H ) :   0.9381 B( 22-O , 28-H ) :   0.7925

FINAL SINGLE POINT ENERGY      -652.859632150154

DIPOLE MOMENT
-------------
                                X             Y             Z
Electronic contribution:     -2.52090      -3.16784       2.52981
Nuclear contribution   :      2.96448       3.66018      -3.55029
                        -----------------------------------------
Total Dipole Moment    :      0.44358       0.49234      -1.02048
                        -----------------------------------------
Magnitude (a.u.)       :      1.21678
Magnitude (Debye)      :      3.09280

Rotational constants in cm-1:     0.065956     0.012547     0.012215
Rotational constants in MHz :  1977.307602   376.150524   366.206154

                             ****ORCA TERMINATED NORMALLY****
TOTAL RUN TIME: 0 days 0 hours 24 minutes 15 seconds 125 msec
