                         Program Version 4.2.0 -  RELEASE  -
|  1> # Test redundant internal optimization
|  2> #
|  3> ! RKS B3LYP  Opt TightSCF SmallPrint
|  4>
|  5> %basis
|  6>         Basis "6-31G"
|  7> end
|  8>
|  9> %geom
| 10> Constraints
| 11> { D 4  0  15  12  15.0   C } # D for Dihedral angle
| 12> { D 0  15  12  16  255.0   C } # D for Dihedral angle
| 13> { D 0  4  3  2   C } # D for Dihedral angle
| 14> { D 4  3  2  1   C } # D for Dihedral angle
| 15> { D 3  2  1  0   C } # D for Dihedral angle
| 16> { D 2  1  0  4   C } # D for Dihedral angle
| 17> { D 1  0  4  3   C } # D for Dihedral angle
| 18> { D 16  20  19  18   C } # D for Dihedral angle
| 19> { D 20  19  18  17   C } # D for Dihedral angle
| 20> { D 19  18  17  16   C } # D for Dihedral angle
| 21> { D 18  17  16  20   C } # D for Dihedral angle
| 22> { D 17  16  20  19   C } # D for Dihedral angle
| 23> { D 15  12  16  20   C } # D for Dihedral angle
| 24> end
| 25> end
| 26>
| 27>
| 28> #%pal
| 29> #nprocs 8
| 30> #end
| 31>
| 32> * xyz 0 1
| 33> C  -21.048   26.222   46.251
| 34> C  -20.361   27.558   45.944
| 35> C  -20.329   28.222   47.341
| 36> C  -20.110   27.022   48.296
| 37> O  -20.473   25.807   47.535
| 38> H  -20.833   25.428   45.533
| 39> H  -19.344   27.382   45.576
| 40> H  -20.898   28.157   45.201
| 41> H  -19.543   28.978   47.434
| 42> H  -21.289   28.710   47.548
| 43> H  -20.733   27.082   49.195
| 44> H  -19.064   26.913   48.597
| 45> C  -23.128   26.462   47.829
| 46> H  -22.295   26.652   48.517
| 47> H  -23.850   27.282   47.932
| 48> O  -22.586   26.394   46.375
| 49> C  -23.836   25.151   48.268
| 50> C  -24.960   24.772   47.297
| 51> C  -24.165   24.135   46.132
| 52> C  -22.995   23.421   46.853
| 53> O  -22.905   24.019   48.203
| 54> H  -24.151   25.246   49.309
| 55> H  -25.624   24.035   47.760
| 56> O  -25.814   25.989   46.848
| 57> H  -24.769   23.445   45.533
| 58> H  -23.787   24.916   45.462
| 59> H  -22.038   23.556   46.336
| 60> H  -23.177   22.351   46.987
| 61> H  -25.168   26.740   46.381
| 62> *
| 63>
| 64>                          ****END OF INPUT****
 Total Charge           Charge          ....    0
 Multiplicity           Mult            ....    1
 Number of Electrons    NEL             ....  102
FINAL SINGLE POINT ENERGY      -652.822713494904
FINAL SINGLE POINT ENERGY      -652.847593501301
FINAL SINGLE POINT ENERGY      -652.854142839357
FINAL SINGLE POINT ENERGY      -652.856688966395
FINAL SINGLE POINT ENERGY      -652.856958423274
FINAL SINGLE POINT ENERGY      -652.857011138997
FINAL SINGLE POINT ENERGY      -652.857015433294
                    ***********************HURRAY********************

CARTESIAN COORDINATES (ANGSTROEM)
---------------------------------
  C    -21.068072   26.338430   46.358319
  C    -20.416579   27.677542   46.007818
  C    -20.191943   28.301252   47.408711
  C    -19.860265   27.072621   48.285178
  O    -20.345288   25.890051   47.518348
  H    -20.941257   25.567741   45.595463
  H    -19.460417   27.491259   45.504968
  H    -21.048604   28.286573   45.357948
  H    -19.388009   29.043471   47.415745
  H    -21.107483   28.794476   47.753170
  H    -20.348486   27.084785   49.263377
  H    -18.784955   26.929422   48.425127
  C    -23.146517   26.476798   47.835787
  H    -22.406764   26.671927   48.615286
  H    -23.880471   27.290528   47.828447
  O    -22.513877   26.467365   46.521570
  C    -23.863727   25.168969   48.180184
  C    -24.997196   24.781769   47.214903
  C    -24.222012   24.019095   46.095456
  C    -23.108792   23.302063   46.889056
  O    -23.007924   23.993899   48.199066
  H    -24.246092   25.286418   49.202243
  H    -25.709135   24.124654   47.719266
  O    -25.789476   25.897142   46.738872
  H    -24.866683   23.325275   45.547839
  H    -23.801128   24.749036   45.398784
  H    -22.133968   23.342730   46.394909
  H    -23.354679   22.256748   47.102985
  H    -25.263202   26.414965   46.094175

 Multiplicity           Mult            ....    1
 Number of Electrons    NEL             ....  102
 Basis Dimension        Dim             ....  149

ORBITAL ENERGIES
----------------

  NO   OCC          E(Eh)            E(eV)
   0   2.0000     -19.151592      -521.1413
   1   2.0000     -19.143630      -520.9246
   2   2.0000     -19.135659      -520.7077
   3   2.0000     -19.128244      -520.5060
   4   2.0000     -10.283908      -279.8394
   5   2.0000     -10.234600      -278.4976
   6   2.0000     -10.231510      -278.4135
   7   2.0000     -10.228588      -278.3340
   8   2.0000     -10.223358      -278.1917
   9   2.0000     -10.218079      -278.0481
  10   2.0000     -10.195192      -277.4253
  11   2.0000     -10.189514      -277.2708
  12   2.0000     -10.176515      -276.9170
  13   2.0000      -1.056690       -28.7540
  14   2.0000      -1.022820       -27.8323
  15   2.0000      -1.005098       -27.3501
  16   2.0000      -0.993978       -27.0475
  17   2.0000      -0.793136       -21.5823
  18   2.0000      -0.771205       -20.9856
  19   2.0000      -0.763441       -20.7743
  20   2.0000      -0.733991       -19.9729
  21   2.0000      -0.675686       -18.3863
  22   2.0000      -0.607284       -16.5250
  23   2.0000      -0.601337       -16.3632
  24   2.0000      -0.597584       -16.2611
  25   2.0000      -0.558563       -15.1993
  26   2.0000      -0.528487       -14.3809
  27   2.0000      -0.507906       -13.8208
  28   2.0000      -0.495629       -13.4868
  29   2.0000      -0.487497       -13.2655
  30   2.0000      -0.472262       -12.8509
  31   2.0000      -0.460333       -12.5263
  32   2.0000      -0.434308       -11.8181
  33   2.0000      -0.430912       -11.7257
  34   2.0000      -0.422693       -11.5021
  35   2.0000      -0.413968       -11.2646
  36   2.0000      -0.401683       -10.9303
  37   2.0000      -0.389199       -10.5906
  38   2.0000      -0.378870       -10.3096
  39   2.0000      -0.371433       -10.1072
  40   2.0000      -0.363441        -9.8897
  41   2.0000      -0.355467        -9.6727
  42   2.0000      -0.345457        -9.4004
  43   2.0000      -0.330527        -8.9941
  44   2.0000      -0.319736        -8.7004
  45   2.0000      -0.310478        -8.4485
  46   2.0000      -0.300696        -8.1824
  47   2.0000      -0.266404        -7.2492
  48   2.0000      -0.261584        -7.1181
  49   2.0000      -0.255941        -6.9645
  50   2.0000      -0.228202        -6.2097
  51   0.0000       0.065138         1.7725
  52   0.0000       0.084586         2.3017
  53   0.0000       0.092530         2.5179
  54   0.0000       0.095060         2.5867
  55   0.0000       0.106916         2.9093

MULLIKEN ATOMIC CHARGES
-----------------------
   0 C :    0.310442
   1 C :   -0.258670
   2 C :   -0.310273
   3 C :   -0.023908
   4 O :   -0.496791
   5 H :    0.154555
   6 H :    0.147234
   7 H :    0.155211
   8 H :    0.150300
   9 H :    0.152389
  10 H :    0.151146
  11 H :    0.153495
  12 C :   -0.035427
  13 H :    0.154369
  14 H :    0.147438
  15 O :   -0.556043
  16 C :    0.106232
  17 C :    0.087155
  18 C :   -0.311460
  19 C :   -0.009611
  20 O :   -0.512549
  21 H :    0.140947
  22 H :    0.159068
  23 O :   -0.610392
  24 H :    0.142407
  25 H :    0.159315
  26 H :    0.146050
  27 H :    0.141967
  28 H :    0.365404
Sum of atomic charges:    0.0000000

LOEWDIN ATOMIC CHARGES
----------------------
   0 C :    0.183628
   1 C :   -0.223201
   2 C :   -0.221450
   3 C :   -0.034254
   4 O :   -0.306064
   5 H :    0.104290
   6 H :    0.115216
   7 H :    0.122710
   8 H :    0.118810
   9 H :    0.112813
  10 H :    0.103911
  11 H :    0.108275
  12 C :   -0.049056
  13 H :    0.110844
  14 H :    0.109135
  15 O :   -0.351951
  16 C :    0.013009
  17 C :    0.036344
  18 C :   -0.242780
  19 C :   -0.026305
  20 O :   -0.316430
  21 H :    0.111090
  22 H :    0.114712
  23 O :   -0.413262
  24 H :    0.114261
  25 H :    0.118572
  26 H :    0.103190
  27 H :    0.101001
  28 H :    0.282945

  Mayer bond orders larger than 0.100000
B(  0-C ,  1-C ) :   0.9262 B(  0-C ,  4-O ) :   0.9277 B(  0-C ,  5-H ) :   0.9308
B(  0-C , 15-O ) :   0.8321 B(  1-C ,  2-C ) :   0.9539 B(  1-C ,  6-H ) :   0.9346
B(  1-C ,  7-H ) :   0.9369 B(  2-C ,  3-C ) :   0.9502 B(  2-C ,  8-H ) :   0.9445
B(  2-C ,  9-H ) :   0.9451 B(  3-C ,  4-O ) :   0.8320 B(  3-C , 10-H ) :   0.9281
B(  3-C , 11-H ) :   0.9393 B( 12-C , 13-H ) :   0.9171 B( 12-C , 14-H ) :   0.9181
B( 12-C , 15-O ) :   0.8397 B( 12-C , 16-C ) :   0.8899 B( 16-C , 17-C ) :   0.8880
B( 16-C , 20-O ) :   0.8872 B( 16-C , 21-H ) :   0.9236 B( 17-C , 18-C ) :   0.9333
B( 17-C , 22-H ) :   0.9374 B( 17-C , 23-O ) :   0.8971 B( 18-C , 19-C ) :   0.9437
B( 18-C , 24-H ) :   0.9414 B( 18-C , 25-H ) :   0.9289 B( 19-C , 20-O ) :   0.8407
B( 19-C , 26-H ) :   0.9295 B( 19-C , 27-H ) :   0.9378 B( 23-O , 28-H ) :   0.7929

FINAL SINGLE POINT ENERGY      -652.857014325097

DIPOLE MOMENT
-------------
                                X             Y             Z
Electronic contribution:     -2.52876      -2.73272       0.98307
Nuclear contribution   :      3.32910       3.61211      -1.41874
                        -----------------------------------------
Total Dipole Moment    :      0.80035       0.87938      -0.43568
                        -----------------------------------------
Magnitude (a.u.)       :      1.26636
Magnitude (Debye)      :      3.21884

Rotational constants in cm-1:     0.050669     0.016614     0.015312
Rotational constants in MHz :  1519.014215   498.074382   459.046128

                             ****ORCA TERMINATED NORMALLY****
TOTAL RUN TIME: 0 days 0 hours 39 minutes 30 seconds 421 msec
