                         Program Version 4.2.1 -  RELEASE  -
|  1> # Test redundant internal optimization
|  2> #
|  3> ! RKS B3LYP  Opt TightSCF SmallPrint
|  4>
|  5> %basis
|  6>         Basis "6-31G"
|  7> end
|  8>
|  9> %geom
| 10> Constraints
| 11> { D 4  0  19  14  60.0   C } # D for Dihedral angle
| 12> { D 0  19  14  12  180.0   C } # D for Dihedral angle
| 13> { D 0  4  3  2   C } # D for Dihedral angle
| 14> { D 4  3  2  1   C } # D for Dihedral angle
| 15> { D 3  2  1  0   C } # D for Dihedral angle
| 16> { D 2  1  0  4   C } # D for Dihedral angle
| 17> { D 1  0  4  3   C } # D for Dihedral angle
| 18> { D 14  15  16  17   C } # D for Dihedral angle
| 19> { D 15  16  17  12   C } # D for Dihedral angle
| 20> { D 16  17  12  14   C } # D for Dihedral angle
| 21> { D 17  12  14  15   C } # D for Dihedral angle
| 22> { D 12  14  15  16   C } # D for Dihedral angle
| 23> end
| 24> end
| 25>
| 26>
| 27> #%pal
| 28> #nprocs 8
| 29> #end
| 30>
| 31> * xyz 0 1
| 32> C  -21.048   26.222   46.251
| 33> C  -20.361   27.558   45.944
| 34> C  -20.329   28.222   47.341
| 35> C  -20.110   27.022   48.296
| 36> O  -20.473   25.807   47.535
| 37> H  -20.833   25.428   45.533
| 38> H  -19.344   27.382   45.576
| 39> H  -20.898   28.157   45.201
| 40> H  -19.543   28.978   47.434
| 41> H  -21.289   28.710   47.548
| 42> H  -20.733   27.082   49.195
| 43> H  -19.064   26.913   48.597
| 44> C  -24.412   27.452   47.373
| 45> H  -24.747   28.374   47.872
| 46> C  -22.882   27.363   47.331
| 47> C  -22.556   26.889   48.766
| 48> C  -23.741   25.951   49.105
| 49> O  -24.821   26.274   48.147
| 50> H  -24.897   27.377   46.398
| 51> O  -22.472   26.381   46.366
| 52> H  -22.404   28.316   47.079
| 53> H  -21.589   26.381   48.836
| 54> H  -22.534   27.746   49.451
| 55> H  -24.113   26.094   50.126
| 56> H  -23.492   24.894   48.965
| 57> *
| 58>
| 59>                          ****END OF INPUT****
 Total Charge           Charge          ....    0
 Multiplicity           Mult            ....    1
 Number of Electrons    NEL             ....   86
FINAL SINGLE POINT ENERGY      -538.325004139238
FINAL SINGLE POINT ENERGY      -538.417443490585
FINAL SINGLE POINT ENERGY      -538.423059482696
FINAL SINGLE POINT ENERGY      -538.424545330394
FINAL SINGLE POINT ENERGY      -538.425006856854
FINAL SINGLE POINT ENERGY      -538.425328484682
FINAL SINGLE POINT ENERGY      -538.425391009640
FINAL SINGLE POINT ENERGY      -538.425402903196
FINAL SINGLE POINT ENERGY      -538.425403120969
                    ***********************HURRAY********************

CARTESIAN COORDINATES (ANGSTROEM)
---------------------------------
  C    -21.066814   26.368012   46.385941
  C    -20.263340   27.582226   45.894156
  C    -19.839652   28.254422   47.233346
  C    -19.612548   27.036743   48.164434
  O    -20.311575   25.892069   47.528055
  H    -21.049877   25.542598   45.671880
  H    -19.384715   27.225063   45.346718
  H    -20.846873   28.235174   45.240367
  H    -18.935193   28.862120   47.132034
  H    -20.635053   28.904059   47.612129
  H    -20.001824   27.188929   49.174689
  H    -18.556931   26.756960   48.231910
  C    -24.619571   27.288879   47.304248
  H    -25.164476   28.135421   47.747994
  C    -23.113447   27.450289   47.514894
  C    -22.951328   26.977752   48.973016
  C    -23.999164   25.849387   49.101143
  O    -24.948631   26.033234   47.980394
  H    -24.886795   27.179418   46.252708
  O    -22.488043   26.549625   46.550245
  H    -22.777658   28.483797   47.358416
  H    -21.948974   26.616531   49.190534
  H    -23.182906   27.812042   49.647041
  H    -24.547733   25.888658   50.048804
  H    -23.551879   24.859591   48.980906

 Multiplicity           Mult            ....    1
 Number of Electrons    NEL             ....   86
 Basis Dimension        Dim             ....  127

ORBITAL ENERGIES
----------------

  NO   OCC          E(Eh)            E(eV)
   0   2.0000     -19.148829      -521.0661
   1   2.0000     -19.142356      -520.8900
   2   2.0000     -19.123317      -520.3719
   3   2.0000     -10.280274      -279.7405
   4   2.0000     -10.242657      -278.7169
   5   2.0000     -10.234437      -278.4932
   6   2.0000     -10.219440      -278.0851
   7   2.0000     -10.215170      -277.9689
   8   2.0000     -10.197510      -277.4883
   9   2.0000     -10.192210      -277.3441
  10   2.0000     -10.182276      -277.0738
  11   2.0000      -1.053005       -28.6537
  12   2.0000      -1.013091       -27.5676
  13   2.0000      -0.991236       -26.9729
  14   2.0000      -0.792984       -21.5782
  15   2.0000      -0.784995       -21.3608
  16   2.0000      -0.741849       -20.1867
  17   2.0000      -0.722591       -19.6627
  18   2.0000      -0.623471       -16.9655
  19   2.0000      -0.607686       -16.5360
  20   2.0000      -0.596003       -16.2181
  21   2.0000      -0.562006       -15.2930
  22   2.0000      -0.522216       -14.2102
  23   2.0000      -0.506573       -13.7845
  24   2.0000      -0.488216       -13.2850
  25   2.0000      -0.482556       -13.1310
  26   2.0000      -0.452849       -12.3226
  27   2.0000      -0.449036       -12.2189
  28   2.0000      -0.427431       -11.6310
  29   2.0000      -0.412660       -11.2291
  30   2.0000      -0.408818       -11.1245
  31   2.0000      -0.387426       -10.5424
  32   2.0000      -0.379171       -10.3178
  33   2.0000      -0.367426        -9.9982
  34   2.0000      -0.364501        -9.9186
  35   2.0000      -0.364261        -9.9121
  36   2.0000      -0.341872        -9.3028
  37   2.0000      -0.321684        -8.7535
  38   2.0000      -0.305024        -8.3001
  39   2.0000      -0.294195        -8.0055
  40   2.0000      -0.266776        -7.2593
  41   2.0000      -0.257110        -6.9963
  42   2.0000      -0.229600        -6.2477
  43   0.0000       0.065444         1.7808
  44   0.0000       0.087034         2.3683
  45   0.0000       0.096208         2.6180
  46   0.0000       0.109858         2.9894
  47   0.0000       0.118372         3.2211

MULLIKEN ATOMIC CHARGES
-----------------------
   0 C :    0.305076
   1 C :   -0.276456
   2 C :   -0.311499
   3 C :   -0.017840
   4 O :   -0.505912
   5 H :    0.170821
   6 H :    0.155471
   7 H :    0.151783
   8 H :    0.148378
   9 H :    0.145581
  10 H :    0.138088
  11 H :    0.152141
  12 C :    0.009330
  13 H :    0.120990
  14 C :    0.067455
  15 C :   -0.308739
  16 C :    0.006115
  17 O :   -0.518849
  18 H :    0.166631
  19 O :   -0.520443
  20 H :    0.122388
  21 H :    0.175995
  22 H :    0.133543
  23 H :    0.131066
  24 H :    0.158886
Sum of atomic charges:   -0.0000000

LOEWDIN ATOMIC CHARGES
----------------------
   0 C :    0.176183
   1 C :   -0.228903
   2 C :   -0.222733
   3 C :   -0.036447
   4 O :   -0.321797
   5 H :    0.115296
   6 H :    0.121160
   7 H :    0.120126
   8 H :    0.117314
   9 H :    0.107172
  10 H :    0.098031
  11 H :    0.106373
  12 C :   -0.032143
  13 H :    0.089396
  14 C :    0.037233
  15 C :   -0.240588
  16 C :   -0.025350
  17 O :   -0.328004
  18 H :    0.122835
  19 O :   -0.314893
  20 H :    0.091160
  21 H :    0.131654
  22 H :    0.109183
  23 H :    0.096704
  24 H :    0.111038

  Mayer bond orders larger than 0.100000
B(  0-C ,  1-C ) :   0.9145 B(  0-C ,  4-O ) :   0.8912 B(  0-C ,  5-H ) :   0.9366
B(  0-C , 19-O ) :   0.9046 B(  1-C ,  2-C ) :   0.9569 B(  1-C ,  6-H ) :   0.9356
B(  1-C ,  7-H ) :   0.9377 B(  2-C ,  3-C ) :   0.9485 B(  2-C ,  8-H ) :   0.9443
B(  2-C ,  9-H ) :   0.9415 B(  3-C ,  4-O ) :   0.8433 B(  3-C , 10-H ) :   0.9246
B(  3-C , 11-H ) :   0.9400 B( 12-C , 13-H ) :   0.9155 B( 12-C , 14-C ) :   0.9341
B( 12-C , 17-O ) :   0.8781 B( 12-C , 18-H ) :   0.9302 B( 14-C , 15-C ) :   0.9368
B( 14-C , 19-O ) :   0.8275 B( 14-C , 20-H ) :   0.9140 B( 15-C , 16-C ) :   0.9424
B( 15-C , 21-H ) :   0.9197 B( 15-C , 22-H ) :   0.9362 B( 16-C , 17-O ) :   0.8566
B( 16-C , 23-H ) :   0.9337 B( 16-C , 24-H ) :   0.9354

FINAL SINGLE POINT ENERGY      -538.425401330930

DIPOLE MOMENT
-------------
                                X             Y             Z
Electronic contribution:     -2.83079      -4.16320      -1.99189
Nuclear contribution   :      3.93017       5.67226       2.26193
                        -----------------------------------------
Total Dipole Moment    :      1.09938       1.50906       0.27004
                        -----------------------------------------
Magnitude (a.u.)       :      1.88648
Magnitude (Debye)      :      4.79506

Rotational constants in cm-1:     0.075611     0.023968     0.022176
Rotational constants in MHz :  2266.773740   718.536412   664.805045

                             ****ORCA TERMINATED NORMALLY****
TOTAL RUN TIME: 0 days 0 hours 23 minutes 10 seconds 513 msec
