                         Program Version 4.2.0 -  RELEASE  -
|  1> # Test redundant internal optimization
|  2> #
|  3> ! RKS B3LYP  Opt TightSCF SmallPrint
|  4>
|  5> %basis
|  6>         Basis "6-31G"
|  7> end
|  8>
|  9> %geom
| 10> Constraints
| 11> { D 4  0  15  12  240.0   C } # D for Dihedral angle
| 12> { D 0  15  12  16  135.0   C } # D for Dihedral angle
| 13> { D 0  4  3  2   C } # D for Dihedral angle
| 14> { D 4  3  2  1   C } # D for Dihedral angle
| 15> { D 3  2  1  0   C } # D for Dihedral angle
| 16> { D 2  1  0  4   C } # D for Dihedral angle
| 17> { D 1  0  4  3   C } # D for Dihedral angle
| 18> { D 16  20  19  18   C } # D for Dihedral angle
| 19> { D 20  19  18  17   C } # D for Dihedral angle
| 20> { D 19  18  17  16   C } # D for Dihedral angle
| 21> { D 18  17  16  20   C } # D for Dihedral angle
| 22> { D 17  16  20  19   C } # D for Dihedral angle
| 23> { D 15  12  16  20   C } # D for Dihedral angle
| 24> end
| 25> end
| 26>
| 27>
| 28> #%pal
| 29> #nprocs 8
| 30> #end
| 31>
| 32> * xyz 0 1
| 33> C  -21.048   26.222   46.251
| 34> C  -20.361   27.558   45.944
| 35> C  -20.329   28.222   47.341
| 36> C  -20.110   27.022   48.296
| 37> O  -20.473   25.807   47.535
| 38> H  -20.833   25.428   45.533
| 39> H  -19.344   27.382   45.576
| 40> H  -20.898   28.157   45.201
| 41> H  -19.543   28.978   47.434
| 42> H  -21.289   28.710   47.548
| 43> H  -20.733   27.082   49.195
| 44> H  -19.064   26.913   48.597
| 45> C  -23.430   25.483   45.442
| 46> H  -23.822   26.081   44.610
| 47> H  -22.808   24.680   45.024
| 48> O  -22.586   26.394   46.375
| 49> C  -24.629   24.819   46.175
| 50> C  -24.163   24.036   47.408
| 51> C  -23.961   25.170   48.441
| 52> C  -25.087   26.174   48.087
| 53> O  -25.529   25.842   46.715
| 54> H  -25.205   24.231   45.458
| 55> O  -25.280   23.063   47.874
| 56> H  -23.251   23.456   47.231
| 57> H  -24.026   24.819   49.476
| 58> H  -22.976   25.632   48.305
| 59> H  -24.746   27.214   48.113
| 60> H  -25.959   26.071   48.740
| 61> H  -26.204   23.623   48.058
| 62> *
| 63>
| 64>                          ****END OF INPUT****
 Total Charge           Charge          ....    0
 Multiplicity           Mult            ....    1
 Number of Electrons    NEL             ....  102
FINAL SINGLE POINT ENERGY      -652.836289232321
FINAL SINGLE POINT ENERGY      -652.858616273495
FINAL SINGLE POINT ENERGY      -652.862598294954
FINAL SINGLE POINT ENERGY      -652.864095126376
FINAL SINGLE POINT ENERGY      -652.864211526143
FINAL SINGLE POINT ENERGY      -652.864233491522
                    ***********************HURRAY********************

CARTESIAN COORDINATES (ANGSTROEM)
---------------------------------
  C    -21.054274   26.185247   46.207500
  C    -20.396084   27.530407   45.897161
  C    -20.425662   28.225247   47.279721
  C    -20.205283   27.054182   48.262807
  O    -20.517524   25.817950   47.497363
  H    -20.806625   25.372041   45.517870
  H    -19.364650   27.362904   45.565419
  H    -20.932990   28.084183   45.123982
  H    -19.660822   29.001188   47.379191
  H    -21.406732   28.683201   47.438061
  H    -20.858062   27.097736   49.138139
  H    -19.165721   26.963354   48.590855
  C    -23.332204   25.497393   45.457305
  H    -23.724955   26.105905   44.634133
  H    -22.741949   24.670985   45.033201
  O    -22.489727   26.345872   46.290357
  C    -24.514076   24.922309   46.235649
  C    -24.193352   24.039449   47.450572
  C    -23.983028   25.099022   48.563301
  C    -25.005347   26.201553   48.195426
  O    -25.372648   25.977768   46.775243
  H    -25.125283   24.358752   45.518977
  O    -25.303834   23.140605   47.732853
  H    -23.329291   23.390003   47.308298
  H    -24.164984   24.662446   49.549855
  H    -22.959866   25.472782   48.511035
  H    -24.586664   27.206734   48.291664
  H    -25.930191   26.140059   48.778899
  H    -26.135170   23.659722   47.758165

 Multiplicity           Mult            ....    1
 Number of Electrons    NEL             ....  102
 Basis Dimension        Dim             ....  149

ORBITAL ENERGIES
----------------

  NO   OCC          E(Eh)            E(eV)
   0   2.0000     -19.148225      -521.0497
   1   2.0000     -19.146628      -521.0062
   2   2.0000     -19.134282      -520.6703
   3   2.0000     -19.130492      -520.5672
   4   2.0000     -10.286637      -279.9136
   5   2.0000     -10.236389      -278.5463
   6   2.0000     -10.231508      -278.4135
   7   2.0000     -10.230606      -278.3889
   8   2.0000     -10.229970      -278.3716
   9   2.0000     -10.218647      -278.0635
  10   2.0000     -10.189752      -277.2772
  11   2.0000     -10.189602      -277.2732
  12   2.0000     -10.169679      -276.7310
  13   2.0000      -1.058474       -28.8025
  14   2.0000      -1.028376       -27.9835
  15   2.0000      -1.002501       -27.2794
  16   2.0000      -0.994450       -27.0603
  17   2.0000      -0.791964       -21.5504
  18   2.0000      -0.774020       -21.0622
  19   2.0000      -0.760718       -20.7002
  20   2.0000      -0.734049       -19.9745
  21   2.0000      -0.674092       -18.3430
  22   2.0000      -0.603206       -16.4141
  23   2.0000      -0.599617       -16.3164
  24   2.0000      -0.591653       -16.0997
  25   2.0000      -0.578567       -15.7436
  26   2.0000      -0.526599       -14.3295
  27   2.0000      -0.501337       -13.6421
  28   2.0000      -0.500301       -13.6139
  29   2.0000      -0.488795       -13.3008
  30   2.0000      -0.473568       -12.8865
  31   2.0000      -0.451721       -12.2920
  32   2.0000      -0.446297       -12.1444
  33   2.0000      -0.440138       -11.9768
  34   2.0000      -0.427202       -11.6248
  35   2.0000      -0.409824       -11.1519
  36   2.0000      -0.403266       -10.9734
  37   2.0000      -0.383174       -10.4267
  38   2.0000      -0.371339       -10.1047
  39   2.0000      -0.363793        -9.8993
  40   2.0000      -0.360837        -9.8189
  41   2.0000      -0.355628        -9.6771
  42   2.0000      -0.350619        -9.5408
  43   2.0000      -0.325200        -8.8491
  44   2.0000      -0.322238        -8.7686
  45   2.0000      -0.311855        -8.4860
  46   2.0000      -0.299568        -8.1517
  47   2.0000      -0.273085        -7.4310
  48   2.0000      -0.261788        -7.1236
  49   2.0000      -0.256220        -6.9721
  50   2.0000      -0.235714        -6.4141
  51   0.0000       0.065883         1.7928
  52   0.0000       0.082094         2.2339
  53   0.0000       0.086416         2.3515
  54   0.0000       0.105077         2.8593
  55   0.0000       0.110973         3.0197

MULLIKEN ATOMIC CHARGES
-----------------------
   0 C :    0.283371
   1 C :   -0.251685
   2 C :   -0.300949
   3 C :   -0.005623
   4 O :   -0.504241
   5 H :    0.143160
   6 H :    0.144614
   7 H :    0.151833
   8 H :    0.144042
   9 H :    0.164355
  10 H :    0.148480
  11 H :    0.145004
  12 C :    0.005015
  13 H :    0.152705
  14 H :    0.122676
  15 O :   -0.521750
  16 C :    0.066808
  17 C :    0.076332
  18 C :   -0.294275
  19 C :   -0.018153
  20 O :   -0.526719
  21 H :    0.152621
  22 O :   -0.604352
  23 H :    0.153784
  24 H :    0.143318
  25 H :    0.187451
  26 H :    0.146791
  27 H :    0.134148
  28 H :    0.361240
Sum of atomic charges:   -0.0000000

LOEWDIN ATOMIC CHARGES
----------------------
   0 C :    0.175422
   1 C :   -0.220050
   2 C :   -0.216450
   3 C :   -0.028262
   4 O :   -0.319982
   5 H :    0.098417
   6 H :    0.113744
   7 H :    0.121298
   8 H :    0.115370
   9 H :    0.120020
  10 H :    0.105329
  11 H :    0.103907
  12 C :   -0.032747
  13 H :    0.108610
  14 H :    0.096588
  15 O :   -0.330093
  16 C :    0.009798
  17 C :    0.039388
  18 C :   -0.243036
  19 C :   -0.032926
  20 O :   -0.331506
  21 H :    0.114503
  22 O :   -0.418112
  23 H :    0.117085
  24 H :    0.116476
  25 H :    0.134830
  26 H :    0.106077
  27 H :    0.095261
  28 H :    0.281039

  Mayer bond orders larger than 0.100000
B(  0-C ,  1-C ) :   0.9419 B(  0-C ,  4-O ) :   0.9171 B(  0-C ,  5-H ) :   0.9176
B(  0-C , 15-O ) :   0.8460 B(  1-C ,  2-C ) :   0.9567 B(  1-C ,  6-H ) :   0.9360
B(  1-C ,  7-H ) :   0.9380 B(  2-C ,  3-C ) :   0.9541 B(  2-C ,  8-H ) :   0.9449
B(  2-C ,  9-H ) :   0.9432 B(  3-C ,  4-O ) :   0.8349 B(  3-C , 10-H ) :   0.9340
B(  3-C , 11-H ) :   0.9402 B( 12-C , 13-H ) :   0.9237 B( 12-C , 14-H ) :   0.9097
B( 12-C , 15-O ) :   0.8467 B( 12-C , 16-C ) :   0.9043 B( 16-C , 17-C ) :   0.9080
B( 16-C , 20-O ) :   0.8746 B( 16-C , 21-H ) :   0.9195 B( 17-C , 18-C ) :   0.9245
B( 17-C , 22-O ) :   0.8878 B( 17-C , 23-H ) :   0.9351 B( 18-C , 19-C ) :   0.9438
B( 18-C , 24-H ) :   0.9385 B( 18-C , 25-H ) :   0.9076 B( 19-C , 20-O ) :   0.8394
B( 19-C , 26-H ) :   0.9354 B( 19-C , 27-H ) :   0.9371 B( 22-O , 28-H ) :   0.7969

FINAL SINGLE POINT ENERGY      -652.864233750769

DIPOLE MOMENT
-------------
                                X             Y             Z
Electronic contribution:     -3.61424      -3.72525      -1.23172
Nuclear contribution   :      4.48361       4.62919       0.93013
                        -----------------------------------------
Total Dipole Moment    :      0.86937       0.90394      -0.30159
                        -----------------------------------------
Magnitude (a.u.)       :      1.28991
Magnitude (Debye)      :      3.27870

Rotational constants in cm-1:     0.051681     0.015122     0.014535
Rotational constants in MHz :  1549.357922   453.343329   435.742301

                             ****ORCA TERMINATED NORMALLY****
TOTAL RUN TIME: 0 days 0 hours 13 minutes 36 seconds 569 msec
