                         Program Version 4.2.0 -  RELEASE  -
|  1> # Test redundant internal optimization
|  2> #
|  3> ! RKS B3LYP  Opt TightSCF SmallPrint
|  4>
|  5> %basis
|  6>         Basis "6-31G"
|  7> end
|  8>
|  9> %geom
| 10> Constraints
| 11> { D 4  0  15  12  225.0   C } # D for Dihedral angle
| 12> { D 0  15  12  16  210.0   C } # D for Dihedral angle
| 13> { D 0  4  3  2   C } # D for Dihedral angle
| 14> { D 4  3  2  1   C } # D for Dihedral angle
| 15> { D 3  2  1  0   C } # D for Dihedral angle
| 16> { D 2  1  0  4   C } # D for Dihedral angle
| 17> { D 1  0  4  3   C } # D for Dihedral angle
| 18> { D 16  20  19  18   C } # D for Dihedral angle
| 19> { D 20  19  18  17   C } # D for Dihedral angle
| 20> { D 19  18  17  16   C } # D for Dihedral angle
| 21> { D 18  17  16  20   C } # D for Dihedral angle
| 22> { D 17  16  20  19   C } # D for Dihedral angle
| 23> { D 15  12  16  20   C } # D for Dihedral angle
| 24> end
| 25> end
| 26>
| 27>
| 28> #%pal
| 29> #nprocs 8
| 30> #end
| 31>
| 32> * xyz 0 1
| 33> C  -21.048   26.222   46.251
| 34> C  -20.361   27.558   45.944
| 35> C  -20.329   28.222   47.341
| 36> C  -20.110   27.022   48.296
| 37> O  -20.473   25.807   47.535
| 38> H  -20.833   25.428   45.533
| 39> H  -19.344   27.382   45.576
| 40> H  -20.898   28.157   45.201
| 41> H  -19.543   28.978   47.434
| 42> H  -21.289   28.710   47.548
| 43> H  -20.733   27.082   49.195
| 44> H  -19.064   26.913   48.597
| 45> C  -23.415   25.773   45.218
| 46> H  -22.820   25.788   44.297
| 47> H  -23.669   24.729   45.445
| 48> O  -22.586   26.394   46.375
| 49> C  -24.743   26.536   44.954
| 50> C  -25.588   25.830   43.888
| 51> C  -26.230   24.683   44.704
| 52> C  -26.457   25.327   46.095
| 53> O  -25.589   26.522   46.152
| 54> H  -24.517   27.581   44.733
| 55> H  -26.358   26.510   43.505
| 56> O  -24.749   25.316   42.686
| 57> H  -27.159   24.313   44.259
| 58> H  -25.534   23.839   44.779
| 59> H  -26.193   24.652   46.917
| 60> H  -27.487   25.669   46.233
| 61> H  -23.972   24.632   43.043
| 62> *
| 63>
| 64>                          ****END OF INPUT****
 Total Charge           Charge          ....    0
 Multiplicity           Mult            ....    1
 Number of Electrons    NEL             ....  102
FINAL SINGLE POINT ENERGY      -652.825426437135
FINAL SINGLE POINT ENERGY      -652.848872797964
FINAL SINGLE POINT ENERGY      -652.853097675519
FINAL SINGLE POINT ENERGY      -652.853875028401
FINAL SINGLE POINT ENERGY      -652.854059885724
FINAL SINGLE POINT ENERGY      -652.854099913593
FINAL SINGLE POINT ENERGY      -652.854109399844
FINAL SINGLE POINT ENERGY      -652.854111403637
                    ***********************HURRAY********************

CARTESIAN COORDINATES (ANGSTROEM)
---------------------------------
  C    -21.038100   26.178928   46.200131
  C    -20.433615   27.553416   45.919197
  C    -20.509883   28.226560   47.310219
  C    -20.253431   27.050928   48.277210
  O    -20.504960   25.817744   47.486355
  H    -20.758481   25.387101   45.498487
  H    -19.391112   27.436931   45.598428
  H    -20.980075   28.099523   45.146126
  H    -19.781162   29.033881   47.428546
  H    -21.512953   28.635324   47.463040
  H    -20.921391   27.051884   49.141737
  H    -19.215117   26.997072   48.618287
  C    -23.248102   25.670265   45.219329
  H    -22.691615   25.698273   44.270869
  H    -23.447205   24.619206   45.477620
  O    -22.486109   26.289558   46.286924
  C    -24.544845   26.452825   45.028084
  C    -25.465861   25.865685   43.945745
  C    -26.217934   24.750872   44.733239
  C    -26.366637   25.372644   46.139623
  O    -25.379753   26.478383   46.223326
  H    -24.281569   27.495321   44.826337
  H    -26.165706   26.634865   43.611835
  O    -24.800145   25.423416   42.736316
  H    -27.177144   24.495070   44.276182
  H    -25.602175   23.841845   44.760707
  H    -26.169996   24.658333   46.944900
  H    -27.355607   25.814450   46.293444
  H    -24.390316   24.544696   42.871754

 Multiplicity           Mult            ....    1
 Number of Electrons    NEL             ....  102
 Basis Dimension        Dim             ....  149

ORBITAL ENERGIES
----------------

  NO   OCC          E(Eh)            E(eV)
   0   2.0000     -19.152397      -521.1632
   1   2.0000     -19.135583      -520.7057
   2   2.0000     -19.135416      -520.7011
   3   2.0000     -19.134384      -520.6731
   4   2.0000     -10.275767      -279.6178
   5   2.0000     -10.246665      -278.8259
   6   2.0000     -10.231601      -278.4160
   7   2.0000     -10.230859      -278.3958
   8   2.0000     -10.229616      -278.3620
   9   2.0000     -10.219256      -278.0801
  10   2.0000     -10.196938      -277.4728
  11   2.0000     -10.181264      -277.0463
  12   2.0000     -10.180057      -277.0134
  13   2.0000      -1.048116       -28.5207
  14   2.0000      -1.034708       -28.1558
  15   2.0000      -1.015879       -27.6435
  16   2.0000      -0.989859       -26.9354
  17   2.0000      -0.784806       -21.3557
  18   2.0000      -0.780992       -21.2519
  19   2.0000      -0.766833       -20.8666
  20   2.0000      -0.727586       -19.7986
  21   2.0000      -0.679485       -18.4897
  22   2.0000      -0.612888       -16.6775
  23   2.0000      -0.593679       -16.1548
  24   2.0000      -0.587283       -15.9808
  25   2.0000      -0.579594       -15.7716
  26   2.0000      -0.528321       -14.3763
  27   2.0000      -0.511241       -13.9116
  28   2.0000      -0.498327       -13.5602
  29   2.0000      -0.486452       -13.2370
  30   2.0000      -0.466369       -12.6905
  31   2.0000      -0.456613       -12.4251
  32   2.0000      -0.446243       -12.1429
  33   2.0000      -0.433990       -11.8095
  34   2.0000      -0.424981       -11.5643
  35   2.0000      -0.421255       -11.4629
  36   2.0000      -0.403637       -10.9835
  37   2.0000      -0.397029       -10.8037
  38   2.0000      -0.376342       -10.2408
  39   2.0000      -0.371365       -10.1053
  40   2.0000      -0.354351        -9.6424
  41   2.0000      -0.351949        -9.5770
  42   2.0000      -0.347328        -9.4513
  43   2.0000      -0.329516        -8.9666
  44   2.0000      -0.317632        -8.6432
  45   2.0000      -0.309318        -8.4170
  46   2.0000      -0.301454        -8.2030
  47   2.0000      -0.272988        -7.4284
  48   2.0000      -0.258556        -7.0357
  49   2.0000      -0.248817        -6.7707
  50   2.0000      -0.235664        -6.4127
  51   0.0000       0.049041         1.3345
  52   0.0000       0.078930         2.1478
  53   0.0000       0.087612         2.3840
  54   0.0000       0.091682         2.4948
  55   0.0000       0.102234         2.7819

MULLIKEN ATOMIC CHARGES
-----------------------
   0 C :    0.283065
   1 C :   -0.253972
   2 C :   -0.300449
   3 C :   -0.000405
   4 O :   -0.502592
   5 H :    0.134416
   6 H :    0.139918
   7 H :    0.143927
   8 H :    0.139126
   9 H :    0.168730
  10 H :    0.155318
  11 H :    0.138376
  12 C :   -0.015818
  13 H :    0.131523
  14 H :    0.127291
  15 O :   -0.501653
  16 C :    0.100737
  17 C :    0.079395
  18 C :   -0.327270
  19 C :   -0.006181
  20 O :   -0.503209
  21 H :    0.155904
  22 H :    0.169181
  23 O :   -0.601024
  24 H :    0.157401
  25 H :    0.134550
  26 H :    0.149902
  27 H :    0.147381
  28 H :    0.356432
Sum of atomic charges:   -0.0000000

LOEWDIN ATOMIC CHARGES
----------------------
   0 C :    0.176375
   1 C :   -0.224105
   2 C :   -0.216748
   3 C :   -0.025347
   4 O :   -0.312053
   5 H :    0.095802
   6 H :    0.110851
   7 H :    0.116245
   8 H :    0.113092
   9 H :    0.122588
  10 H :    0.109915
  11 H :    0.100558
  12 C :   -0.049266
  13 H :    0.096900
  14 H :    0.092017
  15 O :   -0.323094
  16 C :    0.021408
  17 C :    0.033524
  18 C :   -0.241831
  19 C :   -0.028428
  20 O :   -0.311538
  21 H :    0.116648
  22 H :    0.119672
  23 O :   -0.409136
  24 H :    0.122428
  25 H :    0.104224
  26 H :    0.105823
  27 H :    0.105241
  28 H :    0.278233

  Mayer bond orders larger than 0.100000
B(  0-C ,  1-C ) :   0.9365 B(  0-C ,  4-O ) :   0.9356 B(  0-C ,  5-H ) :   0.9198
B(  0-C , 15-O ) :   0.8420 B(  1-C ,  2-C ) :   0.9564 B(  1-C ,  6-H ) :   0.9355
B(  1-C ,  7-H ) :   0.9386 B(  2-C ,  3-C ) :   0.9551 B(  2-C ,  8-H ) :   0.9452
B(  2-C ,  9-H ) :   0.9419 B(  3-C ,  4-O ) :   0.8362 B(  3-C , 10-H ) :   0.9343
B(  3-C , 11-H ) :   0.9399 B( 12-C , 13-H ) :   0.9031 B( 12-C , 14-H ) :   0.9186
B( 12-C , 15-O ) :   0.8502 B( 12-C , 16-C ) :   0.9055 B( 16-C , 17-C ) :   0.8715
B( 16-C , 20-O ) :   0.8753 B( 16-C , 21-H ) :   0.9299 B( 17-C , 18-C ) :   0.9267
B( 17-C , 22-H ) :   0.9329 B( 17-C , 23-O ) :   0.8937 B( 18-C , 19-C ) :   0.9388
B( 18-C , 24-H ) :   0.9416 B( 18-C , 25-H ) :   0.9400 B( 19-C , 20-O ) :   0.8490
B( 19-C , 26-H ) :   0.9310 B( 19-C , 27-H ) :   0.9382 B( 23-O , 28-H ) :   0.7988

FINAL SINGLE POINT ENERGY      -652.854111634378

DIPOLE MOMENT
-------------
                                X             Y             Z
Electronic contribution:     -0.97487      -1.12266      -0.11197
Nuclear contribution   :      0.94055       0.79648      -0.44964
                        -----------------------------------------
Total Dipole Moment    :     -0.03432      -0.32617      -0.56161
                        -----------------------------------------
Magnitude (a.u.)       :      0.65036
Magnitude (Debye)      :      1.65309

Rotational constants in cm-1:     0.057071     0.012006     0.011126
Rotational constants in MHz :  1710.932474   359.915986   333.551836

                             ****ORCA TERMINATED NORMALLY****
TOTAL RUN TIME: 0 days 0 hours 24 minutes 52 seconds 794 msec
