                         Program Version 4.2.1 -  RELEASE  -
|  1> # Test redundant internal optimization
|  2> #
|  3> ! RKS B3LYP  Opt TightSCF SmallPrint
|  4>
|  5> %basis
|  6>         Basis "6-31G"
|  7> end
|  8>
|  9> %geom
| 10> Constraints
| 11> { D 4  0  19  14  240.0   C } # D for Dihedral angle
| 12> { D 0  19  14  12  180.0   C } # D for Dihedral angle
| 13> { D 0  4  3  2   C } # D for Dihedral angle
| 14> { D 4  3  2  1   C } # D for Dihedral angle
| 15> { D 3  2  1  0   C } # D for Dihedral angle
| 16> { D 2  1  0  4   C } # D for Dihedral angle
| 17> { D 1  0  4  3   C } # D for Dihedral angle
| 18> { D 14  15  16  17   C } # D for Dihedral angle
| 19> { D 15  16  17  12   C } # D for Dihedral angle
| 20> { D 16  17  12  14   C } # D for Dihedral angle
| 21> { D 17  12  14  15   C } # D for Dihedral angle
| 22> { D 12  14  15  16   C } # D for Dihedral angle
| 23> end
| 24> end
| 25>
| 26>
| 27> #%pal
| 28> #nprocs 8
| 29> #end
| 30>
| 31> * xyz 0 1
| 32> C  -21.048   26.222   46.251
| 33> C  -20.361   27.558   45.944
| 34> C  -20.329   28.222   47.341
| 35> C  -20.110   27.022   48.296
| 36> O  -20.473   25.807   47.535
| 37> H  -20.833   25.428   45.533
| 38> H  -19.344   27.382   45.576
| 39> H  -20.898   28.157   45.201
| 40> H  -19.543   28.978   47.434
| 41> H  -21.289   28.710   47.548
| 42> H  -20.733   27.082   49.195
| 43> H  -19.064   26.913   48.597
| 44> C  -24.734   25.780   45.699
| 45> H  -25.338   24.962   45.275
| 46> C  -23.235   25.530   45.496
| 47> C  -23.044   25.947   44.019
| 48> C  -24.034   27.127   43.855
| 49> O  -24.992   27.032   44.979
| 50> H  -25.030   25.942   46.736
| 51> O  -22.472   26.381   46.366
| 52> H  -22.943   24.491   45.685
| 53> H  -22.013   26.231   43.787
| 54> H  -23.320   25.118   43.354
| 55> H  -24.585   27.087   42.909
| 56> H  -23.540   28.101   43.936
| 57> *
| 58>
| 59>                          ****END OF INPUT****
 Total Charge           Charge          ....    0
 Multiplicity           Mult            ....    1
 Number of Electrons    NEL             ....   86
FINAL SINGLE POINT ENERGY      -538.429661193381
FINAL SINGLE POINT ENERGY      -538.431984795862
FINAL SINGLE POINT ENERGY      -538.432244858554
FINAL SINGLE POINT ENERGY      -538.432274406612
FINAL SINGLE POINT ENERGY      -538.432282836365
                    ***********************HURRAY********************

CARTESIAN COORDINATES (ANGSTROEM)
---------------------------------
  C    -20.963138   26.211506   46.221447
  C    -20.341758   27.585260   45.969039
  C    -20.394617   28.223383   47.378019
  C    -20.144753   27.018556   48.312046
  O    -20.420299   25.809316   47.496241
  H    -20.696284   25.430615   45.503441
  H    -19.304035   27.462195   45.635749
  H    -20.891047   28.157428   45.218198
  H    -19.652494   29.016189   47.510236
  H    -21.389772   28.643692   47.550629
  H    -20.802109   27.009702   49.184971
  H    -19.103819   26.944125   48.641168
  C    -24.677580   25.854947   45.745219
  H    -25.347070   25.058764   45.388230
  C    -23.218346   25.510003   45.447677
  C    -23.105838   25.887445   43.958311
  C    -24.029881   27.122554   43.833084
  O    -24.910007   27.105608   45.019624
  H    -24.853339   26.047649   46.803934
  O    -22.403319   26.351573   46.314894
  H    -22.984473   24.452788   45.633249
  H    -22.077725   26.093522   43.647257
  H    -23.476424   25.053807   43.349512
  H    -24.643660   27.095418   42.925954
  H    -23.473211   28.063954   43.858870

 Multiplicity           Mult            ....    1
 Number of Electrons    NEL             ....   86
 Basis Dimension        Dim             ....  127

ORBITAL ENERGIES
----------------

  NO   OCC          E(Eh)            E(eV)
   0   2.0000     -19.139288      -520.8065
   1   2.0000     -19.136264      -520.7242
   2   2.0000     -19.129073      -520.5285
   3   2.0000     -10.278486      -279.6918
   4   2.0000     -10.242415      -278.7103
   5   2.0000     -10.223855      -278.2052
   6   2.0000     -10.222129      -278.1583
   7   2.0000     -10.221849      -278.1506
   8   2.0000     -10.191289      -277.3191
   9   2.0000     -10.184232      -277.1270
  10   2.0000     -10.182706      -277.0855
  11   2.0000      -1.051627       -28.6162
  12   2.0000      -1.015119       -27.6228
  13   2.0000      -0.989122       -26.9154
  14   2.0000      -0.789558       -21.4850
  15   2.0000      -0.777832       -21.1659
  16   2.0000      -0.744686       -20.2639
  17   2.0000      -0.719477       -19.5780
  18   2.0000      -0.610570       -16.6144
  19   2.0000      -0.600327       -16.3357
  20   2.0000      -0.595742       -16.2110
  21   2.0000      -0.574825       -15.6418
  22   2.0000      -0.522389       -14.2149
  23   2.0000      -0.503377       -13.6976
  24   2.0000      -0.483298       -13.1512
  25   2.0000      -0.480210       -13.0672
  26   2.0000      -0.455932       -12.4065
  27   2.0000      -0.442775       -12.0485
  28   2.0000      -0.422810       -11.5052
  29   2.0000      -0.420113       -11.4318
  30   2.0000      -0.401969       -10.9381
  31   2.0000      -0.384015       -10.4496
  32   2.0000      -0.379648       -10.3308
  33   2.0000      -0.369487       -10.0543
  34   2.0000      -0.359297        -9.7770
  35   2.0000      -0.353930        -9.6309
  36   2.0000      -0.345537        -9.4025
  37   2.0000      -0.314907        -8.5690
  38   2.0000      -0.307102        -8.3567
  39   2.0000      -0.298425        -8.1206
  40   2.0000      -0.265267        -7.2183
  41   2.0000      -0.246376        -6.7042
  42   2.0000      -0.234478        -6.3805
  43   0.0000       0.073929         2.0117
  44   0.0000       0.088338         2.4038
  45   0.0000       0.098249         2.6735
  46   0.0000       0.107456         2.9240
  47   0.0000       0.116694         3.1754

MULLIKEN ATOMIC CHARGES
-----------------------
   0 C :    0.284560
   1 C :   -0.254525
   2 C :   -0.301503
   3 C :   -0.000728
   4 O :   -0.505731
   5 H :    0.137788
   6 H :    0.140428
   7 H :    0.147701
   8 H :    0.140275
   9 H :    0.169160
  10 H :    0.151772
  11 H :    0.139365
  12 C :   -0.002515
  13 H :    0.127369
  14 C :    0.070255
  15 C :   -0.310600
  16 C :    0.011313
  17 O :   -0.519014
  18 H :    0.172906
  19 O :   -0.510419
  20 H :    0.137375
  21 H :    0.148584
  22 H :    0.145941
  23 H :    0.135654
  24 H :    0.144588
Sum of atomic charges:    0.0000000

LOEWDIN ATOMIC CHARGES
----------------------
   0 C :    0.174099
   1 C :   -0.221331
   2 C :   -0.216367
   3 C :   -0.026084
   4 O :   -0.317572
   5 H :    0.097157
   6 H :    0.111150
   7 H :    0.117272
   8 H :    0.113478
   9 H :    0.122642
  10 H :    0.107875
  11 H :    0.101055
  12 C :   -0.033185
  13 H :    0.092764
  14 C :    0.039503
  15 C :   -0.241633
  16 C :   -0.026436
  17 O :   -0.328118
  18 H :    0.125815
  19 O :   -0.325495
  20 H :    0.100005
  21 H :    0.116651
  22 H :    0.115100
  23 H :    0.098777
  24 H :    0.102880

  Mayer bond orders larger than 0.100000
B(  0-C ,  1-C ) :   0.9399 B(  0-C ,  4-O ) :   0.9272 B(  0-C ,  5-H ) :   0.9183
B(  0-C , 19-O ) :   0.8421 B(  1-C ,  2-C ) :   0.9568 B(  1-C ,  6-H ) :   0.9371
B(  1-C ,  7-H ) :   0.9365 B(  2-C ,  3-C ) :   0.9545 B(  2-C ,  8-H ) :   0.9451
B(  2-C ,  9-H ) :   0.9422 B(  3-C ,  4-O ) :   0.8376 B(  3-C , 10-H ) :   0.9347
B(  3-C , 11-H ) :   0.9399 B( 12-C , 13-H ) :   0.9157 B( 12-C , 14-C ) :   0.9365
B( 12-C , 17-O ) :   0.8682 B( 12-C , 18-H ) :   0.9296 B( 14-C , 15-C ) :   0.9298
B( 14-C , 19-O ) :   0.8405 B( 14-C , 20-H ) :   0.9190 B( 15-C , 16-C ) :   0.9419
B( 15-C , 21-H ) :   0.9371 B( 15-C , 22-H ) :   0.9357 B( 16-C , 17-O ) :   0.8635
B( 16-C , 23-H ) :   0.9329 B( 16-C , 24-H ) :   0.9362

FINAL SINGLE POINT ENERGY      -538.432283903238

DIPOLE MOMENT
-------------
                                X             Y             Z
Electronic contribution:     -1.88897      -1.99847       1.91605
Nuclear contribution   :      2.56734       1.90848      -2.64868
                        -----------------------------------------
Total Dipole Moment    :      0.67837      -0.08999      -0.73263
                        -----------------------------------------
Magnitude (a.u.)       :      1.00251
Magnitude (Debye)      :      2.54818

Rotational constants in cm-1:     0.079107     0.020685     0.020024
Rotational constants in MHz :  2371.570662   620.124305   600.299888

                             ****ORCA TERMINATED NORMALLY****
TOTAL RUN TIME: 0 days 0 hours 5 minutes 48 seconds 487 msec
