                         Program Version 4.2.1 -  RELEASE  -
|  1> # Test redundant internal optimization
|  2> #
|  3> ! RKS B3LYP  Opt TightSCF SmallPrint
|  4>
|  5> %basis
|  6>         Basis "6-31G"
|  7> end
|  8>
|  9> %geom
| 10> Constraints
| 11> { D 4  0  19  14  270.0   C } # D for Dihedral angle
| 12> { D 0  19  14  12  150.0   C } # D for Dihedral angle
| 13> { D 0  4  3  2   C } # D for Dihedral angle
| 14> { D 4  3  2  1   C } # D for Dihedral angle
| 15> { D 3  2  1  0   C } # D for Dihedral angle
| 16> { D 2  1  0  4   C } # D for Dihedral angle
| 17> { D 1  0  4  3   C } # D for Dihedral angle
| 18> { D 14  15  16  17   C } # D for Dihedral angle
| 19> { D 15  16  17  12   C } # D for Dihedral angle
| 20> { D 16  17  12  14   C } # D for Dihedral angle
| 21> { D 17  12  14  15   C } # D for Dihedral angle
| 22> { D 12  14  15  16   C } # D for Dihedral angle
| 23> end
| 24> end
| 25>
| 26>
| 27> #%pal
| 28> #nprocs 8
| 29> #end
| 30>
| 31> * xyz 0 1
| 32> C  -21.048   26.222   46.251
| 33> C  -20.361   27.558   45.944
| 34> C  -20.329   28.222   47.341
| 35> C  -20.110   27.022   48.296
| 36> O  -20.473   25.807   47.535
| 37> H  -20.833   25.428   45.533
| 38> H  -19.344   27.382   45.576
| 39> H  -20.898   28.157   45.201
| 40> H  -19.543   28.978   47.434
| 41> H  -21.289   28.710   47.548
| 42> H  -20.733   27.082   49.195
| 43> H  -19.064   26.913   48.597
| 44> C  -24.526   25.187   46.894
| 45> H  -24.976   24.182   46.925
| 46> C  -23.226   25.191   46.082
| 47> C  -23.760   25.216   44.632
| 48> C  -25.036   26.088   44.741
| 49> O  -25.403   26.118   46.174
| 50> H  -24.426   25.566   47.912
| 51> O  -22.472   26.381   46.366
| 52> H  -22.590   24.323   46.286
| 53> H  -23.037   25.623   43.919
| 54> H  -24.015   24.199   44.306
| 55> H  -25.874   25.682   44.165
| 56> H  -24.862   27.124   44.432
| 57> *
| 58>
| 59>                          ****END OF INPUT****
 Total Charge           Charge          ....    0
 Multiplicity           Mult            ....    1
 Number of Electrons    NEL             ....   86
FINAL SINGLE POINT ENERGY      -538.433986181587
FINAL SINGLE POINT ENERGY      -538.435737654910
FINAL SINGLE POINT ENERGY      -538.436027385511
FINAL SINGLE POINT ENERGY      -538.436044670880
FINAL SINGLE POINT ENERGY      -538.436050717495
                    ***********************HURRAY********************

CARTESIAN COORDINATES (ANGSTROEM)
---------------------------------
  C    -20.986538   26.188393   46.228208
  C    -20.392366   27.570048   45.951591
  C    -20.409927   28.210860   47.359403
  C    -20.114065   27.013359   48.290251
  O    -20.397034   25.795716   47.490173
  H    -20.730999   25.405426   45.508192
  H    -19.365428   27.456751   45.585117
  H    -20.975540   28.127730   45.216199
  H    -19.673749   29.013240   47.466801
  H    -21.403865   28.619910   47.562084
  H    -20.742240   27.001900   49.184523
  H    -19.062426   26.955048   48.586932
  C    -24.500209   25.244553   46.900180
  H    -24.992874   24.263146   46.965498
  C    -23.222078   25.154315   46.066528
  C    -23.780751   25.178981   44.630992
  C    -25.000324   26.125804   44.741526
  O    -25.333759   26.206737   46.178357
  H    -24.322538   25.641536   47.899896
  O    -22.417291   26.344016   46.335249
  H    -22.638179   24.253499   46.289512
  H    -23.037158   25.526746   43.908106
  H    -24.090365   24.167223   44.342977
  H    -25.870266   25.754948   44.188101
  H    -24.768032   27.141114   44.408605

 Multiplicity           Mult            ....    1
 Number of Electrons    NEL             ....   86
 Basis Dimension        Dim             ....  127

ORBITAL ENERGIES
----------------

  NO   OCC          E(Eh)            E(eV)
   0   2.0000     -19.141428      -520.8647
   1   2.0000     -19.136645      -520.7346
   2   2.0000     -19.125847      -520.4407
   3   2.0000     -10.278353      -279.6882
   4   2.0000     -10.239518      -278.6315
   5   2.0000     -10.222502      -278.1684
   6   2.0000     -10.219829      -278.0957
   7   2.0000     -10.219411      -278.0843
   8   2.0000     -10.186868      -277.1988
   9   2.0000     -10.183632      -277.1107
  10   2.0000     -10.182419      -277.0777
  11   2.0000      -1.052891       -28.6506
  12   2.0000      -1.012701       -27.5570
  13   2.0000      -0.988961       -26.9110
  14   2.0000      -0.790607       -21.5135
  15   2.0000      -0.775103       -21.0916
  16   2.0000      -0.740259       -20.1435
  17   2.0000      -0.718738       -19.5579
  18   2.0000      -0.606018       -16.4906
  19   2.0000      -0.598241       -16.2790
  20   2.0000      -0.595537       -16.2054
  21   2.0000      -0.576787       -15.6952
  22   2.0000      -0.521819       -14.1994
  23   2.0000      -0.501755       -13.6534
  24   2.0000      -0.481500       -13.1023
  25   2.0000      -0.475548       -12.9403
  26   2.0000      -0.454535       -12.3685
  27   2.0000      -0.439560       -11.9610
  28   2.0000      -0.425157       -11.5691
  29   2.0000      -0.417786       -11.3685
  30   2.0000      -0.402593       -10.9551
  31   2.0000      -0.383490       -10.4353
  32   2.0000      -0.374417       -10.1884
  33   2.0000      -0.366921        -9.9844
  34   2.0000      -0.355590        -9.6761
  35   2.0000      -0.352919        -9.6034
  36   2.0000      -0.342066        -9.3081
  37   2.0000      -0.322621        -8.7790
  38   2.0000      -0.303493        -8.2585
  39   2.0000      -0.295964        -8.0536
  40   2.0000      -0.268190        -7.2978
  41   2.0000      -0.248941        -6.7740
  42   2.0000      -0.231069        -6.2877
  43   0.0000       0.078462         2.1351
  44   0.0000       0.097235         2.6459
  45   0.0000       0.101220         2.7543
  46   0.0000       0.111239         3.0270
  47   0.0000       0.118960         3.2371

MULLIKEN ATOMIC CHARGES
-----------------------
   0 C :    0.280855
   1 C :   -0.255777
   2 C :   -0.299911
   3 C :   -0.001175
   4 O :   -0.510758
   5 H :    0.137289
   6 H :    0.142651
   7 H :    0.152301
   8 H :    0.139899
   9 H :    0.168336
  10 H :    0.148311
  11 H :    0.140375
  12 C :    0.006813
  13 H :    0.123658
  14 C :    0.057776
  15 C :   -0.292792
  16 C :    0.006711
  17 O :   -0.519479
  18 H :    0.167168
  19 O :   -0.509732
  20 H :    0.143223
  21 H :    0.149001
  22 H :    0.140378
  23 H :    0.135031
  24 H :    0.149851
Sum of atomic charges:   -0.0000000

LOEWDIN ATOMIC CHARGES
----------------------
   0 C :    0.171195
   1 C :   -0.216212
   2 C :   -0.216012
   3 C :   -0.026962
   4 O :   -0.329672
   5 H :    0.095627
   6 H :    0.112477
   7 H :    0.121672
   8 H :    0.112948
   9 H :    0.122099
  10 H :    0.106074
  11 H :    0.101551
  12 C :   -0.034137
  13 H :    0.091229
  14 C :    0.037462
  15 C :   -0.235412
  16 C :   -0.027607
  17 O :   -0.329112
  18 H :    0.123095
  19 O :   -0.321617
  20 H :    0.105756
  21 H :    0.118966
  22 H :    0.112041
  23 H :    0.098079
  24 H :    0.106474

  Mayer bond orders larger than 0.100000
B(  0-C ,  1-C ) :   0.9477 B(  0-C ,  4-O ) :   0.9131 B(  0-C ,  5-H ) :   0.9186
B(  0-C , 19-O ) :   0.8634 B(  1-C ,  2-C ) :   0.9575 B(  1-C ,  6-H ) :   0.9400
B(  1-C ,  7-H ) :   0.9371 B(  2-C ,  3-C ) :   0.9549 B(  2-C ,  8-H ) :   0.9453
B(  2-C ,  9-H ) :   0.9429 B(  3-C ,  4-O ) :   0.8375 B(  3-C , 10-H ) :   0.9354
B(  3-C , 11-H ) :   0.9403 B( 12-C , 13-H ) :   0.9150 B( 12-C , 14-C ) :   0.9370
B( 12-C , 17-O ) :   0.8689 B( 12-C , 18-H ) :   0.9307 B( 14-C , 15-C ) :   0.9364
B( 14-C , 19-O ) :   0.8261 B( 14-C , 20-H ) :   0.9188 B( 15-C , 16-C ) :   0.9460
B( 15-C , 21-H ) :   0.9408 B( 15-C , 22-H ) :   0.9374 B( 16-C , 17-O ) :   0.8581
B( 16-C , 23-H ) :   0.9330 B( 16-C , 24-H ) :   0.9361

FINAL SINGLE POINT ENERGY      -538.436051244558

DIPOLE MOMENT
-------------
                                X             Y             Z
Electronic contribution:     -1.40023      -1.54517       1.50936
Nuclear contribution   :      2.10088       1.40681      -2.15227
                        -----------------------------------------
Total Dipole Moment    :      0.70065      -0.13836      -0.64290
                        -----------------------------------------
Magnitude (a.u.)       :      0.96093
Magnitude (Debye)      :      2.44248

Rotational constants in cm-1:     0.080935     0.019904     0.019395
Rotational constants in MHz :  2426.376358   596.701004   581.442314

                             ****ORCA TERMINATED NORMALLY****
TOTAL RUN TIME: 0 days 0 hours 5 minutes 40 seconds 491 msec
