                         Program Version 4.2.0 -  RELEASE  -
|  1> # Test redundant internal optimization
|  2> #
|  3> ! RKS B3LYP  Opt TightSCF SmallPrint
|  4>
|  5> %basis
|  6>         Basis "6-31G"
|  7> end
|  8>
|  9> %geom
| 10> Constraints
| 11> { D 4  0  15  12  105.0   C } # D for Dihedral angle
| 12> { D 0  15  12  16  240.0   C } # D for Dihedral angle
| 13> { D 0  4  3  2   C } # D for Dihedral angle
| 14> { D 4  3  2  1   C } # D for Dihedral angle
| 15> { D 3  2  1  0   C } # D for Dihedral angle
| 16> { D 2  1  0  4   C } # D for Dihedral angle
| 17> { D 1  0  4  3   C } # D for Dihedral angle
| 18> { D 16  20  19  18   C } # D for Dihedral angle
| 19> { D 20  19  18  17   C } # D for Dihedral angle
| 20> { D 19  18  17  16   C } # D for Dihedral angle
| 21> { D 18  17  16  20   C } # D for Dihedral angle
| 22> { D 17  16  20  19   C } # D for Dihedral angle
| 23> { D 15  12  16  20   C } # D for Dihedral angle
| 24> end
| 25> end
| 26>
| 27>
| 28> #%pal
| 29> #nprocs 8
| 30> #end
| 31>
| 32> * xyz 0 1
| 33> C  -21.048   26.222   46.251
| 34> C  -20.361   27.558   45.944
| 35> C  -20.329   28.222   47.341
| 36> C  -20.110   27.022   48.296
| 37> O  -20.473   25.807   47.535
| 38> H  -20.833   25.428   45.533
| 39> H  -19.344   27.382   45.576
| 40> H  -20.898   28.157   45.201
| 41> H  -19.543   28.978   47.434
| 42> H  -21.289   28.710   47.548
| 43> H  -20.733   27.082   49.195
| 44> H  -19.064   26.913   48.597
| 45> C  -23.085   27.864   46.420
| 46> H  -22.224   28.541   46.345
| 47> H  -23.756   28.068   45.576
| 48> O  -22.586   26.394   46.375
| 49> C  -23.854   28.198   47.728
| 50> C  -25.023   27.230   47.948
| 51> C  -24.297   25.985   48.511
| 52> C  -23.151   26.596   49.354
| 53> O  -22.992   27.994   48.897
| 54> H  -24.136   29.252   47.719
| 55> H  -25.716   27.641   48.690
| 56> O  -25.818   26.928   46.649
| 57> H  -24.955   25.342   49.105
| 58> H  -23.892   25.382   47.689
| 59> H  -22.202   26.065   49.222
| 60> H  -23.390   26.632   50.421
| 61> H  -25.143   26.515   45.892
| 62> *
| 63>
| 64>                          ****END OF INPUT****
 Total Charge           Charge          ....    0
 Multiplicity           Mult            ....    1
 Number of Electrons    NEL             ....  102
FINAL SINGLE POINT ENERGY      -652.810368672672
FINAL SINGLE POINT ENERGY      -652.840796416174
FINAL SINGLE POINT ENERGY      -652.855899287132
FINAL SINGLE POINT ENERGY      -652.858961854921
FINAL SINGLE POINT ENERGY      -652.859496613718
FINAL SINGLE POINT ENERGY      -652.859583928392
FINAL SINGLE POINT ENERGY      -652.859591576813
FINAL SINGLE POINT ENERGY      -652.859592332776
                    ***********************HURRAY********************

CARTESIAN COORDINATES (ANGSTROEM)
---------------------------------
  C    -21.102204   26.406991   46.282794
  C    -20.198682   27.587794   45.900804
  C    -19.956616   28.270644   47.278949
  C    -19.907300   27.065416   48.247508
  O    -20.541713   25.930911   47.524829
  H    -21.026696   25.560955   45.597012
  H    -19.262388   27.184336   45.502941
  H    -20.632046   28.251943   45.147774
  H    -19.026824   28.847660   47.294499
  H    -20.776562   28.938974   47.551195
  H    -20.458119   27.252072   49.171049
  H    -18.886251   26.751709   48.481916
  C    -23.149975   27.952894   46.440245
  H    -22.407801   28.752241   46.387159
  H    -23.820019   28.053838   45.577421
  O    -22.531566   26.634943   46.360724
  C    -23.971504   28.115854   47.716709
  C    -25.137740   27.125243   47.890178
  C    -24.421137   25.900936   48.535661
  C    -23.348554   26.555570   49.427282
  O    -23.187436   27.959358   48.935984
  H    -24.342354   29.148981   47.721858
  H    -25.887791   27.549230   48.561222
  O    -25.850516   26.826384   46.665742
  H    -25.113756   25.271353   49.102391
  H    -23.951551   25.308009   47.746602
  H    -22.386358   26.046587   49.353092
  H    -23.656075   26.629788   50.474893
  H    -25.305465   26.227384   46.113562

 Multiplicity           Mult            ....    1
 Number of Electrons    NEL             ....  102
 Basis Dimension        Dim             ....  149

ORBITAL ENERGIES
----------------

  NO   OCC          E(Eh)            E(eV)
   0   2.0000     -19.147975      -521.0429
   1   2.0000     -19.142791      -520.9018
   2   2.0000     -19.137420      -520.7557
   3   2.0000     -19.136230      -520.7233
   4   2.0000     -10.284153      -279.8460
   5   2.0000     -10.234055      -278.4828
   6   2.0000     -10.233398      -278.4649
   7   2.0000     -10.228762      -278.3388
   8   2.0000     -10.224587      -278.2252
   9   2.0000     -10.216608      -278.0080
  10   2.0000     -10.196307      -277.4556
  11   2.0000     -10.190493      -277.2974
  12   2.0000     -10.174690      -276.8674
  13   2.0000      -1.052904       -28.6510
  14   2.0000      -1.024367       -27.8744
  15   2.0000      -1.007286       -27.4096
  16   2.0000      -0.996028       -27.1033
  17   2.0000      -0.789877       -21.4936
  18   2.0000      -0.774073       -21.0636
  19   2.0000      -0.764160       -20.7939
  20   2.0000      -0.733302       -19.9542
  21   2.0000      -0.680788       -18.5252
  22   2.0000      -0.606243       -16.4967
  23   2.0000      -0.599467       -16.3123
  24   2.0000      -0.596945       -16.2437
  25   2.0000      -0.561263       -15.2727
  26   2.0000      -0.529019       -14.3954
  27   2.0000      -0.507640       -13.8136
  28   2.0000      -0.496489       -13.5102
  29   2.0000      -0.494514       -13.4564
  30   2.0000      -0.462733       -12.5916
  31   2.0000      -0.458522       -12.4770
  32   2.0000      -0.443913       -12.0795
  33   2.0000      -0.430685       -11.7195
  34   2.0000      -0.419164       -11.4060
  35   2.0000      -0.416475       -11.3329
  36   2.0000      -0.401056       -10.9133
  37   2.0000      -0.394370       -10.7314
  38   2.0000      -0.388127       -10.5615
  39   2.0000      -0.365706        -9.9514
  40   2.0000      -0.361004        -9.8234
  41   2.0000      -0.351675        -9.5696
  42   2.0000      -0.349315        -9.5054
  43   2.0000      -0.323140        -8.7931
  44   2.0000      -0.317092        -8.6285
  45   2.0000      -0.307074        -8.3559
  46   2.0000      -0.296758        -8.0752
  47   2.0000      -0.278594        -7.5809
  48   2.0000      -0.260303        -7.0832
  49   2.0000      -0.255671        -6.9572
  50   2.0000      -0.236846        -6.4449
  51   0.0000       0.068075         1.8524
  52   0.0000       0.081184         2.2091
  53   0.0000       0.093905         2.5553
  54   0.0000       0.099074         2.6959
  55   0.0000       0.104781         2.8512

MULLIKEN ATOMIC CHARGES
-----------------------
   0 C :    0.324025
   1 C :   -0.305292
   2 C :   -0.315690
   3 C :   -0.009964
   4 O :   -0.504321
   5 H :    0.160447
   6 H :    0.158757
   7 H :    0.149698
   8 H :    0.143905
   9 H :    0.174093
  10 H :    0.162481
  11 H :    0.142436
  12 C :   -0.035356
  13 H :    0.141030
  14 H :    0.149694
  15 O :   -0.544983
  16 C :    0.105607
  17 C :    0.088096
  18 C :   -0.311256
  19 C :   -0.025011
  20 O :   -0.532624
  21 H :    0.142051
  22 H :    0.159694
  23 O :   -0.609080
  24 H :    0.141794
  25 H :    0.172911
  26 H :    0.171787
  27 H :    0.138423
  28 H :    0.366648
Sum of atomic charges:   -0.0000000

LOEWDIN ATOMIC CHARGES
----------------------
   0 C :    0.180541
   1 C :   -0.231762
   2 C :   -0.223085
   3 C :   -0.031119
   4 O :   -0.320718
   5 H :    0.107811
   6 H :    0.124409
   7 H :    0.116569
   8 H :    0.115394
   9 H :    0.119157
  10 H :    0.112046
  11 H :    0.102181
  12 C :   -0.049266
  13 H :    0.105473
  14 H :    0.108182
  15 O :   -0.335590
  16 C :    0.013888
  17 C :    0.037810
  18 C :   -0.240914
  19 C :   -0.031293
  20 O :   -0.332601
  21 H :    0.110740
  22 H :    0.115022
  23 O :   -0.412364
  24 H :    0.114354
  25 H :    0.125471
  26 H :    0.115870
  27 H :    0.099548
  28 H :    0.284246

  Mayer bond orders larger than 0.100000
B(  0-C ,  1-C ) :   0.9317 B(  0-C ,  4-O ) :   0.9101 B(  0-C ,  5-H ) :   0.9356
B(  0-C , 15-O ) :   0.8677 B(  1-C ,  2-C ) :   0.9518 B(  1-C ,  6-H ) :   0.9339
B(  1-C ,  7-H ) :   0.9314 B(  2-C ,  3-C ) :   0.9513 B(  2-C ,  8-H ) :   0.9451
B(  2-C ,  9-H ) :   0.9294 B(  3-C ,  4-O ) :   0.8337 B(  3-C , 10-H ) :   0.9249
B(  3-C , 11-H ) :   0.9399 B( 12-C , 13-H ) :   0.9129 B( 12-C , 14-H ) :   0.9152
B( 12-C , 15-O ) :   0.8409 B( 12-C , 16-C ) :   0.8971 B( 16-C , 17-C ) :   0.8888
B( 16-C , 20-O ) :   0.8784 B( 16-C , 21-H ) :   0.9254 B( 17-C , 18-C ) :   0.9346
B( 17-C , 22-H ) :   0.9364 B( 17-C , 23-O ) :   0.9000 B( 18-C , 19-C ) :   0.9469
B( 18-C , 24-H ) :   0.9412 B( 18-C , 25-H ) :   0.9245 B( 19-C , 20-O ) :   0.8261
B( 19-C , 26-H ) :   0.9148 B( 19-C , 27-H ) :   0.9380 B( 23-O , 28-H ) :   0.7924

FINAL SINGLE POINT ENERGY      -652.859590763357

DIPOLE MOMENT
-------------
                                X             Y             Z
Electronic contribution:     -3.16508      -1.74143      -0.61868
Nuclear contribution   :      4.04078       2.15262       0.25279
                        -----------------------------------------
Total Dipole Moment    :      0.87570       0.41119      -0.36589
                        -----------------------------------------
Magnitude (a.u.)       :      1.03432
Magnitude (Debye)      :      2.62903

Rotational constants in cm-1:     0.047831     0.018972     0.017183
Rotational constants in MHz :  1433.939287   568.770078   515.123604

                             ****ORCA TERMINATED NORMALLY****
TOTAL RUN TIME: 0 days 1 hours 10 minutes 58 seconds 742 msec
