                         Program Version 4.2.0 -  RELEASE  -
|  1> # Test redundant internal optimization
|  2> #
|  3> ! RKS B3LYP  Opt TightSCF SmallPrint
|  4>
|  5> %basis
|  6>         Basis "6-31G"
|  7> end
|  8>
|  9> %geom
| 10> Constraints
| 11> { D 4  0  15  12  270.0   C } # D for Dihedral angle
| 12> { D 0  15  12  16  195.0   C } # D for Dihedral angle
| 13> { D 0  4  3  2   C } # D for Dihedral angle
| 14> { D 4  3  2  1   C } # D for Dihedral angle
| 15> { D 3  2  1  0   C } # D for Dihedral angle
| 16> { D 2  1  0  4   C } # D for Dihedral angle
| 17> { D 1  0  4  3   C } # D for Dihedral angle
| 18> { D 16  20  19  18   C } # D for Dihedral angle
| 19> { D 20  19  18  17   C } # D for Dihedral angle
| 20> { D 19  18  17  16   C } # D for Dihedral angle
| 21> { D 18  17  16  20   C } # D for Dihedral angle
| 22> { D 17  16  20  19   C } # D for Dihedral angle
| 23> { D 15  12  16  20   C } # D for Dihedral angle
| 24> end
| 25> end
| 26>
| 27>
| 28> #%pal
| 29> #nprocs 8
| 30> #end
| 31>
| 32> * xyz 0 1
| 33> C  -21.048   26.222   46.251
| 34> C  -20.361   27.558   45.944
| 35> C  -20.329   28.222   47.341
| 36> C  -20.110   27.022   48.296
| 37> O  -20.473   25.807   47.535
| 38> H  -20.833   25.428   45.533
| 39> H  -19.344   27.382   45.576
| 40> H  -20.898   28.157   45.201
| 41> H  -19.543   28.978   47.434
| 42> H  -21.289   28.710   47.548
| 43> H  -20.733   27.082   49.195
| 44> H  -19.064   26.913   48.597
| 45> C  -23.420   25.119   46.072
| 46> H  -23.027   24.636   45.169
| 47> H  -23.345   24.405   46.903
| 48> O  -22.586   26.394   46.375
| 49> C  -24.926   25.426   45.846
| 50> C  -25.524   26.185   47.037
| 51> C  -25.032   27.627   46.767
| 52> C  -25.062   27.726   45.222
| 53> O  -25.099   26.338   44.712
| 54> H  -25.446   24.500   45.594
| 55> H  -26.618   26.137   47.001
| 56> O  -25.054   25.635   48.411
| 57> H  -25.659   28.386   47.246
| 58> H  -24.009   27.752   47.143
| 59> H  -24.180   28.235   44.817
| 60> H  -25.961   28.229   44.853
| 61> H  -23.960   25.674   48.468
| 62> *
| 63>
| 64>                          ****END OF INPUT****
 Total Charge           Charge          ....    0
 Multiplicity           Mult            ....    1
 Number of Electrons    NEL             ....  102
FINAL SINGLE POINT ENERGY      -652.837629576747
FINAL SINGLE POINT ENERGY      -652.861453014491
FINAL SINGLE POINT ENERGY      -652.865898600173
FINAL SINGLE POINT ENERGY      -652.867201877590
FINAL SINGLE POINT ENERGY      -652.867321124130
FINAL SINGLE POINT ENERGY      -652.867341176904
                    ***********************HURRAY********************

CARTESIAN COORDINATES (ANGSTROEM)
---------------------------------
  C    -21.062703   26.146814   46.234247
  C    -20.436685   27.508680   45.930560
  C    -20.417340   28.168811   47.329859
  C    -20.139494   26.976049   48.272655
  O    -20.465914   25.756003   47.492424
  H    -20.836201   25.351530   45.518218
  H    -19.418283   27.359985   45.554265
  H    -21.010823   28.070234   45.191123
  H    -19.657044   28.951069   47.416399
  H    -21.393353   28.615464   47.543628
  H    -20.751693   26.991605   49.178200
  H    -19.085579   26.894500   48.554035
  C    -23.293364   25.125438   46.083164
  H    -22.914726   24.632785   45.177001
  H    -23.214915   24.422453   46.923013
  O    -22.492210   26.318730   46.345006
  C    -24.756143   25.489232   45.863642
  C    -25.442479   26.197493   47.045657
  C    -25.061576   27.688157   46.791170
  C    -25.067315   27.780346   45.250590
  O    -24.978959   26.387698   44.739758
  H    -25.273289   24.554471   45.614671
  H    -26.523093   26.049538   46.991808
  O    -25.059180   25.693707   48.347256
  H    -25.769106   28.378353   47.259576
  H    -24.060339   27.869212   47.187683
  H    -24.220229   28.350736   44.858982
  H    -25.998093   28.201946   44.858069
  H    -24.132870   25.953963   48.534341

 Multiplicity           Mult            ....    1
 Number of Electrons    NEL             ....  102
 Basis Dimension        Dim             ....  149

ORBITAL ENERGIES
----------------

  NO   OCC          E(Eh)            E(eV)
   0   2.0000     -19.153833      -521.2023
   1   2.0000     -19.144833      -520.9574
   2   2.0000     -19.138151      -520.7756
   3   2.0000     -19.133559      -520.6506
   4   2.0000     -10.284928      -279.8671
   5   2.0000     -10.235840      -278.5314
   6   2.0000     -10.231875      -278.4235
   7   2.0000     -10.230982      -278.3992
   8   2.0000     -10.230662      -278.3905
   9   2.0000     -10.221793      -278.1491
  10   2.0000     -10.191981      -277.3379
  11   2.0000     -10.190516      -277.2980
  12   2.0000     -10.178753      -276.9779
  13   2.0000      -1.060539       -28.8587
  14   2.0000      -1.026366       -27.9288
  15   2.0000      -1.008789       -27.4505
  16   2.0000      -0.999507       -27.1980
  17   2.0000      -0.793482       -21.5917
  18   2.0000      -0.772802       -21.0290
  19   2.0000      -0.765797       -20.8384
  20   2.0000      -0.733961       -19.9721
  21   2.0000      -0.677681       -18.4406
  22   2.0000      -0.604609       -16.4522
  23   2.0000      -0.601534       -16.3686
  24   2.0000      -0.596471       -16.2308
  25   2.0000      -0.575583       -15.6624
  26   2.0000      -0.527694       -14.3593
  27   2.0000      -0.509330       -13.8596
  28   2.0000      -0.498974       -13.5778
  29   2.0000      -0.489329       -13.3153
  30   2.0000      -0.470986       -12.8162
  31   2.0000      -0.464513       -12.6400
  32   2.0000      -0.440542       -11.9878
  33   2.0000      -0.430332       -11.7099
  34   2.0000      -0.421545       -11.4708
  35   2.0000      -0.417267       -11.3544
  36   2.0000      -0.403785       -10.9875
  37   2.0000      -0.397666       -10.8210
  38   2.0000      -0.383916       -10.4469
  39   2.0000      -0.367801       -10.0084
  40   2.0000      -0.362400        -9.8614
  41   2.0000      -0.353688        -9.6243
  42   2.0000      -0.347536        -9.4569
  43   2.0000      -0.333662        -9.0794
  44   2.0000      -0.321759        -8.7555
  45   2.0000      -0.310626        -8.4526
  46   2.0000      -0.304447        -8.2844
  47   2.0000      -0.276535        -7.5249
  48   2.0000      -0.261920        -7.1272
  49   2.0000      -0.256612        -6.9828
  50   2.0000      -0.239087        -6.5059
  51   0.0000       0.059651         1.6232
  52   0.0000       0.078526         2.1368
  53   0.0000       0.085622         2.3299
  54   0.0000       0.097454         2.6519
  55   0.0000       0.106815         2.9066

MULLIKEN ATOMIC CHARGES
-----------------------
   0 C :    0.292414
   1 C :   -0.259456
   2 C :   -0.303866
   3 C :   -0.003896
   4 O :   -0.509124
   5 H :    0.146762
   6 H :    0.148815
   7 H :    0.156769
   8 H :    0.145473
   9 H :    0.157229
  10 H :    0.144274
  11 H :    0.146329
  12 C :   -0.016954
  13 H :    0.142739
  14 H :    0.153740
  15 O :   -0.537608
  16 C :    0.087126
  17 C :    0.081441
  18 C :   -0.310306
  19 C :   -0.001528
  20 O :   -0.521905
  21 H :    0.151093
  22 H :    0.163439
  23 O :   -0.606720
  24 H :    0.143002
  25 H :    0.163674
  26 H :    0.142623
  27 H :    0.139204
  28 H :    0.365217
Sum of atomic charges:    0.0000000

LOEWDIN ATOMIC CHARGES
----------------------
   0 C :    0.174378
   1 C :   -0.215752
   2 C :   -0.216922
   3 C :   -0.028236
   4 O :   -0.327158
   5 H :    0.100925
   6 H :    0.116243
   7 H :    0.123490
   8 H :    0.115590
   9 H :    0.114483
  10 H :    0.103635
  11 H :    0.104657
  12 C :   -0.046774
  13 H :    0.104099
  14 H :    0.107444
  15 O :   -0.335484
  16 C :    0.018254
  17 C :    0.037204
  18 C :   -0.242955
  19 C :   -0.024440
  20 O :   -0.323665
  21 H :    0.115754
  22 H :    0.116570
  23 O :   -0.411279
  24 H :    0.114908
  25 H :    0.119269
  26 H :    0.102762
  27 H :    0.100002
  28 H :    0.282997

  Mayer bond orders larger than 0.100000
B(  0-C ,  1-C ) :   0.9469 B(  0-C ,  4-O ) :   0.9170 B(  0-C ,  5-H ) :   0.9177
B(  0-C , 15-O ) :   0.8478 B(  1-C ,  2-C ) :   0.9564 B(  1-C ,  6-H ) :   0.9388
B(  1-C ,  7-H ) :   0.9359 B(  2-C ,  3-C ) :   0.9535 B(  2-C ,  8-H ) :   0.9448
B(  2-C ,  9-H ) :   0.9438 B(  3-C ,  4-O ) :   0.8389 B(  3-C , 10-H ) :   0.9359
B(  3-C , 11-H ) :   0.9398 B( 12-C , 13-H ) :   0.9212 B( 12-C , 14-H ) :   0.9035
B( 12-C , 15-O ) :   0.8231 B( 12-C , 16-C ) :   0.9150 B( 16-C , 17-C ) :   0.8876
B( 16-C , 20-O ) :   0.8800 B( 16-C , 21-H ) :   0.9275 B( 17-C , 18-C ) :   0.9335
B( 17-C , 22-H ) :   0.9353 B( 17-C , 23-O ) :   0.9044 B( 18-C , 19-C ) :   0.9450
B( 18-C , 24-H ) :   0.9410 B( 18-C , 25-H ) :   0.9255 B( 19-C , 20-O ) :   0.8376
B( 19-C , 26-H ) :   0.9328 B( 19-C , 27-H ) :   0.9381 B( 23-O , 28-H ) :   0.7903

FINAL SINGLE POINT ENERGY      -652.867341955015

DIPOLE MOMENT
-------------
                                X             Y             Z
Electronic contribution:     -2.40270      -4.62715      -0.62141
Nuclear contribution   :      3.19651       5.55292       0.56402
                        -----------------------------------------
Total Dipole Moment    :      0.79381       0.92577      -0.05739
                        -----------------------------------------
Magnitude (a.u.)       :      1.22085
Magnitude (Debye)      :      3.10315

Rotational constants in cm-1:     0.044663     0.016209     0.015350
Rotational constants in MHz :  1338.977552   485.940293   460.189964

                             ****ORCA TERMINATED NORMALLY****
TOTAL RUN TIME: 0 days 0 hours 32 minutes 51 seconds 898 msec
