                         Program Version 4.2.0 -  RELEASE  -
|  1> # Test redundant internal optimization
|  2> #
|  3> ! RKS B3LYP  Opt TightSCF SmallPrint
|  4>
|  5> %basis
|  6>         Basis "6-31G"
|  7> end
|  8>
|  9> %geom
| 10> Constraints
| 11> { D 4  0  15  12  15.0   C } # D for Dihedral angle
| 12> { D 0  15  12  16  180.0   C } # D for Dihedral angle
| 13> { D 0  4  3  2   C } # D for Dihedral angle
| 14> { D 4  3  2  1   C } # D for Dihedral angle
| 15> { D 3  2  1  0   C } # D for Dihedral angle
| 16> { D 2  1  0  4   C } # D for Dihedral angle
| 17> { D 1  0  4  3   C } # D for Dihedral angle
| 18> { D 16  20  19  18   C } # D for Dihedral angle
| 19> { D 20  19  18  17   C } # D for Dihedral angle
| 20> { D 19  18  17  16   C } # D for Dihedral angle
| 21> { D 18  17  16  20   C } # D for Dihedral angle
| 22> { D 17  16  20  19   C } # D for Dihedral angle
| 23> { D 15  12  16  20   C } # D for Dihedral angle
| 24> end
| 25> end
| 26>
| 27>
| 28> #%pal
| 29> #nprocs 8
| 30> #end
| 31>
| 32> * xyz 0 1
| 33> C  -21.048   26.222   46.251
| 34> C  -20.361   27.558   45.944
| 35> C  -20.329   28.222   47.341
| 36> C  -20.110   27.022   48.296
| 37> O  -20.473   25.807   47.535
| 38> H  -20.833   25.428   45.533
| 39> H  -19.344   27.382   45.576
| 40> H  -20.898   28.157   45.201
| 41> H  -19.543   28.978   47.434
| 42> H  -21.289   28.710   47.548
| 43> H  -20.733   27.082   49.195
| 44> H  -19.064   26.913   48.597
| 45> C  -23.128   26.462   47.829
| 46> H  -22.864   25.538   48.358
| 47> H  -22.677   27.306   48.368
| 48> O  -22.586   26.394   46.375
| 49> C  -24.671   26.634   47.888
| 50> C  -25.157   26.814   49.330
| 51> C  -24.826   28.303   49.589
| 52> C  -25.081   28.965   48.212
| 53> O  -25.074   27.873   47.214
| 54> H  -25.144   25.809   47.351
| 55> H  -26.237   26.642   49.388
| 56> O  -24.455   25.858   50.333
| 57> H  -25.439   28.742   50.383
| 58> H  -23.774   28.410   49.881
| 59> H  -24.308   29.696   47.949
| 60> H  -26.060   29.448   48.156
| 61> H  -23.371   26.012   50.294
| 62> *
| 63>
| 64>                          ****END OF INPUT****
 Total Charge           Charge          ....    0
 Multiplicity           Mult            ....    1
 Number of Electrons    NEL             ....  102
FINAL SINGLE POINT ENERGY      -652.822495147761
FINAL SINGLE POINT ENERGY      -652.846589069721
FINAL SINGLE POINT ENERGY      -652.852127679860
FINAL SINGLE POINT ENERGY      -652.852897359171
FINAL SINGLE POINT ENERGY      -652.853013524494
FINAL SINGLE POINT ENERGY      -652.853041347989
FINAL SINGLE POINT ENERGY      -652.853042688435
                    ***********************HURRAY********************

CARTESIAN COORDINATES (ANGSTROEM)
---------------------------------
  C    -21.132319   26.264828   46.340266
  C    -20.451318   27.570342   45.920409
  C    -20.130959   28.217440   47.291343
  C    -19.798413   26.998055   48.182266
  O    -20.362042   25.814332   47.479361
  H    -21.071188   25.471796   45.592185
  H    -19.531908   27.337514   45.370695
  H    -21.100884   28.184235   45.293224
  H    -19.298938   28.926504   47.239433
  H    -21.007998   28.755613   47.665751
  H    -20.236896   27.056805   49.183066
  H    -18.722423   26.823158   48.274745
  C    -23.033373   26.481473   47.961106
  H    -22.799896   25.545441   48.483306
  H    -22.572406   27.312783   48.515470
  O    -22.552654   26.437372   46.595319
  C    -24.546354   26.669096   47.890459
  C    -25.227226   26.779776   49.265171
  C    -25.024640   28.288178   49.602697
  C    -25.141073   28.963514   48.218872
  O    -24.936256   27.898413   47.204981
  H    -24.958523   25.853299   47.289980
  H    -26.290173   26.553783   49.160214
  O    -24.759214   25.856595   50.276843
  H    -25.763749   28.653402   50.320406
  H    -24.028128   28.434450   50.040874
  H    -24.398733   29.753141   48.064074
  H    -26.137446   29.381843   48.046520
  H    -23.861868   26.103819   50.579964

 Multiplicity           Mult            ....    1
 Number of Electrons    NEL             ....  102
 Basis Dimension        Dim             ....  149

ORBITAL ENERGIES
----------------

  NO   OCC          E(Eh)            E(eV)
   0   2.0000     -19.150125      -521.1014
   1   2.0000     -19.149268      -521.0781
   2   2.0000     -19.135307      -520.6982
   3   2.0000     -19.135267      -520.6971
   4   2.0000     -10.277357      -279.6611
   5   2.0000     -10.244253      -278.7603
   6   2.0000     -10.235029      -278.5093
   7   2.0000     -10.229897      -278.3697
   8   2.0000     -10.229109      -278.3482
   9   2.0000     -10.228314      -278.3266
  10   2.0000     -10.195308      -277.4284
  11   2.0000     -10.193685      -277.3843
  12   2.0000     -10.184931      -277.1461
  13   2.0000      -1.054518       -28.6949
  14   2.0000      -1.032900       -28.1066
  15   2.0000      -1.014694       -27.6112
  16   2.0000      -0.991807       -26.9884
  17   2.0000      -0.790925       -21.5222
  18   2.0000      -0.782054       -21.2808
  19   2.0000      -0.770414       -20.9640
  20   2.0000      -0.733521       -19.9601
  21   2.0000      -0.679588       -18.4925
  22   2.0000      -0.610752       -16.6194
  23   2.0000      -0.605531       -16.4773
  24   2.0000      -0.594174       -16.1683
  25   2.0000      -0.572133       -15.5685
  26   2.0000      -0.528814       -14.3898
  27   2.0000      -0.508491       -13.8367
  28   2.0000      -0.500955       -13.6317
  29   2.0000      -0.496732       -13.5168
  30   2.0000      -0.470798       -12.8111
  31   2.0000      -0.457742       -12.4558
  32   2.0000      -0.450236       -12.2515
  33   2.0000      -0.431039       -11.7292
  34   2.0000      -0.426221       -11.5981
  35   2.0000      -0.416794       -11.3415
  36   2.0000      -0.408368       -11.1123
  37   2.0000      -0.401421       -10.9232
  38   2.0000      -0.378685       -10.3045
  39   2.0000      -0.372655       -10.1405
  40   2.0000      -0.361531        -9.8377
  41   2.0000      -0.355112        -9.6631
  42   2.0000      -0.348079        -9.4717
  43   2.0000      -0.339539        -9.2393
  44   2.0000      -0.323907        -8.8140
  45   2.0000      -0.312697        -8.5089
  46   2.0000      -0.307986        -8.3807
  47   2.0000      -0.270342        -7.3564
  48   2.0000      -0.263198        -7.1620
  49   2.0000      -0.244421        -6.6510
  50   2.0000      -0.241143        -6.5618
  51   0.0000       0.045750         1.2449
  52   0.0000       0.063684         1.7329
  53   0.0000       0.087490         2.3807
  54   0.0000       0.092564         2.5188
  55   0.0000       0.105573         2.8728

MULLIKEN ATOMIC CHARGES
-----------------------
   0 C :    0.295518
   1 C :   -0.255103
   2 C :   -0.313902
   3 C :   -0.014707
   4 O :   -0.510576
   5 H :    0.162053
   6 H :    0.144779
   7 H :    0.166541
   8 H :    0.147877
   9 H :    0.153469
  10 H :    0.134681
  11 H :    0.152683
  12 C :    0.002249
  13 H :    0.152464
  14 H :    0.103505
  15 O :   -0.527531
  16 C :    0.089447
  17 C :    0.081775
  18 C :   -0.322794
  19 C :   -0.009208
  20 O :   -0.504324
  21 H :    0.166953
  22 H :    0.169912
  23 O :   -0.597969
  24 H :    0.159080
  25 H :    0.128178
  26 H :    0.141704
  27 H :    0.147701
  28 H :    0.355545
Sum of atomic charges:   -0.0000000

LOEWDIN ATOMIC CHARGES
----------------------
   0 C :    0.181235
   1 C :   -0.222449
   2 C :   -0.221581
   3 C :   -0.034251
   4 O :   -0.319776
   5 H :    0.109380
   6 H :    0.114296
   7 H :    0.128568
   8 H :    0.117455
   9 H :    0.111547
  10 H :    0.096845
  11 H :    0.107616
  12 C :   -0.046080
  13 H :    0.107583
  14 H :    0.078590
  15 O :   -0.324474
  16 C :    0.022235
  17 C :    0.035254
  18 C :   -0.242298
  19 C :   -0.030647
  20 O :   -0.313112
  21 H :    0.121721
  22 H :    0.120584
  23 O :   -0.405994
  24 H :    0.122824
  25 H :    0.101282
  26 H :    0.100861
  27 H :    0.105337
  28 H :    0.277449

  Mayer bond orders larger than 0.100000
B(  0-C ,  1-C ) :   0.9226 B(  0-C ,  4-O ) :   0.9049 B(  0-C ,  5-H ) :   0.9323
B(  0-C , 15-O ) :   0.8604 B(  1-C ,  2-C ) :   0.9524 B(  1-C ,  6-H ) :   0.9350
B(  1-C ,  7-H ) :   0.9349 B(  2-C ,  3-C ) :   0.9514 B(  2-C ,  8-H ) :   0.9443
B(  2-C ,  9-H ) :   0.9432 B(  3-C ,  4-O ) :   0.8359 B(  3-C , 10-H ) :   0.9329
B(  3-C , 11-H ) :   0.9393 B( 12-C , 13-H ) :   0.9027 B( 12-C , 14-H ) :   0.9087
B( 12-C , 15-O ) :   0.8358 B( 12-C , 16-C ) :   0.9063 B( 16-C , 17-C ) :   0.8744
B( 16-C , 20-O ) :   0.8687 B( 16-C , 21-H ) :   0.9276 B( 17-C , 18-C ) :   0.9203
B( 17-C , 22-H ) :   0.9338 B( 17-C , 23-O ) :   0.8991 B( 18-C , 19-C ) :   0.9384
B( 18-C , 24-H ) :   0.9418 B( 18-C , 25-H ) :   0.9414 B( 19-C , 20-O ) :   0.8530
B( 19-C , 26-H ) :   0.9314 B( 19-C , 27-H ) :   0.9376 B( 23-O , 28-H ) :   0.7979

FINAL SINGLE POINT ENERGY      -652.853042790117

DIPOLE MOMENT
-------------
                                X             Y             Z
Electronic contribution:     -2.87703      -5.12052      -2.05027
Nuclear contribution   :      3.68714       6.40140       2.79834
                        -----------------------------------------
Total Dipole Moment    :      0.81010       1.28088       0.74806
                        -----------------------------------------
Magnitude (a.u.)       :      1.69013
Magnitude (Debye)      :      4.29596

Rotational constants in cm-1:     0.045795     0.014885     0.013879
Rotational constants in MHz :  1372.903388   446.236394   416.070543

                             ****ORCA TERMINATED NORMALLY****
TOTAL RUN TIME: 0 days 0 hours 25 minutes 41 seconds 64 msec
