                         Program Version 4.2.1 -  RELEASE  -
|  1> # Test redundant internal optimization
|  2> #
|  3> ! RKS B3LYP  Opt TightSCF SmallPrint
|  4>
|  5> %basis
|  6>         Basis "6-31G"
|  7> end
|  8>
|  9> %geom
| 10> Constraints
| 11> { D 4  0  19  14  225.0   C } # D for Dihedral angle
| 12> { D 0  19  14  12  180.0   C } # D for Dihedral angle
| 13> { D 0  4  3  2   C } # D for Dihedral angle
| 14> { D 4  3  2  1   C } # D for Dihedral angle
| 15> { D 3  2  1  0   C } # D for Dihedral angle
| 16> { D 2  1  0  4   C } # D for Dihedral angle
| 17> { D 1  0  4  3   C } # D for Dihedral angle
| 18> { D 14  15  16  17   C } # D for Dihedral angle
| 19> { D 15  16  17  12   C } # D for Dihedral angle
| 20> { D 16  17  12  14   C } # D for Dihedral angle
| 21> { D 17  12  14  15   C } # D for Dihedral angle
| 22> { D 12  14  15  16   C } # D for Dihedral angle
| 23> end
| 24> end
| 25>
| 26>
| 27> #%pal
| 28> #nprocs 8
| 29> #end
| 30>
| 31> * xyz 0 1
| 32> C  -21.048   26.222   46.251
| 33> C  -20.361   27.558   45.944
| 34> C  -20.329   28.222   47.341
| 35> C  -20.110   27.022   48.296
| 36> O  -20.473   25.807   47.535
| 37> H  -20.833   25.428   45.533
| 38> H  -19.344   27.382   45.576
| 39> H  -20.898   28.157   45.201
| 40> H  -19.543   28.978   47.434
| 41> H  -21.289   28.710   47.548
| 42> H  -20.733   27.082   49.195
| 43> H  -19.064   26.913   48.597
| 44> C  -24.722   26.026   45.508
| 45> H  -25.326   25.359   44.873
| 46> C  -23.222   25.800   45.287
| 47> C  -22.978   26.576   43.972
| 48> C  -23.941   27.784   44.091
| 49> O  -24.936   27.427   45.127
| 50> H  -25.047   25.924   46.545
| 51> O  -22.472   26.381   46.366
| 52> H  -22.954   24.741   45.211
| 53> H  -21.935   26.885   43.848
| 54> H  -23.246   25.952   43.110
| 55> H  -24.463   28.000   43.153
| 56> H  -23.434   28.691   44.432
| 57> *
| 58>
| 59>                          ****END OF INPUT****
 Total Charge           Charge          ....    0
 Multiplicity           Mult            ....    1
 Number of Electrons    NEL             ....   86
FINAL SINGLE POINT ENERGY      -538.427849525436
FINAL SINGLE POINT ENERGY      -538.430781760886
FINAL SINGLE POINT ENERGY      -538.430986647772
FINAL SINGLE POINT ENERGY      -538.431031756344
FINAL SINGLE POINT ENERGY      -538.431040208881
                    ***********************HURRAY********************

CARTESIAN COORDINATES (ANGSTROEM)
---------------------------------
  C    -20.964853   26.222259   46.219737
  C    -20.310018   27.581899   45.976840
  C    -20.370207   28.223430   47.385189
  C    -20.160873   27.013534   48.321715
  O    -20.451205   25.811514   47.499530
  H    -20.707320   25.437313   45.501116
  H    -19.270013   27.434639   45.660218
  H    -20.828396   28.172363   45.218472
  H    -19.612699   28.999674   47.527362
  H    -21.358657   28.664974   47.542710
  H    -20.831623   27.016773   49.184253
  H    -19.126747   26.915638   48.665597
  C    -24.668725   26.084227   45.572938
  H    -25.337132   25.415892   45.011555
  C    -23.205934   25.798824   45.233004
  C    -23.048931   26.534448   43.888443
  C    -23.953700   27.779090   44.055668
  O    -24.866705   27.481262   45.178404
  H    -24.870360   26.008956   46.641547
  O    -22.408075   26.365474   46.312764
  H    -22.990321   24.724339   45.146634
  H    -22.011259   26.789412   43.657834
  H    -23.418401   25.885282   43.085185
  H    -24.541953   27.992336   43.156325
  H    -23.386892   28.673448   44.330959

 Multiplicity           Mult            ....    1
 Number of Electrons    NEL             ....   86
 Basis Dimension        Dim             ....  127

ORBITAL ENERGIES
----------------

  NO   OCC          E(Eh)            E(eV)
   0   2.0000     -19.139163      -520.8031
   1   2.0000     -19.137691      -520.7630
   2   2.0000     -19.129205      -520.5321
   3   2.0000     -10.279414      -279.7171
   4   2.0000     -10.243006      -278.7264
   5   2.0000     -10.224318      -278.2178
   6   2.0000     -10.222565      -278.1701
   7   2.0000     -10.221797      -278.1492
   8   2.0000     -10.191645      -277.3288
   9   2.0000     -10.185831      -277.1706
  10   2.0000     -10.183838      -277.1163
  11   2.0000      -1.052439       -28.6383
  12   2.0000      -1.015466       -27.6322
  13   2.0000      -0.989525       -26.9264
  14   2.0000      -0.788910       -21.4673
  15   2.0000      -0.779799       -21.2194
  16   2.0000      -0.745212       -20.2782
  17   2.0000      -0.720363       -19.6021
  18   2.0000      -0.610319       -16.6076
  19   2.0000      -0.601910       -16.3788
  20   2.0000      -0.595690       -16.2095
  21   2.0000      -0.576466       -15.6864
  22   2.0000      -0.520237       -14.1564
  23   2.0000      -0.504922       -13.7396
  24   2.0000      -0.483993       -13.1701
  25   2.0000      -0.482624       -13.1329
  26   2.0000      -0.455667       -12.3993
  27   2.0000      -0.445637       -12.1264
  28   2.0000      -0.421291       -11.4639
  29   2.0000      -0.419516       -11.4156
  30   2.0000      -0.404948       -11.0192
  31   2.0000      -0.386980       -10.5303
  32   2.0000      -0.378893       -10.3102
  33   2.0000      -0.370005       -10.0684
  34   2.0000      -0.360261        -9.8032
  35   2.0000      -0.353526        -9.6199
  36   2.0000      -0.347432        -9.4541
  37   2.0000      -0.312215        -8.4958
  38   2.0000      -0.309663        -8.4264
  39   2.0000      -0.298354        -8.1186
  40   2.0000      -0.264266        -7.1911
  41   2.0000      -0.247881        -6.7452
  42   2.0000      -0.234527        -6.3818
  43   0.0000       0.072272         1.9666
  44   0.0000       0.085994         2.3400
  45   0.0000       0.098045         2.6679
  46   0.0000       0.109474         2.9790
  47   0.0000       0.116936         3.1820

MULLIKEN ATOMIC CHARGES
-----------------------
   0 C :    0.288780
   1 C :   -0.258388
   2 C :   -0.302585
   3 C :   -0.000806
   4 O :   -0.503813
   5 H :    0.137378
   6 H :    0.141095
   7 H :    0.144370
   8 H :    0.140808
   9 H :    0.169579
  10 H :    0.154207
  11 H :    0.139730
  12 C :    0.002602
  13 H :    0.125956
  14 C :    0.066937
  15 C :   -0.310910
  16 C :    0.009311
  17 O :   -0.519067
  18 H :    0.172967
  19 O :   -0.506529
  20 H :    0.134762
  21 H :    0.147364
  22 H :    0.144927
  23 H :    0.136070
  24 H :    0.145257
Sum of atomic charges:   -0.0000000

LOEWDIN ATOMIC CHARGES
----------------------
   0 C :    0.176503
   1 C :   -0.224887
   2 C :   -0.216778
   3 C :   -0.025479
   4 O :   -0.311168
   5 H :    0.096469
   6 H :    0.111633
   7 H :    0.114253
   8 H :    0.113867
   9 H :    0.122832
  10 H :    0.109173
  11 H :    0.101263
  12 C :   -0.032072
  13 H :    0.092465
  14 C :    0.038648
  15 C :   -0.242455
  16 C :   -0.027017
  17 O :   -0.328485
  18 H :    0.126254
  19 O :   -0.326097
  20 H :    0.098036
  21 H :    0.116186
  22 H :    0.115107
  23 H :    0.099035
  24 H :    0.102716

  Mayer bond orders larger than 0.100000
B(  0-C ,  1-C ) :   0.9350 B(  0-C ,  4-O ) :   0.9319 B(  0-C ,  5-H ) :   0.9181
B(  0-C , 19-O ) :   0.8376 B(  1-C ,  2-C ) :   0.9548 B(  1-C ,  6-H ) :   0.9355
B(  1-C ,  7-H ) :   0.9340 B(  2-C ,  3-C ) :   0.9548 B(  2-C ,  8-H ) :   0.9449
B(  2-C ,  9-H ) :   0.9418 B(  3-C ,  4-O ) :   0.8360 B(  3-C , 10-H ) :   0.9344
B(  3-C , 11-H ) :   0.9398 B( 12-C , 13-H ) :   0.9159 B( 12-C , 14-C ) :   0.9369
B( 12-C , 17-O ) :   0.8685 B( 12-C , 18-H ) :   0.9295 B( 14-C , 15-C ) :   0.9272
B( 14-C , 19-O ) :   0.8472 B( 14-C , 20-H ) :   0.9177 B( 15-C , 16-C ) :   0.9431
B( 15-C , 21-H ) :   0.9362 B( 15-C , 22-H ) :   0.9358 B( 16-C , 17-O ) :   0.8626
B( 16-C , 23-H ) :   0.9328 B( 16-C , 24-H ) :   0.9352

FINAL SINGLE POINT ENERGY      -538.431041332250

DIPOLE MOMENT
-------------
                                X             Y             Z
Electronic contribution:     -1.98460      -2.56017       2.18535
Nuclear contribution   :      2.70932       2.64314      -3.09363
                        -----------------------------------------
Total Dipole Moment    :      0.72472       0.08297      -0.90828
                        -----------------------------------------
Magnitude (a.u.)       :      1.16494
Magnitude (Debye)      :      2.96103

Rotational constants in cm-1:     0.076955     0.021338     0.020444
Rotational constants in MHz :  2307.043065   639.704731   612.904941

                             ****ORCA TERMINATED NORMALLY****
TOTAL RUN TIME: 0 days 0 hours 7 minutes 31 seconds 683 msec
