                         Program Version 4.2.0 -  RELEASE  -
|  1> # Test redundant internal optimization
|  2> #
|  3> ! RKS B3LYP  Opt TightSCF SmallPrint
|  4>
|  5> %basis
|  6>         Basis "6-31G"
|  7> end
|  8>
|  9> %geom
| 10> Constraints
| 11> { D 4  0  15  12  270.0   C } # D for Dihedral angle
| 12> { D 0  15  12  16  210.0   C } # D for Dihedral angle
| 13> { D 0  4  3  2   C } # D for Dihedral angle
| 14> { D 4  3  2  1   C } # D for Dihedral angle
| 15> { D 3  2  1  0   C } # D for Dihedral angle
| 16> { D 2  1  0  4   C } # D for Dihedral angle
| 17> { D 1  0  4  3   C } # D for Dihedral angle
| 18> { D 16  20  19  18   C } # D for Dihedral angle
| 19> { D 20  19  18  17   C } # D for Dihedral angle
| 20> { D 19  18  17  16   C } # D for Dihedral angle
| 21> { D 18  17  16  20   C } # D for Dihedral angle
| 22> { D 17  16  20  19   C } # D for Dihedral angle
| 23> { D 15  12  16  20   C } # D for Dihedral angle
| 24> end
| 25> end
| 26>
| 27>
| 28> #%pal
| 29> #nprocs 8
| 30> #end
| 31>
| 32> * xyz 0 1
| 33> C  -21.048   26.222   46.251
| 34> C  -20.361   27.558   45.944
| 35> C  -20.329   28.222   47.341
| 36> C  -20.110   27.022   48.296
| 37> O  -20.473   25.807   47.535
| 38> H  -20.833   25.428   45.533
| 39> H  -19.344   27.382   45.576
| 40> H  -20.898   28.157   45.201
| 41> H  -19.543   28.978   47.434
| 42> H  -21.289   28.710   47.548
| 43> H  -20.733   27.082   49.195
| 44> H  -19.064   26.913   48.597
| 45> C  -23.420   25.119   46.072
| 46> H  -22.879   24.497   45.348
| 47> H  -23.567   24.530   46.987
| 48> O  -22.586   26.394   46.375
| 49> C  -24.822   25.443   45.487
| 50> C  -25.605   26.387   46.408
| 51> C  -24.974   27.757   46.062
| 52> C  -24.673   27.633   44.547
| 53> O  -24.694   26.188   44.231
| 54> H  -25.337   24.509   45.255
| 55> O  -27.112   26.368   46.034
| 56> H  -25.509   26.132   47.469
| 57> H  -25.636   28.599   46.288
| 58> H  -24.046   27.898   46.629
| 59> H  -23.696   28.046   44.278
| 60> H  -25.441   28.108   43.929
| 61> H  -27.232   26.621   44.975
| 62> *
| 63>
| 64>                          ****END OF INPUT****
 Total Charge           Charge          ....    0
 Multiplicity           Mult            ....    1
 Number of Electrons    NEL             ....  102
FINAL SINGLE POINT ENERGY      -652.839293948990
FINAL SINGLE POINT ENERGY      -652.862359526062
FINAL SINGLE POINT ENERGY      -652.866656277126
FINAL SINGLE POINT ENERGY      -652.867676622731
FINAL SINGLE POINT ENERGY      -652.867775617815
FINAL SINGLE POINT ENERGY      -652.867787450164
                    ***********************HURRAY********************

CARTESIAN COORDINATES (ANGSTROEM)
---------------------------------
  C    -21.079564   26.143940   46.240144
  C    -20.450281   27.502791   45.930159
  C    -20.423731   28.167871   47.327379
  C    -20.146326   26.976390   48.272107
  O    -20.479532   25.756179   47.496729
  H    -20.859659   25.344192   45.526438
  H    -19.433357   27.349184   45.551485
  H    -21.023389   28.064174   45.189783
  H    -19.660788   28.948218   47.408440
  H    -21.398389   28.615437   47.544081
  H    -20.757336   26.996250   49.178056
  H    -19.091532   26.892600   48.550296
  C    -23.332528   25.153346   46.107412
  H    -22.828196   24.506790   45.375639
  H    -23.465445   24.583042   47.037209
  O    -22.506632   26.327071   46.354973
  C    -24.691994   25.545535   45.537207
  C    -25.571996   26.460306   46.402111
  C    -25.020238   27.863881   46.040220
  C    -24.654438   27.719112   44.542276
  O    -24.566959   26.264879   44.268725
  H    -25.230298   24.614574   45.319694
  O    -26.975855   26.307503   46.047492
  H    -25.521036   26.237906   47.468282
  H    -25.773469   28.635422   46.223552
  H    -24.129309   28.068228   46.636108
  H    -23.692783   28.180611   44.301768
  H    -25.421586   28.125800   43.874715
  H    -27.067351   26.358766   45.072520

 Multiplicity           Mult            ....    1
 Number of Electrons    NEL             ....  102
 Basis Dimension        Dim             ....  149

ORBITAL ENERGIES
----------------

  NO   OCC          E(Eh)            E(eV)
   0   2.0000     -19.150035      -521.0990
   1   2.0000     -19.140731      -520.8458
   2   2.0000     -19.138765      -520.7923
   3   2.0000     -19.134548      -520.6775
   4   2.0000     -10.282443      -279.7995
   5   2.0000     -10.236374      -278.5459
   6   2.0000     -10.234284      -278.4890
   7   2.0000     -10.234046      -278.4826
   8   2.0000     -10.226918      -278.2886
   9   2.0000     -10.224458      -278.2216
  10   2.0000     -10.188570      -277.2451
  11   2.0000     -10.188175      -277.2343
  12   2.0000     -10.177141      -276.9341
  13   2.0000      -1.057580       -28.7782
  14   2.0000      -1.032469       -28.0949
  15   2.0000      -1.003991       -27.3200
  16   2.0000      -0.995815       -27.0975
  17   2.0000      -0.791637       -21.5415
  18   2.0000      -0.776320       -21.1247
  19   2.0000      -0.764874       -20.8133
  20   2.0000      -0.732259       -19.9258
  21   2.0000      -0.674446       -18.3526
  22   2.0000      -0.601605       -16.3705
  23   2.0000      -0.597424       -16.2567
  24   2.0000      -0.597111       -16.2482
  25   2.0000      -0.580603       -15.7990
  26   2.0000      -0.526897       -14.3376
  27   2.0000      -0.506762       -13.7897
  28   2.0000      -0.496395       -13.5076
  29   2.0000      -0.487944       -13.2776
  30   2.0000      -0.472877       -12.8676
  31   2.0000      -0.462738       -12.5917
  32   2.0000      -0.448490       -12.2040
  33   2.0000      -0.432051       -11.7567
  34   2.0000      -0.428637       -11.6638
  35   2.0000      -0.409146       -11.1334
  36   2.0000      -0.400939       -10.9101
  37   2.0000      -0.387829       -10.5534
  38   2.0000      -0.380090       -10.3428
  39   2.0000      -0.365562        -9.9474
  40   2.0000      -0.359308        -9.7773
  41   2.0000      -0.356430        -9.6990
  42   2.0000      -0.349551        -9.5118
  43   2.0000      -0.332566        -9.0496
  44   2.0000      -0.321366        -8.7448
  45   2.0000      -0.308576        -8.3968
  46   2.0000      -0.300345        -8.1728
  47   2.0000      -0.275068        -7.4850
  48   2.0000      -0.265317        -7.2196
  49   2.0000      -0.254365        -6.9216
  50   2.0000      -0.242270        -6.5925
  51   0.0000       0.062490         1.7004
  52   0.0000       0.082418         2.2427
  53   0.0000       0.086560         2.3554
  54   0.0000       0.103612         2.8194
  55   0.0000       0.108163         2.9433

MULLIKEN ATOMIC CHARGES
-----------------------
   0 C :    0.291559
   1 C :   -0.262275
   2 C :   -0.303085
   3 C :   -0.000987
   4 O :   -0.508396
   5 H :    0.146633
   6 H :    0.147769
   7 H :    0.154476
   8 H :    0.143102
   9 H :    0.159384
  10 H :    0.147980
  11 H :    0.143198
  12 C :    0.005936
  13 H :    0.141539
  14 H :    0.144420
  15 O :   -0.528350
  16 C :    0.062246
  17 C :    0.078215
  18 C :   -0.293920
  19 C :   -0.019209
  20 O :   -0.526879
  21 H :    0.157354
  22 O :   -0.601884
  23 H :    0.153860
  24 H :    0.148131
  25 H :    0.176516
  26 H :    0.143196
  27 H :    0.137570
  28 H :    0.361902
Sum of atomic charges:    0.0000000

LOEWDIN ATOMIC CHARGES
----------------------
   0 C :    0.175020
   1 C :   -0.216199
   2 C :   -0.216866
   3 C :   -0.027159
   4 O :   -0.326276
   5 H :    0.099966
   6 H :    0.115632
   7 H :    0.121020
   8 H :    0.114298
   9 H :    0.115979
  10 H :    0.105952
  11 H :    0.102994
  12 C :   -0.034249
  13 H :    0.104075
  14 H :    0.104145
  15 O :   -0.328407
  16 C :    0.012045
  17 C :    0.039590
  18 C :   -0.243017
  19 C :   -0.032942
  20 O :   -0.331297
  21 H :    0.116825
  22 O :   -0.416846
  23 H :    0.117155
  24 H :    0.118433
  25 H :    0.129100
  26 H :    0.102878
  27 H :    0.096604
  28 H :    0.281546

  Mayer bond orders larger than 0.100000
B(  0-C ,  1-C ) :   0.9480 B(  0-C ,  4-O ) :   0.9177 B(  0-C ,  5-H ) :   0.9163
B(  0-C , 15-O ) :   0.8497 B(  1-C ,  2-C ) :   0.9569 B(  1-C ,  6-H ) :   0.9390
B(  1-C ,  7-H ) :   0.9353 B(  2-C ,  3-C ) :   0.9540 B(  2-C ,  8-H ) :   0.9450
B(  2-C ,  9-H ) :   0.9440 B(  3-C ,  4-O ) :   0.8390 B(  3-C , 10-H ) :   0.9355
B(  3-C , 11-H ) :   0.9400 B( 12-C , 13-H ) :   0.9167 B( 12-C , 14-H ) :   0.9130
B( 12-C , 15-O ) :   0.8398 B( 12-C , 16-C ) :   0.9037 B( 16-C , 17-C ) :   0.9102
B( 16-C , 20-O ) :   0.8702 B( 16-C , 21-H ) :   0.9206 B( 17-C , 18-C ) :   0.9235
B( 17-C , 22-O ) :   0.8936 B( 17-C , 23-H ) :   0.9352 B( 18-C , 19-C ) :   0.9462
B( 18-C , 24-H ) :   0.9374 B( 18-C , 25-H ) :   0.9182 B( 19-C , 20-O ) :   0.8412
B( 19-C , 26-H ) :   0.9335 B( 19-C , 27-H ) :   0.9363 B( 22-O , 28-H ) :   0.7961

FINAL SINGLE POINT ENERGY      -652.867787788926

DIPOLE MOMENT
-------------
                                X             Y             Z
Electronic contribution:     -3.14011      -4.50335      -1.21319
Nuclear contribution   :      3.90459       5.23453       1.13153
                        -----------------------------------------
Total Dipole Moment    :      0.76447       0.73118      -0.08165
                        -----------------------------------------
Magnitude (a.u.)       :      1.06100
Magnitude (Debye)      :      2.69684

Rotational constants in cm-1:     0.055618     0.013811     0.013398
Rotational constants in MHz :  1667.385445   414.052150   401.673411

                             ****ORCA TERMINATED NORMALLY****
TOTAL RUN TIME: 0 days 0 hours 45 minutes 49 seconds 366 msec
