                         Program Version 4.2.0 -  RELEASE  -
|  1> # Test redundant internal optimization
|  2> #
|  3> ! RKS B3LYP  Opt TightSCF SmallPrint
|  4>
|  5> %basis
|  6>         Basis "6-31G"
|  7> end
|  8>
|  9> %geom
| 10> Constraints
| 11> { D 4  0  15  12  285.0   C } # D for Dihedral angle
| 12> { D 0  15  12  16  270.0   C } # D for Dihedral angle
| 13> { D 0  4  3  2   C } # D for Dihedral angle
| 14> { D 4  3  2  1   C } # D for Dihedral angle
| 15> { D 3  2  1  0   C } # D for Dihedral angle
| 16> { D 2  1  0  4   C } # D for Dihedral angle
| 17> { D 1  0  4  3   C } # D for Dihedral angle
| 18> { D 16  20  19  18   C } # D for Dihedral angle
| 19> { D 20  19  18  17   C } # D for Dihedral angle
| 20> { D 19  18  17  16   C } # D for Dihedral angle
| 21> { D 18  17  16  20   C } # D for Dihedral angle
| 22> { D 17  16  20  19   C } # D for Dihedral angle
| 23> { D 15  12  16  20   C } # D for Dihedral angle
| 24> end
| 25> end
| 26>
| 27>
| 28> #%pal
| 29> #nprocs 8
| 30> #end
| 31>
| 32> * xyz 0 1
| 33> C  -21.048   26.222   46.251
| 34> C  -20.361   27.558   45.944
| 35> C  -20.329   28.222   47.341
| 36> C  -20.110   27.022   48.296
| 37> O  -20.473   25.807   47.535
| 38> H  -20.833   25.428   45.533
| 39> H  -19.344   27.382   45.576
| 40> H  -20.898   28.157   45.201
| 41> H  -19.543   28.978   47.434
| 42> H  -21.289   28.710   47.548
| 43> H  -20.733   27.082   49.195
| 44> H  -19.064   26.913   48.597
| 45> C  -23.396   25.070   46.435
| 46> H  -22.784   24.293   46.911
| 47> H  -24.307   25.204   47.033
| 48> O  -22.586   26.394   46.375
| 49> C  -23.824   24.563   45.030
| 50> C  -24.609   25.636   44.267
| 51> C  -23.473   26.554   43.759
| 52> C  -22.321   25.560   43.465
| 53> O  -22.645   24.315   44.194
| 54> H  -24.346   23.611   45.137
| 55> H  -25.144   25.182   43.425
| 56> O  -25.639   26.387   45.154
| 57> H  -23.758   27.135   42.875
| 58> H  -23.181   27.262   44.544
| 59> H  -21.349   25.933   43.803
| 60> H  -22.252   25.303   42.404
| 61> H  -25.124   26.849   46.004
| 62> *
| 63>
| 64>                          ****END OF INPUT****
 Total Charge           Charge          ....    0
 Multiplicity           Mult            ....    1
 Number of Electrons    NEL             ....  102
FINAL SINGLE POINT ENERGY      -652.833122501825
FINAL SINGLE POINT ENERGY      -652.858697817728
FINAL SINGLE POINT ENERGY      -652.864339958407
FINAL SINGLE POINT ENERGY      -652.867643632457
FINAL SINGLE POINT ENERGY      -652.867989319401
FINAL SINGLE POINT ENERGY      -652.868034541332
FINAL SINGLE POINT ENERGY      -652.868037761612
                    ***********************HURRAY********************

CARTESIAN COORDINATES (ANGSTROEM)
---------------------------------
  C    -21.008121   26.208841   46.301824
  C    -20.369363   27.576400   46.060974
  C    -20.363279   28.178921   47.484879
  C    -20.105703   26.948682   48.383018
  O    -20.430844   25.763012   47.549557
  H    -20.804233   25.425157   45.571392
  H    -19.348031   27.434943   45.689355
  H    -20.927972   28.178658   45.340987
  H    -19.599875   28.952638   47.611560
  H    -21.341625   28.617237   47.702391
  H    -20.731314   26.933509   49.278967
  H    -19.056059   26.846647   48.673884
  C    -23.232936   25.186483   46.474390
  H    -22.653264   24.408808   46.984462
  H    -24.114566   25.410424   47.083503
  O    -22.442717   26.418094   46.430256
  C    -23.695947   24.678903   45.110666
  C    -24.617331   25.624990   44.317096
  C    -23.585520   26.514120   43.557418
  C    -22.439439   25.525436   43.255441
  O    -22.618721   24.367278   44.173625
  H    -24.205680   23.725333   45.301311
  H    -25.230215   25.049201   43.620790
  O    -25.562192   26.362462   45.125931
  H    -24.008342   26.958801   42.652651
  H    -23.250324   27.311426   44.227172
  H    -21.447517   25.958493   43.416622
  H    -22.486898   25.126656   42.237543
  H    -25.084971   27.040447   45.648337

 Multiplicity           Mult            ....    1
 Number of Electrons    NEL             ....  102
 Basis Dimension        Dim             ....  149

ORBITAL ENERGIES
----------------

  NO   OCC          E(Eh)            E(eV)
   0   2.0000     -19.148659      -521.0615
   1   2.0000     -19.143094      -520.9101
   2   2.0000     -19.142023      -520.8809
   3   2.0000     -19.140621      -520.8428
   4   2.0000     -10.276961      -279.6503
   5   2.0000     -10.239659      -278.6353
   6   2.0000     -10.231312      -278.4081
   7   2.0000     -10.230613      -278.3891
   8   2.0000     -10.227104      -278.2936
   9   2.0000     -10.225885      -278.2605
  10   2.0000     -10.188731      -277.2495
  11   2.0000     -10.187361      -277.2122
  12   2.0000     -10.186002      -277.1752
  13   2.0000      -1.055107       -28.7109
  14   2.0000      -1.030604       -28.0442
  15   2.0000      -1.013833       -27.5878
  16   2.0000      -0.993375       -27.0311
  17   2.0000      -0.790776       -21.5181
  18   2.0000      -0.775683       -21.1074
  19   2.0000      -0.767419       -20.8825
  20   2.0000      -0.731726       -19.9113
  21   2.0000      -0.678747       -18.4696
  22   2.0000      -0.607172       -16.5220
  23   2.0000      -0.601693       -16.3729
  24   2.0000      -0.597287       -16.2530
  25   2.0000      -0.569137       -15.4870
  26   2.0000      -0.527674       -14.3587
  27   2.0000      -0.508924       -13.8485
  28   2.0000      -0.501395       -13.6437
  29   2.0000      -0.488834       -13.3018
  30   2.0000      -0.463553       -12.6139
  31   2.0000      -0.458584       -12.4787
  32   2.0000      -0.445436       -12.1209
  33   2.0000      -0.437635       -11.9087
  34   2.0000      -0.425796       -11.5865
  35   2.0000      -0.409943       -11.1551
  36   2.0000      -0.406105       -11.0507
  37   2.0000      -0.397123       -10.8063
  38   2.0000      -0.384400       -10.4601
  39   2.0000      -0.363007        -9.8779
  40   2.0000      -0.362007        -9.8507
  41   2.0000      -0.356544        -9.7021
  42   2.0000      -0.346793        -9.4367
  43   2.0000      -0.331714        -9.0264
  44   2.0000      -0.328440        -8.9373
  45   2.0000      -0.311971        -8.4891
  46   2.0000      -0.303494        -8.2585
  47   2.0000      -0.279248        -7.5987
  48   2.0000      -0.264354        -7.1934
  49   2.0000      -0.255643        -6.9564
  50   2.0000      -0.239750        -6.5239
  51   0.0000       0.067592         1.8393
  52   0.0000       0.073414         1.9977
  53   0.0000       0.087680         2.3859
  54   0.0000       0.098548         2.6816
  55   0.0000       0.102179         2.7804

MULLIKEN ATOMIC CHARGES
-----------------------
   0 C :    0.275220
   1 C :   -0.268641
   2 C :   -0.299155
   3 C :   -0.002281
   4 O :   -0.512549
   5 H :    0.178204
   6 H :    0.148214
   7 H :    0.150338
   8 H :    0.142013
   9 H :    0.159987
  10 H :    0.148065
  11 H :    0.143341
  12 C :   -0.058336
  13 H :    0.172077
  14 H :    0.154359
  15 O :   -0.532949
  16 C :    0.094374
  17 C :    0.093595
  18 C :   -0.312986
  19 C :   -0.014466
  20 O :   -0.521954
  21 H :    0.150945
  22 H :    0.162173
  23 O :   -0.605535
  24 H :    0.146407
  25 H :    0.159146
  26 H :    0.134869
  27 H :    0.148707
  28 H :    0.366817
Sum of atomic charges:   -0.0000000

LOEWDIN ATOMIC CHARGES
----------------------
   0 C :    0.166825
   1 C :   -0.217279
   2 C :   -0.215893
   3 C :   -0.027175
   4 O :   -0.324395
   5 H :    0.113708
   6 H :    0.115721
   7 H :    0.118313
   8 H :    0.113703
   9 H :    0.117949
  10 H :    0.106041
  11 H :    0.103231
  12 C :   -0.055884
  13 H :    0.119178
  14 H :    0.116387
  15 O :   -0.342108
  16 C :    0.008752
  17 C :    0.037998
  18 C :   -0.242485
  19 C :   -0.029347
  20 O :   -0.326176
  21 H :    0.115200
  22 H :    0.116536
  23 O :   -0.408813
  24 H :    0.117181
  25 H :    0.116955
  26 H :    0.096733
  27 H :    0.104891
  28 H :    0.284255

  Mayer bond orders larger than 0.100000
B(  0-C ,  1-C ) :   0.9459 B(  0-C ,  4-O ) :   0.9008 B(  0-C ,  5-H ) :   0.9034
B(  0-C , 15-O ) :   0.8361 B(  1-C ,  2-C ) :   0.9538 B(  1-C ,  6-H ) :   0.9402
B(  1-C ,  7-H ) :   0.9362 B(  2-C ,  3-C ) :   0.9559 B(  2-C ,  8-H ) :   0.9452
B(  2-C ,  9-H ) :   0.9447 B(  3-C ,  4-O ) :   0.8372 B(  3-C , 10-H ) :   0.9357
B(  3-C , 11-H ) :   0.9403 B( 12-C , 13-H ) :   0.9183 B( 12-C , 14-H ) :   0.9212
B( 12-C , 15-O ) :   0.8509 B( 12-C , 16-C ) :   0.8977 B( 16-C , 17-C ) :   0.8842
B( 16-C , 20-O ) :   0.8645 B( 16-C , 21-H ) :   0.9228 B( 17-C , 18-C ) :   0.9293
B( 17-C , 22-H ) :   0.9364 B( 17-C , 23-O ) :   0.9055 B( 18-C , 19-C ) :   0.9444
B( 18-C , 24-H ) :   0.9408 B( 18-C , 25-H ) :   0.9280 B( 19-C , 20-O ) :   0.8367
B( 19-C , 26-H ) :   0.9278 B( 19-C , 27-H ) :   0.9395 B( 23-O , 28-H ) :   0.7918

FINAL SINGLE POINT ENERGY      -652.868036445319

DIPOLE MOMENT
-------------
                                X             Y             Z
Electronic contribution:     -2.72847      -4.34139       0.25167
Nuclear contribution   :      3.26637       5.35669      -0.40265
                        -----------------------------------------
Total Dipole Moment    :      0.53790       1.01530      -0.15098
                        -----------------------------------------
Magnitude (a.u.)       :      1.15886
Magnitude (Debye)      :      2.94560

Rotational constants in cm-1:     0.049469     0.015726     0.015237
Rotational constants in MHz :  1483.055272   471.442255   456.802825

                             ****ORCA TERMINATED NORMALLY****
TOTAL RUN TIME: 0 days 0 hours 21 minutes 2 seconds 965 msec
