                         Program Version 4.2.0 -  RELEASE  -
|  1> # Test redundant internal optimization
|  2> #
|  3> ! RKS B3LYP  Opt TightSCF SmallPrint
|  4>
|  5> %basis
|  6>         Basis "6-31G"
|  7> end
|  8>
|  9> %geom
| 10> Constraints
| 11> { D 4  0  15  12  225.0   C } # D for Dihedral angle
| 12> { D 0  15  12  16  120.0   C } # D for Dihedral angle
| 13> { D 0  4  3  2   C } # D for Dihedral angle
| 14> { D 4  3  2  1   C } # D for Dihedral angle
| 15> { D 3  2  1  0   C } # D for Dihedral angle
| 16> { D 2  1  0  4   C } # D for Dihedral angle
| 17> { D 1  0  4  3   C } # D for Dihedral angle
| 18> { D 16  20  19  18   C } # D for Dihedral angle
| 19> { D 20  19  18  17   C } # D for Dihedral angle
| 20> { D 19  18  17  16   C } # D for Dihedral angle
| 21> { D 18  17  16  20   C } # D for Dihedral angle
| 22> { D 17  16  20  19   C } # D for Dihedral angle
| 23> { D 15  12  16  20   C } # D for Dihedral angle
| 24> end
| 25> end
| 26>
| 27>
| 28> #%pal
| 29> #nprocs 8
| 30> #end
| 31>
| 32> * xyz 0 1
| 33> C  -21.048   26.222   46.251
| 34> C  -20.361   27.558   45.944
| 35> C  -20.329   28.222   47.341
| 36> C  -20.110   27.022   48.296
| 37> O  -20.473   25.807   47.535
| 38> H  -20.833   25.428   45.533
| 39> H  -19.344   27.382   45.576
| 40> H  -20.898   28.157   45.201
| 41> H  -19.543   28.978   47.434
| 42> H  -21.289   28.710   47.548
| 43> H  -20.733   27.082   49.195
| 44> H  -19.064   26.913   48.597
| 45> C  -23.415   25.773   45.218
| 46> H  -23.989   26.564   44.718
| 47> H  -22.752   25.309   44.476
| 48> O  -22.586   26.394   46.375
| 49> C  -24.410   24.685   45.709
| 50> C  -23.688   23.586   46.498
| 51> C  -23.506   24.261   47.879
| 52> C  -24.792   25.113   48.027
| 53> O  -25.361   25.255   46.669
| 54> H  -24.992   24.322   44.859
| 55> O  -24.596   22.332   46.617
| 56> H  -22.738   23.283   46.045
| 57> H  -23.388   23.539   48.693
| 58> H  -22.617   24.903   47.870
| 59> H  -24.591   26.108   48.438
| 60> H  -25.550   24.621   48.644
| 61> H  -25.554   22.612   47.070
| 62> *
| 63>
| 64>                          ****END OF INPUT****
 Total Charge           Charge          ....    0
 Multiplicity           Mult            ....    1
 Number of Electrons    NEL             ....  102
FINAL SINGLE POINT ENERGY      -652.834761290666
FINAL SINGLE POINT ENERGY      -652.857285318580
FINAL SINGLE POINT ENERGY      -652.860991748563
FINAL SINGLE POINT ENERGY      -652.863238894060
FINAL SINGLE POINT ENERGY      -652.863383163847
FINAL SINGLE POINT ENERGY      -652.863408066661
FINAL SINGLE POINT ENERGY      -652.863409132583
                    ***********************HURRAY********************

CARTESIAN COORDINATES (ANGSTROEM)
---------------------------------
  C    -21.039521   26.215037   46.206704
  C    -20.363341   27.550239   45.895037
  C    -20.403490   28.257213   47.271590
  C    -20.208535   27.091884   48.265680
  O    -20.524843   25.854013   47.502873
  H    -20.798590   25.396654   45.520228
  H    -19.329213   27.370920   45.577311
  H    -20.882497   28.105678   45.110388
  H    -19.631389   29.025437   47.373837
  H    -21.381907   28.725136   47.414388
  H    -20.873627   27.146297   49.130526
  H    -19.174488   26.990519   48.607345
  C    -23.306586   25.792771   45.254788
  H    -23.869628   26.606305   44.785668
  H    -22.679161   25.316339   44.485599
  O    -22.477866   26.386956   46.296088
  C    -24.304767   24.770247   45.800142
  C    -23.736282   23.547309   46.535916
  C    -23.530494   24.108619   47.969735
  C    -24.719838   25.086340   48.133592
  O    -25.218413   25.376812   46.767049
  H    -24.919067   24.439150   44.953193
  O    -24.687210   22.444593   46.496288
  H    -22.822517   23.148462   46.093689
  H    -23.546311   23.295582   48.701887
  H    -22.576170   24.634308   48.031648
  H    -24.421634   26.028049   48.601385
  H    -25.556561   24.655406   48.694312
  H    -25.566053   22.774725   46.779118

 Multiplicity           Mult            ....    1
 Number of Electrons    NEL             ....  102
 Basis Dimension        Dim             ....  149

ORBITAL ENERGIES
----------------

  NO   OCC          E(Eh)            E(eV)
   0   2.0000     -19.149722      -521.0904
   1   2.0000     -19.146896      -521.0135
   2   2.0000     -19.132690      -520.6270
   3   2.0000     -19.130634      -520.5710
   4   2.0000     -10.287983      -279.9502
   5   2.0000     -10.235880      -278.5324
   6   2.0000     -10.231926      -278.4249
   7   2.0000     -10.231136      -278.4034
   8   2.0000     -10.229203      -278.3508
   9   2.0000     -10.216428      -278.0031
  10   2.0000     -10.190726      -277.3037
  11   2.0000     -10.190389      -277.2946
  12   2.0000     -10.166572      -276.6465
  13   2.0000      -1.059773       -28.8379
  14   2.0000      -1.027903       -27.9707
  15   2.0000      -1.002786       -27.2872
  16   2.0000      -0.994069       -27.0500
  17   2.0000      -0.792260       -21.5585
  18   2.0000      -0.772853       -21.0304
  19   2.0000      -0.759001       -20.6535
  20   2.0000      -0.735113       -20.0034
  21   2.0000      -0.673888       -18.3374
  22   2.0000      -0.604803       -16.4575
  23   2.0000      -0.600231       -16.3331
  24   2.0000      -0.590483       -16.0679
  25   2.0000      -0.576604       -15.6902
  26   2.0000      -0.526437       -14.3251
  27   2.0000      -0.501769       -13.6538
  28   2.0000      -0.500626       -13.6227
  29   2.0000      -0.488859       -13.3025
  30   2.0000      -0.473492       -12.8844
  31   2.0000      -0.450505       -12.2589
  32   2.0000      -0.448072       -12.1927
  33   2.0000      -0.436952       -11.8901
  34   2.0000      -0.429221       -11.6797
  35   2.0000      -0.408998       -11.1294
  36   2.0000      -0.402019       -10.9395
  37   2.0000      -0.381567       -10.3830
  38   2.0000      -0.374617       -10.1938
  39   2.0000      -0.363619        -9.8946
  40   2.0000      -0.361321        -9.8320
  41   2.0000      -0.352052        -9.5798
  42   2.0000      -0.351941        -9.5768
  43   2.0000      -0.327457        -8.9105
  44   2.0000      -0.319189        -8.6856
  45   2.0000      -0.313449        -8.5294
  46   2.0000      -0.298688        -8.1277
  47   2.0000      -0.271994        -7.4013
  48   2.0000      -0.261025        -7.1028
  49   2.0000      -0.258790        -7.0420
  50   2.0000      -0.233108        -6.3432
  51   0.0000       0.066481         1.8090
  52   0.0000       0.081276         2.2116
  53   0.0000       0.087795         2.3890
  54   0.0000       0.106279         2.8920
  55   0.0000       0.112294         3.0557

MULLIKEN ATOMIC CHARGES
-----------------------
   0 C :    0.286409
   1 C :   -0.252521
   2 C :   -0.300960
   3 C :   -0.004276
   4 O :   -0.504015
   5 H :    0.141110
   6 H :    0.144061
   7 H :    0.149132
   8 H :    0.144389
   9 H :    0.166980
  10 H :    0.153473
  11 H :    0.145102
  12 C :   -0.009460
  13 H :    0.158576
  14 H :    0.120739
  15 O :   -0.517705
  16 C :    0.079473
  17 C :    0.072408
  18 C :   -0.305300
  19 C :   -0.019932
  20 O :   -0.528272
  21 H :    0.150247
  22 O :   -0.603859
  23 H :    0.144581
  24 H :    0.145462
  25 H :    0.198417
  26 H :    0.151332
  27 H :    0.132535
  28 H :    0.361874
Sum of atomic charges:   -0.0000000

LOEWDIN ATOMIC CHARGES
----------------------
   0 C :    0.175592
   1 C :   -0.222164
   2 C :   -0.216316
   3 C :   -0.026227
   4 O :   -0.313113
   5 H :    0.096928
   6 H :    0.113334
   7 H :    0.119332
   8 H :    0.115683
   9 H :    0.121701
  10 H :    0.108742
  11 H :    0.104081
  12 C :   -0.035597
  13 H :    0.113644
  14 H :    0.095082
  15 O :   -0.331846
  16 C :    0.008688
  17 C :    0.037942
  18 C :   -0.248185
  19 C :   -0.033060
  20 O :   -0.331895
  21 H :    0.113542
  22 O :   -0.418165
  23 H :    0.112295
  24 H :    0.117556
  25 H :    0.139040
  26 H :    0.107799
  27 H :    0.094228
  28 H :    0.281359

  Mayer bond orders larger than 0.100000
B(  0-C ,  1-C ) :   0.9398 B(  0-C ,  4-O ) :   0.9133 B(  0-C ,  5-H ) :   0.9162
B(  0-C , 15-O ) :   0.8376 B(  1-C ,  2-C ) :   0.9553 B(  1-C ,  6-H ) :   0.9346
B(  1-C ,  7-H ) :   0.9389 B(  2-C ,  3-C ) :   0.9547 B(  2-C ,  8-H ) :   0.9448
B(  2-C ,  9-H ) :   0.9426 B(  3-C ,  4-O ) :   0.8296 B(  3-C , 10-H ) :   0.9347
B(  3-C , 11-H ) :   0.9396 B( 12-C , 13-H ) :   0.9277 B( 12-C , 14-H ) :   0.9120
B( 12-C , 15-O ) :   0.8529 B( 12-C , 16-C ) :   0.8939 B( 16-C , 17-C ) :   0.9091
B( 16-C , 20-O ) :   0.8748 B( 16-C , 21-H ) :   0.9181 B( 17-C , 18-C ) :   0.9245
B( 17-C , 22-O ) :   0.8899 B( 17-C , 23-H ) :   0.9368 B( 18-C , 19-C ) :   0.9430
B( 18-C , 24-H ) :   0.9381 B( 18-C , 25-H ) :   0.8982 B( 19-C , 20-O ) :   0.8350
B( 19-C , 26-H ) :   0.9348 B( 19-C , 27-H ) :   0.9377 B( 22-O , 28-H ) :   0.7965

FINAL SINGLE POINT ENERGY      -652.863395586898

DIPOLE MOMENT
-------------
                                X             Y             Z
Electronic contribution:     -3.63198      -3.48733      -1.17467
Nuclear contribution   :      4.51953       4.49805       0.95564
                        -----------------------------------------
Total Dipole Moment    :      0.88755       1.01072      -0.21902
                        -----------------------------------------
Magnitude (a.u.)       :      1.36282
Magnitude (Debye)      :      3.46401

Rotational constants in cm-1:     0.053757     0.014912     0.014269
Rotational constants in MHz :  1611.585643   447.058546   427.761309

                             ****ORCA TERMINATED NORMALLY****
TOTAL RUN TIME: 0 days 1 hours 8 minutes 33 seconds 742 msec
