                         Program Version 4.2.0 -  RELEASE  -
|  1> # Test redundant internal optimization
|  2> #
|  3> ! RKS B3LYP  Opt TightSCF SmallPrint
|  4>
|  5> %basis
|  6>         Basis "6-31G"
|  7> end
|  8>
|  9> %geom
| 10> Constraints
| 11> { D 4  0  15  12  90.0   C } # D for Dihedral angle
| 12> { D 0  15  12  16  255.0   C } # D for Dihedral angle
| 13> { D 0  4  3  2   C } # D for Dihedral angle
| 14> { D 4  3  2  1   C } # D for Dihedral angle
| 15> { D 3  2  1  0   C } # D for Dihedral angle
| 16> { D 2  1  0  4   C } # D for Dihedral angle
| 17> { D 1  0  4  3   C } # D for Dihedral angle
| 18> { D 16  20  19  18   C } # D for Dihedral angle
| 19> { D 20  19  18  17   C } # D for Dihedral angle
| 20> { D 19  18  17  16   C } # D for Dihedral angle
| 21> { D 18  17  16  20   C } # D for Dihedral angle
| 22> { D 17  16  20  19   C } # D for Dihedral angle
| 23> { D 15  12  16  20   C } # D for Dihedral angle
| 24> end
| 25> end
| 26>
| 27>
| 28> #%pal
| 29> #nprocs 8
| 30> #end
| 31>
| 32> * xyz 0 1
| 33> C  -21.048   26.222   46.251
| 34> C  -20.361   27.558   45.944
| 35> C  -20.329   28.222   47.341
| 36> C  -20.110   27.022   48.296
| 37> O  -20.473   25.807   47.535
| 38> H  -20.833   25.428   45.533
| 39> H  -19.344   27.382   45.576
| 40> H  -20.898   28.157   45.201
| 41> H  -19.543   28.978   47.434
| 42> H  -21.289   28.710   47.548
| 43> H  -20.733   27.082   49.195
| 44> H  -19.064   26.913   48.597
| 45> C  -23.061   27.816   46.783
| 46> H  -22.236   28.526   46.647
| 47> H  -23.898   28.137   46.151
| 48> O  -22.586   26.394   46.375
| 49> C  -23.530   27.890   48.263
| 50> C  -24.625   26.857   48.552
| 51> C  -23.797   25.561   48.720
| 52> C  -22.495   26.060   49.394
| 53> O  -22.436   27.520   49.167
| 54> H  -23.806   28.919   48.499
| 55> H  -25.141   27.109   49.485
| 56> O  -25.682   26.754   47.420
| 57> H  -24.312   24.802   49.317
| 58> H  -23.580   25.123   47.738
| 59> H  -21.598   25.594   48.972
| 60> H  -22.498   25.903   50.477
| 61> H  -25.187   26.503   46.475
| 62> *
| 63>
| 64>                          ****END OF INPUT****
 Total Charge           Charge          ....    0
 Multiplicity           Mult            ....    1
 Number of Electrons    NEL             ....  102
FINAL SINGLE POINT ENERGY      -652.774452148246
FINAL SINGLE POINT ENERGY      -652.829868905181
FINAL SINGLE POINT ENERGY      -652.851774787513
FINAL SINGLE POINT ENERGY      -652.857502318590
FINAL SINGLE POINT ENERGY      -652.859330312762
FINAL SINGLE POINT ENERGY      -652.859873580378
FINAL SINGLE POINT ENERGY      -652.860012194094
FINAL SINGLE POINT ENERGY      -652.860042910990
FINAL SINGLE POINT ENERGY      -652.860053025304
                    ***********************HURRAY********************

CARTESIAN COORDINATES (ANGSTROEM)
---------------------------------
  C    -21.077844   26.443491   46.264904
  C    -20.219737   27.652507   45.862415
  C    -19.880166   28.285294   47.245402
  C    -19.741990   27.044243   48.159268
  O    -20.418506   25.928020   47.439694
  H    -21.028252   25.629034   45.539159
  H    -19.312204   27.283056   45.374921
  H    -20.728967   28.336369   45.177560
  H    -18.956880   28.872403   47.214099
  H    -20.681243   28.935591   47.602358
  H    -20.224308   27.186588   49.126468
  H    -18.701843   26.735083   48.295592
  C    -23.143089   27.863639   46.834810
  H    -22.459837   28.712350   46.748060
  H    -23.984151   28.039560   46.155134
  O    -22.511317   26.629277   46.375950
  C    -23.700120   27.793590   48.256531
  C    -24.807178   26.745926   48.472242
  C    -23.976374   25.471470   48.812761
  C    -22.780333   26.035712   49.603378
  O    -22.723668   27.501539   49.295985
  H    -24.083166   28.799170   48.477559
  H    -25.442031   27.042751   49.309734
  O    -25.710051   26.591287   47.350927
  H    -24.554946   24.740350   49.384742
  H    -23.634452   25.015034   47.879779
  H    -21.836796   25.581163   49.304053
  H    -22.916682   25.957593   50.686516
  H    -25.256871   26.096913   46.635998

 Multiplicity           Mult            ....    1
 Number of Electrons    NEL             ....  102
 Basis Dimension        Dim             ....  149

ORBITAL ENERGIES
----------------

  NO   OCC          E(Eh)            E(eV)
   0   2.0000     -19.149837      -521.0936
   1   2.0000     -19.144419      -520.9461
   2   2.0000     -19.138108      -520.7744
   3   2.0000     -19.137649      -520.7619
   4   2.0000     -10.282953      -279.8134
   5   2.0000     -10.234351      -278.4909
   6   2.0000     -10.232418      -278.4382
   7   2.0000     -10.229068      -278.3471
   8   2.0000     -10.222785      -278.1761
   9   2.0000     -10.215469      -277.9770
  10   2.0000     -10.194468      -277.4056
  11   2.0000     -10.190087      -277.2864
  12   2.0000     -10.176004      -276.9032
  13   2.0000      -1.051988       -28.6260
  14   2.0000      -1.024819       -27.8867
  15   2.0000      -1.007790       -27.4234
  16   2.0000      -0.997675       -27.1481
  17   2.0000      -0.788628       -21.4597
  18   2.0000      -0.774077       -21.0637
  19   2.0000      -0.764823       -20.8119
  20   2.0000      -0.733252       -19.9528
  21   2.0000      -0.680453       -18.5161
  22   2.0000      -0.605875       -16.4867
  23   2.0000      -0.599722       -16.3193
  24   2.0000      -0.597600       -16.2615
  25   2.0000      -0.559960       -15.2373
  26   2.0000      -0.527501       -14.3540
  27   2.0000      -0.507102       -13.7990
  28   2.0000      -0.497294       -13.5321
  29   2.0000      -0.493939       -13.4408
  30   2.0000      -0.460225       -12.5234
  31   2.0000      -0.459093       -12.4925
  32   2.0000      -0.443031       -12.0555
  33   2.0000      -0.430635       -11.7182
  34   2.0000      -0.419932       -11.4269
  35   2.0000      -0.415207       -11.2984
  36   2.0000      -0.401960       -10.9379
  37   2.0000      -0.393880       -10.7180
  38   2.0000      -0.387514       -10.5448
  39   2.0000      -0.365950        -9.9580
  40   2.0000      -0.358766        -9.7625
  41   2.0000      -0.349745        -9.5170
  42   2.0000      -0.348318        -9.4782
  43   2.0000      -0.324361        -8.8263
  44   2.0000      -0.318045        -8.6544
  45   2.0000      -0.307226        -8.3600
  46   2.0000      -0.300754        -8.1839
  47   2.0000      -0.279746        -7.6123
  48   2.0000      -0.261720        -7.1218
  49   2.0000      -0.256925        -6.9913
  50   2.0000      -0.236343        -6.4312
  51   0.0000       0.067634         1.8404
  52   0.0000       0.082044         2.2325
  53   0.0000       0.092251         2.5103
  54   0.0000       0.098844         2.6897
  55   0.0000       0.106402         2.8953

MULLIKEN ATOMIC CHARGES
-----------------------
   0 C :    0.317724
   1 C :   -0.294194
   2 C :   -0.316412
   3 C :   -0.015473
   4 O :   -0.507694
   5 H :    0.163118
   6 H :    0.158398
   7 H :    0.148200
   8 H :    0.144085
   9 H :    0.166638
  10 H :    0.173615
  11 H :    0.141490
  12 C :   -0.046516
  13 H :    0.138474
  14 H :    0.157621
  15 O :   -0.540108
  16 C :    0.111808
  17 C :    0.089949
  18 C :   -0.318806
  19 C :   -0.027161
  20 O :   -0.534984
  21 H :    0.139851
  22 H :    0.159758
  23 O :   -0.609234
  24 H :    0.144357
  25 H :    0.169861
  26 H :    0.178573
  27 H :    0.139139
  28 H :    0.367922
Sum of atomic charges:   -0.0000000

LOEWDIN ATOMIC CHARGES
----------------------
   0 C :    0.176814
   1 C :   -0.229879
   2 C :   -0.221824
   3 C :   -0.034558
   4 O :   -0.320862
   5 H :    0.109731
   6 H :    0.123914
   7 H :    0.116890
   8 H :    0.115150
   9 H :    0.115583
  10 H :    0.117546
  11 H :    0.101362
  12 C :   -0.053014
  13 H :    0.103277
  14 H :    0.114800
  15 O :   -0.333511
  16 C :    0.011912
  17 C :    0.037272
  18 C :   -0.241177
  19 C :   -0.034217
  20 O :   -0.331932
  21 H :    0.110283
  22 H :    0.115065
  23 O :   -0.411936
  24 H :    0.115627
  25 H :    0.123591
  26 H :    0.119585
  27 H :    0.099572
  28 H :    0.284935

  Mayer bond orders larger than 0.100000
B(  0-C ,  1-C ) :   0.9271 B(  0-C ,  4-O ) :   0.9052 B(  0-C ,  5-H ) :   0.9374
B(  0-C , 15-O ) :   0.8788 B(  1-C ,  2-C ) :   0.9541 B(  1-C ,  6-H ) :   0.9346
B(  1-C ,  7-H ) :   0.9342 B(  2-C ,  3-C ) :   0.9538 B(  2-C ,  8-H ) :   0.9451
B(  2-C ,  9-H ) :   0.9328 B(  3-C ,  4-O ) :   0.8258 B(  3-C , 10-H ) :   0.9183
B(  3-C , 11-H ) :   0.9390 B( 12-C , 13-H ) :   0.9162 B( 12-C , 14-H ) :   0.9163
B( 12-C , 15-O ) :   0.8460 B( 12-C , 16-C ) :   0.8929 B( 16-C , 17-C ) :   0.8867
B( 16-C , 20-O ) :   0.8779 B( 16-C , 21-H ) :   0.9242 B( 17-C , 18-C ) :   0.9334
B( 17-C , 22-H ) :   0.9365 B( 17-C , 23-O ) :   0.8999 B( 18-C , 19-C ) :   0.9503
B( 18-C , 24-H ) :   0.9410 B( 18-C , 25-H ) :   0.9259 B( 19-C , 20-O ) :   0.8189
B( 19-C , 26-H ) :   0.9082 B( 19-C , 27-H ) :   0.9381 B( 23-O , 28-H ) :   0.7915

FINAL SINGLE POINT ENERGY      -652.860053541144

DIPOLE MOMENT
-------------
                                X             Y             Z
Electronic contribution:     -3.18538      -1.77425      -0.33612
Nuclear contribution   :      3.98904       2.21192      -0.02352
                        -----------------------------------------
Total Dipole Moment    :      0.80366       0.43767      -0.35964
                        -----------------------------------------
Magnitude (a.u.)       :      0.98325
Magnitude (Debye)      :      2.49921

Rotational constants in cm-1:     0.047608     0.019581     0.017501
Rotational constants in MHz :  1427.261861   587.009320   524.652405

                             ****ORCA TERMINATED NORMALLY****
TOTAL RUN TIME: 0 days 0 hours 27 minutes 23 seconds 934 msec
