                         Program Version 4.2.0 -  RELEASE  -
|  1> # Test redundant internal optimization
|  2> #
|  3> ! RKS B3LYP  Opt TightSCF SmallPrint
|  4>
|  5> %basis
|  6>         Basis "6-31G"
|  7> end
|  8>
|  9> %geom
| 10> Constraints
| 11> { D 4  0  15  12  120.0   C } # D for Dihedral angle
| 12> { D 0  15  12  16  240.0   C } # D for Dihedral angle
| 13> { D 0  4  3  2   C } # D for Dihedral angle
| 14> { D 4  3  2  1   C } # D for Dihedral angle
| 15> { D 3  2  1  0   C } # D for Dihedral angle
| 16> { D 2  1  0  4   C } # D for Dihedral angle
| 17> { D 1  0  4  3   C } # D for Dihedral angle
| 18> { D 16  20  19  18   C } # D for Dihedral angle
| 19> { D 20  19  18  17   C } # D for Dihedral angle
| 20> { D 19  18  17  16   C } # D for Dihedral angle
| 21> { D 18  17  16  20   C } # D for Dihedral angle
| 22> { D 17  16  20  19   C } # D for Dihedral angle
| 23> { D 15  12  16  20   C } # D for Dihedral angle
| 24> end
| 25> end
| 26>
| 27>
| 28> #%pal
| 29> #nprocs 8
| 30> #end
| 31>
| 32> * xyz 0 1
| 33> C  -21.048   26.222   46.251
| 34> C  -20.361   27.558   45.944
| 35> C  -20.329   28.222   47.341
| 36> C  -20.110   27.022   48.296
| 37> O  -20.473   25.807   47.535
| 38> H  -20.833   25.428   45.533
| 39> H  -19.344   27.382   45.576
| 40> H  -20.898   28.157   45.201
| 41> H  -19.543   28.978   47.434
| 42> H  -21.289   28.710   47.548
| 43> H  -20.733   27.082   49.195
| 44> H  -19.064   26.913   48.597
| 45> C  -23.119   27.818   46.058
| 46> H  -22.278   28.467   45.784
| 47> H  -23.817   27.787   45.211
| 48> O  -22.586   26.394   46.375
| 49> C  -23.862   28.463   47.260
| 50> C  -22.912   28.702   48.439
| 51> C  -22.184   29.994   47.998
| 52> C  -23.288   30.780   47.247
| 53> O  -24.343   29.803   46.907
| 54> H  -24.741   27.861   47.502
| 55> H  -23.487   28.876   49.356
| 56> O  -21.939   27.517   48.688
| 57> H  -21.770   30.556   48.840
| 58> H  -21.357   29.747   47.321
| 59> H  -22.919   31.246   46.327
| 60> H  -23.750   31.550   47.872
| 61> H  -21.353   27.325   47.783
| 62> *
| 63>
| 64>                          ****END OF INPUT****
 Total Charge           Charge          ....    0
 Multiplicity           Mult            ....    1
 Number of Electrons    NEL             ....  102
FINAL SINGLE POINT ENERGY      -652.516123309685
FINAL SINGLE POINT ENERGY      -652.619273255797
FINAL SINGLE POINT ENERGY      -652.681712731468
FINAL SINGLE POINT ENERGY      -652.728253252615
FINAL SINGLE POINT ENERGY      -652.761726077740
FINAL SINGLE POINT ENERGY      -652.784379740977
FINAL SINGLE POINT ENERGY      -652.799532849404
FINAL SINGLE POINT ENERGY      -652.810311768164
FINAL SINGLE POINT ENERGY      -652.818247940553
FINAL SINGLE POINT ENERGY      -652.824151973552
FINAL SINGLE POINT ENERGY      -652.847979518335
FINAL SINGLE POINT ENERGY      -652.847982831480
FINAL SINGLE POINT ENERGY      -652.847985935101
FINAL SINGLE POINT ENERGY      -652.847989558201
FINAL SINGLE POINT ENERGY      -652.847996025548
FINAL SINGLE POINT ENERGY      -652.848040785145
FINAL SINGLE POINT ENERGY      -652.848060016656
FINAL SINGLE POINT ENERGY      -652.848084804879
FINAL SINGLE POINT ENERGY      -652.848070194244
                    ***********************HURRAY********************

CARTESIAN COORDINATES (ANGSTROEM)
---------------------------------
  C    -21.073013   26.299615   46.311854
  C    -20.002002   27.260259   45.780385
  C    -19.578692   28.015076   47.071510
  C    -19.684774   26.925352   48.163118
  O    -20.548518   25.850518   47.571706
  H    -21.105503   25.386452   45.710738
  H    -19.177763   26.651127   45.396863
  H    -20.343410   27.919962   44.978092
  H    -18.568282   28.429425   47.001202
  H    -20.269563   28.830902   47.282301
  H    -20.144147   27.286105   49.080408
  H    -18.722754   26.449110   48.372219
  C    -23.111112   27.943811   46.016826
  H    -22.356046   28.666448   45.679889
  H    -23.806363   27.772718   45.190989
  O    -22.492728   26.652503   46.328735
  C    -23.910468   28.532988   47.195230
  C    -23.225417   28.849874   48.534063
  C    -22.592961   30.239396   48.244473
  C    -23.630377   30.903440   47.312917
  O    -24.478136   29.809709   46.775615
  H    -24.764718   27.867569   47.368334
  H    -24.013618   28.962957   49.290101
  O    -22.260652   27.889879   49.001001
  H    -22.416051   30.812372   49.158540
  H    -21.632603   30.100886   47.741868
  H    -23.173198   31.444181   46.478169
  H    -24.298659   31.584693   47.847952
  H    -22.348473   27.029673   48.533906

 Multiplicity           Mult            ....    1
 Number of Electrons    NEL             ....  102
 Basis Dimension        Dim             ....  149

ORBITAL ENERGIES
----------------

  NO   OCC          E(Eh)            E(eV)
   0   2.0000     -19.149933      -521.0962
   1   2.0000     -19.147991      -521.0433
   2   2.0000     -19.146044      -520.9903
   3   2.0000     -19.135081      -520.6920
   4   2.0000     -10.284843      -279.8648
   5   2.0000     -10.242237      -278.7054
   6   2.0000     -10.239411      -278.6285
   7   2.0000     -10.237019      -278.5635
   8   2.0000     -10.233182      -278.4590
   9   2.0000     -10.219488      -278.0864
  10   2.0000     -10.197395      -277.4852
  11   2.0000     -10.190037      -277.2850
  12   2.0000     -10.189460      -277.2693
  13   2.0000      -1.051432       -28.6109
  14   2.0000      -1.033178       -28.1142
  15   2.0000      -1.011692       -27.5295
  16   2.0000      -0.998184       -27.1620
  17   2.0000      -0.791200       -21.5297
  18   2.0000      -0.780426       -21.2365
  19   2.0000      -0.772767       -21.0280
  20   2.0000      -0.735704       -20.0195
  21   2.0000      -0.684789       -18.6340
  22   2.0000      -0.607229       -16.5236
  23   2.0000      -0.603596       -16.4247
  24   2.0000      -0.598725       -16.2921
  25   2.0000      -0.574322       -15.6281
  26   2.0000      -0.528712       -14.3870
  27   2.0000      -0.507848       -13.8193
  28   2.0000      -0.504714       -13.7340
  29   2.0000      -0.503305       -13.6956
  30   2.0000      -0.469503       -12.7758
  31   2.0000      -0.455530       -12.3956
  32   2.0000      -0.445431       -12.1208
  33   2.0000      -0.443030       -12.0555
  34   2.0000      -0.434446       -11.8219
  35   2.0000      -0.415279       -11.3003
  36   2.0000      -0.412245       -11.2178
  37   2.0000      -0.390343       -10.6218
  38   2.0000      -0.385517       -10.4905
  39   2.0000      -0.374851       -10.2002
  40   2.0000      -0.366076        -9.9614
  41   2.0000      -0.358877        -9.7655
  42   2.0000      -0.345238        -9.3944
  43   2.0000      -0.340697        -9.2708
  44   2.0000      -0.320004        -8.7078
  45   2.0000      -0.296402        -8.0655
  46   2.0000      -0.294697        -8.0191
  47   2.0000      -0.281603        -7.6628
  48   2.0000      -0.266515        -7.2522
  49   2.0000      -0.259999        -7.0749
  50   2.0000      -0.243739        -6.6325
  51   0.0000       0.055391         1.5073
  52   0.0000       0.067151         1.8273
  53   0.0000       0.088336         2.4038
  54   0.0000       0.088962         2.4208
  55   0.0000       0.105845         2.8802

MULLIKEN ATOMIC CHARGES
-----------------------
   0 C :    0.318412
   1 C :   -0.298360
   2 C :   -0.317991
   3 C :   -0.029288
   4 O :   -0.512387
   5 H :    0.165045
   6 H :    0.162951
   7 H :    0.145350
   8 H :    0.141259
   9 H :    0.165607
  10 H :    0.191603
  11 H :    0.140112
  12 C :   -0.001662
  13 H :    0.126121
  14 H :    0.169955
  15 O :   -0.561089
  16 C :    0.049651
  17 C :    0.122163
  18 C :   -0.317749
  19 C :   -0.012583
  20 O :   -0.521435
  21 H :    0.161782
  22 H :    0.148875
  23 O :   -0.639624
  24 H :    0.155939
  25 H :    0.155670
  26 H :    0.142393
  27 H :    0.151271
  28 H :    0.398008
Sum of atomic charges:   -0.0000000

LOEWDIN ATOMIC CHARGES
----------------------
   0 C :    0.177743
   1 C :   -0.228966
   2 C :   -0.221005
   3 C :   -0.040159
   4 O :   -0.316954
   5 H :    0.106534
   6 H :    0.125794
   7 H :    0.115440
   8 H :    0.114902
   9 H :    0.110537
  10 H :    0.125987
  11 H :    0.100979
  12 C :   -0.036262
  13 H :    0.094963
  14 H :    0.118828
  15 O :   -0.349106
  16 C :    0.009992
  17 C :    0.041674
  18 C :   -0.232692
  19 C :   -0.029911
  20 O :   -0.320177
  21 H :    0.113165
  22 H :    0.102887
  23 O :   -0.421481
  24 H :    0.122837
  25 H :    0.110512
  26 H :    0.101811
  27 H :    0.106381
  28 H :    0.295747

  Mayer bond orders larger than 0.100000
B(  0-C ,  1-C ) :   0.9237 B(  0-C ,  4-O ) :   0.9159 B(  0-C ,  5-H ) :   0.9363
B(  0-C , 15-O ) :   0.8547 B(  1-C ,  2-C ) :   0.9537 B(  1-C ,  6-H ) :   0.9331
B(  1-C ,  7-H ) :   0.9326 B(  2-C ,  3-C ) :   0.9564 B(  2-C ,  8-H ) :   0.9455
B(  2-C ,  9-H ) :   0.9164 B(  3-C ,  4-O ) :   0.8155 B(  3-C , 10-H ) :   0.9100
B(  3-C , 11-H ) :   0.9385 B( 12-C , 13-H ) :   0.9225 B( 12-C , 14-H ) :   0.9292
B( 12-C , 15-O ) :   0.8120 B( 12-C , 16-C ) :   0.8964 B( 16-C , 17-C ) :   0.9102
B( 16-C , 20-O ) :   0.8450 B( 16-C , 21-H ) :   0.9287 B( 17-C , 18-C ) :   0.9222
B( 17-C , 22-H ) :   0.9214 B( 17-C , 23-O ) :   0.9005 B( 18-C , 19-C ) :   0.9393
B( 18-C , 24-H ) :   0.9434 B( 18-C , 25-H ) :   0.9241 B( 19-C , 20-O ) :   0.8358
B( 19-C , 26-H ) :   0.9339 B( 19-C , 27-H ) :   0.9377 B( 23-O , 28-H ) :   0.7336

FINAL SINGLE POINT ENERGY      -652.848086217844

DIPOLE MOMENT
-------------
                                X             Y             Z
Electronic contribution:     -4.45532      -4.58608       0.53350
Nuclear contribution   :      5.27463       5.58900      -1.02320
                        -----------------------------------------
Total Dipole Moment    :      0.81930       1.00292      -0.48970
                        -----------------------------------------
Magnitude (a.u.)       :      1.38453
Magnitude (Debye)      :      3.51920

Rotational constants in cm-1:     0.046181     0.018386     0.016918
Rotational constants in MHz :  1384.468132   551.194643   507.199717

                             ****ORCA TERMINATED NORMALLY****
TOTAL RUN TIME: 0 days 3 hours 15 minutes 32 seconds 563 msec
