                         Program Version 4.2.0 -  RELEASE  -
|  1> # Test redundant internal optimization
|  2> #
|  3> ! RKS B3LYP  Opt TightSCF SmallPrint
|  4>
|  5> %basis
|  6>         Basis "6-31G"
|  7> end
|  8>
|  9> %geom
| 10> Constraints
| 11> { D 4  0  15  12  75.0   C } # D for Dihedral angle
| 12> { D 0  15  12  16  210.0   C } # D for Dihedral angle
| 13> { D 0  4  3  2   C } # D for Dihedral angle
| 14> { D 4  3  2  1   C } # D for Dihedral angle
| 15> { D 3  2  1  0   C } # D for Dihedral angle
| 16> { D 2  1  0  4   C } # D for Dihedral angle
| 17> { D 1  0  4  3   C } # D for Dihedral angle
| 18> { D 16  20  19  18   C } # D for Dihedral angle
| 19> { D 20  19  18  17   C } # D for Dihedral angle
| 20> { D 19  18  17  16   C } # D for Dihedral angle
| 21> { D 18  17  16  20   C } # D for Dihedral angle
| 22> { D 17  16  20  19   C } # D for Dihedral angle
| 23> { D 15  12  16  20   C } # D for Dihedral angle
| 24> end
| 25> end
| 26>
| 27>
| 28> #%pal
| 29> #nprocs 8
| 30> #end
| 31>
| 32> * xyz 0 1
| 33> C  -21.048   26.222   46.251
| 34> C  -20.361   27.558   45.944
| 35> C  -20.329   28.222   47.341
| 36> C  -20.110   27.022   48.296
| 37> O  -20.473   25.807   47.535
| 38> H  -20.833   25.428   45.533
| 39> H  -19.344   27.382   45.576
| 40> H  -20.898   28.157   45.201
| 41> H  -19.543   28.978   47.434
| 42> H  -21.289   28.710   47.548
| 43> H  -20.733   27.082   49.195
| 44> H  -19.064   26.913   48.597
| 45> C  -23.049   27.675   47.122
| 46> H  -22.290   27.957   47.862
| 47> H  -23.168   28.508   46.418
| 48> O  -22.586   26.394   46.375
| 49> C  -24.403   27.483   47.860
| 50> C  -24.281   26.449   48.985
| 51> C  -23.612   27.281   50.105
| 52> C  -24.230   28.689   49.914
| 53> O  -24.792   28.719   48.547
| 54> H  -25.182   27.265   47.128
| 55> O  -25.693   25.972   49.425
| 56> H  -23.694   25.569   48.700
| 57> H  -23.799   26.875   51.104
| 58> H  -22.527   27.311   49.953
| 59> H  -23.490   29.489   50.016
| 60> H  -25.055   28.880   50.606
| 61> H  -26.300   26.837   49.716
| 62> *
| 63>
| 64>                          ****END OF INPUT****
 Total Charge           Charge          ....    0
 Multiplicity           Mult            ....    1
 Number of Electrons    NEL             ....  102
FINAL SINGLE POINT ENERGY      -652.802514737486
FINAL SINGLE POINT ENERGY      -652.837191433015
FINAL SINGLE POINT ENERGY      -652.855189987413
FINAL SINGLE POINT ENERGY      -652.858040159639
FINAL SINGLE POINT ENERGY      -652.858473198111
FINAL SINGLE POINT ENERGY      -652.858566705254
FINAL SINGLE POINT ENERGY      -652.858578032451
FINAL SINGLE POINT ENERGY      -652.858578765026
                    ***********************HURRAY********************

CARTESIAN COORDINATES (ANGSTROEM)
---------------------------------
  C    -21.220410   26.359136   46.426662
  C    -20.310662   27.455206   45.850693
  C    -19.872906   28.221357   47.133524
  C    -19.768279   27.085931   48.184181
  O    -20.537205   25.941891   47.634295
  H    -21.258790   25.469533   45.796306
  H    -19.450219   26.976885   45.372382
  H    -20.816945   28.086634   45.115628
  H    -18.916277   28.736433   47.000526
  H    -20.613061   28.974013   47.415035
  H    -20.182533   27.360177   49.159765
  H    -18.739317   26.741239   48.321191
  C    -23.106643   27.851196   47.253244
  H    -22.409714   28.207994   48.017953
  H    -23.261864   28.649025   46.518173
  O    -22.618944   26.640676   46.604337
  C    -24.435166   27.486013   47.916927
  C    -24.333254   26.427707   49.025041
  C    -23.836501   27.276166   50.223410
  C    -24.543625   28.637801   50.012169
  O    -24.983129   28.668574   48.593210
  H    -25.158342   27.181736   47.155821
  O    -25.634784   25.834905   49.289741
  H    -23.672637   25.603129   48.766288
  H    -24.106737   26.799659   51.169145
  H    -22.746158   27.377318   50.190904
  H    -23.888138   29.494336   50.198865
  H    -25.441366   28.745628   50.628130
  H    -26.312392   26.543700   49.313456

 Multiplicity           Mult            ....    1
 Number of Electrons    NEL             ....  102
 Basis Dimension        Dim             ....  149

ORBITAL ENERGIES
----------------

  NO   OCC          E(Eh)            E(eV)
   0   2.0000     -19.149654      -521.0886
   1   2.0000     -19.146490      -521.0025
   2   2.0000     -19.144494      -520.9482
   3   2.0000     -19.131525      -520.5953
   4   2.0000     -10.282852      -279.8106
   5   2.0000     -10.235286      -278.5163
   6   2.0000     -10.234618      -278.4981
   7   2.0000     -10.231825      -278.4221
   8   2.0000     -10.231362      -278.4095
   9   2.0000     -10.231139      -278.4034
  10   2.0000     -10.198499      -277.5153
  11   2.0000     -10.196322      -277.4560
  12   2.0000     -10.186297      -277.1832
  13   2.0000      -1.056623       -28.7522
  14   2.0000      -1.034324       -28.1454
  15   2.0000      -1.002947       -27.2916
  16   2.0000      -0.999924       -27.2093
  17   2.0000      -0.794017       -21.6063
  18   2.0000      -0.781972       -21.2785
  19   2.0000      -0.770702       -20.9719
  20   2.0000      -0.734525       -19.9874
  21   2.0000      -0.680700       -18.5228
  22   2.0000      -0.609658       -16.5896
  23   2.0000      -0.602890       -16.4055
  24   2.0000      -0.597641       -16.2626
  25   2.0000      -0.577858       -15.7243
  26   2.0000      -0.523881       -14.2555
  27   2.0000      -0.513302       -13.9677
  28   2.0000      -0.507388       -13.8067
  29   2.0000      -0.492398       -13.3988
  30   2.0000      -0.474511       -12.9121
  31   2.0000      -0.457708       -12.4549
  32   2.0000      -0.453164       -12.3312
  33   2.0000      -0.437269       -11.8987
  34   2.0000      -0.426545       -11.6069
  35   2.0000      -0.420384       -11.4392
  36   2.0000      -0.410724       -11.1764
  37   2.0000      -0.390714       -10.6319
  38   2.0000      -0.387309       -10.5392
  39   2.0000      -0.367382        -9.9970
  40   2.0000      -0.365041        -9.9333
  41   2.0000      -0.361760        -9.8440
  42   2.0000      -0.350748        -9.5443
  43   2.0000      -0.330741        -8.9999
  44   2.0000      -0.319498        -8.6940
  45   2.0000      -0.307642        -8.3714
  46   2.0000      -0.303157        -8.2493
  47   2.0000      -0.276755        -7.5309
  48   2.0000      -0.264742        -7.2040
  49   2.0000      -0.258429        -7.0322
  50   2.0000      -0.245586        -6.6827
  51   0.0000       0.052382         1.4254
  52   0.0000       0.065843         1.7917
  53   0.0000       0.088381         2.4050
  54   0.0000       0.096616         2.6291
  55   0.0000       0.102630         2.7927

MULLIKEN ATOMIC CHARGES
-----------------------
   0 C :    0.300617
   1 C :   -0.277754
   2 C :   -0.319164
   3 C :   -0.012793
   4 O :   -0.503947
   5 H :    0.169384
   6 H :    0.158395
   7 H :    0.152134
   8 H :    0.147720
   9 H :    0.151634
  10 H :    0.140332
  11 H :    0.150701
  12 C :   -0.008976
  13 H :    0.129452
  14 H :    0.149868
  15 O :   -0.523309
  16 C :    0.056633
  17 C :    0.091787
  18 C :   -0.307966
  19 C :   -0.031012
  20 O :   -0.528697
  21 H :    0.169208
  22 O :   -0.601987
  23 H :    0.186751
  24 H :    0.161138
  25 H :    0.150116
  26 H :    0.140451
  27 H :    0.148908
  28 H :    0.360377
Sum of atomic charges:   -0.0000000

LOEWDIN ATOMIC CHARGES
----------------------
   0 C :    0.173684
   1 C :   -0.228003
   2 C :   -0.225084
   3 C :   -0.034638
   4 O :   -0.323300
   5 H :    0.114697
   6 H :    0.123535
   7 H :    0.120127
   8 H :    0.116961
   9 H :    0.110145
  10 H :    0.098465
  11 H :    0.106478
  12 C :   -0.040974
  13 H :    0.094230
  14 H :    0.106666
  15 O :   -0.318657
  16 C :    0.017699
  17 C :    0.039278
  18 C :   -0.243234
  19 C :   -0.039215
  20 O :   -0.332608
  21 H :    0.119829
  22 O :   -0.413296
  23 H :    0.132755
  24 H :    0.126648
  25 H :    0.113105
  26 H :    0.100969
  27 H :    0.103755
  28 H :    0.279983

  Mayer bond orders larger than 0.100000
B(  0-C ,  1-C ) :   0.9191 B(  0-C ,  4-O ) :   0.8977 B(  0-C ,  5-H ) :   0.9354
B(  0-C , 15-O ) :   0.9018 B(  1-C ,  2-C ) :   0.9536 B(  1-C ,  6-H ) :   0.9353
B(  1-C ,  7-H ) :   0.9370 B(  2-C ,  3-C ) :   0.9456 B(  2-C ,  8-H ) :   0.9447
B(  2-C ,  9-H ) :   0.9404 B(  3-C ,  4-O ) :   0.8487 B(  3-C , 10-H ) :   0.9312
B(  3-C , 11-H ) :   0.9381 B( 12-C , 13-H ) :   0.9101 B( 12-C , 14-H ) :   0.9220
B( 12-C , 15-O ) :   0.8238 B( 12-C , 16-C ) :   0.9019 B( 16-C , 17-C ) :   0.9112
B( 16-C , 20-O ) :   0.8435 B( 16-C , 21-H ) :   0.9247 B( 17-C , 18-C ) :   0.9105
B( 17-C , 22-O ) :   0.8877 B( 17-C , 23-H ) :   0.9193 B( 18-C , 19-C ) :   0.9402
B( 18-C , 24-H ) :   0.9383 B( 18-C , 25-H ) :   0.9321 B( 19-C , 20-O ) :   0.8439
B( 19-C , 26-H ) :   0.9364 B( 19-C , 27-H ) :   0.9380 B( 22-O , 28-H ) :   0.7969

FINAL SINGLE POINT ENERGY      -652.858577503129

DIPOLE MOMENT
-------------
                                X             Y             Z
Electronic contribution:     -5.15077      -3.87412      -1.55275
Nuclear contribution   :      6.34144       5.17461       1.65582
                        -----------------------------------------
Total Dipole Moment    :      1.19066       1.30049       0.10306
                        -----------------------------------------
Magnitude (a.u.)       :      1.76623
Magnitude (Debye)      :      4.48941

Rotational constants in cm-1:     0.049029     0.014733     0.014471
Rotational constants in MHz :  1469.837737   441.691090   433.827507

                             ****ORCA TERMINATED NORMALLY****
TOTAL RUN TIME: 0 days 1 hours 59 minutes 36 seconds 44 msec
