                         Program Version 4.2.0 -  RELEASE  -
|  1> # Test redundant internal optimization
|  2> #
|  3> ! RKS B3LYP  Opt TightSCF SmallPrint
|  4>
|  5> %basis
|  6>         Basis "6-31G"
|  7> end
|  8>
|  9> %geom
| 10> Constraints
| 11> { D 4  0  15  12  75.0   C } # D for Dihedral angle
| 12> { D 0  15  12  16  150.0   C } # D for Dihedral angle
| 13> { D 0  4  3  2   C } # D for Dihedral angle
| 14> { D 4  3  2  1   C } # D for Dihedral angle
| 15> { D 3  2  1  0   C } # D for Dihedral angle
| 16> { D 2  1  0  4   C } # D for Dihedral angle
| 17> { D 1  0  4  3   C } # D for Dihedral angle
| 18> { D 16  20  19  18   C } # D for Dihedral angle
| 19> { D 20  19  18  17   C } # D for Dihedral angle
| 20> { D 19  18  17  16   C } # D for Dihedral angle
| 21> { D 18  17  16  20   C } # D for Dihedral angle
| 22> { D 17  16  20  19   C } # D for Dihedral angle
| 23> { D 15  12  16  20   C } # D for Dihedral angle
| 24> end
| 25> end
| 26>
| 27>
| 28> #%pal
| 29> #nprocs 8
| 30> #end
| 31>
| 32> * xyz 0 1
| 33> C  -21.048   26.222   46.251
| 34> C  -20.361   27.558   45.944
| 35> C  -20.329   28.222   47.341
| 36> C  -20.110   27.022   48.296
| 37> O  -20.473   25.807   47.535
| 38> H  -20.833   25.428   45.533
| 39> H  -19.344   27.382   45.576
| 40> H  -20.898   28.157   45.201
| 41> H  -19.543   28.978   47.434
| 42> H  -21.289   28.710   47.548
| 43> H  -20.733   27.082   49.195
| 44> H  -19.064   26.913   48.597
| 45> C  -23.049   27.675   47.122
| 46> H  -23.134   27.458   48.194
| 47> H  -22.316   28.481   46.992
| 48> O  -22.586   26.394   46.375
| 49> C  -24.423   28.199   46.619
| 50> C  -24.793   29.524   47.295
| 51> C  -23.940   30.535   46.492
| 52> C  -23.951   29.945   45.060
| 53> O  -24.354   28.529   45.192
| 54> H  -25.170   27.411   46.731
| 55> O  -26.308   29.814   47.106
| 56> H  -24.570   29.538   48.367
| 57> H  -24.342   31.553   46.528
| 58> H  -22.918   30.564   46.889
| 59> H  -22.968   29.995   44.578
| 60> H  -24.688   30.431   44.414
| 61> H  -26.554   29.806   46.038
| 62> *
| 63>
| 64>                          ****END OF INPUT****
 Total Charge           Charge          ....    0
 Multiplicity           Mult            ....    1
 Number of Electrons    NEL             ....  102
FINAL SINGLE POINT ENERGY      -652.793408478769
FINAL SINGLE POINT ENERGY      -652.829778708944
FINAL SINGLE POINT ENERGY      -652.848784729360
FINAL SINGLE POINT ENERGY      -652.852513292498
FINAL SINGLE POINT ENERGY      -652.853070740825
FINAL SINGLE POINT ENERGY      -652.853166478377
FINAL SINGLE POINT ENERGY      -652.853179280524
FINAL SINGLE POINT ENERGY      -652.853181026508
                    ***********************HURRAY********************

CARTESIAN COORDINATES (ANGSTROEM)
---------------------------------
  C    -21.228990   26.362102   46.400632
  C    -20.244641   27.461611   45.969394
  C    -19.828193   28.083925   47.337337
  C    -19.823755   26.846938   48.274486
  O    -20.617141   25.802911   47.588557
  H    -21.278166   25.537676   45.687954
  H    -19.384861   26.989880   45.483829
  H    -20.693659   28.178138   45.276237
  H    -18.841494   28.556468   47.292457
  H    -20.538203   28.843332   47.671708
  H    -20.266545   27.048502   49.255054
  H    -18.817860   26.441107   48.416846
  C    -23.112181   27.857393   47.247476
  H    -23.301612   27.597694   48.298050
  H    -22.398248   28.687117   47.215272
  O    -22.619281   26.699409   46.528784
  C    -24.411875   28.282058   46.565501
  C    -25.070396   29.531513   47.168645
  C    -24.278897   30.671287   46.474808
  C    -24.004081   30.098015   45.062664
  O    -24.200368   28.630965   45.157867
  H    -25.098252   27.429915   46.566655
  O    -26.484695   29.583748   46.838940
  H    -25.025539   29.575755   48.258113
  H    -24.868906   31.590963   46.455995
  H    -23.346538   30.873457   47.014544
  H    -22.986819   30.301137   44.713319
  H    -24.709447   30.470618   44.313327
  H    -26.608358   29.299364   45.908547

 Multiplicity           Mult            ....    1
 Number of Electrons    NEL             ....  102
 Basis Dimension        Dim             ....  149

ORBITAL ENERGIES
----------------

  NO   OCC          E(Eh)            E(eV)
   0   2.0000     -19.144197      -520.9401
   1   2.0000     -19.141474      -520.8660
   2   2.0000     -19.140984      -520.8527
   3   2.0000     -19.139347      -520.8081
   4   2.0000     -10.277112      -279.6544
   5   2.0000     -10.246263      -278.8150
   6   2.0000     -10.235838      -278.5313
   7   2.0000     -10.235563      -278.5238
   8   2.0000     -10.234268      -278.4886
   9   2.0000     -10.229642      -278.3627
  10   2.0000     -10.195659      -277.4380
  11   2.0000     -10.193983      -277.3924
  12   2.0000     -10.191543      -277.3260
  13   2.0000      -1.051282       -28.6068
  14   2.0000      -1.038207       -28.2511
  15   2.0000      -1.009080       -27.4585
  16   2.0000      -0.995158       -27.0796
  17   2.0000      -0.790120       -21.5003
  18   2.0000      -0.787753       -21.4359
  19   2.0000      -0.774113       -21.0647
  20   2.0000      -0.733903       -19.9705
  21   2.0000      -0.681650       -18.5487
  22   2.0000      -0.608351       -16.5541
  23   2.0000      -0.605411       -16.4741
  24   2.0000      -0.600351       -16.3364
  25   2.0000      -0.578857       -15.7515
  26   2.0000      -0.528489       -14.3809
  27   2.0000      -0.507148       -13.8002
  28   2.0000      -0.504165       -13.7190
  29   2.0000      -0.492467       -13.4007
  30   2.0000      -0.481497       -13.1022
  31   2.0000      -0.462614       -12.5884
  32   2.0000      -0.455995       -12.4083
  33   2.0000      -0.436103       -11.8670
  34   2.0000      -0.430827       -11.7234
  35   2.0000      -0.415458       -11.3052
  36   2.0000      -0.405580       -11.0364
  37   2.0000      -0.397237       -10.8094
  38   2.0000      -0.384152       -10.4533
  39   2.0000      -0.375115       -10.2074
  40   2.0000      -0.364236        -9.9114
  41   2.0000      -0.360988        -9.8230
  42   2.0000      -0.352251        -9.5852
  43   2.0000      -0.333144        -9.0653
  44   2.0000      -0.315471        -8.5844
  45   2.0000      -0.309879        -8.4322
  46   2.0000      -0.300101        -8.1662
  47   2.0000      -0.273616        -7.4455
  48   2.0000      -0.264712        -7.2032
  49   2.0000      -0.254916        -6.9366
  50   2.0000      -0.245033        -6.6677
  51   0.0000       0.052011         1.4153
  52   0.0000       0.074693         2.0325
  53   0.0000       0.080423         2.1884
  54   0.0000       0.099197         2.6993
  55   0.0000       0.101525         2.7626

MULLIKEN ATOMIC CHARGES
-----------------------
   0 C :    0.306471
   1 C :   -0.285897
   2 C :   -0.316917
   3 C :   -0.007918
   4 O :   -0.504401
   5 H :    0.170203
   6 H :    0.157825
   7 H :    0.156551
   8 H :    0.144992
   9 H :    0.143234
  10 H :    0.142597
  11 H :    0.148025
  12 C :   -0.002725
  13 H :    0.140626
  14 H :    0.123678
  15 O :   -0.511314
  16 C :    0.066550
  17 C :    0.074279
  18 C :   -0.297241
  19 C :   -0.029031
  20 O :   -0.510394
  21 H :    0.175104
  22 O :   -0.601173
  23 H :    0.153514
  24 H :    0.165588
  25 H :    0.139106
  26 H :    0.141077
  27 H :    0.149894
  28 H :    0.367694
Sum of atomic charges:   -0.0000000

LOEWDIN ATOMIC CHARGES
----------------------
   0 C :    0.176810
   1 C :   -0.230391
   2 C :   -0.224926
   3 C :   -0.033522
   4 O :   -0.322564
   5 H :    0.115644
   6 H :    0.123825
   7 H :    0.121179
   8 H :    0.115033
   9 H :    0.104464
  10 H :    0.101465
  11 H :    0.104644
  12 C :   -0.043190
  13 H :    0.103962
  14 H :    0.092005
  15 O :   -0.307482
  16 C :    0.017073
  17 C :    0.034635
  18 C :   -0.242596
  19 C :   -0.038862
  20 O :   -0.320972
  21 H :    0.123150
  22 O :   -0.413440
  23 H :    0.115887
  24 H :    0.128021
  25 H :    0.109887
  26 H :    0.101109
  27 H :    0.104155
  28 H :    0.284996

  Mayer bond orders larger than 0.100000
B(  0-C ,  1-C ) :   0.9191 B(  0-C ,  4-O ) :   0.8956 B(  0-C ,  5-H ) :   0.9356
B(  0-C , 15-O ) :   0.9053 B(  1-C ,  2-C ) :   0.9546 B(  1-C ,  6-H ) :   0.9352
B(  1-C ,  7-H ) :   0.9338 B(  2-C ,  3-C ) :   0.9459 B(  2-C ,  8-H ) :   0.9452
B(  2-C ,  9-H ) :   0.9382 B(  3-C ,  4-O ) :   0.8514 B(  3-C , 10-H ) :   0.9341
B(  3-C , 11-H ) :   0.9387 B( 12-C , 13-H ) :   0.9151 B( 12-C , 14-H ) :   0.9031
B( 12-C , 15-O ) :   0.8412 B( 12-C , 16-C ) :   0.8975 B( 16-C , 17-C ) :   0.8995
B( 16-C , 20-O ) :   0.8633 B( 16-C , 21-H ) :   0.9222 B( 17-C , 18-C ) :   0.9097
B( 17-C , 22-O ) :   0.8971 B( 17-C , 23-H ) :   0.9320 B( 18-C , 19-C ) :   0.9398
B( 18-C , 24-H ) :   0.9369 B( 18-C , 25-H ) :   0.9345 B( 19-C , 20-O ) :   0.8539
B( 19-C , 26-H ) :   0.9347 B( 19-C , 27-H ) :   0.9372 B( 22-O , 28-H ) :   0.7921

FINAL SINGLE POINT ENERGY      -652.853179721133

DIPOLE MOMENT
-------------
                                X             Y             Z
Electronic contribution:     -4.97007      -5.19010      -1.15772
Nuclear contribution   :      6.06119       6.63045       1.21358
                        -----------------------------------------
Total Dipole Moment    :      1.09112       1.44035       0.05585
                        -----------------------------------------
Magnitude (a.u.)       :      1.80783
Magnitude (Debye)      :      4.59515

Rotational constants in cm-1:     0.057363     0.013037     0.012658
Rotational constants in MHz :  1719.707247   390.843335   379.480169

                             ****ORCA TERMINATED NORMALLY****
TOTAL RUN TIME: 0 days 0 hours 26 minutes 43 seconds 599 msec
