                         Program Version 4.2.0 -  RELEASE  -
|  1> # Test redundant internal optimization
|  2> #
|  3> ! RKS B3LYP  Opt TightSCF SmallPrint
|  4>
|  5> %basis
|  6>         Basis "6-31G"
|  7> end
|  8>
|  9> %geom
| 10> Constraints
| 11> { D 4  0  15  12  330.0   C } # D for Dihedral angle
| 12> { D 0  15  12  16  60.0   C } # D for Dihedral angle
| 13> { D 0  4  3  2   C } # D for Dihedral angle
| 14> { D 4  3  2  1   C } # D for Dihedral angle
| 15> { D 3  2  1  0   C } # D for Dihedral angle
| 16> { D 2  1  0  4   C } # D for Dihedral angle
| 17> { D 1  0  4  3   C } # D for Dihedral angle
| 18> { D 16  20  19  18   C } # D for Dihedral angle
| 19> { D 20  19  18  17   C } # D for Dihedral angle
| 20> { D 19  18  17  16   C } # D for Dihedral angle
| 21> { D 18  17  16  20   C } # D for Dihedral angle
| 22> { D 17  16  20  19   C } # D for Dihedral angle
| 23> { D 15  12  16  20   C } # D for Dihedral angle
| 24> end
| 25> end
| 26>
| 27>
| 28> #%pal
| 29> #nprocs 8
| 30> #end
| 31>
| 32> * xyz 0 1
| 33> C  -21.048   26.222   46.251
| 34> C  -20.361   27.558   45.944
| 35> C  -20.329   28.222   47.341
| 36> C  -20.110   27.022   48.296
| 37> O  -20.473   25.807   47.535
| 38> H  -20.833   25.428   45.533
| 39> H  -19.344   27.382   45.576
| 40> H  -20.898   28.157   45.201
| 41> H  -19.543   28.978   47.434
| 42> H  -21.289   28.710   47.548
| 43> H  -20.733   27.082   49.195
| 44> H  -19.064   26.913   48.597
| 45> C  -23.271   25.476   47.424
| 46> H  -24.351   25.670   47.425
| 47> H  -23.112   24.419   47.171
| 48> O  -22.586   26.394   46.375
| 49> C  -22.732   25.703   48.864
| 50> C  -23.064   27.113   49.366
| 51> C  -24.547   26.957   49.779
| 52> C  -24.610   25.509   50.327
| 53> O  -23.412   24.813   49.811
| 54> H  -21.671   25.451   48.893
| 55> H  -22.444   27.357   50.236
| 56> O  -22.851   28.211   48.288
| 57> H  -24.861   27.698   50.522
| 58> H  -25.196   27.067   48.902
| 59> H  -25.506   24.974   49.996
| 60> H  -24.559   25.473   51.418
| 61> H  -23.463   27.985   47.408
| 62> *
| 63>
| 64>                          ****END OF INPUT****
 Total Charge           Charge          ....    0
 Multiplicity           Mult            ....    1
 Number of Electrons    NEL             ....  102
FINAL SINGLE POINT ENERGY      -652.811841121164
FINAL SINGLE POINT ENERGY      -652.841043839596
FINAL SINGLE POINT ENERGY      -652.857758472858
FINAL SINGLE POINT ENERGY      -652.861100365260
FINAL SINGLE POINT ENERGY      -652.861899389274
FINAL SINGLE POINT ENERGY      -652.862143802191
FINAL SINGLE POINT ENERGY      -652.862193389646
FINAL SINGLE POINT ENERGY      -652.862204302150
FINAL SINGLE POINT ENERGY      -652.862206712240
                    ***********************HURRAY********************

CARTESIAN COORDINATES (ANGSTROEM)
---------------------------------
  C    -21.061543   26.247102   46.361098
  C    -20.458752   27.554390   45.840395
  C    -20.170418   28.318201   47.158161
  C    -19.764551   27.195582   48.136064
  O    -20.268594   25.925464   47.517454
  H    -20.893284   25.402978   45.680731
  H    -19.533132   27.314730   45.307016
  H    -21.131843   28.088680   45.165444
  H    -19.369474   29.054655   47.033678
  H    -21.056150   28.834373   47.527318
  H    -20.215506   27.311351   49.123140
  H    -18.682852   27.070912   48.233209
  C    -23.208382   25.483120   47.526502
  H    -24.261528   25.723723   47.360632
  H    -23.061577   24.423820   47.275787
  O    -22.517679   26.316354   46.519730
  C    -22.826572   25.663109   49.006022
  C    -23.194819   27.053854   49.557702
  C    -24.734465   26.913001   49.777992
  C    -24.882700   25.439880   50.216303
  O    -23.633629   24.742610   49.801998
  H    -21.786568   25.387428   49.163006
  H    -22.684996   27.241382   50.505930
  O    -22.859337   28.162068   48.688904
  H    -25.104098   27.619077   50.526092
  H    -25.252528   27.120513   48.835677
  H    -25.738224   24.935466   49.756881
  H    -24.954357   25.332175   51.302878
  H    -22.953439   27.875001   47.750257

 Multiplicity           Mult            ....    1
 Number of Electrons    NEL             ....  102
 Basis Dimension        Dim             ....  149

ORBITAL ENERGIES
----------------

  NO   OCC          E(Eh)            E(eV)
   0   2.0000     -19.158392      -521.3264
   1   2.0000     -19.154332      -521.2159
   2   2.0000     -19.140956      -520.8519
   3   2.0000     -19.133263      -520.6425
   4   2.0000     -10.284965      -279.8681
   5   2.0000     -10.237891      -278.5872
   6   2.0000     -10.235352      -278.5181
   7   2.0000     -10.229105      -278.3481
   8   2.0000     -10.228497      -278.3316
   9   2.0000     -10.228319      -278.3267
  10   2.0000     -10.190739      -277.3041
  11   2.0000     -10.185507      -277.1617
  12   2.0000     -10.182365      -277.0762
  13   2.0000      -1.057462       -28.7750
  14   2.0000      -1.028707       -27.9925
  15   2.0000      -1.009229       -27.4625
  16   2.0000      -1.000163       -27.2158
  17   2.0000      -0.791655       -21.5420
  18   2.0000      -0.774193       -21.0669
  19   2.0000      -0.765783       -20.8380
  20   2.0000      -0.734892       -19.9974
  21   2.0000      -0.680563       -18.5191
  22   2.0000      -0.602184       -16.3863
  23   2.0000      -0.600609       -16.3434
  24   2.0000      -0.599990       -16.3265
  25   2.0000      -0.576259       -15.6808
  26   2.0000      -0.528462       -14.3802
  27   2.0000      -0.511336       -13.9142
  28   2.0000      -0.496591       -13.5129
  29   2.0000      -0.488823       -13.3015
  30   2.0000      -0.471101       -12.8193
  31   2.0000      -0.458203       -12.4683
  32   2.0000      -0.442157       -12.0317
  33   2.0000      -0.431457       -11.7405
  34   2.0000      -0.424732       -11.5576
  35   2.0000      -0.409409       -11.1406
  36   2.0000      -0.408154       -11.1064
  37   2.0000      -0.397869       -10.8266
  38   2.0000      -0.379876       -10.3370
  39   2.0000      -0.365090        -9.9346
  40   2.0000      -0.360815        -9.8183
  41   2.0000      -0.358786        -9.7631
  42   2.0000      -0.353323        -9.6144
  43   2.0000      -0.340294        -9.2599
  44   2.0000      -0.333187        -9.0665
  45   2.0000      -0.311952        -8.4886
  46   2.0000      -0.302129        -8.2213
  47   2.0000      -0.274846        -7.4789
  48   2.0000      -0.265711        -7.2304
  49   2.0000      -0.257270        -7.0007
  50   2.0000      -0.240624        -6.5477
  51   0.0000       0.058527         1.5926
  52   0.0000       0.080641         2.1944
  53   0.0000       0.087714         2.3868
  54   0.0000       0.095213         2.5909
  55   0.0000       0.106572         2.9000

MULLIKEN ATOMIC CHARGES
-----------------------
   0 C :    0.309763
   1 C :   -0.279080
   2 C :   -0.320582
   3 C :   -0.022790
   4 O :   -0.514489
   5 H :    0.154277
   6 H :    0.154541
   7 H :    0.159255
   8 H :    0.141659
   9 H :    0.186839
  10 H :    0.158242
  11 H :    0.150822
  12 C :   -0.046014
  13 H :    0.157791
  14 H :    0.161284
  15 O :   -0.549733
  16 C :    0.051902
  17 C :    0.103191
  18 C :   -0.309799
  19 C :   -0.019192
  20 O :   -0.519453
  21 H :    0.194280
  22 H :    0.153170
  23 O :   -0.628486
  24 H :    0.153956
  25 H :    0.145137
  26 H :    0.142431
  27 H :    0.150380
  28 H :    0.380698
Sum of atomic charges:   -0.0000000

LOEWDIN ATOMIC CHARGES
----------------------
   0 C :    0.175568
   1 C :   -0.216201
   2 C :   -0.226977
   3 C :   -0.032168
   4 O :   -0.319770
   5 H :    0.097983
   6 H :    0.119562
   7 H :    0.124947
   8 H :    0.114779
   9 H :    0.130341
  10 H :    0.109479
  11 H :    0.106474
  12 C :   -0.051125
  13 H :    0.112915
  14 H :    0.112814
  15 O :   -0.343454
  16 C :    0.002676
  17 C :    0.036131
  18 C :   -0.238593
  19 C :   -0.033960
  20 O :   -0.319602
  21 H :    0.130678
  22 H :    0.110375
  23 O :   -0.423755
  24 H :    0.122313
  25 H :    0.110831
  26 H :    0.102127
  27 H :    0.106465
  28 H :    0.279148

  Mayer bond orders larger than 0.100000
B(  0-C ,  1-C ) :   0.9381 B(  0-C ,  4-O ) :   0.9141 B(  0-C ,  5-H ) :   0.9281
B(  0-C , 15-O ) :   0.8225 B(  1-C ,  2-C ) :   0.9570 B(  1-C ,  6-H ) :   0.9372
B(  1-C ,  7-H ) :   0.9362 B(  2-C ,  3-C ) :   0.9572 B(  2-C ,  8-H ) :   0.9437
B(  2-C ,  9-H ) :   0.9169 B(  3-C ,  4-O ) :   0.8147 B(  3-C , 10-H ) :   0.9271
B(  3-C , 11-H ) :   0.9402 B( 12-C , 13-H ) :   0.9379 B( 12-C , 14-H ) :   0.9272
B( 12-C , 15-O ) :   0.8035 B( 12-C , 16-C ) :   0.8811 B( 16-C , 17-C ) :   0.9038
B( 16-C , 20-O ) :   0.8336 B( 16-C , 21-H ) :   0.9099 B( 17-C , 18-C ) :   0.9055
B( 17-C , 22-H ) :   0.9351 B( 17-C , 23-O ) :   0.8962 B( 18-C , 19-C ) :   0.9409
B( 18-C , 24-H ) :   0.9437 B( 18-C , 25-H ) :   0.9427 B( 19-C , 20-O ) :   0.8372
B( 19-C , 26-H ) :   0.9337 B( 19-C , 27-H ) :   0.9382 B( 23-O , 28-H ) :   0.7282

FINAL SINGLE POINT ENERGY      -652.862207104552

DIPOLE MOMENT
-------------
                                X             Y             Z
Electronic contribution:      0.12696      -3.34725      -0.22061
Nuclear contribution   :     -0.17894       3.82612      -0.00373
                        -----------------------------------------
Total Dipole Moment    :     -0.05198       0.47887      -0.22434
                        -----------------------------------------
Magnitude (a.u.)       :      0.53136
Magnitude (Debye)      :      1.35062

Rotational constants in cm-1:     0.052878     0.017417     0.016304
Rotational constants in MHz :  1585.244926   522.153742   488.773853

                             ****ORCA TERMINATED NORMALLY****
TOTAL RUN TIME: 0 days 0 hours 36 minutes 16 seconds 338 msec
