                         Program Version 4.2.0 -  RELEASE  -
|  1> # Test redundant internal optimization
|  2> #
|  3> ! RKS B3LYP  Opt TightSCF SmallPrint
|  4>
|  5> %basis
|  6>         Basis "6-31G"
|  7> end
|  8>
|  9> %geom
| 10> Constraints
| 11> { D 4  0  15  12  315.0   C } # D for Dihedral angle
| 12> { D 0  15  12  16  180.0   C } # D for Dihedral angle
| 13> { D 0  4  3  2   C } # D for Dihedral angle
| 14> { D 4  3  2  1   C } # D for Dihedral angle
| 15> { D 3  2  1  0   C } # D for Dihedral angle
| 16> { D 2  1  0  4   C } # D for Dihedral angle
| 17> { D 1  0  4  3   C } # D for Dihedral angle
| 18> { D 16  20  19  18   C } # D for Dihedral angle
| 19> { D 20  19  18  17   C } # D for Dihedral angle
| 20> { D 19  18  17  16   C } # D for Dihedral angle
| 21> { D 18  17  16  20   C } # D for Dihedral angle
| 22> { D 17  16  20  19   C } # D for Dihedral angle
| 23> { D 15  12  16  20   C } # D for Dihedral angle
| 24> end
| 25> end
| 26>
| 27>
| 28> #%pal
| 29> #nprocs 8
| 30> #end
| 31>
| 32> * xyz 0 1
| 33> C  -21.048   26.222   46.251
| 34> C  -20.361   27.558   45.944
| 35> C  -20.329   28.222   47.341
| 36> C  -20.110   27.022   48.296
| 37> O  -20.473   25.807   47.535
| 38> H  -20.833   25.428   45.533
| 39> H  -19.344   27.382   45.576
| 40> H  -20.898   28.157   45.201
| 41> H  -19.543   28.978   47.434
| 42> H  -21.289   28.710   47.548
| 43> H  -20.733   27.082   49.195
| 44> H  -19.064   26.913   48.597
| 45> C  -23.319   25.255   47.135
| 46> H  -23.142   24.303   46.618
| 47> H  -22.933   25.166   48.159
| 48> O  -22.586   26.394   46.375
| 49> C  -24.853   25.483   47.226
| 50> C  -25.177   26.842   47.858
| 51> C  -24.949   27.804   46.668
| 52> C  -25.422   26.973   45.449
| 53> O  -25.440   25.560   45.884
| 54> H  -25.313   24.630   47.728
| 55> O  -26.661   26.877   48.314
| 56> H  -24.545   27.077   48.721
| 57> H  -25.499   28.745   46.770
| 58> H  -23.883   28.047   46.579
| 59> H  -24.753   27.075   44.587
| 60> H  -26.439   27.228   45.139
| 61> H  -27.313   26.644   47.465
| 62> *
| 63>
| 64>                          ****END OF INPUT****
 Total Charge           Charge          ....    0
 Multiplicity           Mult            ....    1
 Number of Electrons    NEL             ....  102
FINAL SINGLE POINT ENERGY      -652.840052123088
FINAL SINGLE POINT ENERGY      -652.863389930025
FINAL SINGLE POINT ENERGY      -652.867685822629
FINAL SINGLE POINT ENERGY      -652.868748628166
FINAL SINGLE POINT ENERGY      -652.868869279414
FINAL SINGLE POINT ENERGY      -652.868885921430
                    ***********************HURRAY********************

CARTESIAN COORDINATES (ANGSTROEM)
---------------------------------
  C    -21.092506   26.140378   46.301698
  C    -20.457476   27.487764   45.958681
  C    -20.412068   28.175363   47.341262
  C    -20.133118   27.005221   48.310548
  O    -20.483607   25.767130   47.560343
  H    -20.874279   25.317396   45.612449
  H    -19.448641   27.318664   45.566601
  H    -21.038407   28.041541   45.218027
  H    -19.642653   28.951552   47.399254
  H    -21.380227   28.636435   47.558509
  H    -20.732880   27.047476   49.223430
  H    -19.076530   26.916166   48.578162
  C    -23.232435   25.284081   47.137718
  H    -23.075254   24.314594   46.644002
  H    -22.836504   25.215825   48.157455
  O    -22.524642   26.321544   46.394353
  C    -24.727774   25.578155   47.169520
  C    -25.163720   26.898666   47.822489
  C    -25.004875   27.901613   46.648799
  C    -25.403053   27.054862   45.414031
  O    -25.309945   25.635630   45.828319
  H    -25.208060   24.736604   47.683216
  O    -26.540499   26.809319   48.288423
  H    -24.580601   27.166365   48.704375
  H    -25.649017   28.773073   46.794030
  H    -23.963878   28.217580   46.576233
  H    -24.731622   27.215607   44.566566
  H    -26.435310   27.229696   45.092954
  H    -27.092419   26.425698   47.574552

 Multiplicity           Mult            ....    1
 Number of Electrons    NEL             ....  102
 Basis Dimension        Dim             ....  149

ORBITAL ENERGIES
----------------

  NO   OCC          E(Eh)            E(eV)
   0   2.0000     -19.149500      -521.0844
   1   2.0000     -19.149044      -521.0720
   2   2.0000     -19.135249      -520.6966
   3   2.0000     -19.132673      -520.6265
   4   2.0000     -10.283187      -279.8197
   5   2.0000     -10.234992      -278.5083
   6   2.0000     -10.232841      -278.4498
   7   2.0000     -10.231691      -278.4185
   8   2.0000     -10.227733      -278.3108
   9   2.0000     -10.220689      -278.1191
  10   2.0000     -10.192556      -277.3536
  11   2.0000     -10.191369      -277.3213
  12   2.0000     -10.174826      -276.8711
  13   2.0000      -1.060854       -28.8673
  14   2.0000      -1.030479       -28.0407
  15   2.0000      -1.002792       -27.2874
  16   2.0000      -0.994760       -27.0688
  17   2.0000      -0.795654       -21.6509
  18   2.0000      -0.775223       -21.0949
  19   2.0000      -0.762686       -20.7537
  20   2.0000      -0.734176       -19.9780
  21   2.0000      -0.671595       -18.2750
  22   2.0000      -0.606398       -16.5009
  23   2.0000      -0.597216       -16.2511
  24   2.0000      -0.594868       -16.1872
  25   2.0000      -0.573784       -15.6134
  26   2.0000      -0.525049       -14.2873
  27   2.0000      -0.509099       -13.8533
  28   2.0000      -0.499279       -13.5861
  29   2.0000      -0.488230       -13.2854
  30   2.0000      -0.470037       -12.7903
  31   2.0000      -0.463136       -12.6026
  32   2.0000      -0.447786       -12.1849
  33   2.0000      -0.429924       -11.6988
  34   2.0000      -0.422941       -11.5088
  35   2.0000      -0.410464       -11.1693
  36   2.0000      -0.404430       -11.0051
  37   2.0000      -0.384728       -10.4690
  38   2.0000      -0.380657       -10.3582
  39   2.0000      -0.364732        -9.9249
  40   2.0000      -0.363846        -9.9008
  41   2.0000      -0.356176        -9.6920
  42   2.0000      -0.349993        -9.5238
  43   2.0000      -0.342355        -9.3159
  44   2.0000      -0.321372        -8.7450
  45   2.0000      -0.304892        -8.2965
  46   2.0000      -0.299956        -8.1622
  47   2.0000      -0.268478        -7.3057
  48   2.0000      -0.265133        -7.2146
  49   2.0000      -0.260182        -7.0799
  50   2.0000      -0.240882        -6.5547
  51   0.0000       0.063675         1.7327
  52   0.0000       0.080111         2.1799
  53   0.0000       0.095676         2.6035
  54   0.0000       0.101302         2.7566
  55   0.0000       0.107159         2.9160

MULLIKEN ATOMIC CHARGES
-----------------------
   0 C :    0.301102
   1 C :   -0.264423
   2 C :   -0.303577
   3 C :   -0.010200
   4 O :   -0.513967
   5 H :    0.151492
   6 H :    0.148878
   7 H :    0.157756
   8 H :    0.146230
   9 H :    0.158655
  10 H :    0.146248
  11 H :    0.148895
  12 C :    0.013935
  13 H :    0.141336
  14 H :    0.148105
  15 O :   -0.537048
  16 C :    0.062515
  17 C :    0.073794
  18 C :   -0.287034
  19 C :   -0.015744
  20 O :   -0.528563
  21 H :    0.156556
  22 O :   -0.602962
  23 H :    0.146460
  24 H :    0.146277
  25 H :    0.170013
  26 H :    0.149259
  27 H :    0.133494
  28 H :    0.362515
Sum of atomic charges:   -0.0000000

LOEWDIN ATOMIC CHARGES
----------------------
   0 C :    0.176453
   1 C :   -0.214053
   2 C :   -0.217169
   3 C :   -0.029600
   4 O :   -0.326053
   5 H :    0.099061
   6 H :    0.116444
   7 H :    0.124375
   8 H :    0.116114
   9 H :    0.115365
  10 H :    0.104302
  11 H :    0.106022
  12 C :   -0.037628
  13 H :    0.103958
  14 H :    0.106391
  15 O :   -0.332833
  16 C :    0.015257
  17 C :    0.039057
  18 C :   -0.241873
  19 C :   -0.032319
  20 O :   -0.330976
  21 H :    0.116422
  22 O :   -0.417452
  23 H :    0.113402
  24 H :    0.117455
  25 H :    0.125747
  26 H :    0.107088
  27 H :    0.095360
  28 H :    0.281684

  Mayer bond orders larger than 0.100000
B(  0-C ,  1-C ) :   0.9498 B(  0-C ,  4-O ) :   0.8969 B(  0-C ,  5-H ) :   0.9196
B(  0-C , 15-O ) :   0.8495 B(  1-C ,  2-C ) :   0.9540 B(  1-C ,  6-H ) :   0.9384
B(  1-C ,  7-H ) :   0.9358 B(  2-C ,  3-C ) :   0.9549 B(  2-C ,  8-H ) :   0.9446
B(  2-C ,  9-H ) :   0.9435 B(  3-C ,  4-O ) :   0.8338 B(  3-C , 10-H ) :   0.9353
B(  3-C , 11-H ) :   0.9403 B( 12-C , 13-H ) :   0.9188 B( 12-C , 14-H ) :   0.9063
B( 12-C , 15-O ) :   0.8272 B( 12-C , 16-C ) :   0.9115 B( 16-C , 17-C ) :   0.9084
B( 16-C , 20-O ) :   0.8675 B( 16-C , 21-H ) :   0.9231 B( 17-C , 18-C ) :   0.9241
B( 17-C , 22-O ) :   0.8912 B( 17-C , 23-H ) :   0.9366 B( 18-C , 19-C ) :   0.9460
B( 18-C , 24-H ) :   0.9373 B( 18-C , 25-H ) :   0.9182 B( 19-C , 20-O ) :   0.8412
B( 19-C , 26-H ) :   0.9345 B( 19-C , 27-H ) :   0.9379 B( 22-O , 28-H ) :   0.7957

FINAL SINGLE POINT ENERGY      -652.868885946735

DIPOLE MOMENT
-------------
                                X             Y             Z
Electronic contribution:     -3.31538      -4.62450      -0.07162
Nuclear contribution   :      4.21459       5.39845      -0.13003
                        -----------------------------------------
Total Dipole Moment    :      0.89921       0.77395      -0.20165
                        -----------------------------------------
Magnitude (a.u.)       :      1.20343
Magnitude (Debye)      :      3.05887

Rotational constants in cm-1:     0.051284     0.014483     0.014347
Rotational constants in MHz :  1537.458092   434.195502   430.106403

                             ****ORCA TERMINATED NORMALLY****
TOTAL RUN TIME: 0 days 1 hours 18 minutes 53 seconds 905 msec
