                         Program Version 4.2.0 -  RELEASE  -
|  1> # Test redundant internal optimization
|  2> #
|  3> ! RKS B3LYP  Opt TightSCF SmallPrint
|  4>
|  5> %basis
|  6>         Basis "6-31G"
|  7> end
|  8>
|  9> %geom
| 10> Constraints
| 11> { D 4  0  15  12  120.0   C } # D for Dihedral angle
| 12> { D 0  15  12  16  210.0   C } # D for Dihedral angle
| 13> { D 0  4  3  2   C } # D for Dihedral angle
| 14> { D 4  3  2  1   C } # D for Dihedral angle
| 15> { D 3  2  1  0   C } # D for Dihedral angle
| 16> { D 2  1  0  4   C } # D for Dihedral angle
| 17> { D 1  0  4  3   C } # D for Dihedral angle
| 18> { D 16  20  19  18   C } # D for Dihedral angle
| 19> { D 20  19  18  17   C } # D for Dihedral angle
| 20> { D 19  18  17  16   C } # D for Dihedral angle
| 21> { D 18  17  16  20   C } # D for Dihedral angle
| 22> { D 17  16  20  19   C } # D for Dihedral angle
| 23> { D 15  12  16  20   C } # D for Dihedral angle
| 24> end
| 25> end
| 26>
| 27>
| 28> #%pal
| 29> #nprocs 8
| 30> #end
| 31>
| 32> * xyz 0 1
| 33> C  -21.048   26.222   46.251
| 34> C  -20.361   27.558   45.944
| 35> C  -20.329   28.222   47.341
| 36> C  -20.110   27.022   48.296
| 37> O  -20.473   25.807   47.535
| 38> H  -20.833   25.428   45.533
| 39> H  -19.344   27.382   45.576
| 40> H  -20.898   28.157   45.201
| 41> H  -19.543   28.978   47.434
| 42> H  -21.289   28.710   47.548
| 43> H  -20.733   27.082   49.195
| 44> H  -19.064   26.913   48.597
| 45> C  -23.119   27.818   46.058
| 46> H  -22.348   28.557   46.308
| 47> H  -23.350   27.912   44.989
| 48> O  -22.586   26.394   46.375
| 49> C  -24.408   28.168   46.853
| 50> C  -24.969   29.530   46.431
| 51> C  -25.694   29.175   45.111
| 52> C  -26.243   27.752   45.383
| 53> O  -25.480   27.220   46.533
| 54> H  -24.205   28.074   47.922
| 55> O  -25.981   30.042   47.492
| 56> H  -24.194   30.292   46.297
| 57> H  -26.487   29.886   44.857
| 58> H  -24.979   29.160   44.280
| 59> H  -26.114   27.082   44.526
| 60> H  -27.298   27.760   45.672
| 61> H  -26.768   29.293   47.641
| 62> *
| 63>
| 64>                          ****END OF INPUT****
 Total Charge           Charge          ....    0
 Multiplicity           Mult            ....    1
 Number of Electrons    NEL             ....  102
FINAL SINGLE POINT ENERGY      -652.814089658423
FINAL SINGLE POINT ENERGY      -652.838887421871
FINAL SINGLE POINT ENERGY      -652.846669647400
FINAL SINGLE POINT ENERGY      -652.848904132261
FINAL SINGLE POINT ENERGY      -652.849244691653
FINAL SINGLE POINT ENERGY      -652.849288409265
FINAL SINGLE POINT ENERGY      -652.849293678879
                    ***********************HURRAY********************

CARTESIAN COORDINATES (ANGSTROEM)
---------------------------------
  C    -21.173272   26.348189   46.318598
  C    -20.187389   27.471675   45.976446
  C    -20.049727   28.211879   47.338648
  C    -20.147876   27.050057   48.357491
  O    -20.755679   25.914388   47.628276
  H    -21.078697   25.466374   45.682086
  H    -19.232973   27.015633   45.694539
  H    -20.509635   28.117951   45.155454
  H    -19.101802   28.752610   47.420030
  H    -20.857175   28.935787   47.485804
  H    -20.769265   27.291523   49.224414
  H    -19.165930   26.714618   48.703272
  C    -23.114545   27.973622   45.964673
  H    -22.431925   28.785663   46.242313
  H    -23.286110   28.030287   44.880284
  O    -22.589698   26.665434   46.301099
  C    -24.422468   28.167286   46.731373
  C    -25.119541   29.502874   46.436117
  C    -25.885182   29.177614   45.125152
  C    -26.295598   27.696568   45.321785
  O    -25.426462   27.157149   46.394338
  H    -24.216758   28.049469   47.799403
  O    -26.026623   29.861333   47.514251
  H    -24.439240   30.350773   46.339147
  H    -26.740002   29.846858   45.002028
  H    -25.223746   29.297660   44.259686
  H    -26.160858   27.094970   44.417752
  H    -27.331287   27.589770   45.659974
  H    -26.508538   29.057986   47.804565

 Multiplicity           Mult            ....    1
 Number of Electrons    NEL             ....  102
 Basis Dimension        Dim             ....  149

ORBITAL ENERGIES
----------------

  NO   OCC          E(Eh)            E(eV)
   0   2.0000     -19.139747      -520.8190
   1   2.0000     -19.139539      -520.8133
   2   2.0000     -19.137711      -520.7636
   3   2.0000     -19.137666      -520.7624
   4   2.0000     -10.279133      -279.7094
   5   2.0000     -10.244755      -278.7740
   6   2.0000     -10.236839      -278.5585
   7   2.0000     -10.234508      -278.4951
   8   2.0000     -10.229604      -278.3617
   9   2.0000     -10.227553      -278.3059
  10   2.0000     -10.196489      -277.4606
  11   2.0000     -10.196368      -277.4573
  12   2.0000     -10.190881      -277.3080
  13   2.0000      -1.049751       -28.5652
  14   2.0000      -1.036303       -28.1992
  15   2.0000      -1.006811       -27.3967
  16   2.0000      -0.992456       -27.0061
  17   2.0000      -0.791632       -21.5414
  18   2.0000      -0.786953       -21.4141
  19   2.0000      -0.770675       -20.9711
  20   2.0000      -0.733995       -19.9730
  21   2.0000      -0.680515       -18.5178
  22   2.0000      -0.608289       -16.5524
  23   2.0000      -0.604960       -16.4618
  24   2.0000      -0.597232       -16.2515
  25   2.0000      -0.576744       -15.6940
  26   2.0000      -0.524393       -14.2695
  27   2.0000      -0.517047       -14.0696
  28   2.0000      -0.501644       -13.6504
  29   2.0000      -0.493089       -13.4176
  30   2.0000      -0.475070       -12.9273
  31   2.0000      -0.461681       -12.5630
  32   2.0000      -0.448170       -12.1953
  33   2.0000      -0.444597       -12.0981
  34   2.0000      -0.428800       -11.6683
  35   2.0000      -0.417794       -11.3687
  36   2.0000      -0.400951       -10.9104
  37   2.0000      -0.394070       -10.7232
  38   2.0000      -0.384049       -10.4505
  39   2.0000      -0.373465       -10.1625
  40   2.0000      -0.366948        -9.9852
  41   2.0000      -0.361407        -9.8344
  42   2.0000      -0.352953        -9.6043
  43   2.0000      -0.333308        -9.0698
  44   2.0000      -0.313758        -8.5378
  45   2.0000      -0.307135        -8.3576
  46   2.0000      -0.289921        -7.8892
  47   2.0000      -0.272959        -7.4276
  48   2.0000      -0.267177        -7.2703
  49   2.0000      -0.250570        -6.8184
  50   2.0000      -0.240520        -6.5449
  51   0.0000       0.062247         1.6938
  52   0.0000       0.075846         2.0639
  53   0.0000       0.081758         2.2247
  54   0.0000       0.097668         2.6577
  55   0.0000       0.099391         2.7046

MULLIKEN ATOMIC CHARGES
-----------------------
   0 C :    0.318711
   1 C :   -0.305041
   2 C :   -0.311549
   3 C :   -0.003162
   4 O :   -0.493378
   5 H :    0.159988
   6 H :    0.158478
   7 H :    0.146010
   8 H :    0.146984
   9 H :    0.152006
  10 H :    0.149592
  11 H :    0.145644
  12 C :    0.000453
  13 H :    0.120146
  14 H :    0.130962
  15 O :   -0.515400
  16 C :    0.071026
  17 C :    0.071992
  18 C :   -0.294780
  19 C :   -0.030026
  20 O :   -0.502806
  21 H :    0.169572
  22 O :   -0.601038
  23 H :    0.147582
  24 H :    0.163888
  25 H :    0.140413
  26 H :    0.150644
  27 H :    0.145579
  28 H :    0.367509
Sum of atomic charges:   -0.0000000

LOEWDIN ATOMIC CHARGES
----------------------
   0 C :    0.182268
   1 C :   -0.233424
   2 C :   -0.222111
   3 C :   -0.030258
   4 O :   -0.311418
   5 H :    0.107293
   6 H :    0.124206
   7 H :    0.114658
   8 H :    0.116706
   9 H :    0.107995
  10 H :    0.105979
  11 H :    0.104282
  12 C :   -0.040351
  13 H :    0.093532
  14 H :    0.093598
  15 O :   -0.319079
  16 C :    0.017371
  17 C :    0.033127
  18 C :   -0.241530
  19 C :   -0.038377
  20 O :   -0.315599
  21 H :    0.121188
  22 O :   -0.414237
  23 H :    0.112613
  24 H :    0.127051
  25 H :    0.110933
  26 H :    0.106282
  27 H :    0.102406
  28 H :    0.284898

  Mayer bond orders larger than 0.100000
B(  0-C ,  1-C ) :   0.9286 B(  0-C ,  4-O ) :   0.9147 B(  0-C ,  5-H ) :   0.9315
B(  0-C , 15-O ) :   0.8753 B(  1-C ,  2-C ) :   0.9513 B(  1-C ,  6-H ) :   0.9341
B(  1-C ,  7-H ) :   0.9312 B(  2-C ,  3-C ) :   0.9473 B(  2-C ,  8-H ) :   0.9455
B(  2-C ,  9-H ) :   0.9373 B(  3-C ,  4-O ) :   0.8480 B(  3-C , 10-H ) :   0.9338
B(  3-C , 11-H ) :   0.9391 B( 12-C , 13-H ) :   0.8947 B( 12-C , 14-H ) :   0.9205
B( 12-C , 15-O ) :   0.8490 B( 12-C , 16-C ) :   0.8936 B( 16-C , 17-C ) :   0.8974
B( 16-C , 20-O ) :   0.8716 B( 16-C , 21-H ) :   0.9228 B( 17-C , 18-C ) :   0.9094
B( 17-C , 22-O ) :   0.8971 B( 17-C , 23-H ) :   0.9334 B( 18-C , 19-C ) :   0.9406
B( 18-C , 24-H ) :   0.9370 B( 18-C , 25-H ) :   0.9349 B( 19-C , 20-O ) :   0.8520
B( 19-C , 26-H ) :   0.9335 B( 19-C , 27-H ) :   0.9379 B( 22-O , 28-H ) :   0.7922

FINAL SINGLE POINT ENERGY      -652.849294574728

DIPOLE MOMENT
-------------
                                X             Y             Z
Electronic contribution:     -3.04506      -4.30830       2.37693
Nuclear contribution   :      3.77330       5.48199      -3.34461
                        -----------------------------------------
Total Dipole Moment    :      0.72824       1.17369      -0.96768
                        -----------------------------------------
Magnitude (a.u.)       :      1.68650
Magnitude (Debye)      :      4.28673

Rotational constants in cm-1:     0.056379     0.012500     0.011864
Rotational constants in MHz :  1690.210612   374.755070   355.669077

                             ****ORCA TERMINATED NORMALLY****
TOTAL RUN TIME: 0 days 1 hours 10 minutes 43 seconds 330 msec
