                         Program Version 4.2.0 -  RELEASE  -
|  1> # Test redundant internal optimization
|  2> #
|  3> ! RKS B3LYP  Opt TightSCF SmallPrint
|  4>
|  5> %basis
|  6>         Basis "6-31G"
|  7> end
|  8>
|  9> %geom
| 10> Constraints
| 11> { D 4  0  15  12  150.0   C } # D for Dihedral angle
| 12> { D 0  15  12  16  150.0   C } # D for Dihedral angle
| 13> { D 0  4  3  2   C } # D for Dihedral angle
| 14> { D 4  3  2  1   C } # D for Dihedral angle
| 15> { D 3  2  1  0   C } # D for Dihedral angle
| 16> { D 2  1  0  4   C } # D for Dihedral angle
| 17> { D 1  0  4  3   C } # D for Dihedral angle
| 18> { D 16  20  19  18   C } # D for Dihedral angle
| 19> { D 20  19  18  17   C } # D for Dihedral angle
| 20> { D 19  18  17  16   C } # D for Dihedral angle
| 21> { D 18  17  16  20   C } # D for Dihedral angle
| 22> { D 17  16  20  19   C } # D for Dihedral angle
| 23> { D 15  12  16  20   C } # D for Dihedral angle
| 24> end
| 25> end
| 26>
| 27>
| 28> #%pal
| 29> #nprocs 8
| 30> #end
| 31>
| 32> * xyz 0 1
| 33> C  -21.048   26.222   46.251
| 34> C  -20.361   27.558   45.944
| 35> C  -20.329   28.222   47.341
| 36> C  -20.110   27.022   48.296
| 37> O  -20.473   25.807   47.535
| 38> H  -20.833   25.428   45.533
| 39> H  -19.344   27.382   45.576
| 40> H  -20.898   28.157   45.201
| 41> H  -19.543   28.978   47.434
| 42> H  -21.289   28.710   47.548
| 43> H  -20.733   27.082   49.195
| 44> H  -19.064   26.913   48.597
| 45> C  -23.210   27.459   45.431
| 46> H  -23.207   28.434   45.934
| 47> H  -22.621   27.547   44.509
| 48> O  -22.586   26.394   46.375
| 49> C  -24.672   27.121   45.028
| 50> C  -24.767   25.727   44.397
| 51> C  -24.739   24.815   45.648
| 52> C  -25.512   25.643   46.704
| 53> O  -25.526   27.039   46.217
| 54> H  -25.066   27.926   44.406
| 55> O  -26.115   25.576   43.640
| 56> H  -23.952   25.513   43.698
| 57> H  -25.194   23.835   45.470
| 58> H  -23.703   24.649   45.969
| 59> H  -25.038   25.611   47.691
| 60> H  -26.554   25.326   46.802
| 61> H  -26.946   25.785   44.322
| 62> *
| 63>
| 64>                          ****END OF INPUT****
 Total Charge           Charge          ....    0
 Multiplicity           Mult            ....    1
 Number of Electrons    NEL             ....  102
FINAL SINGLE POINT ENERGY      -652.828799707784
FINAL SINGLE POINT ENERGY      -652.851237931299
FINAL SINGLE POINT ENERGY      -652.855639006199
FINAL SINGLE POINT ENERGY      -652.856839785868
FINAL SINGLE POINT ENERGY      -652.856965669823
FINAL SINGLE POINT ENERGY      -652.856985538507
                    ***********************HURRAY********************

CARTESIAN COORDINATES (ANGSTROEM)
---------------------------------
  C    -21.091729   26.289647   46.221611
  C    -20.279982   27.551338   45.927523
  C    -20.291099   28.271564   47.301522
  C    -20.239951   27.094929   48.298819
  O    -20.652473   25.894677   47.528248
  H    -20.902635   25.446318   45.551986
  H    -19.261332   27.250592   45.657315
  H    -20.672552   28.167892   45.116053
  H    -19.445664   28.955926   47.419280
  H    -21.215374   28.845929   47.421966
  H    -20.920497   27.217273   49.144779
  H    -19.230424   26.895700   48.669387
  C    -23.182573   27.482008   45.433124
  H    -23.200139   28.460123   45.929587
  H    -22.650918   27.586056   44.476047
  O    -22.537386   26.507493   46.299607
  C    -24.619933   27.060452   45.129415
  C    -24.813810   25.712076   44.420175
  C    -24.784034   24.719306   45.614049
  C    -25.470136   25.519254   46.748922
  O    -25.426984   26.945323   46.342469
  H    -25.069633   27.862223   44.529910
  O    -26.084016   25.689325   43.709112
  H    -24.060065   25.500424   43.661005
  H    -25.314172   23.796445   45.362370
  H    -23.751762   24.491765   45.879824
  H    -24.947304   25.414031   47.702365
  H    -26.524529   25.255396   46.882044
  H    -26.791892   25.997516   44.313486

 Multiplicity           Mult            ....    1
 Number of Electrons    NEL             ....  102
 Basis Dimension        Dim             ....  149

ORBITAL ENERGIES
----------------

  NO   OCC          E(Eh)            E(eV)
   0   2.0000     -19.144329      -520.9437
   1   2.0000     -19.144310      -520.9432
   2   2.0000     -19.134390      -520.6732
   3   2.0000     -19.133111      -520.6384
   4   2.0000     -10.286508      -279.9101
   5   2.0000     -10.236517      -278.5498
   6   2.0000     -10.234876      -278.5051
   7   2.0000     -10.232607      -278.4434
   8   2.0000     -10.229569      -278.3607
   9   2.0000     -10.217727      -278.0385
  10   2.0000     -10.196530      -277.4617
  11   2.0000     -10.194679      -277.4113
  12   2.0000     -10.172053      -276.7956
  13   2.0000      -1.056930       -28.7605
  14   2.0000      -1.030140       -28.0315
  15   2.0000      -1.002323       -27.2746
  16   2.0000      -0.993194       -27.0262
  17   2.0000      -0.793503       -21.5923
  18   2.0000      -0.777144       -21.1472
  19   2.0000      -0.761844       -20.7308
  20   2.0000      -0.736029       -20.0284
  21   2.0000      -0.677456       -18.4345
  22   2.0000      -0.608523       -16.5587
  23   2.0000      -0.599690       -16.3184
  24   2.0000      -0.593808       -16.1583
  25   2.0000      -0.569435       -15.4951
  26   2.0000      -0.526718       -14.3327
  27   2.0000      -0.507614       -13.8129
  28   2.0000      -0.506359       -13.7787
  29   2.0000      -0.485481       -13.2106
  30   2.0000      -0.474758       -12.9188
  31   2.0000      -0.458097       -12.4654
  32   2.0000      -0.449043       -12.2191
  33   2.0000      -0.433472       -11.7954
  34   2.0000      -0.427935       -11.6447
  35   2.0000      -0.414119       -11.2688
  36   2.0000      -0.404709       -11.0127
  37   2.0000      -0.385662       -10.4944
  38   2.0000      -0.383342       -10.4313
  39   2.0000      -0.363880        -9.9017
  40   2.0000      -0.362420        -9.8619
  41   2.0000      -0.358576        -9.7573
  42   2.0000      -0.353792        -9.6272
  43   2.0000      -0.326746        -8.8912
  44   2.0000      -0.316627        -8.6159
  45   2.0000      -0.302470        -8.2306
  46   2.0000      -0.299511        -8.1501
  47   2.0000      -0.268892        -7.3169
  48   2.0000      -0.262285        -7.1371
  49   2.0000      -0.258171        -7.0252
  50   2.0000      -0.237101        -6.4519
  51   0.0000       0.068585         1.8663
  52   0.0000       0.076595         2.0843
  53   0.0000       0.094276         2.5654
  54   0.0000       0.100424         2.7327
  55   0.0000       0.106890         2.9086

MULLIKEN ATOMIC CHARGES
-----------------------
   0 C :    0.313627
   1 C :   -0.294818
   2 C :   -0.302735
   3 C :   -0.000595
   4 O :   -0.497600
   5 H :    0.147900
   6 H :    0.154244
   7 H :    0.146223
   8 H :    0.146739
   9 H :    0.159663
  10 H :    0.156560
  11 H :    0.144442
  12 C :    0.002850
  13 H :    0.143977
  14 H :    0.123121
  15 O :   -0.526554
  16 C :    0.069294
  17 C :    0.073738
  18 C :   -0.281652
  19 C :   -0.019032
  20 O :   -0.527586
  21 H :    0.151955
  22 O :   -0.603403
  23 H :    0.143654
  24 H :    0.145092
  25 H :    0.174722
  26 H :    0.159414
  27 H :    0.133500
  28 H :    0.363260
Sum of atomic charges:   -0.0000000

LOEWDIN ATOMIC CHARGES
----------------------
   0 C :    0.183154
   1 C :   -0.233810
   2 C :   -0.216814
   3 C :   -0.025823
   4 O :   -0.304919
   5 H :    0.100268
   6 H :    0.120527
   7 H :    0.115135
   8 H :    0.116693
   9 H :    0.115582
  10 H :    0.110707
  11 H :    0.104070
  12 C :   -0.038758
  13 H :    0.102776
  14 H :    0.093384
  15 O :   -0.337694
  16 C :    0.013626
  17 C :    0.038612
  18 C :   -0.239811
  19 C :   -0.032117
  20 O :   -0.330707
  21 H :    0.113722
  22 O :   -0.417516
  23 H :    0.112049
  24 H :    0.116895
  25 H :    0.130570
  26 H :    0.112746
  27 H :    0.095177
  28 H :    0.282274

  Mayer bond orders larger than 0.100000
B(  0-C ,  1-C ) :   0.9344 B(  0-C ,  4-O ) :   0.9383 B(  0-C ,  5-H ) :   0.9241
B(  0-C , 15-O ) :   0.8319 B(  1-C ,  2-C ) :   0.9491 B(  1-C ,  6-H ) :   0.9336
B(  1-C ,  7-H ) :   0.9277 B(  2-C ,  3-C ) :   0.9544 B(  2-C ,  8-H ) :   0.9450
B(  2-C ,  9-H ) :   0.9433 B(  3-C ,  4-O ) :   0.8343 B(  3-C , 10-H ) :   0.9340
B(  3-C , 11-H ) :   0.9397 B( 12-C , 13-H ) :   0.9149 B( 12-C , 14-H ) :   0.9068
B( 12-C , 15-O ) :   0.8481 B( 12-C , 16-C ) :   0.9005 B( 16-C , 17-C ) :   0.9071
B( 16-C , 20-O ) :   0.8765 B( 16-C , 21-H ) :   0.9216 B( 17-C , 18-C ) :   0.9238
B( 17-C , 22-O ) :   0.8921 B( 17-C , 23-H ) :   0.9369 B( 18-C , 19-C ) :   0.9473
B( 18-C , 24-H ) :   0.9373 B( 18-C , 25-H ) :   0.9193 B( 19-C , 20-O ) :   0.8359
B( 19-C , 26-H ) :   0.9333 B( 19-C , 27-H ) :   0.9377 B( 22-O , 28-H ) :   0.7953

FINAL SINGLE POINT ENERGY      -652.856986109324

DIPOLE MOMENT
-------------
                                X             Y             Z
Electronic contribution:     -3.70179      -2.00442      -0.64944
Nuclear contribution   :      4.74350       2.76056       0.57211
                        -----------------------------------------
Total Dipole Moment    :      1.04171       0.75615      -0.07733
                        -----------------------------------------
Magnitude (a.u.)       :      1.28953
Magnitude (Debye)      :      3.27773

Rotational constants in cm-1:     0.060035     0.013422     0.012948
Rotational constants in MHz :  1799.800427   402.391539   388.162474

                             ****ORCA TERMINATED NORMALLY****
TOTAL RUN TIME: 0 days 0 hours 16 minutes 5 seconds 228 msec
