                         Program Version 4.2.0 -  RELEASE  -
|  1> # Test redundant internal optimization
|  2> #
|  3> ! RKS B3LYP  Opt TightSCF SmallPrint
|  4>
|  5> %basis
|  6>         Basis "6-31G"
|  7> end
|  8>
|  9> %geom
| 10> Constraints
| 11> { D 4  0  15  12  270.0   C } # D for Dihedral angle
| 12> { D 0  15  12  16  105.0   C } # D for Dihedral angle
| 13> { D 0  4  3  2   C } # D for Dihedral angle
| 14> { D 4  3  2  1   C } # D for Dihedral angle
| 15> { D 3  2  1  0   C } # D for Dihedral angle
| 16> { D 2  1  0  4   C } # D for Dihedral angle
| 17> { D 1  0  4  3   C } # D for Dihedral angle
| 18> { D 16  20  19  18   C } # D for Dihedral angle
| 19> { D 20  19  18  17   C } # D for Dihedral angle
| 20> { D 19  18  17  16   C } # D for Dihedral angle
| 21> { D 18  17  16  20   C } # D for Dihedral angle
| 22> { D 17  16  20  19   C } # D for Dihedral angle
| 23> { D 15  12  16  20   C } # D for Dihedral angle
| 24> end
| 25> end
| 26>
| 27>
| 28> #%pal
| 29> #nprocs 8
| 30> #end
| 31>
| 32> * xyz 0 1
| 33> C  -21.048   26.222   46.251
| 34> C  -20.361   27.558   45.944
| 35> C  -20.329   28.222   47.341
| 36> C  -20.110   27.022   48.296
| 37> O  -20.473   25.807   47.535
| 38> H  -20.833   25.428   45.533
| 39> H  -19.344   27.382   45.576
| 40> H  -20.898   28.157   45.201
| 41> H  -19.543   28.978   47.434
| 42> H  -21.289   28.710   47.548
| 43> H  -20.733   27.082   49.195
| 44> H  -19.064   26.913   48.597
| 45> C  -23.420   25.119   46.072
| 46> H  -24.261   25.383   45.420
| 47> H  -22.805   24.372   45.553
| 48> O  -22.586   26.394   46.375
| 49> C  -23.987   24.453   47.357
| 50> C  -22.871   24.137   48.359
| 51> C  -22.624   25.523   49.001
| 52> C  -24.039   26.153   49.033
| 53> O  -24.863   25.386   48.073
| 54> H  -24.598   23.594   47.074
| 55> H  -23.231   23.423   49.108
| 56> O  -21.599   23.548   47.691
| 57> H  -22.175   25.456   49.997
| 58> H  -21.952   26.116   48.370
| 59> H  -24.035   27.209   48.740
| 60> H  -24.516   26.060   50.013
| 61> H  -21.222   24.247   46.937
| 62> *
| 63>
| 64>                          ****END OF INPUT****
 Total Charge           Charge          ....    0
 Multiplicity           Mult            ....    1
 Number of Electrons    NEL             ....  102
FINAL SINGLE POINT ENERGY      -652.794181068609
FINAL SINGLE POINT ENERGY      -652.839232313643
FINAL SINGLE POINT ENERGY      -652.859630084175
FINAL SINGLE POINT ENERGY      -652.865458980285
FINAL SINGLE POINT ENERGY      -652.867345149227
FINAL SINGLE POINT ENERGY      -652.868118918113
FINAL SINGLE POINT ENERGY      -652.868275859072
FINAL SINGLE POINT ENERGY      -652.868317590898
FINAL SINGLE POINT ENERGY      -652.868321850074
FINAL SINGLE POINT ENERGY      -652.868323722858
                    ***********************HURRAY********************

CARTESIAN COORDINATES (ANGSTROEM)
---------------------------------
  C    -21.003599   26.278006   46.180329
  C    -20.348435   27.597662   45.759782
  C    -20.239808   28.342985   47.113668
  C    -19.954380   27.202687   48.120467
  O    -20.358052   25.943352   47.435633
  H    -20.794522   25.434739   45.514073
  H    -19.356070   27.393296   45.343111
  H    -20.949888   28.127813   45.019955
  H    -19.450289   29.100319   47.119612
  H    -21.191682   28.831033   47.343207
  H    -20.521218   27.297675   49.049924
  H    -18.891969   27.095755   48.355112
  C    -23.261414   25.287159   46.066164
  H    -24.060284   25.629175   45.401118
  H    -22.673820   24.518275   45.545556
  O    -22.427638   26.481180   46.267767
  C    -23.933480   24.616107   47.267436
  C    -23.029956   24.016856   48.358908
  C    -22.817795   25.236682   49.309586
  C    -24.179234   25.962280   49.227451
  O    -24.857578   25.464412   48.007728
  H    -24.552330   23.828568   46.815132
  H    -23.561300   23.207538   48.866246
  O    -21.795690   23.449532   47.860277
  H    -22.562473   24.927829   50.327334
  H    -22.018635   25.852479   48.907618
  H    -24.075850   27.049727   49.151767
  H    -24.833589   25.725071   50.072552
  H    -21.108020   24.155808   47.816488

 Multiplicity           Mult            ....    1
 Number of Electrons    NEL             ....  102
 Basis Dimension        Dim             ....  149

ORBITAL ENERGIES
----------------

  NO   OCC          E(Eh)            E(eV)
   0   2.0000     -19.167260      -521.5677
   1   2.0000     -19.155082      -521.2363
   2   2.0000     -19.129021      -520.5271
   3   2.0000     -19.118029      -520.2280
   4   2.0000     -10.291671      -280.0506
   5   2.0000     -10.243196      -278.7315
   6   2.0000     -10.228485      -278.3312
   7   2.0000     -10.227129      -278.2943
   8   2.0000     -10.224011      -278.2095
   9   2.0000     -10.218343      -278.0553
  10   2.0000     -10.197731      -277.4944
  11   2.0000     -10.195372      -277.4302
  12   2.0000     -10.173623      -276.8383
  13   2.0000      -1.067715       -29.0540
  14   2.0000      -1.018829       -27.7237
  15   2.0000      -1.007649       -27.4195
  16   2.0000      -0.993679       -27.0394
  17   2.0000      -0.799146       -21.7459
  18   2.0000      -0.769275       -20.9330
  19   2.0000      -0.761257       -20.7149
  20   2.0000      -0.739465       -20.1219
  21   2.0000      -0.675500       -18.3813
  22   2.0000      -0.612952       -16.6793
  23   2.0000      -0.604479       -16.4487
  24   2.0000      -0.596232       -16.2243
  25   2.0000      -0.569515       -15.4973
  26   2.0000      -0.524204       -14.2643
  27   2.0000      -0.508712       -13.8428
  28   2.0000      -0.503900       -13.7118
  29   2.0000      -0.484455       -13.1827
  30   2.0000      -0.476316       -12.9612
  31   2.0000      -0.457018       -12.4361
  32   2.0000      -0.446292       -12.1442
  33   2.0000      -0.430143       -11.7048
  34   2.0000      -0.422275       -11.4907
  35   2.0000      -0.412636       -11.2284
  36   2.0000      -0.410095       -11.1593
  37   2.0000      -0.397491       -10.8163
  38   2.0000      -0.372334       -10.1317
  39   2.0000      -0.370411       -10.0794
  40   2.0000      -0.365803        -9.9540
  41   2.0000      -0.356989        -9.7142
  42   2.0000      -0.345453        -9.4003
  43   2.0000      -0.342428        -9.3179
  44   2.0000      -0.318062        -8.6549
  45   2.0000      -0.310968        -8.4619
  46   2.0000      -0.297808        -8.1038
  47   2.0000      -0.281808        -7.6684
  48   2.0000      -0.271664        -7.3924
  49   2.0000      -0.249038        -6.7767
  50   2.0000      -0.230272        -6.2660
  51   0.0000       0.067725         1.8429
  52   0.0000       0.082952         2.2572
  53   0.0000       0.086400         2.3511
  54   0.0000       0.096314         2.6208
  55   0.0000       0.110178         2.9981

MULLIKEN ATOMIC CHARGES
-----------------------
   0 C :    0.284213
   1 C :   -0.256647
   2 C :   -0.302096
   3 C :   -0.005835
   4 O :   -0.539575
   5 H :    0.154056
   6 H :    0.149145
   7 H :    0.165567
   8 H :    0.148724
   9 H :    0.169071
  10 H :    0.145961
  11 H :    0.154868
  12 C :   -0.030700
  13 H :    0.161975
  14 H :    0.141358
  15 O :   -0.512574
  16 C :    0.103489
  17 C :    0.094508
  18 C :   -0.342109
  19 C :   -0.009583
  20 O :   -0.522098
  21 H :    0.144491
  22 H :    0.151039
  23 O :   -0.645322
  24 H :    0.139227
  25 H :    0.179072
  26 H :    0.142954
  27 H :    0.140929
  28 H :    0.395892
Sum of atomic charges:    0.0000000

LOEWDIN ATOMIC CHARGES
----------------------
   0 C :    0.168207
   1 C :   -0.212763
   2 C :   -0.214566
   3 C :   -0.027523
   4 O :   -0.333274
   5 H :    0.100273
   6 H :    0.116140
   7 H :    0.128685
   8 H :    0.117790
   9 H :    0.122482
  10 H :    0.104197
  11 H :    0.108969
  12 C :   -0.046072
  13 H :    0.118241
  14 H :    0.106995
  15 O :   -0.321722
  16 C :    0.012105
  17 C :    0.040257
  18 C :   -0.249729
  19 C :   -0.028072
  20 O :   -0.325020
  21 H :    0.114070
  22 H :    0.109371
  23 O :   -0.434572
  24 H :    0.114586
  25 H :    0.124767
  26 H :    0.101749
  27 H :    0.100034
  28 H :    0.284395

  Mayer bond orders larger than 0.100000
B(  0-C ,  1-C ) :   0.9459 B(  0-C ,  4-O ) :   0.8492 B(  0-C ,  5-H ) :   0.9155
B(  0-C , 15-O ) :   0.8945 B(  1-C ,  2-C ) :   0.9564 B(  1-C ,  6-H ) :   0.9391
B(  1-C ,  7-H ) :   0.9370 B(  2-C ,  3-C ) :   0.9563 B(  2-C ,  8-H ) :   0.9440
B(  2-C ,  9-H ) :   0.9427 B(  3-C ,  4-O ) :   0.8093 B(  3-C , 10-H ) :   0.9286
B(  3-C , 11-H ) :   0.9414 B( 12-C , 13-H ) :   0.9342 B( 12-C , 14-H ) :   0.9040
B( 12-C , 15-O ) :   0.8429 B( 12-C , 16-C ) :   0.9048 B( 16-C , 17-C ) :   0.8819
B( 16-C , 20-O ) :   0.8741 B( 16-C , 21-H ) :   0.9197 B( 17-C , 18-C ) :   0.9389
B( 17-C , 22-H ) :   0.9368 B( 17-C , 23-O ) :   0.9174 B( 18-C , 19-C ) :   0.9460
B( 18-C , 24-H ) :   0.9446 B( 18-C , 25-H ) :   0.9072 B( 19-C , 20-O ) :   0.8431
B( 19-C , 26-H ) :   0.9325 B( 19-C , 27-H ) :   0.9378 B( 23-O , 28-H ) :   0.7309

FINAL SINGLE POINT ENERGY      -652.868324119768

DIPOLE MOMENT
-------------
                                X             Y             Z
Electronic contribution:     -2.73483      -3.64572      -1.25782
Nuclear contribution   :      3.75940       4.71531       1.19152
                        -----------------------------------------
Total Dipole Moment    :      1.02457       1.06959      -0.06630
                        -----------------------------------------
Magnitude (a.u.)       :      1.48262
Magnitude (Debye)      :      3.76851

Rotational constants in cm-1:     0.043263     0.018697     0.018269
Rotational constants in MHz :  1296.987460   560.527975   547.676832

                             ****ORCA TERMINATED NORMALLY****
TOTAL RUN TIME: 0 days 0 hours 27 minutes 57 seconds 360 msec
