                         Program Version 4.2.1 -  RELEASE  -
|  1> # Test redundant internal optimization
|  2> #
|  3> ! RKS B3LYP  Opt TightSCF SmallPrint
|  4>
|  5> %basis
|  6>         Basis "6-31G"
|  7> end
|  8>
|  9> %geom
| 10> Constraints
| 11> { D 4  0  19  14  195.0   C } # D for Dihedral angle
| 12> { D 0  19  14  12  345.0   C } # D for Dihedral angle
| 13> { D 0  4  3  2   C } # D for Dihedral angle
| 14> { D 4  3  2  1   C } # D for Dihedral angle
| 15> { D 3  2  1  0   C } # D for Dihedral angle
| 16> { D 2  1  0  4   C } # D for Dihedral angle
| 17> { D 1  0  4  3   C } # D for Dihedral angle
| 18> { D 14  15  16  17   C } # D for Dihedral angle
| 19> { D 15  16  17  12   C } # D for Dihedral angle
| 20> { D 16  17  12  14   C } # D for Dihedral angle
| 21> { D 17  12  14  15   C } # D for Dihedral angle
| 22> { D 12  14  15  16   C } # D for Dihedral angle
| 23> end
| 24> end
| 25>
| 26>
| 27> #%pal
| 28> #nprocs 8
| 29> #end
| 30>
| 31> * xyz 0 1
| 32> C  -21.048   26.222   46.251
| 33> C  -20.361   27.558   45.944
| 34> C  -20.329   28.222   47.341
| 35> C  -20.110   27.022   48.296
| 36> O  -20.473   25.807   47.535
| 37> H  -20.833   25.428   45.533
| 38> H  -19.344   27.382   45.576
| 39> H  -20.898   28.157   45.201
| 40> H  -19.543   28.978   47.434
| 41> H  -21.289   28.710   47.548
| 42> H  -20.733   27.082   49.195
| 43> H  -19.064   26.913   48.597
| 44> C  -22.166   26.709   43.974
| 45> H  -22.677   27.053   43.061
| 46> C  -23.163   26.451   45.109
| 47> C  -23.731   25.067   44.719
| 48> C  -22.510   24.349   44.093
| 49> O  -21.534   25.405   43.746
| 50> H  -21.368   27.411   44.223
| 51> O  -22.472   26.381   46.366
| 52> H  -23.938   27.222   45.183
| 53> H  -24.143   24.520   45.574
| 54> H  -24.533   25.182   43.978
| 55> H  -22.769   23.789   43.188
| 56> H  -22.016   23.673   44.797
| 57> *
| 58>
| 59>                          ****END OF INPUT****
 Total Charge           Charge          ....    0
 Multiplicity           Mult            ....    1
 Number of Electrons    NEL             ....   86
FINAL SINGLE POINT ENERGY      -538.393154923890
FINAL SINGLE POINT ENERGY      -538.423782237391
FINAL SINGLE POINT ENERGY      -538.425914690352
FINAL SINGLE POINT ENERGY      -538.426247716581
FINAL SINGLE POINT ENERGY      -538.426321874765
FINAL SINGLE POINT ENERGY      -538.426341099783
                    ***********************HURRAY********************

CARTESIAN COORDINATES (ANGSTROEM)
---------------------------------
  C    -20.812484   26.227784   46.272843
  C    -20.111510   27.570937   46.060908
  C    -20.318097   28.268276   47.434416
  C    -20.234025   27.084070   48.420944
  O    -20.450867   25.863520   47.610657
  H    -20.502250   25.429705   45.596270
  H    -19.046255   27.389938   45.872270
  H    -20.510032   28.159842   45.234980
  H    -19.564386   29.035579   47.633460
  H    -21.308629   28.730639   47.467901
  H    -20.995071   27.121655   49.205014
  H    -19.245540   26.984727   48.880201
  C    -22.348822   26.673589   43.731153
  H    -23.080822   26.991968   42.973984
  C    -23.077639   26.420425   45.054052
  C    -23.706276   25.034983   44.799598
  C    -22.651933   24.311428   43.931808
  O    -21.770807   25.372105   43.374186
  H    -21.536209   27.395988   43.756967
  O    -22.271162   26.369110   46.277150
  H    -23.835677   27.183947   45.254418
  H    -23.905249   24.531643   45.747339
  H    -24.651643   25.147473   44.255162
  H    -23.094579   23.752793   43.101006
  H    -22.015039   23.640876   44.515310

 Multiplicity           Mult            ....    1
 Number of Electrons    NEL             ....   86
 Basis Dimension        Dim             ....  127

ORBITAL ENERGIES
----------------

  NO   OCC          E(Eh)            E(eV)
   0   2.0000     -19.139591      -520.8148
   1   2.0000     -19.135118      -520.6930
   2   2.0000     -19.132262      -520.6153
   3   2.0000     -10.273635      -279.5598
   4   2.0000     -10.242720      -278.7186
   5   2.0000     -10.231553      -278.4147
   6   2.0000     -10.225240      -278.2429
   7   2.0000     -10.220683      -278.1189
   8   2.0000     -10.183885      -277.1176
   9   2.0000     -10.182956      -277.0923
  10   2.0000     -10.182631      -277.0835
  11   2.0000      -1.047329       -28.4993
  12   2.0000      -1.019699       -27.7474
  13   2.0000      -0.982451       -26.7338
  14   2.0000      -0.786699       -21.4072
  15   2.0000      -0.777513       -21.1572
  16   2.0000      -0.742087       -20.1932
  17   2.0000      -0.724627       -19.7181
  18   2.0000      -0.617239       -16.7959
  19   2.0000      -0.603015       -16.4089
  20   2.0000      -0.593552       -16.1514
  21   2.0000      -0.565271       -15.3818
  22   2.0000      -0.519417       -14.1341
  23   2.0000      -0.502222       -13.6662
  24   2.0000      -0.484945       -13.1960
  25   2.0000      -0.482821       -13.1382
  26   2.0000      -0.451339       -12.2816
  27   2.0000      -0.446463       -12.1489
  28   2.0000      -0.429295       -11.6817
  29   2.0000      -0.411579       -11.1996
  30   2.0000      -0.405974       -11.0471
  31   2.0000      -0.388743       -10.5782
  32   2.0000      -0.374989       -10.2040
  33   2.0000      -0.367268        -9.9939
  34   2.0000      -0.360297        -9.8042
  35   2.0000      -0.349632        -9.5140
  36   2.0000      -0.347227        -9.4485
  37   2.0000      -0.319694        -8.6993
  38   2.0000      -0.305601        -8.3158
  39   2.0000      -0.292251        -7.9526
  40   2.0000      -0.256124        -6.9695
  41   2.0000      -0.246180        -6.6989
  42   2.0000      -0.241883        -6.5820
  43   0.0000       0.076245         2.0747
  44   0.0000       0.090274         2.4565
  45   0.0000       0.099582         2.7098
  46   0.0000       0.106779         2.9056
  47   0.0000       0.118168         3.2155

MULLIKEN ATOMIC CHARGES
-----------------------
   0 C :    0.295596
   1 C :   -0.272981
   2 C :   -0.298983
   3 C :    0.001125
   4 O :   -0.503196
   5 H :    0.167981
   6 H :    0.148572
   7 H :    0.139207
   8 H :    0.139769
   9 H :    0.156741
  10 H :    0.151769
  11 H :    0.140198
  12 C :   -0.039814
  13 H :    0.136513
  14 C :    0.083884
  15 C :   -0.290258
  16 C :   -0.013915
  17 O :   -0.527369
  18 H :    0.159946
  19 O :   -0.529527
  20 H :    0.145911
  21 H :    0.173638
  22 H :    0.138741
  23 H :    0.142177
  24 H :    0.154276
Sum of atomic charges:   -0.0000000

LOEWDIN ATOMIC CHARGES
----------------------
   0 C :    0.181737
   1 C :   -0.229785
   2 C :   -0.217618
   3 C :   -0.025544
   4 O :   -0.302777
   5 H :    0.109369
   6 H :    0.116012
   7 H :    0.109831
   8 H :    0.113234
   9 H :    0.116264
  10 H :    0.107744
  11 H :    0.101222
  12 C :   -0.055284
  13 H :    0.100130
  14 C :    0.041796
  15 C :   -0.232503
  16 C :   -0.033157
  17 O :   -0.337891
  18 H :    0.114435
  19 O :   -0.340244
  20 H :    0.109957
  21 H :    0.132642
  22 H :    0.110867
  23 H :    0.102646
  24 H :    0.106916

  Mayer bond orders larger than 0.100000
B(  0-C ,  1-C ) :   0.9310 B(  0-C ,  4-O ) :   0.9266 B(  0-C ,  5-H ) :   0.9069
B(  0-C , 19-O ) :   0.8160 B(  1-C ,  2-C ) :   0.9491 B(  1-C ,  6-H ) :   0.9338
B(  1-C ,  7-H ) :   0.9289 B(  2-C ,  3-C ) :   0.9551 B(  2-C ,  8-H ) :   0.9450
B(  2-C ,  9-H ) :   0.9448 B(  3-C ,  4-O ) :   0.8361 B(  3-C , 10-H ) :   0.9351
B(  3-C , 11-H ) :   0.9399 B( 12-C , 13-H ) :   0.9126 B( 12-C , 14-C ) :   0.9245
B( 12-C , 17-O ) :   0.8557 B( 12-C , 18-H ) :   0.9204 B( 14-C , 15-C ) :   0.9274
B( 14-C , 19-O ) :   0.8661 B( 14-C , 20-H ) :   0.9315 B( 15-C , 16-C ) :   0.9471
B( 15-C , 21-H ) :   0.9352 B( 15-C , 22-H ) :   0.9378 B( 16-C , 17-O ) :   0.8424
B( 16-C , 23-H ) :   0.9360 B( 16-C , 24-H ) :   0.9358

FINAL SINGLE POINT ENERGY      -538.426342769263

DIPOLE MOMENT
-------------
                                X             Y             Z
Electronic contribution:      0.27708      -2.50610       0.31661
Nuclear contribution   :     -0.70521       3.33112      -0.58045
                        -----------------------------------------
Total Dipole Moment    :     -0.42814       0.82502      -0.26384
                        -----------------------------------------
Magnitude (a.u.)       :      0.96621
Magnitude (Debye)      :      2.45591

Rotational constants in cm-1:     0.080700     0.022330     0.021233
Rotational constants in MHz :  2419.310496   669.429188   636.544580

                             ****ORCA TERMINATED NORMALLY****
TOTAL RUN TIME: 0 days 0 hours 7 minutes 15 seconds 743 msec
