                         Program Version 4.2.0 -  RELEASE  -
|  1> # Test redundant internal optimization
|  2> #
|  3> ! RKS B3LYP  Opt TightSCF SmallPrint
|  4>
|  5> %basis
|  6>         Basis "6-31G"
|  7> end
|  8>
|  9> %geom
| 10> Constraints
| 11> { D 4  0  15  12  60.0   C } # D for Dihedral angle
| 12> { D 0  15  12  16  225.0   C } # D for Dihedral angle
| 13> { D 0  4  3  2   C } # D for Dihedral angle
| 14> { D 4  3  2  1   C } # D for Dihedral angle
| 15> { D 3  2  1  0   C } # D for Dihedral angle
| 16> { D 2  1  0  4   C } # D for Dihedral angle
| 17> { D 1  0  4  3   C } # D for Dihedral angle
| 18> { D 16  20  19  18   C } # D for Dihedral angle
| 19> { D 20  19  18  17   C } # D for Dihedral angle
| 20> { D 19  18  17  16   C } # D for Dihedral angle
| 21> { D 18  17  16  20   C } # D for Dihedral angle
| 22> { D 17  16  20  19   C } # D for Dihedral angle
| 23> { D 15  12  16  20   C } # D for Dihedral angle
| 24> end
| 25> end
| 26>
| 27>
| 28> #%pal
| 29> #nprocs 8
| 30> #end
| 31>
| 32> * xyz 0 1
| 33> C  -21.048   26.222   46.251
| 34> C  -20.361   27.558   45.944
| 35> C  -20.329   28.222   47.341
| 36> C  -20.110   27.022   48.296
| 37> O  -20.473   25.807   47.535
| 38> H  -20.833   25.428   45.533
| 39> H  -19.344   27.382   45.576
| 40> H  -20.898   28.157   45.201
| 41> H  -19.543   28.978   47.434
| 42> H  -21.289   28.710   47.548
| 43> H  -20.733   27.082   49.195
| 44> H  -19.064   26.913   48.597
| 45> C  -23.051   27.452   47.413
| 46> H  -22.208   27.713   48.066
| 47> H  -23.388   28.365   46.907
| 48> O  -22.586   26.394   46.375
| 49> C  -24.219   26.946   48.304
| 50> C  -23.781   25.767   49.180
| 51> C  -23.021   26.488   50.319
| 52> C  -23.819   27.804   50.496
| 53> O  -24.617   27.981   49.264
| 54> H  -25.087   26.743   47.674
| 55> O  -25.027   25.025   49.737
| 56> H  -23.158   25.041   48.647
| 57> H  -22.978   25.899   51.240
| 58> H  -21.991   26.700   50.008
| 59> H  -23.169   28.675   50.631
| 60> H  -24.523   27.756   51.332
| 61> H  -25.667   25.733   50.277
| 62> *
| 63>
| 64>                          ****END OF INPUT****
 Total Charge           Charge          ....    0
 Multiplicity           Mult            ....    1
 Number of Electrons    NEL             ....  102
FINAL SINGLE POINT ENERGY      -652.805798836792
FINAL SINGLE POINT ENERGY      -652.838713292747
FINAL SINGLE POINT ENERGY      -652.856175786940
FINAL SINGLE POINT ENERGY      -652.858841655909
FINAL SINGLE POINT ENERGY      -652.859247440047
FINAL SINGLE POINT ENERGY      -652.859327187055
FINAL SINGLE POINT ENERGY      -652.859335486378
FINAL SINGLE POINT ENERGY      -652.859336274381
                    ***********************HURRAY********************

CARTESIAN COORDINATES (ANGSTROEM)
---------------------------------
  C    -21.192574   26.340264   46.430785
  C    -20.356241   27.487461   45.843386
  C    -19.937359   28.270084   47.122555
  C    -19.749834   27.138539   48.165353
  O    -20.464993   25.954513   47.623828
  H    -21.197975   25.457350   45.789797
  H    -19.479770   27.061236   45.344699
  H    -20.915496   28.090935   45.124015
  H    -19.014123   28.839724   46.976690
  H    -20.714869   28.978269   47.420987
  H    -20.158317   27.385035   49.150564
  H    -18.701189   26.849374   48.280098
  C    -23.114738   27.566422   47.550508
  H    -22.339914   27.923671   48.233759
  H    -23.504895   28.419700   46.985380
  O    -22.599534   26.558391   46.629408
  C    -24.242563   26.916783   48.354952
  C    -23.820181   25.733822   49.238062
  C    -23.216274   26.461078   50.466790
  C    -24.102693   27.723215   50.603186
  O    -24.792731   27.897661   49.299305
  H    -25.052937   26.625252   47.681341
  O    -24.975650   24.928085   49.602238
  H    -23.123421   25.058539   48.745882
  H    -23.251401   25.818307   51.350191
  H    -22.169859   26.717676   50.272234
  H    -23.527523   28.628175   50.823977
  H    -24.880736   27.611812   51.364652
  H    -25.717210   25.521626   49.846379

 Multiplicity           Mult            ....    1
 Number of Electrons    NEL             ....  102
 Basis Dimension        Dim             ....  149

ORBITAL ENERGIES
----------------

  NO   OCC          E(Eh)            E(eV)
   0   2.0000     -19.151110      -521.1282
   1   2.0000     -19.148935      -521.0690
   2   2.0000     -19.143484      -520.9207
   3   2.0000     -19.130415      -520.5651
   4   2.0000     -10.284001      -279.8419
   5   2.0000     -10.238000      -278.5901
   6   2.0000     -10.233705      -278.4733
   7   2.0000     -10.230491      -278.3858
   8   2.0000     -10.229964      -278.3715
   9   2.0000     -10.229501      -278.3589
  10   2.0000     -10.199408      -277.5400
  11   2.0000     -10.195298      -277.4282
  12   2.0000     -10.184411      -277.1319
  13   2.0000      -1.058397       -28.8004
  14   2.0000      -1.033152       -28.1135
  15   2.0000      -1.002843       -27.2888
  16   2.0000      -0.999162       -27.1886
  17   2.0000      -0.794842       -21.6288
  18   2.0000      -0.780618       -21.2417
  19   2.0000      -0.769536       -20.9401
  20   2.0000      -0.735298       -20.0085
  21   2.0000      -0.679799       -18.4983
  22   2.0000      -0.610634       -16.6162
  23   2.0000      -0.601830       -16.3766
  24   2.0000      -0.597525       -16.2595
  25   2.0000      -0.577457       -15.7134
  26   2.0000      -0.524705       -14.2780
  27   2.0000      -0.512007       -13.9324
  28   2.0000      -0.508083       -13.8256
  29   2.0000      -0.490923       -13.3587
  30   2.0000      -0.475645       -12.9430
  31   2.0000      -0.457715       -12.4551
  32   2.0000      -0.453479       -12.3398
  33   2.0000      -0.436175       -11.8689
  34   2.0000      -0.423163       -11.5148
  35   2.0000      -0.421914       -11.4809
  36   2.0000      -0.410197       -11.1620
  37   2.0000      -0.389292       -10.5932
  38   2.0000      -0.386511       -10.5175
  39   2.0000      -0.368036       -10.0148
  40   2.0000      -0.363643        -9.8952
  41   2.0000      -0.361127        -9.8268
  42   2.0000      -0.350865        -9.5475
  43   2.0000      -0.330775        -9.0008
  44   2.0000      -0.321826        -8.7573
  45   2.0000      -0.311677        -8.4812
  46   2.0000      -0.302891        -8.2421
  47   2.0000      -0.276898        -7.5348
  48   2.0000      -0.264072        -7.1858
  49   2.0000      -0.259405        -7.0588
  50   2.0000      -0.242910        -6.6099
  51   0.0000       0.053781         1.4635
  52   0.0000       0.067352         1.8328
  53   0.0000       0.088833         2.4173
  54   0.0000       0.095613         2.6017
  55   0.0000       0.104438         2.8419

MULLIKEN ATOMIC CHARGES
-----------------------
   0 C :    0.297191
   1 C :   -0.269058
   2 C :   -0.320735
   3 C :   -0.018115
   4 O :   -0.507293
   5 H :    0.169788
   6 H :    0.155982
   7 H :    0.154157
   8 H :    0.149007
   9 H :    0.154399
  10 H :    0.139876
  11 H :    0.152879
  12 C :   -0.012641
  13 H :    0.129293
  14 H :    0.153125
  15 O :   -0.523190
  16 C :    0.061864
  17 C :    0.089580
  18 C :   -0.317548
  19 C :   -0.025219
  20 O :   -0.530617
  21 H :    0.168188
  22 O :   -0.603255
  23 H :    0.187293
  24 H :    0.163398
  25 H :    0.156067
  26 H :    0.137706
  27 H :    0.147126
  28 H :    0.360755
Sum of atomic charges:   -0.0000000

LOEWDIN ATOMIC CHARGES
----------------------
   0 C :    0.174191
   1 C :   -0.227124
   2 C :   -0.225472
   3 C :   -0.036197
   4 O :   -0.324535
   5 H :    0.115036
   6 H :    0.121865
   7 H :    0.121774
   8 H :    0.117644
   9 H :    0.111515
  10 H :    0.096708
  11 H :    0.107540
  12 C :   -0.040330
  13 H :    0.096591
  14 H :    0.109570
  15 O :   -0.319729
  16 C :    0.016263
  17 C :    0.038353
  18 C :   -0.244533
  19 C :   -0.038515
  20 O :   -0.333707
  21 H :    0.119175
  22 O :   -0.414227
  23 H :    0.132693
  24 H :    0.127313
  25 H :    0.114863
  26 H :    0.100026
  27 H :    0.103127
  28 H :    0.280122

  Mayer bond orders larger than 0.100000
B(  0-C ,  1-C ) :   0.9170 B(  0-C ,  4-O ) :   0.8918 B(  0-C ,  5-H ) :   0.9351
B(  0-C , 15-O ) :   0.9023 B(  1-C ,  2-C ) :   0.9541 B(  1-C ,  6-H ) :   0.9350
B(  1-C ,  7-H ) :   0.9375 B(  2-C ,  3-C ) :   0.9464 B(  2-C ,  8-H ) :   0.9443
B(  2-C ,  9-H ) :   0.9407 B(  3-C ,  4-O ) :   0.8470 B(  3-C , 10-H ) :   0.9256
B(  3-C , 11-H ) :   0.9380 B( 12-C , 13-H ) :   0.9142 B( 12-C , 14-H ) :   0.9264
B( 12-C , 15-O ) :   0.8224 B( 12-C , 16-C ) :   0.8967 B( 16-C , 17-C ) :   0.9129
B( 16-C , 20-O ) :   0.8431 B( 16-C , 21-H ) :   0.9254 B( 17-C , 18-C ) :   0.9119
B( 17-C , 22-O ) :   0.8860 B( 17-C , 23-H ) :   0.9184 B( 18-C , 19-C ) :   0.9394
B( 18-C , 24-H ) :   0.9382 B( 18-C , 25-H ) :   0.9269 B( 19-C , 20-O ) :   0.8438
B( 19-C , 26-H ) :   0.9371 B( 19-C , 27-H ) :   0.9383 B( 22-O , 28-H ) :   0.7968

FINAL SINGLE POINT ENERGY      -652.859325235976

DIPOLE MOMENT
-------------
                                X             Y             Z
Electronic contribution:     -5.10674      -4.00848      -1.34355
Nuclear contribution   :      6.28501       5.31748       1.45269
                        -----------------------------------------
Total Dipole Moment    :      1.17827       1.30900       0.10914
                        -----------------------------------------
Magnitude (a.u.)       :      1.76457
Magnitude (Debye)      :      4.48519

Rotational constants in cm-1:     0.048666     0.015450     0.015139
Rotational constants in MHz :  1458.974115   463.172388   453.870525

                             ****ORCA TERMINATED NORMALLY****
TOTAL RUN TIME: 0 days 0 hours 39 minutes 6 seconds 595 msec
