                         Program Version 4.2.0 -  RELEASE  -
|  1> # Test redundant internal optimization
|  2> #
|  3> ! RKS B3LYP  Opt TightSCF SmallPrint
|  4>
|  5> %basis
|  6>         Basis "6-31G"
|  7> end
|  8>
|  9> %geom
| 10> Constraints
| 11> { D 4  0  15  12  180.0   C } # D for Dihedral angle
| 12> { D 0  15  12  16  165.0   C } # D for Dihedral angle
| 13> { D 0  4  3  2   C } # D for Dihedral angle
| 14> { D 4  3  2  1   C } # D for Dihedral angle
| 15> { D 3  2  1  0   C } # D for Dihedral angle
| 16> { D 2  1  0  4   C } # D for Dihedral angle
| 17> { D 1  0  4  3   C } # D for Dihedral angle
| 18> { D 16  20  19  18   C } # D for Dihedral angle
| 19> { D 20  19  18  17   C } # D for Dihedral angle
| 20> { D 19  18  17  16   C } # D for Dihedral angle
| 21> { D 18  17  16  20   C } # D for Dihedral angle
| 22> { D 17  16  20  19   C } # D for Dihedral angle
| 23> { D 15  12  16  20   C } # D for Dihedral angle
| 24> end
| 25> end
| 26>
| 27>
| 28> #%pal
| 29> #nprocs 8
| 30> #end
| 31>
| 32> * xyz 0 1
| 33> C  -21.048   26.222   46.251
| 34> C  -20.361   27.558   45.944
| 35> C  -20.329   28.222   47.341
| 36> C  -20.110   27.022   48.296
| 37> O  -20.473   25.807   47.535
| 38> H  -20.833   25.428   45.533
| 39> H  -19.344   27.382   45.576
| 40> H  -20.898   28.157   45.201
| 41> H  -19.543   28.978   47.434
| 42> H  -21.289   28.710   47.548
| 43> H  -20.733   27.082   49.195
| 44> H  -19.064   26.913   48.597
| 45> C  -23.309   26.834   45.072
| 46> H  -23.107   27.896   44.887
| 47> H  -22.936   26.260   44.214
| 48> O  -22.586   26.394   46.375
| 49> C  -24.848   26.633   45.142
| 50> C  -25.478   27.534   46.211
| 51> C  -25.534   28.896   45.479
| 52> C  -25.825   28.495   44.011
| 53> O  -25.478   27.063   43.890
| 54> H  -25.065   25.570   45.261
| 55> O  -26.909   27.035   46.550
| 56> H  -24.898   27.573   47.139
| 57> H  -26.296   29.566   45.888
| 58> H  -24.565   29.404   45.557
| 59> H  -25.230   29.071   43.294
| 60> H  -26.883   28.595   43.753
| 61> H  -27.511   26.988   45.635
| 62> *
| 63>
| 64>                          ****END OF INPUT****
 Total Charge           Charge          ....    0
 Multiplicity           Mult            ....    1
 Number of Electrons    NEL             ....  102
FINAL SINGLE POINT ENERGY      -652.834211535915
FINAL SINGLE POINT ENERGY      -652.857607972627
FINAL SINGLE POINT ENERGY      -652.861370653388
FINAL SINGLE POINT ENERGY      -652.862024566759
FINAL SINGLE POINT ENERGY      -652.862119965927
FINAL SINGLE POINT ENERGY      -652.862132654454
                    ***********************HURRAY********************

CARTESIAN COORDINATES (ANGSTROEM)
---------------------------------
  C    -21.147861   26.234988   46.181681
  C    -20.357901   27.513926   45.911692
  C    -20.421243   28.228573   47.284894
  C    -20.370117   27.053134   48.282373
  O    -20.736045   25.845342   47.496336
  H    -20.937951   25.402678   45.501314
  H    -19.325500   27.244952   45.659821
  H    -20.757197   28.119466   45.093582
  H    -19.597700   28.934451   47.427882
  H    -21.364713   28.774712   47.378408
  H    -21.076173   27.155599   49.109861
  H    -19.366739   26.874217   48.679280
  C    -23.216409   26.873101   44.985301
  H    -22.979105   27.918483   44.745040
  H    -22.876668   26.247604   44.147625
  O    -22.588785   26.464210   46.230768
  C    -24.721835   26.687320   45.163424
  C    -25.358993   27.558127   46.256530
  C    -25.504572   28.917849   45.527161
  C    -25.825155   28.506171   44.068701
  O    -25.412913   27.085902   43.932052
  H    -24.938741   25.629380   45.332376
  O    -26.652726   27.023776   46.652489
  H    -24.762466   27.602196   47.166148
  H    -26.295209   29.517900   45.984213
  H    -24.567627   29.482796   45.585175
  H    -25.287426   29.104881   43.327529
  H    -26.895338   28.552475   43.845187
  H    -27.139891   26.733790   45.852159

 Multiplicity           Mult            ....    1
 Number of Electrons    NEL             ....  102
 Basis Dimension        Dim             ....  149

ORBITAL ENERGIES
----------------

  NO   OCC          E(Eh)            E(eV)
   0   2.0000     -19.146454      -521.0015
   1   2.0000     -19.145977      -520.9885
   2   2.0000     -19.143755      -520.9281
   3   2.0000     -19.133914      -520.6603
   4   2.0000     -10.283674      -279.8330
   5   2.0000     -10.235411      -278.5197
   6   2.0000     -10.234513      -278.4953
   7   2.0000     -10.233679      -278.4726
   8   2.0000     -10.232848      -278.4500
   9   2.0000     -10.228319      -278.3267
  10   2.0000     -10.192394      -277.3491
  11   2.0000     -10.191783      -277.3325
  12   2.0000     -10.188501      -277.2432
  13   2.0000      -1.057907       -28.7871
  14   2.0000      -1.036452       -28.2033
  15   2.0000      -1.004023       -27.3208
  16   2.0000      -0.998880       -27.1809
  17   2.0000      -0.791467       -21.5369
  18   2.0000      -0.780718       -21.2444
  19   2.0000      -0.769735       -20.9455
  20   2.0000      -0.733193       -19.9512
  21   2.0000      -0.677952       -18.4480
  22   2.0000      -0.605852       -16.4861
  23   2.0000      -0.604491       -16.4490
  24   2.0000      -0.593215       -16.1422
  25   2.0000      -0.580700       -15.8017
  26   2.0000      -0.525107       -14.2889
  27   2.0000      -0.516944       -14.0668
  28   2.0000      -0.501829       -13.6555
  29   2.0000      -0.493190       -13.4204
  30   2.0000      -0.473904       -12.8956
  31   2.0000      -0.456455       -12.4208
  32   2.0000      -0.453156       -12.3310
  33   2.0000      -0.447018       -12.1640
  34   2.0000      -0.426631       -11.6092
  35   2.0000      -0.415230       -11.2990
  36   2.0000      -0.403534       -10.9807
  37   2.0000      -0.392580       -10.6826
  38   2.0000      -0.380045       -10.3416
  39   2.0000      -0.368355       -10.0235
  40   2.0000      -0.364135        -9.9086
  41   2.0000      -0.359739        -9.7890
  42   2.0000      -0.355840        -9.6829
  43   2.0000      -0.334008        -9.0888
  44   2.0000      -0.317918        -8.6510
  45   2.0000      -0.310305        -8.4438
  46   2.0000      -0.301952        -8.2165
  47   2.0000      -0.272027        -7.4022
  48   2.0000      -0.261441        -7.1142
  49   2.0000      -0.259214        -7.0536
  50   2.0000      -0.247397        -6.7320
  51   0.0000       0.062714         1.7065
  52   0.0000       0.066672         1.8142
  53   0.0000       0.094313         2.5664
  54   0.0000       0.098422         2.6782
  55   0.0000       0.103029         2.8036

MULLIKEN ATOMIC CHARGES
-----------------------
   0 C :    0.312377
   1 C :   -0.285157
   2 C :   -0.296954
   3 C :   -0.002036
   4 O :   -0.501095
   5 H :    0.144471
   6 H :    0.150743
   7 H :    0.143353
   8 H :    0.144373
   9 H :    0.154890
  10 H :    0.156611
  11 H :    0.144263
  12 C :   -0.007042
  13 H :    0.122363
  14 H :    0.142931
  15 O :   -0.517868
  16 C :    0.054855
  17 C :    0.091232
  18 C :   -0.301184
  19 C :   -0.030771
  20 O :   -0.528460
  21 H :    0.171354
  22 O :   -0.602798
  23 H :    0.177969
  24 H :    0.164752
  25 H :    0.141005
  26 H :    0.145615
  27 H :    0.147592
  28 H :    0.362615
Sum of atomic charges:    0.0000000

LOEWDIN ATOMIC CHARGES
----------------------
   0 C :    0.182201
   1 C :   -0.232853
   2 C :   -0.216600
   3 C :   -0.024718
   4 O :   -0.300720
   5 H :    0.098600
   6 H :    0.117606
   7 H :    0.113497
   8 H :    0.115444
   9 H :    0.114714
  10 H :    0.110629
  11 H :    0.103893
  12 C :   -0.042533
  13 H :    0.087055
  14 H :    0.102473
  15 O :   -0.336525
  16 C :    0.018633
  17 C :    0.039092
  18 C :   -0.242552
  19 C :   -0.038492
  20 O :   -0.331691
  21 H :    0.121480
  22 O :   -0.413938
  23 H :    0.128458
  24 H :    0.127407
  25 H :    0.111320
  26 H :    0.103386
  27 H :    0.103303
  28 H :    0.281433

  Mayer bond orders larger than 0.100000
B(  0-C ,  1-C ) :   0.9266 B(  0-C ,  4-O ) :   0.9425 B(  0-C ,  5-H ) :   0.9203
B(  0-C , 15-O ) :   0.8245 B(  1-C ,  2-C ) :   0.9510 B(  1-C ,  6-H ) :   0.9340
B(  1-C ,  7-H ) :   0.9318 B(  2-C ,  3-C ) :   0.9554 B(  2-C ,  8-H ) :   0.9450
B(  2-C ,  9-H ) :   0.9456 B(  3-C ,  4-O ) :   0.8341 B(  3-C , 10-H ) :   0.9342
B(  3-C , 11-H ) :   0.9395 B( 12-C , 13-H ) :   0.9129 B( 12-C , 14-H ) :   0.9146
B( 12-C , 15-O ) :   0.8318 B( 12-C , 16-C ) :   0.9034 B( 16-C , 17-C ) :   0.9154
B( 16-C , 20-O ) :   0.8427 B( 16-C , 21-H ) :   0.9241 B( 17-C , 18-C ) :   0.9121
B( 17-C , 22-O ) :   0.8891 B( 17-C , 23-H ) :   0.9231 B( 18-C , 19-C ) :   0.9419
B( 18-C , 24-H ) :   0.9372 B( 18-C , 25-H ) :   0.9349 B( 19-C , 20-O ) :   0.8440
B( 19-C , 26-H ) :   0.9354 B( 19-C , 27-H ) :   0.9383 B( 22-O , 28-H ) :   0.7957

FINAL SINGLE POINT ENERGY      -652.862134279792

DIPOLE MOMENT
-------------
                                X             Y             Z
Electronic contribution:     -3.25806      -5.87379       0.36618
Nuclear contribution   :      4.07545       7.28932      -1.06776
                        -----------------------------------------
Total Dipole Moment    :      0.81739       1.41553      -0.70158
                        -----------------------------------------
Magnitude (a.u.)       :      1.77878
Magnitude (Debye)      :      4.52131

Rotational constants in cm-1:     0.053871     0.012625     0.012253
Rotational constants in MHz :  1615.020066   378.483268   367.350110

                             ****ORCA TERMINATED NORMALLY****
TOTAL RUN TIME: 0 days 0 hours 48 minutes 14 seconds 948 msec
