                         Program Version 4.2.1 -  RELEASE  -
|  1> # Test redundant internal optimization
|  2> #
|  3> ! RKS B3LYP  Opt TightSCF SmallPrint
|  4>
|  5> %basis
|  6>         Basis "6-31G"
|  7> end
|  8>
|  9> %geom
| 10> Constraints
| 11> { D 4  0  19  14  255.0   C } # D for Dihedral angle
| 12> { D 0  19  14  12  30.0   C } # D for Dihedral angle
| 13> { D 0  4  3  2   C } # D for Dihedral angle
| 14> { D 4  3  2  1   C } # D for Dihedral angle
| 15> { D 3  2  1  0   C } # D for Dihedral angle
| 16> { D 2  1  0  4   C } # D for Dihedral angle
| 17> { D 1  0  4  3   C } # D for Dihedral angle
| 18> { D 14  15  16  17   C } # D for Dihedral angle
| 19> { D 15  16  17  12   C } # D for Dihedral angle
| 20> { D 16  17  12  14   C } # D for Dihedral angle
| 21> { D 17  12  14  15   C } # D for Dihedral angle
| 22> { D 12  14  15  16   C } # D for Dihedral angle
| 23> end
| 24> end
| 25>
| 26>
| 27> #%pal
| 28> #nprocs 8
| 29> #end
| 30>
| 31> * xyz 0 1
| 32> C  -21.048   26.222   46.251
| 33> C  -20.361   27.558   45.944
| 34> C  -20.329   28.222   47.341
| 35> C  -20.110   27.022   48.296
| 36> O  -20.473   25.807   47.535
| 37> H  -20.833   25.428   45.533
| 38> H  -19.344   27.382   45.576
| 39> H  -20.898   28.157   45.201
| 40> H  -19.543   28.978   47.434
| 41> H  -21.289   28.710   47.548
| 42> H  -20.733   27.082   49.195
| 43> H  -19.064   26.913   48.597
| 44> C  -22.450   24.008   45.827
| 45> H  -22.867   23.259   45.134
| 46> C  -23.236   25.322   45.767
| 47> C  -24.475   24.987   46.630
| 48> C  -23.900   24.054   47.725
| 49> O  -22.601   23.559   47.216
| 50> H  -21.380   24.111   45.639
| 51> O  -22.472   26.381   46.366
| 52> H  -23.498   25.620   44.746
| 53> H  -24.954   25.877   47.050
| 54> H  -25.224   24.458   46.026
| 55> H  -24.552   23.199   47.934
| 56> H  -23.698   24.583   48.661
| 57> *
| 58>
| 59>                          ****END OF INPUT****
 Total Charge           Charge          ....    0
 Multiplicity           Mult            ....    1
 Number of Electrons    NEL             ....   86
FINAL SINGLE POINT ENERGY      -538.410730653913
FINAL SINGLE POINT ENERGY      -538.427142455163
FINAL SINGLE POINT ENERGY      -538.428608665549
FINAL SINGLE POINT ENERGY      -538.428862331194
FINAL SINGLE POINT ENERGY      -538.428899687259
FINAL SINGLE POINT ENERGY      -538.428907313292
FINAL SINGLE POINT ENERGY      -538.428908239872
                    ***********************HURRAY********************

CARTESIAN COORDINATES (ANGSTROEM)
---------------------------------
  C    -20.865223   26.200751   46.244245
  C    -20.343172   27.613161   45.976045
  C    -20.456402   28.266980   47.375333
  C    -20.128097   27.096308   48.328844
  O    -20.305905   25.858713   47.531356
  H    -20.523249   25.441303   45.539492
  H    -19.295918   27.558993   45.656012
  H    -20.924378   28.129354   45.209210
  H    -19.774956   29.113403   47.502131
  H    -21.480502   28.617752   47.533116
  H    -20.789121   27.053553   49.198357
  H    -19.087609   27.104577   48.667884
  C    -22.613555   23.803011   45.728569
  H    -23.227879   23.182535   45.058592
  C    -23.168385   25.225244   45.733486
  C    -24.368892   25.087262   46.686224
  C    -23.881964   24.056436   47.732001
  O    -22.727321   23.361090   47.118749
  H    -21.567001   23.695020   45.442526
  O    -22.306104   26.269831   46.295275
  H    -23.468751   25.545807   44.727528
  H    -24.624076   26.055192   47.122047
  H    -25.238186   24.712070   46.133159
  H    -24.650821   23.319292   47.987046
  H    -23.514531   24.531362   48.644773

 Multiplicity           Mult            ....    1
 Number of Electrons    NEL             ....   86
 Basis Dimension        Dim             ....  127

ORBITAL ENERGIES
----------------

  NO   OCC          E(Eh)            E(eV)
   0   2.0000     -19.138062      -520.7731
   1   2.0000     -19.130607      -520.5703
   2   2.0000     -19.126292      -520.4529
   3   2.0000     -10.275273      -279.6044
   4   2.0000     -10.241171      -278.6764
   5   2.0000     -10.225002      -278.2365
   6   2.0000     -10.218481      -278.0590
   7   2.0000     -10.216576      -278.0072
   8   2.0000     -10.182576      -277.0820
   9   2.0000     -10.180803      -277.0337
  10   2.0000     -10.180481      -277.0250
  11   2.0000      -1.046720       -28.4827
  12   2.0000      -1.010872       -27.5072
  13   2.0000      -0.984853       -26.7992
  14   2.0000      -0.789589       -21.4858
  15   2.0000      -0.773436       -21.0463
  16   2.0000      -0.735776       -20.0215
  17   2.0000      -0.721425       -19.6310
  18   2.0000      -0.616426       -16.7738
  19   2.0000      -0.593164       -16.1408
  20   2.0000      -0.592856       -16.1324
  21   2.0000      -0.565231       -15.3807
  22   2.0000      -0.524687       -14.2775
  23   2.0000      -0.497644       -13.5416
  24   2.0000      -0.484426       -13.1819
  25   2.0000      -0.473533       -12.8855
  26   2.0000      -0.448080       -12.1929
  27   2.0000      -0.440601       -11.9894
  28   2.0000      -0.430340       -11.7102
  29   2.0000      -0.412121       -11.2144
  30   2.0000      -0.399171       -10.8620
  31   2.0000      -0.375715       -10.2237
  32   2.0000      -0.370538       -10.0829
  33   2.0000      -0.362770        -9.8715
  34   2.0000      -0.358691        -9.7605
  35   2.0000      -0.351091        -9.5537
  36   2.0000      -0.341948        -9.3049
  37   2.0000      -0.317772        -8.6470
  38   2.0000      -0.302901        -8.2423
  39   2.0000      -0.291254        -7.9254
  40   2.0000      -0.260940        -7.1005
  41   2.0000      -0.242326        -6.5940
  42   2.0000      -0.232716        -6.3325
  43   0.0000       0.081476         2.2171
  44   0.0000       0.098974         2.6932
  45   0.0000       0.105003         2.8573
  46   0.0000       0.108713         2.9582
  47   0.0000       0.120681         3.2839

MULLIKEN ATOMIC CHARGES
-----------------------
   0 C :    0.291320
   1 C :   -0.252753
   2 C :   -0.297124
   3 C :   -0.000457
   4 O :   -0.496805
   5 H :    0.136487
   6 H :    0.141455
   7 H :    0.146035
   8 H :    0.137648
   9 H :    0.159560
  10 H :    0.146836
  11 H :    0.139449
  12 C :   -0.018551
  13 H :    0.130046
  14 C :    0.095284
  15 C :   -0.286734
  16 C :    0.000996
  17 O :   -0.514177
  18 H :    0.158035
  19 O :   -0.534339
  20 H :    0.128315
  21 H :    0.163210
  22 H :    0.134413
  23 H :    0.134608
  24 H :    0.157241
Sum of atomic charges:   -0.0000000

LOEWDIN ATOMIC CHARGES
----------------------
   0 C :    0.174936
   1 C :   -0.217250
   2 C :   -0.216268
   3 C :   -0.027408
   4 O :   -0.316527
   5 H :    0.096197
   6 H :    0.111393
   7 H :    0.118364
   8 H :    0.111958
   9 H :    0.117745
  10 H :    0.105128
  11 H :    0.101033
  12 C :   -0.049016
  13 H :    0.096246
  14 C :    0.044590
  15 C :   -0.223643
  16 C :   -0.027813
  17 O :   -0.325287
  18 H :    0.114886
  19 O :   -0.331494
  20 H :    0.096387
  21 H :    0.128400
  22 H :    0.108730
  23 H :    0.098098
  24 H :    0.110614

  Mayer bond orders larger than 0.100000
B(  0-C ,  1-C ) :   0.9421 B(  0-C ,  4-O ) :   0.9257 B(  0-C ,  5-H ) :   0.9164
B(  0-C , 19-O ) :   0.8470 B(  1-C ,  2-C ) :   0.9592 B(  1-C ,  6-H ) :   0.9393
B(  1-C ,  7-H ) :   0.9386 B(  2-C ,  3-C ) :   0.9530 B(  2-C ,  8-H ) :   0.9458
B(  2-C ,  9-H ) :   0.9445 B(  3-C ,  4-O ) :   0.8436 B(  3-C , 10-H ) :   0.9352
B(  3-C , 11-H ) :   0.9399 B( 12-C , 13-H ) :   0.9068 B( 12-C , 14-C ) :   0.9224
B( 12-C , 17-O ) :   0.8735 B( 12-C , 18-H ) :   0.9242 B( 14-C , 15-C ) :   0.9491
B( 14-C , 19-O ) :   0.8395 B( 14-C , 20-H ) :   0.9257 B( 15-C , 16-C ) :   0.9467
B( 15-C , 21-H ) :   0.9367 B( 15-C , 22-H ) :   0.9406 B( 16-C , 17-O ) :   0.8539
B( 16-C , 23-H ) :   0.9333 B( 16-C , 24-H ) :   0.9351

FINAL SINGLE POINT ENERGY      -538.428908415473

DIPOLE MOMENT
-------------
                                X             Y             Z
Electronic contribution:      0.78863      -3.14283       0.07705
Nuclear contribution   :     -1.18783       4.01141      -0.78790
                        -----------------------------------------
Total Dipole Moment    :     -0.39920       0.86857      -0.71085
                        -----------------------------------------
Magnitude (a.u.)       :      1.19125
Magnitude (Debye)      :      3.02793

Rotational constants in cm-1:     0.074018     0.022927     0.021908
Rotational constants in MHz :  2219.006167   687.330876   656.776931

                             ****ORCA TERMINATED NORMALLY****
TOTAL RUN TIME: 0 days 0 hours 8 minutes 8 seconds 813 msec
