                         Program Version 4.2.0 -  RELEASE  -
|  1> # Test redundant internal optimization
|  2> #
|  3> ! RKS B3LYP  Opt TightSCF SmallPrint
|  4>
|  5> %basis
|  6>         Basis "6-31G"
|  7> end
|  8>
|  9> %geom
| 10> Constraints
| 11> { D 4  0  15  12  330.0   C } # D for Dihedral angle
| 12> { D 0  15  12  16  135.0   C } # D for Dihedral angle
| 13> { D 0  4  3  2   C } # D for Dihedral angle
| 14> { D 4  3  2  1   C } # D for Dihedral angle
| 15> { D 3  2  1  0   C } # D for Dihedral angle
| 16> { D 2  1  0  4   C } # D for Dihedral angle
| 17> { D 1  0  4  3   C } # D for Dihedral angle
| 18> { D 16  20  19  18   C } # D for Dihedral angle
| 19> { D 20  19  18  17   C } # D for Dihedral angle
| 20> { D 19  18  17  16   C } # D for Dihedral angle
| 21> { D 18  17  16  20   C } # D for Dihedral angle
| 22> { D 17  16  20  19   C } # D for Dihedral angle
| 23> { D 15  12  16  20   C } # D for Dihedral angle
| 24> end
| 25> end
| 26>
| 27>
| 28> #%pal
| 29> #nprocs 8
| 30> #end
| 31>
| 32> * xyz 0 1
| 33> C  -21.048   26.222   46.251
| 34> C  -20.361   27.558   45.944
| 35> C  -20.329   28.222   47.341
| 36> C  -20.110   27.022   48.296
| 37> O  -20.473   25.807   47.535
| 38> H  -20.833   25.428   45.533
| 39> H  -19.344   27.382   45.576
| 40> H  -20.898   28.157   45.201
| 41> H  -19.543   28.978   47.434
| 42> H  -21.289   28.710   47.548
| 43> H  -20.733   27.082   49.195
| 44> H  -19.064   26.913   48.597
| 45> C  -23.271   25.476   47.424
| 46> H  -23.796   24.663   46.906
| 47> H  -22.522   25.030   48.091
| 48> O  -22.586   26.394   46.375
| 49> C  -24.298   26.236   48.308
| 50> C  -24.868   25.329   49.404
| 51> C  -23.726   25.344   50.448
| 52> C  -23.169   26.785   50.339
| 53> O  -23.639   27.320   49.043
| 54> H  -25.052   26.696   47.666
| 55> O  -26.160   25.954   49.996
| 56> H  -25.104   24.320   49.048
| 57> H  -24.072   25.106   51.460
| 58> H  -22.957   24.611   50.176
| 59> H  -22.073   26.814   50.363
| 60> H  -23.558   27.444   51.120
| 61> H  -25.946   26.966   50.360
| 62> *
| 63>
| 64>                          ****END OF INPUT****
 Total Charge           Charge          ....    0
 Multiplicity           Mult            ....    1
 Number of Electrons    NEL             ....  102
FINAL SINGLE POINT ENERGY      -652.835653244496
FINAL SINGLE POINT ENERGY      -652.859195605544
FINAL SINGLE POINT ENERGY      -652.864294836143
FINAL SINGLE POINT ENERGY      -652.865151520242
FINAL SINGLE POINT ENERGY      -652.865333371754
FINAL SINGLE POINT ENERGY      -652.865362759967
FINAL SINGLE POINT ENERGY      -652.865364926114
                    ***********************HURRAY********************

CARTESIAN COORDINATES (ANGSTROEM)
---------------------------------
  C    -21.092174   26.211146   46.265383
  C    -20.573207   27.620382   45.984176
  C    -20.420180   28.188738   47.411918
  C    -19.976413   26.964933   48.237923
  O    -20.335519   25.771675   47.415458
  H    -20.894654   25.470499   45.483779
  H    -19.606943   27.553249   45.470753
  H    -21.268153   28.194049   45.367172
  H    -19.696869   29.008494   47.463164
  H    -21.390742   28.543223   47.767728
  H    -20.483496   26.894446   49.201123
  H    -18.894180   26.913891   48.390733
  C    -23.150507   25.403210   47.443135
  H    -23.715040   24.630077   46.902112
  H    -22.377155   24.919579   48.049601
  O    -22.524133   26.298308   46.487054
  C    -24.113534   26.213410   48.308703
  C    -24.854605   25.404106   49.383686
  C    -23.819840   25.396861   50.538338
  C    -23.150366   26.787531   50.423339
  O    -23.451112   27.289415   49.057071
  H    -24.825318   26.715629   47.645620
  O    -26.092761   26.059899   49.770700
  H    -25.146866   24.404088   49.061413
  H    -24.314405   25.239169   51.499968
  H    -23.092142   24.591583   50.388195
  H    -22.066936   26.745337   50.564455
  H    -23.565500   27.513796   51.129257
  H    -25.929249   27.022277   49.866043

 Multiplicity           Mult            ....    1
 Number of Electrons    NEL             ....  102
 Basis Dimension        Dim             ....  149

ORBITAL ENERGIES
----------------

  NO   OCC          E(Eh)            E(eV)
   0   2.0000     -19.147058      -521.0179
   1   2.0000     -19.145727      -520.9817
   2   2.0000     -19.139342      -520.8080
   3   2.0000     -19.136167      -520.7216
   4   2.0000     -10.275689      -279.6157
   5   2.0000     -10.243942      -278.7518
   6   2.0000     -10.234300      -278.4895
   7   2.0000     -10.232864      -278.4504
   8   2.0000     -10.226729      -278.2834
   9   2.0000     -10.224961      -278.2353
  10   2.0000     -10.191444      -277.3233
  11   2.0000     -10.179602      -277.0010
  12   2.0000     -10.177103      -276.9330
  13   2.0000      -1.052073       -28.6284
  14   2.0000      -1.037213       -28.2240
  15   2.0000      -1.007740       -27.4220
  16   2.0000      -0.989753       -26.9325
  17   2.0000      -0.789287       -21.4776
  18   2.0000      -0.780974       -21.2514
  19   2.0000      -0.767017       -20.8716
  20   2.0000      -0.730990       -19.8913
  21   2.0000      -0.671972       -18.2853
  22   2.0000      -0.606975       -16.5166
  23   2.0000      -0.598349       -16.2819
  24   2.0000      -0.589390       -16.0381
  25   2.0000      -0.576230       -15.6800
  26   2.0000      -0.525304       -14.2942
  27   2.0000      -0.512379       -13.9425
  28   2.0000      -0.491553       -13.3758
  29   2.0000      -0.485899       -13.2220
  30   2.0000      -0.480233       -13.0678
  31   2.0000      -0.458923       -12.4879
  32   2.0000      -0.449231       -12.2242
  33   2.0000      -0.443684       -12.0733
  34   2.0000      -0.418709       -11.3937
  35   2.0000      -0.404451       -11.0057
  36   2.0000      -0.398743       -10.8503
  37   2.0000      -0.395529       -10.7629
  38   2.0000      -0.373525       -10.1641
  39   2.0000      -0.370446       -10.0804
  40   2.0000      -0.361033        -9.8242
  41   2.0000      -0.351956        -9.5772
  42   2.0000      -0.343787        -9.3549
  43   2.0000      -0.332418        -9.0456
  44   2.0000      -0.329836        -8.9753
  45   2.0000      -0.309519        -8.4224
  46   2.0000      -0.294394        -8.0109
  47   2.0000      -0.273151        -7.4328
  48   2.0000      -0.261586        -7.1181
  49   2.0000      -0.259212        -7.0535
  50   2.0000      -0.242422        -6.5966
  51   0.0000       0.058287         1.5861
  52   0.0000       0.086792         2.3617
  53   0.0000       0.094006         2.5580
  54   0.0000       0.099472         2.7068
  55   0.0000       0.101040         2.7494

MULLIKEN ATOMIC CHARGES
-----------------------
   0 C :    0.304192
   1 C :   -0.260670
   2 C :   -0.308668
   3 C :   -0.019892
   4 O :   -0.517866
   5 H :    0.144916
   6 H :    0.140277
   7 H :    0.160784
   8 H :    0.136755
   9 H :    0.189248
  10 H :    0.146722
  11 H :    0.144813
  12 C :   -0.010683
  13 H :    0.129914
  14 H :    0.159824
  15 O :   -0.531099
  16 C :    0.074684
  17 C :    0.074259
  18 C :   -0.288897
  19 C :   -0.042408
  20 O :   -0.516920
  21 H :    0.168188
  22 O :   -0.600565
  23 H :    0.152605
  24 H :    0.160970
  25 H :    0.148058
  26 H :    0.147569
  27 H :    0.149054
  28 H :    0.364840
Sum of atomic charges:   -0.0000000

LOEWDIN ATOMIC CHARGES
----------------------
   0 C :    0.182108
   1 C :   -0.215104
   2 C :   -0.221080
   3 C :   -0.029237
   4 O :   -0.325937
   5 H :    0.095969
   6 H :    0.111159
   7 H :    0.126432
   8 H :    0.112143
   9 H :    0.132064
  10 H :    0.101717
  11 H :    0.103149
  12 C :   -0.045346
  13 H :    0.098819
  14 H :    0.111135
  15 O :   -0.332684
  16 C :    0.014811
  17 C :    0.035670
  18 C :   -0.238684
  19 C :   -0.041461
  20 O :   -0.326230
  21 H :    0.119101
  22 O :   -0.413217
  23 H :    0.116415
  24 H :    0.126260
  25 H :    0.115389
  26 H :    0.100279
  27 H :    0.103156
  28 H :    0.283205

  Mayer bond orders larger than 0.100000
B(  0-C ,  1-C ) :   0.9449 B(  0-C ,  4-O ) :   0.9053 B(  0-C ,  5-H ) :   0.9248
B(  0-C , 15-O ) :   0.8470 B(  1-C ,  2-C ) :   0.9558 B(  1-C ,  6-H ) :   0.9382
B(  1-C ,  7-H ) :   0.9355 B(  2-C ,  3-C ) :   0.9597 B(  2-C ,  8-H ) :   0.9441
B(  2-C ,  9-H ) :   0.9276 B(  3-C ,  4-O ) :   0.8277 B(  3-C , 10-H ) :   0.9225
B(  3-C , 11-H ) :   0.9403 B( 12-C , 13-H ) :   0.9187 B( 12-C , 14-H ) :   0.9071
B( 12-C , 15-O ) :   0.8409 B( 12-C , 16-C ) :   0.8996 B( 16-C , 17-C ) :   0.8984
B( 16-C , 20-O ) :   0.8509 B( 16-C , 21-H ) :   0.9245 B( 17-C , 18-C ) :   0.9102
B( 17-C , 22-O ) :   0.8927 B( 17-C , 23-H ) :   0.9337 B( 18-C , 19-C ) :   0.9433
B( 18-C , 24-H ) :   0.9377 B( 18-C , 25-H ) :   0.9342 B( 19-C , 20-O ) :   0.8534
B( 19-C , 26-H ) :   0.9208 B( 19-C , 27-H ) :   0.9371 B( 22-O , 28-H ) :   0.7947

FINAL SINGLE POINT ENERGY      -652.865363690450

DIPOLE MOMENT
-------------
                                X             Y             Z
Electronic contribution:     -3.39862      -1.23083      -2.04493
Nuclear contribution   :      4.08873       1.34124       2.51546
                        -----------------------------------------
Total Dipole Moment    :      0.69011       0.11041       0.47053
                        -----------------------------------------
Magnitude (a.u.)       :      0.84252
Magnitude (Debye)      :      2.14152

Rotational constants in cm-1:     0.054198     0.015754     0.014519
Rotational constants in MHz :  1624.803846   472.285665   435.260676

                             ****ORCA TERMINATED NORMALLY****
TOTAL RUN TIME: 0 days 0 hours 20 minutes 17 seconds 639 msec
