                         Program Version 4.2.0 -  RELEASE  -
|  1> # Test redundant internal optimization
|  2> #
|  3> ! RKS B3LYP  Opt TightSCF SmallPrint
|  4>
|  5> %basis
|  6>         Basis "6-31G"
|  7> end
|  8>
|  9> %geom
| 10> Constraints
| 11> { D 4  0  15  12  0.0   C } # D for Dihedral angle
| 12> { D 0  15  12  16  150.0   C } # D for Dihedral angle
| 13> { D 0  4  3  2   C } # D for Dihedral angle
| 14> { D 4  3  2  1   C } # D for Dihedral angle
| 15> { D 3  2  1  0   C } # D for Dihedral angle
| 16> { D 2  1  0  4   C } # D for Dihedral angle
| 17> { D 1  0  4  3   C } # D for Dihedral angle
| 18> { D 16  20  19  18   C } # D for Dihedral angle
| 19> { D 20  19  18  17   C } # D for Dihedral angle
| 20> { D 19  18  17  16   C } # D for Dihedral angle
| 21> { D 18  17  16  20   C } # D for Dihedral angle
| 22> { D 17  16  20  19   C } # D for Dihedral angle
| 23> { D 15  12  16  20   C } # D for Dihedral angle
| 24> end
| 25> end
| 26>
| 27>
| 28> #%pal
| 29> #nprocs 8
| 30> #end
| 31>
| 32> * xyz 0 1
| 33> C  -21.048   26.222   46.251
| 34> C  -20.361   27.558   45.944
| 35> C  -20.329   28.222   47.341
| 36> C  -20.110   27.022   48.296
| 37> O  -20.473   25.807   47.535
| 38> H  -20.833   25.428   45.533
| 39> H  -19.344   27.382   45.576
| 40> H  -20.898   28.157   45.201
| 41> H  -19.543   28.978   47.434
| 42> H  -21.289   28.710   47.548
| 43> H  -20.733   27.082   49.195
| 44> H  -19.064   26.913   48.597
| 45> C  -23.172   26.101   47.783
| 46> H  -23.432   25.037   47.853
| 47> H  -22.431   26.324   48.562
| 48> O  -22.586   26.394   46.375
| 49> C  -24.445   26.937   48.090
| 50> C  -24.928   26.708   49.526
| 51> C  -23.958   27.607   50.330
| 52> C  -23.730   28.812   49.384
| 53> O  -24.143   28.371   48.034
| 54> H  -25.197   26.738   47.323
| 55> O  -26.392   27.205   49.682
| 56> H  -24.886   25.657   49.833
| 57> H  -24.365   27.909   51.300
| 58> H  -23.016   27.075   50.512
| 59> H  -22.680   29.127   49.352
| 60> H  -24.351   29.673   49.646
| 61> H  -26.457   28.257   49.381
| 62> *
| 63>
| 64>                          ****END OF INPUT****
 Total Charge           Charge          ....    0
 Multiplicity           Mult            ....    1
 Number of Electrons    NEL             ....  102
FINAL SINGLE POINT ENERGY      -652.829595591402
FINAL SINGLE POINT ENERGY      -652.853046792284
FINAL SINGLE POINT ENERGY      -652.857769963982
FINAL SINGLE POINT ENERGY      -652.858861877987
FINAL SINGLE POINT ENERGY      -652.859011095027
FINAL SINGLE POINT ENERGY      -652.859035713695
                    ***********************HURRAY********************

CARTESIAN COORDINATES (ANGSTROEM)
---------------------------------
  C    -21.139381   26.245444   46.312396
  C    -20.538301   27.605451   45.956611
  C    -20.255302   28.200002   47.354910
  C    -19.849749   26.966313   48.190034
  O    -20.344740   25.783082   47.428427
  H    -21.042501   25.484266   45.534195
  H    -19.611046   27.454530   45.391155
  H    -21.227569   28.211939   45.365842
  H    -19.472608   28.964636   47.339240
  H    -21.174338   28.651816   47.741362
  H    -20.291031   26.953103   49.191518
  H    -18.765788   26.845902   48.277211
  C    -23.093239   26.059967   47.901074
  H    -23.401731   25.004209   47.937965
  H    -22.340264   26.208870   48.680287
  O    -22.560936   26.377839   46.592289
  C    -24.313113   26.948086   48.123942
  C    -24.998805   26.766604   49.485972
  C    -24.132621   27.676354   50.396647
  C    -23.751609   28.850582   49.461518
  O    -23.979243   28.377621   48.073077
  H    -25.017915   26.778470   47.304342
  O    -26.381710   27.211834   49.438065
  H    -25.040875   25.731189   49.826764
  H    -24.698885   27.995324   51.274996
  H    -23.244645   27.133074   50.738719
  H    -22.705969   29.155274   49.569487
  H    -24.386005   29.729673   49.610639
  H    -26.434083   28.041545   48.918317

 Multiplicity           Mult            ....    1
 Number of Electrons    NEL             ....  102
 Basis Dimension        Dim             ....  149

ORBITAL ENERGIES
----------------

  NO   OCC          E(Eh)            E(eV)
   0   2.0000     -19.150139      -521.1018
   1   2.0000     -19.145113      -520.9650
   2   2.0000     -19.139717      -520.8182
   3   2.0000     -19.134548      -520.6775
   4   2.0000     -10.277491      -279.6648
   5   2.0000     -10.244510      -278.7673
   6   2.0000     -10.233840      -278.4769
   7   2.0000     -10.233236      -278.4605
   8   2.0000     -10.233029      -278.4549
   9   2.0000     -10.230233      -278.3788
  10   2.0000     -10.192336      -277.3476
  11   2.0000     -10.186902      -277.1997
  12   2.0000     -10.181639      -277.0565
  13   2.0000      -1.053968       -28.6799
  14   2.0000      -1.037401       -28.2291
  15   2.0000      -1.007905       -27.4265
  16   2.0000      -0.990588       -26.9553
  17   2.0000      -0.790988       -21.5239
  18   2.0000      -0.783808       -21.3285
  19   2.0000      -0.770364       -20.9627
  20   2.0000      -0.733928       -19.9712
  21   2.0000      -0.674032       -18.3413
  22   2.0000      -0.606901       -16.5146
  23   2.0000      -0.602666       -16.3994
  24   2.0000      -0.593501       -16.1500
  25   2.0000      -0.578381       -15.7385
  26   2.0000      -0.528041       -14.3687
  27   2.0000      -0.510900       -13.9023
  28   2.0000      -0.497473       -13.5369
  29   2.0000      -0.490811       -13.3556
  30   2.0000      -0.478012       -13.0074
  31   2.0000      -0.461253       -12.5513
  32   2.0000      -0.451310       -12.2808
  33   2.0000      -0.445373       -12.1192
  34   2.0000      -0.417393       -11.3578
  35   2.0000      -0.409632       -11.1466
  36   2.0000      -0.402816       -10.9612
  37   2.0000      -0.396828       -10.7983
  38   2.0000      -0.375377       -10.2145
  39   2.0000      -0.370359       -10.0780
  40   2.0000      -0.363415        -9.8890
  41   2.0000      -0.357839        -9.7373
  42   2.0000      -0.346551        -9.4301
  43   2.0000      -0.338440        -9.2094
  44   2.0000      -0.326438        -8.8828
  45   2.0000      -0.309393        -8.4190
  46   2.0000      -0.304776        -8.2934
  47   2.0000      -0.273232        -7.4350
  48   2.0000      -0.264071        -7.1857
  49   2.0000      -0.252444        -6.8694
  50   2.0000      -0.241277        -6.5655
  51   0.0000       0.049615         1.3501
  52   0.0000       0.078226         2.1286
  53   0.0000       0.092185         2.5085
  54   0.0000       0.096081         2.6145
  55   0.0000       0.100194         2.7264

MULLIKEN ATOMIC CHARGES
-----------------------
   0 C :    0.301037
   1 C :   -0.252506
   2 C :   -0.322177
   3 C :   -0.024605
   4 O :   -0.512410
   5 H :    0.155410
   6 H :    0.141162
   7 H :    0.167895
   8 H :    0.144295
   9 H :    0.179277
  10 H :    0.136751
  11 H :    0.152437
  12 C :    0.008821
  13 H :    0.131797
  14 H :    0.140270
  15 O :   -0.534904
  16 C :    0.071000
  17 C :    0.075725
  18 C :   -0.296282
  19 C :   -0.028759
  20 O :   -0.513979
  21 H :    0.170355
  22 O :   -0.601005
  23 H :    0.154293
  24 H :    0.164049
  25 H :    0.141868
  26 H :    0.136061
  27 H :    0.148004
  28 H :    0.366119
Sum of atomic charges:   -0.0000000

LOEWDIN ATOMIC CHARGES
----------------------
   0 C :    0.185245
   1 C :   -0.218660
   2 C :   -0.224204
   3 C :   -0.034707
   4 O :   -0.321308
   5 H :    0.104036
   6 H :    0.111719
   7 H :    0.129882
   8 H :    0.116216
   9 H :    0.123615
  10 H :    0.096330
  11 H :    0.107172
  12 C :   -0.034215
  13 H :    0.098259
  14 H :    0.100361
  15 O :   -0.334022
  16 C :    0.016032
  17 C :    0.035587
  18 C :   -0.241406
  19 C :   -0.039700
  20 O :   -0.324756
  21 H :    0.120849
  22 O :   -0.413391
  23 H :    0.116717
  24 H :    0.127527
  25 H :    0.111678
  26 H :    0.097907
  27 H :    0.103223
  28 H :    0.284013

  Mayer bond orders larger than 0.100000
B(  0-C ,  1-C ) :   0.9311 B(  0-C ,  4-O ) :   0.9106 B(  0-C ,  5-H ) :   0.9296
B(  0-C , 15-O ) :   0.8438 B(  1-C ,  2-C ) :   0.9532 B(  1-C ,  6-H ) :   0.9360
B(  1-C ,  7-H ) :   0.9343 B(  2-C ,  3-C ) :   0.9530 B(  2-C ,  8-H ) :   0.9444
B(  2-C ,  9-H ) :   0.9284 B(  3-C ,  4-O ) :   0.8313 B(  3-C , 10-H ) :   0.9304
B(  3-C , 11-H ) :   0.9402 B( 12-C , 13-H ) :   0.9166 B( 12-C , 14-H ) :   0.9115
B( 12-C , 15-O ) :   0.8387 B( 12-C , 16-C ) :   0.8947 B( 16-C , 17-C ) :   0.9001
B( 16-C , 20-O ) :   0.8571 B( 16-C , 21-H ) :   0.9226 B( 17-C , 18-C ) :   0.9102
B( 17-C , 22-O ) :   0.8962 B( 17-C , 23-H ) :   0.9327 B( 18-C , 19-C ) :   0.9411
B( 18-C , 24-H ) :   0.9375 B( 18-C , 25-H ) :   0.9340 B( 19-C , 20-O ) :   0.8550
B( 19-C , 26-H ) :   0.9305 B( 19-C , 27-H ) :   0.9380 B( 22-O , 28-H ) :   0.7936

FINAL SINGLE POINT ENERGY      -652.859038808048

DIPOLE MOMENT
-------------
                                X             Y             Z
Electronic contribution:     -3.85598      -2.88236      -2.86315
Nuclear contribution   :      4.70620       3.52582       3.48687
                        -----------------------------------------
Total Dipole Moment    :      0.85022       0.64346       0.62372
                        -----------------------------------------
Magnitude (a.u.)       :      1.23529
Magnitude (Debye)      :      3.13986

Rotational constants in cm-1:     0.053694     0.015110     0.014212
Rotational constants in MHz :  1609.711501   452.994430   426.073299

                             ****ORCA TERMINATED NORMALLY****
TOTAL RUN TIME: 0 days 0 hours 55 minutes 39 seconds 447 msec
