                         Program Version 4.2.0 -  RELEASE  -
|  1> # Test redundant internal optimization
|  2> #
|  3> ! RKS B3LYP  Opt TightSCF SmallPrint
|  4>
|  5> %basis
|  6>         Basis "6-31G"
|  7> end
|  8>
|  9> %geom
| 10> Constraints
| 11> { D 4  0  15  12  195.0   C } # D for Dihedral angle
| 12> { D 0  15  12  16  225.0   C } # D for Dihedral angle
| 13> { D 0  4  3  2   C } # D for Dihedral angle
| 14> { D 4  3  2  1   C } # D for Dihedral angle
| 15> { D 3  2  1  0   C } # D for Dihedral angle
| 16> { D 2  1  0  4   C } # D for Dihedral angle
| 17> { D 1  0  4  3   C } # D for Dihedral angle
| 18> { D 16  20  19  18   C } # D for Dihedral angle
| 19> { D 20  19  18  17   C } # D for Dihedral angle
| 20> { D 19  18  17  16   C } # D for Dihedral angle
| 21> { D 18  17  16  20   C } # D for Dihedral angle
| 22> { D 17  16  20  19   C } # D for Dihedral angle
| 23> { D 15  12  16  20   C } # D for Dihedral angle
| 24> end
| 25> end
| 26>
| 27>
| 28> #%pal
| 29> #nprocs 8
| 30> #end
| 31>
| 32> * xyz 0 1
| 33> C  -21.048   26.222   46.251
| 34> C  -20.361   27.558   45.944
| 35> C  -20.329   28.222   47.341
| 36> C  -20.110   27.022   48.296
| 37> O  -20.473   25.807   47.535
| 38> H  -20.833   25.428   45.533
| 39> H  -19.344   27.382   45.576
| 40> H  -20.898   28.157   45.201
| 41> H  -19.543   28.978   47.434
| 42> H  -21.289   28.710   47.548
| 43> H  -20.733   27.082   49.195
| 44> H  -19.064   26.913   48.597
| 45> C  -23.353   26.472   45.026
| 46> H  -22.638   26.649   44.213
| 47> H  -23.874   25.527   44.825
| 48> O  -22.586   26.394   46.375
| 49> C  -24.411   27.610   45.002
| 50> C  -25.396   27.478   46.170
| 51> C  -24.571   28.062   47.342
| 52> C  -23.747   29.187   46.668
| 53> O  -23.770   28.911   45.214
| 54> H  -24.880   27.641   44.017
| 55> O  -26.657   28.345   45.903
| 56> H  -25.717   26.447   46.349
| 57> H  -25.198   28.435   48.158
| 58> H  -23.908   27.292   47.755
| 59> H  -22.708   29.211   47.013
| 60> H  -24.192   30.175   46.814
| 61> H  -26.358   29.384   45.721
| 62> *
| 63>
| 64>                          ****END OF INPUT****
 Total Charge           Charge          ....    0
 Multiplicity           Mult            ....    1
 Number of Electrons    NEL             ....  102
FINAL SINGLE POINT ENERGY      -652.830611094662
FINAL SINGLE POINT ENERGY      -652.852579608254
FINAL SINGLE POINT ENERGY      -652.856671107858
FINAL SINGLE POINT ENERGY      -652.860344169824
FINAL SINGLE POINT ENERGY      -652.860712421313
FINAL SINGLE POINT ENERGY      -652.860764242287
FINAL SINGLE POINT ENERGY      -652.860767813954
                    ***********************HURRAY********************

CARTESIAN COORDINATES (ANGSTROEM)
---------------------------------
  C    -21.056455   26.219682   46.195129
  C    -20.333037   27.530131   45.893015
  C    -20.227889   28.172115   47.298577
  C    -20.023598   26.949495   48.217713
  O    -20.468179   25.774081   47.421372
  H    -20.892735   25.427501   45.456494
  H    -19.339240   27.304554   45.489621
  H    -20.868107   28.166571   45.182977
  H    -19.405632   28.890478   47.369681
  H    -21.156818   28.689463   47.542313
  H    -20.614545   26.991528   49.135767
  H    -18.973639   26.774763   48.469370
  C    -23.248538   26.498241   45.139175
  H    -22.558963   26.691339   44.307509
  H    -23.754647   25.541957   44.941890
  O    -22.499438   26.385710   46.386905
  C    -24.290172   27.614054   45.139709
  C    -25.419801   27.508840   46.174776
  C    -24.776889   28.188360   47.411137
  C    -23.906114   29.303826   46.787355
  O    -23.724808   28.946526   45.357314
  H    -24.726799   27.627042   44.132778
  O    -26.608638   28.209619   45.710604
  H    -25.746038   26.486488   46.365480
  H    -25.542692   28.570185   48.091081
  H    -24.148625   27.461181   47.932306
  H    -22.929747   29.391786   47.264090
  H    -24.395344   30.283757   46.806468
  H    -26.351873   29.101726   45.395393

 Multiplicity           Mult            ....    1
 Number of Electrons    NEL             ....  102
 Basis Dimension        Dim             ....  149

ORBITAL ENERGIES
----------------

  NO   OCC          E(Eh)            E(eV)
   0   2.0000     -19.146257      -520.9961
   1   2.0000     -19.145746      -520.9822
   2   2.0000     -19.144207      -520.9404
   3   2.0000     -19.136340      -520.7263
   4   2.0000     -10.281928      -279.7855
   5   2.0000     -10.238101      -278.5929
   6   2.0000     -10.237383      -278.5734
   7   2.0000     -10.236421      -278.5472
   8   2.0000     -10.228657      -278.3359
   9   2.0000     -10.227865      -278.3143
  10   2.0000     -10.188777      -277.2507
  11   2.0000     -10.186485      -277.1884
  12   2.0000     -10.179623      -277.0016
  13   2.0000      -1.055534       -28.7225
  14   2.0000      -1.036326       -28.1999
  15   2.0000      -1.006205       -27.3802
  16   2.0000      -0.996705       -27.1217
  17   2.0000      -0.788663       -21.4606
  18   2.0000      -0.779928       -21.2229
  19   2.0000      -0.768160       -20.9027
  20   2.0000      -0.734552       -19.9882
  21   2.0000      -0.678293       -18.4573
  22   2.0000      -0.605684       -16.4815
  23   2.0000      -0.599835       -16.3223
  24   2.0000      -0.596623       -16.2349
  25   2.0000      -0.579162       -15.7598
  26   2.0000      -0.526638       -14.3306
  27   2.0000      -0.506252       -13.7758
  28   2.0000      -0.495675       -13.4880
  29   2.0000      -0.491604       -13.3772
  30   2.0000      -0.479526       -13.0486
  31   2.0000      -0.460708       -12.5365
  32   2.0000      -0.449510       -12.2318
  33   2.0000      -0.446920       -12.1613
  34   2.0000      -0.419352       -11.4111
  35   2.0000      -0.409470       -11.1422
  36   2.0000      -0.407144       -11.0790
  37   2.0000      -0.393978       -10.7207
  38   2.0000      -0.375582       -10.2201
  39   2.0000      -0.372866       -10.1462
  40   2.0000      -0.360639        -9.8135
  41   2.0000      -0.357037        -9.7155
  42   2.0000      -0.353994        -9.6327
  43   2.0000      -0.331192        -9.0122
  44   2.0000      -0.317579        -8.6418
  45   2.0000      -0.311687        -8.4814
  46   2.0000      -0.303114        -8.2481
  47   2.0000      -0.272513        -7.4155
  48   2.0000      -0.263941        -7.1822
  49   2.0000      -0.259051        -7.0491
  50   2.0000      -0.243628        -6.6295
  51   0.0000       0.061565         1.6753
  52   0.0000       0.082437         2.2432
  53   0.0000       0.091865         2.4998
  54   0.0000       0.097663         2.6575
  55   0.0000       0.101549         2.7633

MULLIKEN ATOMIC CHARGES
-----------------------
   0 C :    0.300278
   1 C :   -0.279292
   2 C :   -0.315486
   3 C :   -0.003203
   4 O :   -0.505404
   5 H :    0.142698
   6 H :    0.145070
   7 H :    0.167631
   8 H :    0.144850
   9 H :    0.168624
  10 H :    0.150593
  11 H :    0.144695
  12 C :   -0.012484
  13 H :    0.138808
  14 H :    0.139758
  15 O :   -0.514606
  16 C :    0.072785
  17 C :    0.080846
  18 C :   -0.294491
  19 C :   -0.031384
  20 O :   -0.530422
  21 H :    0.155447
  22 O :   -0.603278
  23 H :    0.156432
  24 H :    0.151771
  25 H :    0.180470
  26 H :    0.149334
  27 H :    0.138072
  28 H :    0.361887
Sum of atomic charges:   -0.0000000

LOEWDIN ATOMIC CHARGES
----------------------
   0 C :    0.180296
   1 C :   -0.232157
   2 C :   -0.217449
   3 C :   -0.025501
   4 O :   -0.302629
   5 H :    0.096243
   6 H :    0.114926
   7 H :    0.126041
   8 H :    0.116185
   9 H :    0.114393
  10 H :    0.107458
  11 H :    0.103717
  12 C :   -0.039909
  13 H :    0.102571
  14 H :    0.103821
  15 O :   -0.341947
  16 C :    0.011715
  17 C :    0.039400
  18 C :   -0.241487
  19 C :   -0.034008
  20 O :   -0.332907
  21 H :    0.116071
  22 O :   -0.416795
  23 H :    0.118741
  24 H :    0.120848
  25 H :    0.133140
  26 H :    0.101128
  27 H :    0.096973
  28 H :    0.281121

  Mayer bond orders larger than 0.100000
B(  0-C ,  1-C ) :   0.9263 B(  0-C ,  4-O ) :   0.9405 B(  0-C ,  5-H ) :   0.9211
B(  0-C , 15-O ) :   0.8239 B(  1-C ,  2-C ) :   0.9546 B(  1-C ,  6-H ) :   0.9325
B(  1-C ,  7-H ) :   0.9251 B(  2-C ,  3-C ) :   0.9545 B(  2-C ,  8-H ) :   0.9452
B(  2-C ,  9-H ) :   0.9243 B(  3-C ,  4-O ) :   0.8347 B(  3-C , 10-H ) :   0.9350
B(  3-C , 11-H ) :   0.9395 B( 12-C , 13-H ) :   0.9169 B( 12-C , 14-H ) :   0.9158
B( 12-C , 15-O ) :   0.8564 B( 12-C , 16-C ) :   0.8985 B( 16-C , 17-C ) :   0.9098
B( 16-C , 20-O ) :   0.8705 B( 16-C , 21-H ) :   0.9184 B( 17-C , 18-C ) :   0.9264
B( 17-C , 22-O ) :   0.8899 B( 17-C , 23-H ) :   0.9350 B( 18-C , 19-C ) :   0.9448
B( 18-C , 24-H ) :   0.9370 B( 18-C , 25-H ) :   0.9187 B( 19-C , 20-O ) :   0.8433
B( 19-C , 26-H ) :   0.9147 B( 19-C , 27-H ) :   0.9373 B( 22-O , 28-H ) :   0.7969

FINAL SINGLE POINT ENERGY      -652.860766688327

DIPOLE MOMENT
-------------
                                X             Y             Z
Electronic contribution:     -2.97674      -2.66582      -1.67995
Nuclear contribution   :      3.72704       3.31566       1.55686
                        -----------------------------------------
Total Dipole Moment    :      0.75031       0.64984      -0.12309
                        -----------------------------------------
Magnitude (a.u.)       :      1.00020
Magnitude (Debye)      :      2.54231

Rotational constants in cm-1:     0.054906     0.015262     0.014462
Rotational constants in MHz :  1646.039548   457.539642   433.558220

                             ****ORCA TERMINATED NORMALLY****
TOTAL RUN TIME: 0 days 0 hours 54 minutes 27 seconds 872 msec
