                         Program Version 4.2.0 -  RELEASE  -
|  1> # Test redundant internal optimization
|  2> #
|  3> ! RKS B3LYP  Opt TightSCF SmallPrint
|  4>
|  5> %basis
|  6>         Basis "6-31G"
|  7> end
|  8>
|  9> %geom
| 10> Constraints
| 11> { D 4  0  15  12  90.0   C } # D for Dihedral angle
| 12> { D 0  15  12  16  75.0   C } # D for Dihedral angle
| 13> { D 0  4  3  2   C } # D for Dihedral angle
| 14> { D 4  3  2  1   C } # D for Dihedral angle
| 15> { D 3  2  1  0   C } # D for Dihedral angle
| 16> { D 2  1  0  4   C } # D for Dihedral angle
| 17> { D 1  0  4  3   C } # D for Dihedral angle
| 18> { D 16  20  19  18   C } # D for Dihedral angle
| 19> { D 20  19  18  17   C } # D for Dihedral angle
| 20> { D 19  18  17  16   C } # D for Dihedral angle
| 21> { D 18  17  16  20   C } # D for Dihedral angle
| 22> { D 17  16  20  19   C } # D for Dihedral angle
| 23> { D 15  12  16  20   C } # D for Dihedral angle
| 24> end
| 25> end
| 26>
| 27>
| 28> #%pal
| 29> #nprocs 8
| 30> #end
| 31>
| 32> * xyz 0 1
| 33> C  -21.048   26.222   46.251
| 34> C  -20.361   27.558   45.944
| 35> C  -20.329   28.222   47.341
| 36> C  -20.110   27.022   48.296
| 37> O  -20.473   25.807   47.535
| 38> H  -20.833   25.428   45.533
| 39> H  -19.344   27.382   45.576
| 40> H  -20.898   28.157   45.201
| 41> H  -19.543   28.978   47.434
| 42> H  -21.289   28.710   47.548
| 43> H  -20.733   27.082   49.195
| 44> H  -19.064   26.913   48.597
| 45> C  -23.061   27.816   46.783
| 46> H  -24.107   27.768   47.110
| 47> H  -22.458   28.197   47.617
| 48> O  -22.586   26.394   46.375
| 49> C  -22.959   28.840   45.619
| 50> C  -23.906   28.473   44.471
| 51> C  -25.263   28.985   45.008
| 52> C  -24.871   30.259   45.798
| 53> O  -23.419   30.162   46.059
| 54> H  -21.913   28.946   45.327
| 55> O  -23.501   29.240   43.182
| 56> H  -23.915   27.402   44.245
| 57> H  -25.983   29.194   44.211
| 58> H  -25.709   28.238   45.675
| 59> H  -25.402   30.341   46.752
| 60> H  -25.035   31.174   45.223
| 61> H  -23.486   30.318   43.384
| 62> *
| 63>
| 64>                          ****END OF INPUT****
 Total Charge           Charge          ....    0
 Multiplicity           Mult            ....    1
 Number of Electrons    NEL             ....  102
FINAL SINGLE POINT ENERGY      -652.787344067000
FINAL SINGLE POINT ENERGY      -652.829890204060
FINAL SINGLE POINT ENERGY      -652.849806705057
FINAL SINGLE POINT ENERGY      -652.853596051672
FINAL SINGLE POINT ENERGY      -652.854093465877
FINAL SINGLE POINT ENERGY      -652.854189866799
FINAL SINGLE POINT ENERGY      -652.854201327646
FINAL SINGLE POINT ENERGY      -652.854202838736
                    ***********************HURRAY********************

CARTESIAN COORDINATES (ANGSTROEM)
---------------------------------
  C    -21.177207   26.332134   46.398377
  C    -20.186157   27.414556   45.948602
  C    -19.886589   28.157388   47.283083
  C    -19.928161   27.007459   48.320693
  O    -20.648297   25.889489   47.668765
  H    -21.167233   25.450512   45.756477
  H    -19.283356   26.905826   45.593326
  H    -20.550687   28.052466   45.143488
  H    -18.914016   28.658621   47.267209
  H    -20.644489   28.917879   47.493628
  H    -20.450299   27.279224   49.242947
  H    -18.929180   26.639835   48.572555
  C    -23.190597   27.906611   46.806789
  H    -24.230876   27.657120   47.032311
  H    -22.753340   28.333366   47.717763
  O    -22.595086   26.618965   46.473414
  C    -23.131945   28.962699   45.697662
  C    -23.906443   28.612740   44.418925
  C    -25.360492   28.948626   44.833040
  C    -25.193238   30.178254   45.761219
  O    -23.768018   30.193748   46.185259
  H    -22.102068   29.234028   45.463470
  O    -23.451498   29.422942   43.299601
  H    -23.770951   27.577258   44.108243
  H    -25.973298   29.159222   43.953014
  H    -25.807418   28.103278   45.366394
  H    -25.826960   30.130491   46.651510
  H    -25.384528   31.124578   45.246019
  H    -23.386571   30.358685   43.586217

 Multiplicity           Mult            ....    1
 Number of Electrons    NEL             ....  102
 Basis Dimension        Dim             ....  149

ORBITAL ENERGIES
----------------

  NO   OCC          E(Eh)            E(eV)
   0   2.0000     -19.150141      -521.1018
   1   2.0000     -19.144555      -520.9498
   2   2.0000     -19.141463      -520.8657
   3   2.0000     -19.138617      -520.7882
   4   2.0000     -10.280062      -279.7347
   5   2.0000     -10.241771      -278.6928
   6   2.0000     -10.236958      -278.5618
   7   2.0000     -10.236219      -278.5417
   8   2.0000     -10.234219      -278.4873
   9   2.0000     -10.228000      -278.3180
  10   2.0000     -10.194113      -277.3959
  11   2.0000     -10.193889      -277.3898
  12   2.0000     -10.192092      -277.3409
  13   2.0000      -1.050136       -28.5757
  14   2.0000      -1.040324       -28.3086
  15   2.0000      -1.009817       -27.4785
  16   2.0000      -0.994572       -27.0637
  17   2.0000      -0.790167       -21.5015
  18   2.0000      -0.785395       -21.3717
  19   2.0000      -0.773134       -21.0380
  20   2.0000      -0.737450       -20.0670
  21   2.0000      -0.681826       -18.5534
  22   2.0000      -0.609235       -16.5781
  23   2.0000      -0.606015       -16.4905
  24   2.0000      -0.604035       -16.4366
  25   2.0000      -0.575792       -15.6681
  26   2.0000      -0.531830       -14.4718
  27   2.0000      -0.508170       -13.8280
  28   2.0000      -0.501939       -13.6585
  29   2.0000      -0.493519       -13.4293
  30   2.0000      -0.475186       -12.9305
  31   2.0000      -0.462953       -12.5976
  32   2.0000      -0.448075       -12.1927
  33   2.0000      -0.439712       -11.9652
  34   2.0000      -0.429788       -11.6951
  35   2.0000      -0.416641       -11.3374
  36   2.0000      -0.411821       -11.2062
  37   2.0000      -0.398046       -10.8314
  38   2.0000      -0.386108       -10.5065
  39   2.0000      -0.372289       -10.1305
  40   2.0000      -0.367062        -9.9883
  41   2.0000      -0.359485        -9.7821
  42   2.0000      -0.348346        -9.4790
  43   2.0000      -0.335946        -9.1416
  44   2.0000      -0.314964        -8.5706
  45   2.0000      -0.313210        -8.5229
  46   2.0000      -0.297034        -8.0827
  47   2.0000      -0.280486        -7.6324
  48   2.0000      -0.271287        -7.3821
  49   2.0000      -0.256281        -6.9738
  50   2.0000      -0.243366        -6.6223
  51   0.0000       0.059922         1.6306
  52   0.0000       0.066789         1.8174
  53   0.0000       0.082946         2.2571
  54   0.0000       0.093963         2.5569
  55   0.0000       0.099057         2.6955

MULLIKEN ATOMIC CHARGES
-----------------------
   0 C :    0.306915
   1 C :   -0.298406
   2 C :   -0.317616
   3 C :   -0.007760
   4 O :   -0.498244
   5 H :    0.166812
   6 H :    0.158765
   7 H :    0.156484
   8 H :    0.147313
   9 H :    0.157078
  10 H :    0.146215
  11 H :    0.146396
  12 C :   -0.011667
  13 H :    0.154271
  14 H :    0.143250
  15 O :   -0.524756
  16 C :    0.041371
  17 C :    0.089962
  18 C :   -0.306996
  19 C :   -0.030091
  20 O :   -0.529275
  21 H :    0.164054
  22 O :   -0.604221
  23 H :    0.171828
  24 H :    0.166189
  25 H :    0.153806
  26 H :    0.151362
  27 H :    0.145071
  28 H :    0.361890
Sum of atomic charges:   -0.0000000

LOEWDIN ATOMIC CHARGES
----------------------
   0 C :    0.177213
   1 C :   -0.232696
   2 C :   -0.223810
   3 C :   -0.032019
   4 O :   -0.317756
   5 H :    0.113344
   6 H :    0.124400
   7 H :    0.118785
   8 H :    0.117070
   9 H :    0.111774
  10 H :    0.103638
  11 H :    0.104153
  12 C :   -0.039618
  13 H :    0.114213
  14 H :    0.101871
  15 O :   -0.324259
  16 C :   -0.000217
  17 C :    0.037281
  18 C :   -0.241926
  19 C :   -0.038072
  20 O :   -0.331128
  21 H :    0.111398
  22 O :   -0.415413
  23 H :    0.125226
  24 H :    0.128336
  25 H :    0.118034
  26 H :    0.106372
  27 H :    0.102468
  28 H :    0.281340

  Mayer bond orders larger than 0.100000
B(  0-C ,  1-C ) :   0.9221 B(  0-C ,  4-O ) :   0.9072 B(  0-C ,  5-H ) :   0.9350
B(  0-C , 15-O ) :   0.8902 B(  1-C ,  2-C ) :   0.9531 B(  1-C ,  6-H ) :   0.9316
B(  1-C ,  7-H ) :   0.9231 B(  2-C ,  3-C ) :   0.9452 B(  2-C ,  8-H ) :   0.9452
B(  2-C ,  9-H ) :   0.9381 B(  3-C ,  4-O ) :   0.8481 B(  3-C , 10-H ) :   0.9343
B(  3-C , 11-H ) :   0.9386 B( 12-C , 13-H ) :   0.9396 B( 12-C , 14-H ) :   0.9134
B( 12-C , 15-O ) :   0.8453 B( 12-C , 16-C ) :   0.8729 B( 16-C , 17-C ) :   0.9084
B( 16-C , 20-O ) :   0.8319 B( 16-C , 21-H ) :   0.9156 B( 17-C , 18-C ) :   0.9153
B( 17-C , 22-O ) :   0.8869 B( 17-C , 23-H ) :   0.9258 B( 18-C , 19-C ) :   0.9419
B( 18-C , 24-H ) :   0.9366 B( 18-C , 25-H ) :   0.9322 B( 19-C , 20-O ) :   0.8407
B( 19-C , 26-H ) :   0.9347 B( 19-C , 27-H ) :   0.9386 B( 22-O , 28-H ) :   0.7974

FINAL SINGLE POINT ENERGY      -652.854202054666

DIPOLE MOMENT
-------------
                                X             Y             Z
Electronic contribution:     -0.78038      -2.25822      -0.84903
Nuclear contribution   :      0.77479       3.16612       0.94193
                        -----------------------------------------
Total Dipole Moment    :     -0.00559       0.90790       0.09289
                        -----------------------------------------
Magnitude (a.u.)       :      0.91266
Magnitude (Debye)      :      2.31980

Rotational constants in cm-1:     0.054733     0.013821     0.013602
Rotational constants in MHz :  1640.856275   414.344754   407.789321

                             ****ORCA TERMINATED NORMALLY****
TOTAL RUN TIME: 0 days 2 hours 25 minutes 37 seconds 972 msec
