                         Program Version 4.2.0 -  RELEASE  -
|  1> # Test redundant internal optimization
|  2> #
|  3> ! RKS B3LYP  Opt TightSCF SmallPrint
|  4>
|  5> %basis
|  6>         Basis "6-31G"
|  7> end
|  8>
|  9> %geom
| 10> Constraints
| 11> { D 4  0  15  12  240.0   C } # D for Dihedral angle
| 12> { D 0  15  12  16  195.0   C } # D for Dihedral angle
| 13> { D 0  4  3  2   C } # D for Dihedral angle
| 14> { D 4  3  2  1   C } # D for Dihedral angle
| 15> { D 3  2  1  0   C } # D for Dihedral angle
| 16> { D 2  1  0  4   C } # D for Dihedral angle
| 17> { D 1  0  4  3   C } # D for Dihedral angle
| 18> { D 16  20  19  18   C } # D for Dihedral angle
| 19> { D 20  19  18  17   C } # D for Dihedral angle
| 20> { D 19  18  17  16   C } # D for Dihedral angle
| 21> { D 18  17  16  20   C } # D for Dihedral angle
| 22> { D 17  16  20  19   C } # D for Dihedral angle
| 23> { D 15  12  16  20   C } # D for Dihedral angle
| 24> end
| 25> end
| 26>
| 27>
| 28> #%pal
| 29> #nprocs 8
| 30> #end
| 31>
| 32> * xyz 0 1
| 33> C  -21.048   26.222   46.251
| 34> C  -20.361   27.558   45.944
| 35> C  -20.329   28.222   47.341
| 36> C  -20.110   27.022   48.296
| 37> O  -20.473   25.807   47.535
| 38> H  -20.833   25.428   45.533
| 39> H  -19.344   27.382   45.576
| 40> H  -20.898   28.157   45.201
| 41> H  -19.543   28.978   47.434
| 42> H  -21.289   28.710   47.548
| 43> H  -20.733   27.082   49.195
| 44> H  -19.064   26.913   48.597
| 45> C  -23.430   25.483   45.442
| 46> H  -22.991   25.488   44.437
| 47> H  -23.428   24.449   45.811
| 48> O  -22.586   26.394   46.375
| 49> C  -24.910   25.943   45.331
| 50> C  -25.016   27.318   44.663
| 51> C  -24.856   26.954   43.168
| 52> C  -25.563   25.579   43.064
| 53> O  -25.659   25.050   44.441
| 54> H  -25.378   25.880   46.315
| 55> H  -26.005   27.752   44.852
| 56> O  -23.939   28.322   45.158
| 57> H  -25.296   27.701   42.500
| 58> H  -23.793   26.863   42.915
| 59> H  -25.008   24.868   42.443
| 60> H  -26.583   25.663   42.679
| 61> H  -22.941   27.908   44.979
| 62> *
| 63>
| 64>                          ****END OF INPUT****
 Total Charge           Charge          ....    0
 Multiplicity           Mult            ....    1
 Number of Electrons    NEL             ....  102
FINAL SINGLE POINT ENERGY      -652.827060775258
FINAL SINGLE POINT ENERGY      -652.852154812777
FINAL SINGLE POINT ENERGY      -652.858563834404
FINAL SINGLE POINT ENERGY      -652.861404367132
FINAL SINGLE POINT ENERGY      -652.863211442769
FINAL SINGLE POINT ENERGY      -652.864614321015
FINAL SINGLE POINT ENERGY      -652.865494378278
FINAL SINGLE POINT ENERGY      -652.865884445693
FINAL SINGLE POINT ENERGY      -652.865958185591
FINAL SINGLE POINT ENERGY      -652.865968568625
FINAL SINGLE POINT ENERGY      -652.865971349685
                    ***********************HURRAY********************

CARTESIAN COORDINATES (ANGSTROEM)
---------------------------------
  C    -21.068301   26.149175   46.206750
  C    -20.422974   27.493219   45.874255
  C    -20.467058   28.216088   47.241805
  C    -20.240389   27.068027   48.247989
  O    -20.537975   25.815609   47.499110
  H    -20.826267   25.323582   45.533375
  H    -19.388295   27.328790   45.552539
  H    -20.957437   28.028797   45.085039
  H    -19.707234   28.998903   47.324027
  H    -21.447236   28.679273   47.392512
  H    -20.899725   27.117380   49.117581
  H    -19.201853   26.990259   48.581464
  C    -23.319591   25.416500   45.421347
  H    -22.872116   25.354469   44.420644
  H    -23.348463   24.413181   45.858693
  O    -22.520069   26.313667   46.267217
  C    -24.739341   25.987839   45.339958
  C    -24.853334   27.367015   44.669430
  C    -24.790021   26.991453   43.160180
  C    -25.530687   25.638219   43.106465
  O    -25.556882   25.112897   44.503511
  H    -25.185697   25.979782   46.338362
  H    -25.840350   27.786142   44.901357
  O    -23.849856   28.332539   45.050967
  H    -25.254501   27.754187   42.529523
  H    -23.739445   26.903391   42.863497
  H    -25.040870   24.900467   42.462794
  H    -26.573776   25.740388   42.794234
  H    -23.227255   27.894764   45.679376

 Multiplicity           Mult            ....    1
 Number of Electrons    NEL             ....  102
 Basis Dimension        Dim             ....  149

ORBITAL ENERGIES
----------------

  NO   OCC          E(Eh)            E(eV)
   0   2.0000     -19.163725      -521.4715
   1   2.0000     -19.148244      -521.0502
   2   2.0000     -19.142805      -520.9022
   3   2.0000     -19.117998      -520.2272
   4   2.0000     -10.291725      -280.0521
   5   2.0000     -10.240828      -278.6671
   6   2.0000     -10.237271      -278.5703
   7   2.0000     -10.233727      -278.4739
   8   2.0000     -10.231210      -278.4054
   9   2.0000     -10.229345      -278.3546
  10   2.0000     -10.193422      -277.3771
  11   2.0000     -10.192581      -277.3542
  12   2.0000     -10.182864      -277.0898
  13   2.0000      -1.064353       -28.9625
  14   2.0000      -1.028540       -27.9880
  15   2.0000      -1.008982       -27.4558
  16   2.0000      -0.995554       -27.0904
  17   2.0000      -0.795579       -21.6488
  18   2.0000      -0.775279       -21.0964
  19   2.0000      -0.770127       -20.9562
  20   2.0000      -0.736101       -20.0303
  21   2.0000      -0.680464       -18.5164
  22   2.0000      -0.606343       -16.4994
  23   2.0000      -0.603724       -16.4282
  24   2.0000      -0.595006       -16.1909
  25   2.0000      -0.584349       -15.9009
  26   2.0000      -0.528486       -14.3808
  27   2.0000      -0.523077       -14.2336
  28   2.0000      -0.501125       -13.6363
  29   2.0000      -0.489215       -13.3122
  30   2.0000      -0.474109       -12.9012
  31   2.0000      -0.462084       -12.5740
  32   2.0000      -0.443460       -12.0672
  33   2.0000      -0.432603       -11.7717
  34   2.0000      -0.430715       -11.7204
  35   2.0000      -0.426558       -11.6072
  36   2.0000      -0.406468       -11.0606
  37   2.0000      -0.388959       -10.5841
  38   2.0000      -0.382503       -10.4084
  39   2.0000      -0.373180       -10.1547
  40   2.0000      -0.363374        -9.8879
  41   2.0000      -0.360329        -9.8050
  42   2.0000      -0.349393        -9.5075
  43   2.0000      -0.343528        -9.3479
  44   2.0000      -0.325765        -8.8645
  45   2.0000      -0.321118        -8.7381
  46   2.0000      -0.294962        -8.0263
  47   2.0000      -0.275268        -7.4904
  48   2.0000      -0.264050        -7.1852
  49   2.0000      -0.249511        -6.7896
  50   2.0000      -0.246822        -6.7164
  51   0.0000       0.052490         1.4283
  52   0.0000       0.078067         2.1243
  53   0.0000       0.090819         2.4713
  54   0.0000       0.094577         2.5736
  55   0.0000       0.102325         2.7844

MULLIKEN ATOMIC CHARGES
-----------------------
   0 C :    0.296049
   1 C :   -0.277111
   2 C :   -0.307750
   3 C :   -0.003406
   4 O :   -0.498474
   5 H :    0.150093
   6 H :    0.151732
   7 H :    0.159974
   8 H :    0.149523
   9 H :    0.166165
  10 H :    0.156414
  11 H :    0.146321
  12 C :   -0.011237
  13 H :    0.138090
  14 H :    0.168712
  15 O :   -0.553599
  16 C :    0.039564
  17 C :    0.116599
  18 C :   -0.298882
  19 C :   -0.026047
  20 O :   -0.518172
  21 H :    0.167177
  22 H :    0.144354
  23 O :   -0.650622
  24 H :    0.153702
  25 H :    0.143969
  26 H :    0.143157
  27 H :    0.152555
  28 H :    0.401151
Sum of atomic charges:   -0.0000000

LOEWDIN ATOMIC CHARGES
----------------------
   0 C :    0.178700
   1 C :   -0.226132
   2 C :   -0.217022
   3 C :   -0.026023
   4 O :   -0.310827
   5 H :    0.104789
   6 H :    0.117739
   7 H :    0.123334
   8 H :    0.118367
   9 H :    0.119119
  10 H :    0.110525
  11 H :    0.105104
  12 C :   -0.041586
  13 H :    0.096515
  14 H :    0.115994
  15 O :   -0.342985
  16 C :    0.017376
  17 C :    0.041835
  18 C :   -0.234499
  19 C :   -0.033870
  20 O :   -0.321219
  21 H :    0.118426
  22 H :    0.102907
  23 O :   -0.441374
  24 H :    0.122203
  25 H :    0.110382
  26 H :    0.102110
  27 H :    0.107512
  28 H :    0.282600

  Mayer bond orders larger than 0.100000
B(  0-C ,  1-C ) :   0.9437 B(  0-C ,  4-O ) :   0.9467 B(  0-C ,  5-H ) :   0.9211
B(  0-C , 15-O ) :   0.8011 B(  1-C ,  2-C ) :   0.9522 B(  1-C ,  6-H ) :   0.9366
B(  1-C ,  7-H ) :   0.9288 B(  2-C ,  3-C ) :   0.9520 B(  2-C ,  8-H ) :   0.9446
B(  2-C ,  9-H ) :   0.9426 B(  3-C ,  4-O ) :   0.8313 B(  3-C , 10-H ) :   0.9345
B(  3-C , 11-H ) :   0.9396 B( 12-C , 13-H ) :   0.9187 B( 12-C , 14-H ) :   0.9214
B( 12-C , 15-O ) :   0.7888 B( 12-C , 16-C ) :   0.9107 B( 15-O , 28-H ) :   0.1025
B( 16-C , 17-C ) :   0.9156 B( 16-C , 20-O ) :   0.8575 B( 16-C , 21-H ) :   0.9271
B( 17-C , 18-C ) :   0.9052 B( 17-C , 22-H ) :   0.9274 B( 17-C , 23-O ) :   0.9303
B( 18-C , 19-C ) :   0.9422 B( 18-C , 24-H ) :   0.9438 B( 18-C , 25-H ) :   0.9426
B( 19-C , 20-O ) :   0.8326 B( 19-C , 26-H ) :   0.9336 B( 19-C , 27-H ) :   0.9377
B( 23-O , 28-H ) :   0.7031

FINAL SINGLE POINT ENERGY      -652.865971528280

DIPOLE MOMENT
-------------
                                X             Y             Z
Electronic contribution:     -2.16153      -3.01788       2.30521
Nuclear contribution   :      2.92992       3.23452      -2.79135
                        -----------------------------------------
Total Dipole Moment    :      0.76839       0.21665      -0.48614
                        -----------------------------------------
Magnitude (a.u.)       :      0.93472
Magnitude (Debye)      :      2.37587

Rotational constants in cm-1:     0.061272     0.013586     0.012380
Rotational constants in MHz :  1836.873963   407.305079   371.151219

                             ****ORCA TERMINATED NORMALLY****
TOTAL RUN TIME: 0 days 0 hours 33 minutes 56 seconds 206 msec
