                         Program Version 4.2.0 -  RELEASE  -
|  1> # Test redundant internal optimization
|  2> #
|  3> ! RKS B3LYP  Opt TightSCF SmallPrint
|  4>
|  5> %basis
|  6>         Basis "6-31G"
|  7> end
|  8>
|  9> %geom
| 10> Constraints
| 11> { D 4  0  15  12  15.0   C } # D for Dihedral angle
| 12> { D 0  15  12  16  165.0   C } # D for Dihedral angle
| 13> { D 0  4  3  2   C } # D for Dihedral angle
| 14> { D 4  3  2  1   C } # D for Dihedral angle
| 15> { D 3  2  1  0   C } # D for Dihedral angle
| 16> { D 2  1  0  4   C } # D for Dihedral angle
| 17> { D 1  0  4  3   C } # D for Dihedral angle
| 18> { D 16  20  19  18   C } # D for Dihedral angle
| 19> { D 20  19  18  17   C } # D for Dihedral angle
| 20> { D 19  18  17  16   C } # D for Dihedral angle
| 21> { D 18  17  16  20   C } # D for Dihedral angle
| 22> { D 17  16  20  19   C } # D for Dihedral angle
| 23> { D 15  12  16  20   C } # D for Dihedral angle
| 24> end
| 25> end
| 26>
| 27>
| 28> #%pal
| 29> #nprocs 8
| 30> #end
| 31>
| 32> * xyz 0 1
| 33> C  -21.048   26.222   46.251
| 34> C  -20.361   27.558   45.944
| 35> C  -20.329   28.222   47.341
| 36> C  -20.110   27.022   48.296
| 37> O  -20.473   25.807   47.535
| 38> H  -20.833   25.428   45.533
| 39> H  -19.344   27.382   45.576
| 40> H  -20.898   28.157   45.201
| 41> H  -19.543   28.978   47.434
| 42> H  -21.289   28.710   47.548
| 43> H  -20.733   27.082   49.195
| 44> H  -19.064   26.913   48.597
| 45> C  -23.128   26.462   47.829
| 46> H  -23.107   25.458   48.271
| 47> H  -22.499   27.120   48.443
| 48> O  -22.586   26.394   46.375
| 49> C  -24.584   26.998   47.903
| 50> C  -25.564   26.044   47.211
| 51> C  -25.749   24.948   48.288
| 52> C  -25.680   25.746   49.615
| 53> O  -25.045   27.041   49.295
| 54> H  -24.608   28.022   47.526
| 55> O  -26.908   26.771   46.932
| 56> H  -25.184   25.648   46.263
| 57> H  -26.689   24.400   48.179
| 58> H  -24.929   24.222   48.230
| 59> H  -25.088   25.235   50.381
| 60> H  -26.671   25.964   50.022
| 61> H  -27.310   27.176   47.868
| 62> *
| 63>
| 64>                          ****END OF INPUT****
 Total Charge           Charge          ....    0
 Multiplicity           Mult            ....    1
 Number of Electrons    NEL             ....  102
FINAL SINGLE POINT ENERGY      -652.832378966550
FINAL SINGLE POINT ENERGY      -652.855998737350
FINAL SINGLE POINT ENERGY      -652.860407193253
FINAL SINGLE POINT ENERGY      -652.861629369032
FINAL SINGLE POINT ENERGY      -652.861757564044
FINAL SINGLE POINT ENERGY      -652.861790241044
                    ***********************HURRAY********************

CARTESIAN COORDINATES (ANGSTROEM)
---------------------------------
  C    -21.183575   26.260139   46.396719
  C    -20.561975   27.588072   45.956874
  C    -20.261276   28.265567   47.317674
  C    -19.871220   27.073228   48.221407
  O    -20.389717   25.857844   47.533560
  H    -21.096848   25.461144   45.657448
  H    -19.636543   27.386196   45.405025
  H    -21.236695   28.167715   45.323241
  H    -19.461623   29.009518   47.250501
  H    -21.157381   28.770205   47.694462
  H    -20.304560   27.123537   49.224042
  H    -18.788163   26.943528   48.305726
  C    -23.099479   26.420102   48.032682
  H    -23.038861   25.427689   48.494606
  H    -22.531370   27.116255   48.657891
  O    -22.609836   26.376747   46.662831
  C    -24.541423   26.918162   47.952371
  C    -25.505751   26.005105   47.183125
  C    -25.824283   24.922149   48.244187
  C    -25.826715   25.717353   49.573668
  O    -25.107892   26.988715   49.304887
  H    -24.554456   27.930606   47.540777
  O    -26.698655   26.736902   46.782741
  H    -25.075855   25.611558   46.264123
  H    -26.783128   24.442304   48.033218
  H    -25.047287   24.149821   48.242726
  H    -25.320714   25.188683   50.387197
  H    -26.835757   25.982260   49.904350
  H    -27.002962   27.288896   47.533939

 Multiplicity           Mult            ....    1
 Number of Electrons    NEL             ....  102
 Basis Dimension        Dim             ....  149

ORBITAL ENERGIES
----------------

  NO   OCC          E(Eh)            E(eV)
   0   2.0000     -19.152239      -521.1589
   1   2.0000     -19.142964      -520.9065
   2   2.0000     -19.141724      -520.8728
   3   2.0000     -19.131910      -520.6057
   4   2.0000     -10.281735      -279.7802
   5   2.0000     -10.234886      -278.5054
   6   2.0000     -10.231829      -278.4222
   7   2.0000     -10.230263      -278.3796
   8   2.0000     -10.229559      -278.3604
   9   2.0000     -10.229474      -278.3581
  10   2.0000     -10.194494      -277.4063
  11   2.0000     -10.188306      -277.2379
  12   2.0000     -10.184425      -277.1323
  13   2.0000      -1.057053       -28.7639
  14   2.0000      -1.033571       -28.1249
  15   2.0000      -1.001465       -27.2512
  16   2.0000      -0.995758       -27.0960
  17   2.0000      -0.793036       -21.5796
  18   2.0000      -0.778734       -21.1904
  19   2.0000      -0.768574       -20.9140
  20   2.0000      -0.733187       -19.9510
  21   2.0000      -0.673586       -18.3292
  22   2.0000      -0.606608       -16.5066
  23   2.0000      -0.601816       -16.3762
  24   2.0000      -0.593201       -16.1418
  25   2.0000      -0.576143       -15.6776
  26   2.0000      -0.524096       -14.2614
  27   2.0000      -0.513532       -13.9739
  28   2.0000      -0.502174       -13.6649
  29   2.0000      -0.490593       -13.3497
  30   2.0000      -0.473392       -12.8817
  31   2.0000      -0.456697       -12.4274
  32   2.0000      -0.445603       -12.1255
  33   2.0000      -0.438423       -11.9301
  34   2.0000      -0.421302       -11.4642
  35   2.0000      -0.418095       -11.3769
  36   2.0000      -0.403769       -10.9871
  37   2.0000      -0.389639       -10.6026
  38   2.0000      -0.378051       -10.2873
  39   2.0000      -0.364535        -9.9195
  40   2.0000      -0.363327        -9.8866
  41   2.0000      -0.357023        -9.7151
  42   2.0000      -0.350666        -9.5421
  43   2.0000      -0.340645        -9.2694
  44   2.0000      -0.324142        -8.8204
  45   2.0000      -0.313450        -8.5294
  46   2.0000      -0.301945        -8.2164
  47   2.0000      -0.269398        -7.3307
  48   2.0000      -0.264298        -7.1919
  49   2.0000      -0.251134        -6.8337
  50   2.0000      -0.245009        -6.6670
  51   0.0000       0.067027         1.8239
  52   0.0000       0.068148         1.8544
  53   0.0000       0.095709         2.6044
  54   0.0000       0.097510         2.6534
  55   0.0000       0.101551         2.7634

MULLIKEN ATOMIC CHARGES
-----------------------
   0 C :    0.302342
   1 C :   -0.258168
   2 C :   -0.312572
   3 C :   -0.021136
   4 O :   -0.509549
   5 H :    0.160693
   6 H :    0.147203
   7 H :    0.160290
   8 H :    0.150162
   9 H :    0.154864
  10 H :    0.149087
  11 H :    0.153169
  12 C :    0.009423
  13 H :    0.139979
  14 H :    0.141925
  15 O :   -0.549074
  16 C :    0.056102
  17 C :    0.092688
  18 C :   -0.299935
  19 C :   -0.030599
  20 O :   -0.531016
  21 H :    0.160338
  22 O :   -0.604713
  23 H :    0.175694
  24 H :    0.159881
  25 H :    0.150672
  26 H :    0.146063
  27 H :    0.145196
  28 H :    0.360992
Sum of atomic charges:   -0.0000000

LOEWDIN ATOMIC CHARGES
----------------------
   0 C :    0.182527
   1 C :   -0.223061
   2 C :   -0.221188
   3 C :   -0.034727
   4 O :   -0.318218
   5 H :    0.108415
   6 H :    0.115469
   7 H :    0.125227
   8 H :    0.118833
   9 H :    0.113191
  10 H :    0.103549
  11 H :    0.107831
  12 C :   -0.033666
  13 H :    0.099205
  14 H :    0.101205
  15 O :   -0.344019
  16 C :    0.017674
  17 C :    0.039187
  18 C :   -0.241729
  19 C :   -0.038199
  20 O :   -0.333208
  21 H :    0.115615
  22 O :   -0.416009
  23 H :    0.128047
  24 H :    0.125966
  25 H :    0.116109
  26 H :    0.103763
  27 H :    0.101879
  28 H :    0.280332

  Mayer bond orders larger than 0.100000
B(  0-C ,  1-C ) :   0.9248 B(  0-C ,  4-O ) :   0.9153 B(  0-C ,  5-H ) :   0.9328
B(  0-C , 15-O ) :   0.8444 B(  1-C ,  2-C ) :   0.9522 B(  1-C ,  6-H ) :   0.9346
B(  1-C ,  7-H ) :   0.9362 B(  2-C ,  3-C ) :   0.9514 B(  2-C ,  8-H ) :   0.9442
B(  2-C ,  9-H ) :   0.9438 B(  3-C ,  4-O ) :   0.8305 B(  3-C , 10-H ) :   0.9301
B(  3-C , 11-H ) :   0.9389 B( 12-C , 13-H ) :   0.9230 B( 12-C , 14-H ) :   0.9097
B( 12-C , 15-O ) :   0.8105 B( 12-C , 16-C ) :   0.9015 B( 16-C , 17-C ) :   0.9136
B( 16-C , 20-O ) :   0.8439 B( 16-C , 21-H ) :   0.9256 B( 17-C , 18-C ) :   0.9135
B( 17-C , 22-O ) :   0.8871 B( 17-C , 23-H ) :   0.9240 B( 18-C , 19-C ) :   0.9409
B( 18-C , 24-H ) :   0.9382 B( 18-C , 25-H ) :   0.9341 B( 19-C , 20-O ) :   0.8424
B( 19-C , 26-H ) :   0.9357 B( 19-C , 27-H ) :   0.9383 B( 22-O , 28-H ) :   0.7969

FINAL SINGLE POINT ENERGY      -652.861793525663

DIPOLE MOMENT
-------------
                                X             Y             Z
Electronic contribution:     -2.62051      -0.90850      -1.22943
Nuclear contribution   :      3.35069       1.12106       1.67521
                        -----------------------------------------
Total Dipole Moment    :      0.73019       0.21257       0.44578
                        -----------------------------------------
Magnitude (a.u.)       :      0.88152
Magnitude (Debye)      :      2.24065

Rotational constants in cm-1:     0.056871     0.012904     0.012225
Rotational constants in MHz :  1704.941534   386.867113   366.502977

                             ****ORCA TERMINATED NORMALLY****
TOTAL RUN TIME: 0 days 0 hours 17 minutes 28 seconds 209 msec
