                         Program Version 4.2.0 -  RELEASE  -
|  1> # Test redundant internal optimization
|  2> #
|  3> ! RKS B3LYP  Opt TightSCF SmallPrint
|  4>
|  5> %basis
|  6>         Basis "6-31G"
|  7> end
|  8>
|  9> %geom
| 10> Constraints
| 11> { D 4  0  15  12  105.0   C } # D for Dihedral angle
| 12> { D 0  15  12  16  225.0   C } # D for Dihedral angle
| 13> { D 0  4  3  2   C } # D for Dihedral angle
| 14> { D 4  3  2  1   C } # D for Dihedral angle
| 15> { D 3  2  1  0   C } # D for Dihedral angle
| 16> { D 2  1  0  4   C } # D for Dihedral angle
| 17> { D 1  0  4  3   C } # D for Dihedral angle
| 18> { D 16  20  19  18   C } # D for Dihedral angle
| 19> { D 20  19  18  17   C } # D for Dihedral angle
| 20> { D 19  18  17  16   C } # D for Dihedral angle
| 21> { D 18  17  16  20   C } # D for Dihedral angle
| 22> { D 17  16  20  19   C } # D for Dihedral angle
| 23> { D 15  12  16  20   C } # D for Dihedral angle
| 24> end
| 25> end
| 26>
| 27>
| 28> #%pal
| 29> #nprocs 8
| 30> #end
| 31>
| 32> * xyz 0 1
| 33> C  -21.048   26.222   46.251
| 34> C  -20.361   27.558   45.944
| 35> C  -20.329   28.222   47.341
| 36> C  -20.110   27.022   48.296
| 37> O  -20.473   25.807   47.535
| 38> H  -20.833   25.428   45.533
| 39> H  -19.344   27.382   45.576
| 40> H  -20.898   28.157   45.201
| 41> H  -19.543   28.978   47.434
| 42> H  -21.289   28.710   47.548
| 43> H  -20.733   27.082   49.195
| 44> H  -19.064   26.913   48.597
| 45> C  -23.085   27.864   46.420
| 46> H  -22.234   28.529   46.615
| 47> H  -23.529   28.149   45.458
| 48> O  -22.586   26.394   46.375
| 49> C  -24.153   28.103   47.523
| 50> C  -23.564   27.892   48.923
| 51> C  -22.809   29.223   49.149
| 52> C  -23.710   30.264   48.438
| 53> O  -24.587   29.504   47.522
| 54> H  -25.033   27.495   47.306
| 55> O  -24.707   27.725   49.961
| 56> H  -22.910   27.016   48.988
| 57> H  -22.663   29.453   50.210
| 58> H  -21.820   29.180   48.677
| 59> H  -23.133   30.993   47.860
| 60> H  -24.359   30.800   49.135
| 61> H  -25.376   28.593   49.916
| 62> *
| 63>
| 64>                          ****END OF INPUT****
 Total Charge           Charge          ....    0
 Multiplicity           Mult            ....    1
 Number of Electrons    NEL             ....  102
FINAL SINGLE POINT ENERGY      -652.790771057387
FINAL SINGLE POINT ENERGY      -652.830709096244
FINAL SINGLE POINT ENERGY      -652.849584827481
FINAL SINGLE POINT ENERGY      -652.853063646326
FINAL SINGLE POINT ENERGY      -652.853599131081
FINAL SINGLE POINT ENERGY      -652.853693182725
FINAL SINGLE POINT ENERGY      -652.853703492689
FINAL SINGLE POINT ENERGY      -652.853704810805
                    ***********************HURRAY********************

CARTESIAN COORDINATES (ANGSTROEM)
---------------------------------
  C    -21.195447   26.329622   46.374634
  C    -20.187462   27.361641   45.848503
  C    -19.816340   28.143467   47.143251
  C    -19.856457   27.034868   48.225823
  O    -20.635427   25.916358   47.642560
  H    -21.219928   25.416648   45.777101
  H    -19.316333   26.823329   45.463016
  H    -20.583355   27.996714   45.051149
  H    -18.828569   28.610051   47.075977
  H    -20.539683   28.936792   47.349156
  H    -20.332883   27.356993   49.155995
  H    -18.861576   26.642271   48.453815
  C    -23.124790   28.041844   46.434804
  H    -22.350416   28.802394   46.572331
  H    -23.603737   28.218136   45.465585
  O    -22.591234   26.686891   46.459935
  C    -24.177370   28.148015   47.542950
  C    -23.668920   27.936474   48.977163
  C    -23.062062   29.325472   49.302746
  C    -24.007012   30.305470   48.563125
  O    -24.743690   29.501768   47.556660
  H    -24.996283   27.456694   47.326055
  O    -24.772701   27.620273   49.870050
  H    -22.968415   27.107018   49.062785
  H    -23.038845   29.491110   50.382943
  H    -22.037241   29.398210   48.923647
  H    -23.471492   31.111860   48.052293
  H    -24.754092   30.750739   49.227444
  H    -25.541239   28.186878   49.645507

 Multiplicity           Mult            ....    1
 Number of Electrons    NEL             ....  102
 Basis Dimension        Dim             ....  149

ORBITAL ENERGIES
----------------

  NO   OCC          E(Eh)            E(eV)
   0   2.0000     -19.146224      -520.9952
   1   2.0000     -19.146098      -520.9918
   2   2.0000     -19.144939      -520.9603
   3   2.0000     -19.133622      -520.6523
   4   2.0000     -10.284673      -279.8602
   5   2.0000     -10.236120      -278.5390
   6   2.0000     -10.235131      -278.5121
   7   2.0000     -10.234182      -278.4863
   8   2.0000     -10.233660      -278.4721
   9   2.0000     -10.232531      -278.4413
  10   2.0000     -10.201597      -277.5996
  11   2.0000     -10.200539      -277.5708
  12   2.0000     -10.190583      -277.2999
  13   2.0000      -1.054095       -28.6834
  14   2.0000      -1.036740       -28.2111
  15   2.0000      -1.003999       -27.3202
  16   2.0000      -0.999564       -27.1995
  17   2.0000      -0.796349       -21.6698
  18   2.0000      -0.782973       -21.3058
  19   2.0000      -0.772834       -21.0299
  20   2.0000      -0.736021       -20.0282
  21   2.0000      -0.683663       -18.6034
  22   2.0000      -0.612141       -16.6572
  23   2.0000      -0.604969       -16.4621
  24   2.0000      -0.598774       -16.2935
  25   2.0000      -0.577829       -15.7235
  26   2.0000      -0.528457       -14.3800
  27   2.0000      -0.512875       -13.9560
  28   2.0000      -0.508490       -13.8367
  29   2.0000      -0.496913       -13.5217
  30   2.0000      -0.477360       -12.9896
  31   2.0000      -0.458682       -12.4814
  32   2.0000      -0.451230       -12.2786
  33   2.0000      -0.441830       -12.0228
  34   2.0000      -0.429674       -11.6920
  35   2.0000      -0.418945       -11.4001
  36   2.0000      -0.411936       -11.2094
  37   2.0000      -0.393266       -10.7013
  38   2.0000      -0.390188       -10.6176
  39   2.0000      -0.372642       -10.1401
  40   2.0000      -0.367944       -10.0123
  41   2.0000      -0.359288        -9.7767
  42   2.0000      -0.355189        -9.6652
  43   2.0000      -0.333540        -9.0761
  44   2.0000      -0.320451        -8.7199
  45   2.0000      -0.305659        -8.3174
  46   2.0000      -0.295764        -8.0481
  47   2.0000      -0.280524        -7.6334
  48   2.0000      -0.265354        -7.2206
  49   2.0000      -0.258523        -7.0348
  50   2.0000      -0.244810        -6.6616
  51   0.0000       0.052546         1.4298
  52   0.0000       0.064435         1.7534
  53   0.0000       0.086029         2.3410
  54   0.0000       0.092494         2.5169
  55   0.0000       0.101787         2.7698

MULLIKEN ATOMIC CHARGES
-----------------------
   0 C :    0.313712
   1 C :   -0.298200
   2 C :   -0.319286
   3 C :   -0.009835
   4 O :   -0.496982
   5 H :    0.166940
   6 H :    0.162706
   7 H :    0.151869
   8 H :    0.148944
   9 H :    0.152186
  10 H :    0.146685
  11 H :    0.150168
  12 C :   -0.009014
  13 H :    0.123273
  14 H :    0.155048
  15 O :   -0.531083
  16 C :    0.063604
  17 C :    0.078099
  18 C :   -0.315301
  19 C :   -0.024812
  20 O :   -0.528464
  21 H :    0.172573
  22 O :   -0.601489
  23 H :    0.189816
  24 H :    0.166483
  25 H :    0.140979
  26 H :    0.140487
  27 H :    0.148376
  28 H :    0.362520
Sum of atomic charges:   -0.0000000

LOEWDIN ATOMIC CHARGES
----------------------
   0 C :    0.178918
   1 C :   -0.230549
   2 C :   -0.223580
   3 C :   -0.033635
   4 O :   -0.317420
   5 H :    0.111157
   6 H :    0.126340
   7 H :    0.118551
   8 H :    0.117818
   9 H :    0.104450
  10 H :    0.102533
  11 H :    0.106486
  12 C :   -0.037083
  13 H :    0.093294
  14 H :    0.110021
  15 O :   -0.326685
  16 C :    0.015739
  17 C :    0.035755
  18 C :   -0.246018
  19 C :   -0.037381
  20 O :   -0.331703
  21 H :    0.120705
  22 O :   -0.412398
  23 H :    0.132295
  24 H :    0.128250
  25 H :    0.107873
  26 H :    0.101325
  27 H :    0.103834
  28 H :    0.281107

  Mayer bond orders larger than 0.100000
B(  0-C ,  1-C ) :   0.9268 B(  0-C ,  4-O ) :   0.9013 B(  0-C ,  5-H ) :   0.9342
B(  0-C , 15-O ) :   0.8899 B(  1-C ,  2-C ) :   0.9505 B(  1-C ,  6-H ) :   0.9339
B(  1-C ,  7-H ) :   0.9335 B(  2-C ,  3-C ) :   0.9473 B(  2-C ,  8-H ) :   0.9444
B(  2-C ,  9-H ) :   0.9287 B(  3-C ,  4-O ) :   0.8482 B(  3-C , 10-H ) :   0.9294
B(  3-C , 11-H ) :   0.9382 B( 12-C , 13-H ) :   0.9110 B( 12-C , 14-H ) :   0.9266
B( 12-C , 15-O ) :   0.8251 B( 12-C , 16-C ) :   0.8979 B( 16-C , 17-C ) :   0.9108
B( 16-C , 20-O ) :   0.8393 B( 16-C , 21-H ) :   0.9245 B( 17-C , 18-C ) :   0.9103
B( 17-C , 22-O ) :   0.8878 B( 17-C , 23-H ) :   0.9149 B( 18-C , 19-C ) :   0.9411
B( 18-C , 24-H ) :   0.9373 B( 18-C , 25-H ) :   0.9258 B( 19-C , 20-O ) :   0.8441
B( 19-C , 26-H ) :   0.9364 B( 19-C , 27-H ) :   0.9382 B( 22-O , 28-H ) :   0.7952

FINAL SINGLE POINT ENERGY      -652.853695606750

DIPOLE MOMENT
-------------
                                X             Y             Z
Electronic contribution:     -5.42956      -4.56417      -0.21059
Nuclear contribution   :      6.67852       5.96945      -0.25483
                        -----------------------------------------
Total Dipole Moment    :      1.24897       1.40528      -0.46542
                        -----------------------------------------
Magnitude (a.u.)       :      1.93684
Magnitude (Debye)      :      4.92305

Rotational constants in cm-1:     0.044772     0.016403     0.016024
Rotational constants in MHz :  1342.230177   491.753696   480.386247

                             ****ORCA TERMINATED NORMALLY****
TOTAL RUN TIME: 0 days 0 hours 28 minutes 7 seconds 672 msec
