                         Program Version 4.2.0 -  RELEASE  -
|  1> # Test redundant internal optimization
|  2> #
|  3> ! RKS B3LYP  Opt TightSCF SmallPrint
|  4>
|  5> %basis
|  6>         Basis "6-31G"
|  7> end
|  8>
|  9> %geom
| 10> Constraints
| 11> { D 4  0  15  12  330.0   C } # D for Dihedral angle
| 12> { D 0  15  12  16  180.0   C } # D for Dihedral angle
| 13> { D 0  4  3  2   C } # D for Dihedral angle
| 14> { D 4  3  2  1   C } # D for Dihedral angle
| 15> { D 3  2  1  0   C } # D for Dihedral angle
| 16> { D 2  1  0  4   C } # D for Dihedral angle
| 17> { D 1  0  4  3   C } # D for Dihedral angle
| 18> { D 16  20  19  18   C } # D for Dihedral angle
| 19> { D 20  19  18  17   C } # D for Dihedral angle
| 20> { D 19  18  17  16   C } # D for Dihedral angle
| 21> { D 18  17  16  20   C } # D for Dihedral angle
| 22> { D 17  16  20  19   C } # D for Dihedral angle
| 23> { D 15  12  16  20   C } # D for Dihedral angle
| 24> end
| 25> end
| 26>
| 27>
| 28> #%pal
| 29> #nprocs 8
| 30> #end
| 31>
| 32> * xyz 0 1
| 33> C  -21.048   26.222   46.251
| 34> C  -20.361   27.558   45.944
| 35> C  -20.329   28.222   47.341
| 36> C  -20.110   27.022   48.296
| 37> O  -20.473   25.807   47.535
| 38> H  -20.833   25.428   45.533
| 39> H  -19.344   27.382   45.576
| 40> H  -20.898   28.157   45.201
| 41> H  -19.543   28.978   47.434
| 42> H  -21.289   28.710   47.548
| 43> H  -20.733   27.082   49.195
| 44> H  -19.064   26.913   48.597
| 45> C  -23.271   25.476   47.424
| 46> H  -23.084   24.426   47.163
| 47> H  -22.857   25.659   48.424
| 48> O  -22.586   26.394   46.375
| 49> C  -24.807   25.694   47.501
| 50> C  -25.493   25.295   46.190
| 51> C  -25.550   23.755   46.321
| 52> C  -25.781   23.540   47.838
| 53> O  -25.401   24.804   48.504
| 54> H  -25.007   26.718   47.823
| 55> H  -26.503   25.718   46.150
| 56> O  -24.717   25.764   44.928
| 57> H  -26.340   23.306   45.711
| 58> H  -24.595   23.315   46.009
| 59> H  -25.173   22.724   48.243
| 60> H  -26.831   23.351   48.078
| 61> H  -23.702   25.353   44.947
| 62> *
| 63>
| 64>                          ****END OF INPUT****
 Total Charge           Charge          ....    0
 Multiplicity           Mult            ....    1
 Number of Electrons    NEL             ....  102
FINAL SINGLE POINT ENERGY      -652.832650147324
FINAL SINGLE POINT ENERGY      -652.857369387954
FINAL SINGLE POINT ENERGY      -652.863965248299
FINAL SINGLE POINT ENERGY      -652.866531247854
FINAL SINGLE POINT ENERGY      -652.867986629965
FINAL SINGLE POINT ENERGY      -652.868868506626
FINAL SINGLE POINT ENERGY      -652.869218427904
FINAL SINGLE POINT ENERGY      -652.869302928477
FINAL SINGLE POINT ENERGY      -652.869313982502
                    ***********************HURRAY********************

CARTESIAN COORDINATES (ANGSTROEM)
---------------------------------
  C    -21.066426   26.118748   46.318691
  C    -20.514712   27.493853   45.949626
  C    -20.469598   28.194136   47.324853
  C    -20.103051   27.052596   48.295442
  O    -20.409199   25.789192   47.557042
  H    -20.838586   25.304306   45.625089
  H    -19.510069   27.374020   45.528923
  H    -21.143654   28.014109   45.223695
  H    -19.743371   29.011976   47.354732
  H    -21.456265   28.602973   47.561780
  H    -20.683001   27.064223   49.221588
  H    -19.037168   27.015636   48.535081
  C    -23.155469   25.388512   47.485962
  H    -22.945254   24.328873   47.289342
  H    -22.761856   25.633270   48.474745
  O    -22.518009   26.224109   46.457561
  C    -24.659184   25.675420   47.434811
  C    -25.362197   25.292153   46.121066
  C    -25.530979   23.753421   46.289066
  C    -25.789745   23.594654   47.801547
  O    -25.322400   24.857382   48.447889
  H    -24.836120   26.720938   47.702464
  H    -26.351089   25.764369   46.108101
  O    -24.685480   25.668903   44.906299
  H    -26.348158   23.366064   45.674759
  H    -24.607789   23.256773   45.972429
  H    -25.251699   22.753328   48.248485
  H    -26.853028   23.500035   48.040080
  H    -23.769444   25.959028   45.128854

 Multiplicity           Mult            ....    1
 Number of Electrons    NEL             ....  102
 Basis Dimension        Dim             ....  149

ORBITAL ENERGIES
----------------

  NO   OCC          E(Eh)            E(eV)
   0   2.0000     -19.163358      -521.4615
   1   2.0000     -19.158986      -521.3425
   2   2.0000     -19.138047      -520.7727
   3   2.0000     -19.111301      -520.0450
   4   2.0000     -10.292904      -280.0841
   5   2.0000     -10.238602      -278.6065
   6   2.0000     -10.233746      -278.4744
   7   2.0000     -10.232074      -278.4289
   8   2.0000     -10.227839      -278.3136
   9   2.0000     -10.224223      -278.2153
  10   2.0000     -10.196393      -277.4580
  11   2.0000     -10.196258      -277.4543
  12   2.0000     -10.176793      -276.9246
  13   2.0000      -1.069036       -29.0900
  14   2.0000      -1.024107       -27.8674
  15   2.0000      -1.007019       -27.4024
  16   2.0000      -0.990397       -26.9501
  17   2.0000      -0.800622       -21.7860
  18   2.0000      -0.773088       -21.0368
  19   2.0000      -0.766134       -20.8476
  20   2.0000      -0.736805       -20.0495
  21   2.0000      -0.676143       -18.3988
  22   2.0000      -0.611420       -16.6376
  23   2.0000      -0.598802       -16.2942
  24   2.0000      -0.592360       -16.1189
  25   2.0000      -0.576614       -15.6905
  26   2.0000      -0.533284       -14.5114
  27   2.0000      -0.515833       -14.0365
  28   2.0000      -0.505795       -13.7634
  29   2.0000      -0.485880       -13.2215
  30   2.0000      -0.476781       -12.9739
  31   2.0000      -0.457817       -12.4578
  32   2.0000      -0.440667       -11.9912
  33   2.0000      -0.429905       -11.6983
  34   2.0000      -0.426044       -11.5933
  35   2.0000      -0.419463       -11.4142
  36   2.0000      -0.409554       -11.1445
  37   2.0000      -0.386358       -10.5133
  38   2.0000      -0.381994       -10.3946
  39   2.0000      -0.369895       -10.0653
  40   2.0000      -0.364721        -9.9246
  41   2.0000      -0.362842        -9.8734
  42   2.0000      -0.356054        -9.6887
  43   2.0000      -0.340819        -9.2742
  44   2.0000      -0.329476        -8.9655
  45   2.0000      -0.315138        -8.5753
  46   2.0000      -0.289325        -7.8729
  47   2.0000      -0.275520        -7.4973
  48   2.0000      -0.268502        -7.3063
  49   2.0000      -0.248127        -6.7519
  50   2.0000      -0.240565        -6.5461
  51   0.0000       0.060685         1.6513
  52   0.0000       0.076346         2.0775
  53   0.0000       0.092585         2.5194
  54   0.0000       0.098424         2.6783
  55   0.0000       0.102575         2.7912

MULLIKEN ATOMIC CHARGES
-----------------------
   0 C :    0.304580
   1 C :   -0.262735
   2 C :   -0.300884
   3 C :   -0.017671
   4 O :   -0.509373
   5 H :    0.158225
   6 H :    0.151226
   7 H :    0.163958
   8 H :    0.149521
   9 H :    0.161771
  10 H :    0.152644
  11 H :    0.153984
  12 C :    0.000121
  13 H :    0.142107
  14 H :    0.166299
  15 O :   -0.574246
  16 C :    0.049769
  17 C :    0.119411
  18 C :   -0.301704
  19 C :   -0.018583
  20 O :   -0.523132
  21 H :    0.156227
  22 H :    0.144710
  23 O :   -0.642434
  24 H :    0.151759
  25 H :    0.145173
  26 H :    0.141713
  27 H :    0.147078
  28 H :    0.390488
Sum of atomic charges:   -0.0000000

LOEWDIN ATOMIC CHARGES
----------------------
   0 C :    0.180321
   1 C :   -0.215265
   2 C :   -0.216514
   3 C :   -0.029769
   4 O :   -0.316973
   5 H :    0.103851
   6 H :    0.117504
   7 H :    0.127224
   8 H :    0.118500
   9 H :    0.118885
  10 H :    0.107149
  11 H :    0.108970
  12 C :   -0.040473
  13 H :    0.100266
  14 H :    0.115205
  15 O :   -0.348726
  16 C :    0.018376
  17 C :    0.041497
  18 C :   -0.236481
  19 C :   -0.032128
  20 O :   -0.324368
  21 H :    0.113588
  22 H :    0.103971
  23 O :   -0.438183
  24 H :    0.121160
  25 H :    0.111017
  26 H :    0.101933
  27 H :    0.105264
  28 H :    0.284201

  Mayer bond orders larger than 0.100000
B(  0-C ,  1-C ) :   0.9479 B(  0-C ,  4-O ) :   0.9212 B(  0-C ,  5-H ) :   0.9234
B(  0-C , 15-O ) :   0.7943 B(  1-C ,  2-C ) :   0.9523 B(  1-C ,  6-H ) :   0.9362
B(  1-C ,  7-H ) :   0.9349 B(  2-C ,  3-C ) :   0.9546 B(  2-C ,  8-H ) :   0.9440
B(  2-C ,  9-H ) :   0.9445 B(  3-C ,  4-O ) :   0.8244 B(  3-C , 10-H ) :   0.9332
B(  3-C , 11-H ) :   0.9399 B( 12-C , 13-H ) :   0.9232 B( 12-C , 14-H ) :   0.9220
B( 12-C , 15-O ) :   0.7719 B( 12-C , 16-C ) :   0.9053 B( 16-C , 17-C ) :   0.9123
B( 16-C , 20-O ) :   0.8547 B( 16-C , 21-H ) :   0.9296 B( 17-C , 18-C ) :   0.9022
B( 17-C , 22-H ) :   0.9294 B( 17-C , 23-O ) :   0.9344 B( 18-C , 19-C ) :   0.9396
B( 18-C , 24-H ) :   0.9446 B( 18-C , 25-H ) :   0.9433 B( 19-C , 20-O ) :   0.8336
B( 19-C , 26-H ) :   0.9343 B( 19-C , 27-H ) :   0.9390 B( 23-O , 28-H ) :   0.7228

FINAL SINGLE POINT ENERGY      -652.869315621849

DIPOLE MOMENT
-------------
                                X             Y             Z
Electronic contribution:     -1.45652      -0.85488      -0.24923
Nuclear contribution   :      2.44655       1.23257       0.51327
                        -----------------------------------------
Total Dipole Moment    :      0.99003       0.37768       0.26404
                        -----------------------------------------
Magnitude (a.u.)       :      1.09203
Magnitude (Debye)      :      2.77571

Rotational constants in cm-1:     0.056166     0.013825     0.012445
Rotational constants in MHz :  1683.807540   414.455291   373.080922

                             ****ORCA TERMINATED NORMALLY****
TOTAL RUN TIME: 0 days 0 hours 30 minutes 51 seconds 393 msec
