                         Program Version 4.2.0 -  RELEASE  -
|  1> # Test redundant internal optimization
|  2> #
|  3> ! RKS B3LYP  Opt TightSCF SmallPrint
|  4>
|  5> %basis
|  6>         Basis "6-31G"
|  7> end
|  8>
|  9> %geom
| 10> Constraints
| 11> { D 4  0  15  12  90.0   C } # D for Dihedral angle
| 12> { D 0  15  12  16  210.0   C } # D for Dihedral angle
| 13> { D 0  4  3  2   C } # D for Dihedral angle
| 14> { D 4  3  2  1   C } # D for Dihedral angle
| 15> { D 3  2  1  0   C } # D for Dihedral angle
| 16> { D 2  1  0  4   C } # D for Dihedral angle
| 17> { D 1  0  4  3   C } # D for Dihedral angle
| 18> { D 16  20  19  18   C } # D for Dihedral angle
| 19> { D 20  19  18  17   C } # D for Dihedral angle
| 20> { D 19  18  17  16   C } # D for Dihedral angle
| 21> { D 18  17  16  20   C } # D for Dihedral angle
| 22> { D 17  16  20  19   C } # D for Dihedral angle
| 23> { D 15  12  16  20   C } # D for Dihedral angle
| 24> end
| 25> end
| 26>
| 27>
| 28> #%pal
| 29> #nprocs 8
| 30> #end
| 31>
| 32> * xyz 0 1
| 33> C  -21.048   26.222   46.251
| 34> C  -20.361   27.558   45.944
| 35> C  -20.329   28.222   47.341
| 36> C  -20.110   27.022   48.296
| 37> O  -20.473   25.807   47.535
| 38> H  -20.833   25.428   45.533
| 39> H  -19.344   27.382   45.576
| 40> H  -20.898   28.157   45.201
| 41> H  -19.543   28.978   47.434
| 42> H  -21.289   28.710   47.548
| 43> H  -20.733   27.082   49.195
| 44> H  -19.064   26.913   48.597
| 45> C  -23.061   27.816   46.783
| 46> H  -22.289   28.291   47.402
| 47> H  -23.218   28.438   45.893
| 48> O  -22.586   26.394   46.375
| 49> C  -24.390   27.797   47.588
| 50> C  -25.496   27.064   46.820
| 51> C  -25.134   25.583   47.086
| 52> C  -24.578   25.611   48.532
| 53> O  -24.231   27.020   48.822
| 54> H  -24.644   28.816   47.883
| 55> H  -26.474   27.306   47.249
| 56> O  -25.523   27.414   45.307
| 57> H  -25.992   24.911   46.982
| 58> H  -24.362   25.252   46.382
| 59> H  -23.685   24.989   48.651
| 60> H  -25.323   25.305   49.272
| 61> H  -24.552   27.180   44.857
| 62> *
| 63>
| 64>                          ****END OF INPUT****
 Total Charge           Charge          ....    0
 Multiplicity           Mult            ....    1
 Number of Electrons    NEL             ....  102
FINAL SINGLE POINT ENERGY      -652.792985208291
FINAL SINGLE POINT ENERGY      -652.831900492560
FINAL SINGLE POINT ENERGY      -652.851001479881
FINAL SINGLE POINT ENERGY      -652.855052972952
FINAL SINGLE POINT ENERGY      -652.855747788481
FINAL SINGLE POINT ENERGY      -652.855874821484
FINAL SINGLE POINT ENERGY      -652.855899364205
FINAL SINGLE POINT ENERGY      -652.855903133369
FINAL SINGLE POINT ENERGY      -652.855902381220
                    ***********************HURRAY********************

CARTESIAN COORDINATES (ANGSTROEM)
---------------------------------
  C    -21.168835   26.417262   46.408348
  C    -20.243853   27.556330   45.954732
  C    -19.926545   28.276005   47.299965
  C    -19.877950   27.096004   48.304367
  O    -20.574025   25.964927   47.642847
  H    -21.133887   25.551758   45.744068
  H    -19.336107   27.115936   45.531066
  H    -20.697364   28.211111   45.204880
  H    -18.972459   28.811529   47.260992
  H    -20.697237   29.004202   47.560388
  H    -20.379004   27.314384   49.251277
  H    -18.855663   26.763724   48.505561
  C    -23.181111   27.943737   46.861340
  H    -22.541419   28.488067   47.559746
  H    -23.333712   28.558194   45.963905
  O    -22.588919   26.661849   46.496653
  C    -24.519783   27.720358   47.563671
  C    -25.581572   26.969327   46.742393
  C    -25.200766   25.479854   47.007940
  C    -24.708257   25.513665   48.470592
  O    -24.401349   26.936369   48.781555
  H    -24.884922   28.710599   47.863289
  H    -26.578840   27.199806   47.123401
  O    -25.617001   27.336728   45.340804
  H    -26.052736   24.808300   46.864693
  H    -24.391812   25.193864   46.332435
  H    -23.799736   24.926089   48.622485
  H    -25.476649   25.195707   49.182127
  H    -24.841487   26.942315   44.889476

 Multiplicity           Mult            ....    1
 Number of Electrons    NEL             ....  102
 Basis Dimension        Dim             ....  149

ORBITAL ENERGIES
----------------

  NO   OCC          E(Eh)            E(eV)
   0   2.0000     -19.150262      -521.1051
   1   2.0000     -19.142625      -520.8973
   2   2.0000     -19.136568      -520.7325
   3   2.0000     -19.128916      -520.5243
   4   2.0000     -10.284774      -279.8629
   5   2.0000     -10.233201      -278.4596
   6   2.0000     -10.232727      -278.4467
   7   2.0000     -10.229886      -278.3694
   8   2.0000     -10.228133      -278.3216
   9   2.0000     -10.214992      -277.9641
  10   2.0000     -10.198230      -277.5079
  11   2.0000     -10.196971      -277.4737
  12   2.0000     -10.174079      -276.8508
  13   2.0000      -1.054886       -28.7049
  14   2.0000      -1.023638       -27.8546
  15   2.0000      -1.006333       -27.3837
  16   2.0000      -0.997244       -27.1364
  17   2.0000      -0.792744       -21.5717
  18   2.0000      -0.775228       -21.0950
  19   2.0000      -0.762557       -20.7502
  20   2.0000      -0.733613       -19.9626
  21   2.0000      -0.680355       -18.5134
  22   2.0000      -0.609316       -16.5803
  23   2.0000      -0.601291       -16.3620
  24   2.0000      -0.596720       -16.2376
  25   2.0000      -0.561639       -15.2830
  26   2.0000      -0.526970       -14.3396
  27   2.0000      -0.508917       -13.8483
  28   2.0000      -0.500711       -13.6250
  29   2.0000      -0.487702       -13.2711
  30   2.0000      -0.470057       -12.7909
  31   2.0000      -0.458766       -12.4837
  32   2.0000      -0.442126       -12.0309
  33   2.0000      -0.428770       -11.6674
  34   2.0000      -0.422742       -11.5034
  35   2.0000      -0.416747       -11.3403
  36   2.0000      -0.403057       -10.9677
  37   2.0000      -0.396457       -10.7882
  38   2.0000      -0.388672       -10.5763
  39   2.0000      -0.368443       -10.0258
  40   2.0000      -0.363669        -9.8959
  41   2.0000      -0.355130        -9.6636
  42   2.0000      -0.345306        -9.3963
  43   2.0000      -0.322610        -8.7787
  44   2.0000      -0.314717        -8.5639
  45   2.0000      -0.305557        -8.3146
  46   2.0000      -0.297356        -8.0915
  47   2.0000      -0.275976        -7.5097
  48   2.0000      -0.258413        -7.0318
  49   2.0000      -0.256946        -6.9919
  50   2.0000      -0.234464        -6.3801
  51   0.0000       0.061670         1.6781
  52   0.0000       0.085997         2.3401
  53   0.0000       0.090833         2.4717
  54   0.0000       0.095544         2.5999
  55   0.0000       0.104696         2.8489

MULLIKEN ATOMIC CHARGES
-----------------------
   0 C :    0.312291
   1 C :   -0.288683
   2 C :   -0.315831
   3 C :   -0.009210
   4 O :   -0.498593
   5 H :    0.160856
   6 H :    0.159762
   7 H :    0.147491
   8 H :    0.147008
   9 H :    0.151850
  10 H :    0.157929
  11 H :    0.147036
  12 C :   -0.024447
  13 H :    0.148389
  14 H :    0.138296
  15 O :   -0.541658
  16 C :    0.098588
  17 C :    0.087558
  18 C :   -0.313890
  19 C :   -0.006381
  20 O :   -0.522612
  21 H :    0.144270
  22 H :    0.157896
  23 O :   -0.610009
  24 H :    0.141512
  25 H :    0.169054
  26 H :    0.160545
  27 H :    0.138677
  28 H :    0.362304
Sum of atomic charges:   -0.0000000

LOEWDIN ATOMIC CHARGES
----------------------
   0 C :    0.176179
   1 C :   -0.229472
   2 C :   -0.223233
   3 C :   -0.031929
   4 O :   -0.317648
   5 H :    0.109259
   6 H :    0.124654
   7 H :    0.117121
   8 H :    0.116512
   9 H :    0.109754
  10 H :    0.110120
  11 H :    0.104978
  12 C :   -0.050103
  13 H :    0.105715
  14 H :    0.100335
  15 O :   -0.330808
  16 C :    0.019808
  17 C :    0.037735
  18 C :   -0.243418
  19 C :   -0.025134
  20 O :   -0.323403
  21 H :    0.111789
  22 H :    0.114597
  23 O :   -0.413869
  24 H :    0.113517
  25 H :    0.123542
  26 H :    0.112676
  27 H :    0.099441
  28 H :    0.281287

  Mayer bond orders larger than 0.100000
B(  0-C ,  1-C ) :   0.9248 B(  0-C ,  4-O ) :   0.9138 B(  0-C ,  5-H ) :   0.9366
B(  0-C , 15-O ) :   0.8849 B(  1-C ,  2-C ) :   0.9545 B(  1-C ,  6-H ) :   0.9348
B(  1-C ,  7-H ) :   0.9357 B(  2-C ,  3-C ) :   0.9472 B(  2-C ,  8-H ) :   0.9444
B(  2-C ,  9-H ) :   0.9363 B(  3-C ,  4-O ) :   0.8430 B(  3-C , 10-H ) :   0.9325
B(  3-C , 11-H ) :   0.9389 B( 12-C , 13-H ) :   0.9076 B( 12-C , 14-H ) :   0.9098
B( 12-C , 15-O ) :   0.8260 B( 12-C , 16-C ) :   0.9026 B( 16-C , 17-C ) :   0.8886
B( 16-C , 20-O ) :   0.8873 B( 16-C , 21-H ) :   0.9278 B( 17-C , 18-C ) :   0.9355
B( 17-C , 22-H ) :   0.9371 B( 17-C , 23-O ) :   0.8963 B( 18-C , 19-C ) :   0.9483
B( 18-C , 24-H ) :   0.9410 B( 18-C , 25-H ) :   0.9254 B( 19-C , 20-O ) :   0.8308
B( 19-C , 26-H ) :   0.9297 B( 19-C , 27-H ) :   0.9374 B( 23-O , 28-H ) :   0.7940

FINAL SINGLE POINT ENERGY      -652.855900912115

DIPOLE MOMENT
-------------
                                X             Y             Z
Electronic contribution:     -3.14296      -1.63731       0.17533
Nuclear contribution   :      4.17170       2.10154      -0.63132
                        -----------------------------------------
Total Dipole Moment    :      1.02874       0.46423      -0.45598
                        -----------------------------------------
Magnitude (a.u.)       :      1.21726
Magnitude (Debye)      :      3.09404

Rotational constants in cm-1:     0.049036     0.016258     0.014797
Rotational constants in MHz :  1470.052531   487.402536   443.598400

                             ****ORCA TERMINATED NORMALLY****
TOTAL RUN TIME: 0 days 0 hours 29 minutes 50 seconds 268 msec
