                         Program Version 4.2.0 -  RELEASE  -
|  1> # Test redundant internal optimization
|  2> #
|  3> ! RKS B3LYP  Opt TightSCF SmallPrint
|  4>
|  5> %basis
|  6>         Basis "6-31G"
|  7> end
|  8>
|  9> %geom
| 10> Constraints
| 11> { D 4  0  15  12  90.0   C } # D for Dihedral angle
| 12> { D 0  15  12  16  240.0   C } # D for Dihedral angle
| 13> { D 0  4  3  2   C } # D for Dihedral angle
| 14> { D 4  3  2  1   C } # D for Dihedral angle
| 15> { D 3  2  1  0   C } # D for Dihedral angle
| 16> { D 2  1  0  4   C } # D for Dihedral angle
| 17> { D 1  0  4  3   C } # D for Dihedral angle
| 18> { D 16  20  19  18   C } # D for Dihedral angle
| 19> { D 20  19  18  17   C } # D for Dihedral angle
| 20> { D 19  18  17  16   C } # D for Dihedral angle
| 21> { D 18  17  16  20   C } # D for Dihedral angle
| 22> { D 17  16  20  19   C } # D for Dihedral angle
| 23> { D 15  12  16  20   C } # D for Dihedral angle
| 24> end
| 25> end
| 26>
| 27>
| 28> #%pal
| 29> #nprocs 8
| 30> #end
| 31>
| 32> * xyz 0 1
| 33> C  -21.048   26.222   46.251
| 34> C  -20.361   27.558   45.944
| 35> C  -20.329   28.222   47.341
| 36> C  -20.110   27.022   48.296
| 37> O  -20.473   25.807   47.535
| 38> H  -20.833   25.428   45.533
| 39> H  -19.344   27.382   45.576
| 40> H  -20.898   28.157   45.201
| 41> H  -19.543   28.978   47.434
| 42> H  -21.289   28.710   47.548
| 43> H  -20.733   27.082   49.195
| 44> H  -19.064   26.913   48.597
| 45> C  -23.061   27.816   46.783
| 46> H  -22.187   28.468   46.906
| 47> H  -23.702   28.245   46.003
| 48> O  -22.586   26.394   46.375
| 49> C  -23.865   27.821   48.112
| 50> C  -25.057   26.859   48.046
| 51> C  -24.370   25.493   48.289
| 52> C  -23.240   25.841   49.290
| 53> O  -23.044   27.305   49.211
| 54> H  -24.129   28.849   48.366
| 55> H  -25.766   27.083   48.851
| 56> O  -25.816   26.918   46.693
| 57> H  -25.057   24.736   48.681
| 58> H  -23.950   25.111   47.351
| 59> H  -22.297   25.338   49.051
| 60> H  -23.513   25.608   50.324
| 61> H  -25.124   26.697   45.873
| 62> *
| 63>
| 64>                          ****END OF INPUT****
 Total Charge           Charge          ....    0
 Multiplicity           Mult            ....    1
 Number of Electrons    NEL             ....  102
FINAL SINGLE POINT ENERGY      -652.796139178455
FINAL SINGLE POINT ENERGY      -652.835014049076
FINAL SINGLE POINT ENERGY      -652.853886482587
FINAL SINGLE POINT ENERGY      -652.858153517711
FINAL SINGLE POINT ENERGY      -652.858904334320
FINAL SINGLE POINT ENERGY      -652.859080953656
FINAL SINGLE POINT ENERGY      -652.859109613774
FINAL SINGLE POINT ENERGY      -652.859102308050
FINAL SINGLE POINT ENERGY      -652.859098300738
                    ***********************HURRAY********************

CARTESIAN COORDINATES (ANGSTROEM)
---------------------------------
  C    -21.125369   26.427062   46.330516
  C    -20.217023   27.594939   45.915195
  C    -19.916887   28.279528   47.284798
  C    -19.853260   27.069890   48.252653
  O    -20.527982   25.947207   47.554123
  H    -21.083586   25.583412   45.639416
  H    -19.299875   27.183603   45.483035
  H    -20.680415   28.262332   45.182832
  H    -18.970502   28.829786   47.265360
  H    -20.698420   28.982323   47.576494
  H    -20.376583   27.255477   49.193202
  H    -18.827973   26.746815   48.452313
  C    -23.170465   27.915379   46.832847
  H    -22.432846   28.698503   47.007332
  H    -23.816890   28.234677   46.005800
  O    -22.547093   26.657732   46.433355
  C    -24.026333   27.748426   48.086301
  C    -25.185102   26.742167   47.969469
  C    -24.467672   25.392954   48.285358
  C    -23.417830   25.800542   49.340667
  O    -23.265151   27.282225   49.236568
  H    -24.404147   28.745641   48.346499
  H    -25.950874   26.970857   48.713396
  O    -25.873605   26.772800   46.695192
  H    -25.164574   24.634842   48.655043
  H    -23.980675   25.030377   47.378070
  H    -22.442472   25.345847   49.159053
  H    -23.747976   25.593505   50.363269
  H    -25.317422   26.334152   46.017845

 Multiplicity           Mult            ....    1
 Number of Electrons    NEL             ....  102
 Basis Dimension        Dim             ....  149

ORBITAL ENERGIES
----------------

  NO   OCC          E(Eh)            E(eV)
   0   2.0000     -19.148228      -521.0498
   1   2.0000     -19.142545      -520.8951
   2   2.0000     -19.136164      -520.7215
   3   2.0000     -19.131791      -520.6025
   4   2.0000     -10.284464      -279.8545
   5   2.0000     -10.232346      -278.4363
   6   2.0000     -10.231648      -278.4173
   7   2.0000     -10.226826      -278.2861
   8   2.0000     -10.225300      -278.2446
   9   2.0000     -10.212291      -277.8906
  10   2.0000     -10.196640      -277.4647
  11   2.0000     -10.193847      -277.3887
  12   2.0000     -10.172599      -276.8105
  13   2.0000      -1.053491       -28.6669
  14   2.0000      -1.022650       -27.8277
  15   2.0000      -1.005576       -27.3631
  16   2.0000      -0.995759       -27.0960
  17   2.0000      -0.790316       -21.5056
  18   2.0000      -0.773826       -21.0569
  19   2.0000      -0.761726       -20.7276
  20   2.0000      -0.732121       -19.9220
  21   2.0000      -0.679359       -18.4863
  22   2.0000      -0.607703       -16.5364
  23   2.0000      -0.599115       -16.3027
  24   2.0000      -0.595699       -16.2098
  25   2.0000      -0.560112       -15.2414
  26   2.0000      -0.527505       -14.3542
  27   2.0000      -0.507455       -13.8086
  28   2.0000      -0.496022       -13.4974
  29   2.0000      -0.491670       -13.3790
  30   2.0000      -0.462908       -12.5964
  31   2.0000      -0.457854       -12.4589
  32   2.0000      -0.442391       -12.0381
  33   2.0000      -0.427565       -11.6346
  34   2.0000      -0.420264       -11.4360
  35   2.0000      -0.414850       -11.2886
  36   2.0000      -0.401748       -10.9321
  37   2.0000      -0.393629       -10.7112
  38   2.0000      -0.388736       -10.5780
  39   2.0000      -0.366140        -9.9632
  40   2.0000      -0.360167        -9.8006
  41   2.0000      -0.351852        -9.5744
  42   2.0000      -0.347582        -9.4582
  43   2.0000      -0.322163        -8.7665
  44   2.0000      -0.314270        -8.5517
  45   2.0000      -0.305104        -8.3023
  46   2.0000      -0.298159        -8.1133
  47   2.0000      -0.277522        -7.5518
  48   2.0000      -0.258809        -7.0426
  49   2.0000      -0.254764        -6.9325
  50   2.0000      -0.233482        -6.3534
  51   0.0000       0.066946         1.8217
  52   0.0000       0.084299         2.2939
  53   0.0000       0.093014         2.5311
  54   0.0000       0.098804         2.6886
  55   0.0000       0.105554         2.8723

MULLIKEN ATOMIC CHARGES
-----------------------
   0 C :    0.317700
   1 C :   -0.292613
   2 C :   -0.318020
   3 C :   -0.011024
   4 O :   -0.503605
   5 H :    0.162364
   6 H :    0.159160
   7 H :    0.149021
   8 H :    0.145307
   9 H :    0.163108
  10 H :    0.170787
  11 H :    0.142821
  12 C :   -0.029765
  13 H :    0.137255
  14 H :    0.149069
  15 O :   -0.545139
  16 C :    0.103205
  17 C :    0.087748
  18 C :   -0.310657
  19 C :   -0.018146
  20 O :   -0.531362
  21 H :    0.140161
  22 H :    0.158755
  23 O :   -0.608762
  24 H :    0.140560
  25 H :    0.167289
  26 H :    0.175963
  27 H :    0.133403
  28 H :    0.365417
Sum of atomic charges:   -0.0000000

LOEWDIN ATOMIC CHARGES
----------------------
   0 C :    0.178443
   1 C :   -0.229683
   2 C :   -0.222468
   3 C :   -0.033049
   4 O :   -0.320373
   5 H :    0.110059
   6 H :    0.124687
   7 H :    0.117635
   8 H :    0.115611
   9 H :    0.112678
  10 H :    0.116716
  11 H :    0.102801
  12 C :   -0.049448
  13 H :    0.104417
  14 H :    0.107929
  15 O :   -0.333343
  16 C :    0.014908
  17 C :    0.037446
  18 C :   -0.241261
  19 C :   -0.030268
  20 O :   -0.331030
  21 H :    0.110125
  22 H :    0.114783
  23 O :   -0.413045
  24 H :    0.113204
  25 H :    0.123057
  26 H :    0.118474
  27 H :    0.097530
  28 H :    0.283466

  Mayer bond orders larger than 0.100000
B(  0-C ,  1-C ) :   0.9277 B(  0-C ,  4-O ) :   0.9053 B(  0-C ,  5-H ) :   0.9363
B(  0-C , 15-O ) :   0.8802 B(  1-C ,  2-C ) :   0.9537 B(  1-C ,  6-H ) :   0.9344
B(  1-C ,  7-H ) :   0.9352 B(  2-C ,  3-C ) :   0.9494 B(  2-C ,  8-H ) :   0.9448
B(  2-C ,  9-H ) :   0.9318 B(  3-C ,  4-O ) :   0.8338 B(  3-C , 10-H ) :   0.9251
B(  3-C , 11-H ) :   0.9388 B( 12-C , 13-H ) :   0.9101 B( 12-C , 14-H ) :   0.9160
B( 12-C , 15-O ) :   0.8351 B( 12-C , 16-C ) :   0.8993 B( 16-C , 17-C ) :   0.8888
B( 16-C , 20-O ) :   0.8825 B( 16-C , 21-H ) :   0.9258 B( 17-C , 18-C ) :   0.9351
B( 17-C , 22-H ) :   0.9364 B( 17-C , 23-O ) :   0.9000 B( 18-C , 19-C ) :   0.9472
B( 18-C , 24-H ) :   0.9414 B( 18-C , 25-H ) :   0.9253 B( 19-C , 20-O ) :   0.8226
B( 19-C , 26-H ) :   0.9159 B( 19-C , 27-H ) :   0.9388 B( 23-O , 28-H ) :   0.7931

FINAL SINGLE POINT ENERGY      -652.859098298336

DIPOLE MOMENT
-------------
                                X             Y             Z
Electronic contribution:     -3.19302      -1.64979      -0.17565
Nuclear contribution   :      4.13097       2.09526      -0.28856
                        -----------------------------------------
Total Dipole Moment    :      0.93795       0.44547      -0.46421
                        -----------------------------------------
Magnitude (a.u.)       :      1.13740
Magnitude (Debye)      :      2.89105

Rotational constants in cm-1:     0.048667     0.018423     0.016640
Rotational constants in MHz :  1459.001531   552.315127   498.854262

                             ****ORCA TERMINATED NORMALLY****
TOTAL RUN TIME: 0 days 0 hours 57 minutes 47 seconds 620 msec
