                         Program Version 4.2.0 -  RELEASE  -
|  1> # Test redundant internal optimization
|  2> #
|  3> ! RKS B3LYP  Opt TightSCF SmallPrint
|  4>
|  5> %basis
|  6>         Basis "6-31G"
|  7> end
|  8>
|  9> %geom
| 10> Constraints
| 11> { D 4  0  15  12  330.0   C } # D for Dihedral angle
| 12> { D 0  15  12  16  300.0   C } # D for Dihedral angle
| 13> { D 0  4  3  2   C } # D for Dihedral angle
| 14> { D 4  3  2  1   C } # D for Dihedral angle
| 15> { D 3  2  1  0   C } # D for Dihedral angle
| 16> { D 2  1  0  4   C } # D for Dihedral angle
| 17> { D 1  0  4  3   C } # D for Dihedral angle
| 18> { D 16  20  19  18   C } # D for Dihedral angle
| 19> { D 20  19  18  17   C } # D for Dihedral angle
| 20> { D 19  18  17  16   C } # D for Dihedral angle
| 21> { D 18  17  16  20   C } # D for Dihedral angle
| 22> { D 17  16  20  19   C } # D for Dihedral angle
| 23> { D 15  12  16  20   C } # D for Dihedral angle
| 24> end
| 25> end
| 26>
| 27>
| 28> #%pal
| 29> #nprocs 8
| 30> #end
| 31>
| 32> * xyz 0 1
| 33> C  -21.048   26.222   46.251
| 34> C  -20.361   27.558   45.944
| 35> C  -20.329   28.222   47.341
| 36> C  -20.110   27.022   48.296
| 37> O  -20.473   25.807   47.535
| 38> H  -20.833   25.428   45.533
| 39> H  -19.344   27.382   45.576
| 40> H  -20.898   28.157   45.201
| 41> H  -19.543   28.978   47.434
| 42> H  -21.289   28.710   47.548
| 43> H  -20.733   27.082   49.195
| 44> H  -19.064   26.913   48.597
| 45> C  -23.271   25.476   47.424
| 46> H  -22.856   25.689   48.417
| 47> H  -24.351   25.667   47.455
| 48> O  -22.586   26.394   46.375
| 49> C  -23.067   23.965   47.124
| 50> C  -23.543   23.609   45.710
| 51> C  -22.355   24.098   44.847
| 52> C  -21.126   23.805   45.743
| 53> O  -21.639   23.631   47.119
| 54> H  -23.530   23.377   47.918
| 55> H  -23.667   22.524   45.618
| 56> O  -24.885   24.290   45.328
| 57> H  -22.297   23.591   43.879
| 58> H  -22.446   25.174   44.657
| 59> H  -20.395   24.621   45.732
| 60> H  -20.621   22.874   45.467
| 61> H  -24.784   25.378   45.414
| 62> *
| 63>
| 64>                          ****END OF INPUT****
 Total Charge           Charge          ....    0
 Multiplicity           Mult            ....    1
 Number of Electrons    NEL             ....  102
FINAL SINGLE POINT ENERGY      -652.727415144653
FINAL SINGLE POINT ENERGY      -652.826752649416
FINAL SINGLE POINT ENERGY      -652.848716820708
FINAL SINGLE POINT ENERGY      -652.853535618334
FINAL SINGLE POINT ENERGY      -652.854368690440
FINAL SINGLE POINT ENERGY      -652.854682725185
FINAL SINGLE POINT ENERGY      -652.854822179768
FINAL SINGLE POINT ENERGY      -652.854904691104
FINAL SINGLE POINT ENERGY      -652.854931764124
FINAL SINGLE POINT ENERGY      -652.854937734517
                    ***********************HURRAY********************

CARTESIAN COORDINATES (ANGSTROEM)
---------------------------------
  C    -20.958720   26.499542   46.258933
  C    -20.498100   27.948973   46.109487
  C    -20.415927   28.408804   47.583342
  C    -19.940005   27.139379   48.321705
  O    -20.218465   26.006704   47.394054
  H    -20.707425   25.847008   45.422056
  H    -19.511443   27.964806   45.632088
  H    -21.192937   28.543522   45.512383
  H    -19.732342   29.251558   47.723157
  H    -21.408942   28.709950   47.929312
  H    -20.467942   26.959835   49.261932
  H    -18.861952   27.130248   48.506717
  C    -23.088130   25.567257   47.318195
  H    -22.745385   25.732913   48.347205
  H    -24.137383   25.865979   47.249673
  O    -22.396131   26.521023   46.452459
  C    -23.023475   24.051500   47.055720
  C    -23.648103   23.609758   45.720512
  C    -22.423637   23.667730   44.753234
  C    -21.257414   23.227997   45.669089
  O    -21.730323   23.394884   47.065097
  H    -23.579509   23.616223   47.896311
  H    -24.028017   22.589305   45.803749
  O    -24.783609   24.396536   45.289315
  H    -22.548776   23.019425   43.882191
  H    -22.301278   24.699158   44.402929
  H    -20.343534   23.812455   45.536833
  H    -21.015790   22.168032   45.545098
  H    -24.479306   25.293495   45.035223

 Multiplicity           Mult            ....    1
 Number of Electrons    NEL             ....  102
 Basis Dimension        Dim             ....  149

ORBITAL ENERGIES
----------------

  NO   OCC          E(Eh)            E(eV)
   0   2.0000     -19.144705      -520.9539
   1   2.0000     -19.144076      -520.9368
   2   2.0000     -19.140138      -520.8296
   3   2.0000     -19.134551      -520.6776
   4   2.0000     -10.280267      -279.7403
   5   2.0000     -10.236614      -278.5524
   6   2.0000     -10.228787      -278.3395
   7   2.0000     -10.228463      -278.3306
   8   2.0000     -10.228012      -278.3184
   9   2.0000     -10.224124      -278.2126
  10   2.0000     -10.187553      -277.2174
  11   2.0000     -10.187028      -277.2031
  12   2.0000     -10.186360      -277.1849
  13   2.0000      -1.054046       -28.6820
  14   2.0000      -1.027472       -27.9589
  15   2.0000      -1.010230       -27.4898
  16   2.0000      -0.992334       -27.0028
  17   2.0000      -0.790356       -21.5067
  18   2.0000      -0.773027       -21.0351
  19   2.0000      -0.767829       -20.8937
  20   2.0000      -0.733155       -19.9502
  21   2.0000      -0.678074       -18.4513
  22   2.0000      -0.606396       -16.5009
  23   2.0000      -0.603970       -16.4349
  24   2.0000      -0.599787       -16.3210
  25   2.0000      -0.557921       -15.1818
  26   2.0000      -0.528620       -14.3845
  27   2.0000      -0.507202       -13.8017
  28   2.0000      -0.498743       -13.5715
  29   2.0000      -0.482671       -13.1341
  30   2.0000      -0.469125       -12.7655
  31   2.0000      -0.461424       -12.5560
  32   2.0000      -0.440590       -11.9891
  33   2.0000      -0.430355       -11.7105
  34   2.0000      -0.420921       -11.4538
  35   2.0000      -0.411444       -11.1960
  36   2.0000      -0.407784       -11.0964
  37   2.0000      -0.392728       -10.6867
  38   2.0000      -0.376309       -10.2399
  39   2.0000      -0.373703       -10.1690
  40   2.0000      -0.358532        -9.7561
  41   2.0000      -0.355594        -9.6762
  42   2.0000      -0.345824        -9.4103
  43   2.0000      -0.332274        -9.0416
  44   2.0000      -0.324769        -8.8374
  45   2.0000      -0.308177        -8.3859
  46   2.0000      -0.296294        -8.0626
  47   2.0000      -0.269090        -7.3223
  48   2.0000      -0.262362        -7.1392
  49   2.0000      -0.257162        -6.9977
  50   2.0000      -0.232801        -6.3348
  51   0.0000       0.066244         1.8026
  52   0.0000       0.084079         2.2879
  53   0.0000       0.091960         2.5024
  54   0.0000       0.094707         2.5771
  55   0.0000       0.103163         2.8072

MULLIKEN ATOMIC CHARGES
-----------------------
   0 C :    0.313643
   1 C :   -0.259088
   2 C :   -0.298357
   3 C :   -0.015528
   4 O :   -0.501150
   5 H :    0.131365
   6 H :    0.143598
   7 H :    0.156039
   8 H :    0.143022
   9 H :    0.158160
  10 H :    0.148415
  11 H :    0.148955
  12 C :   -0.026091
  13 H :    0.146710
  14 H :    0.157072
  15 O :   -0.556200
  16 C :    0.097950
  17 C :    0.085657
  18 C :   -0.321340
  19 C :   -0.009840
  20 O :   -0.508105
  21 H :    0.148236
  22 H :    0.163698
  23 O :   -0.606752
  24 H :    0.152456
  25 H :    0.144391
  26 H :    0.152673
  27 H :    0.144264
  28 H :    0.366147
Sum of atomic charges:   -0.0000000

LOEWDIN ATOMIC CHARGES
----------------------
   0 C :    0.177465
   1 C :   -0.215858
   2 C :   -0.216960
   3 C :   -0.030027
   4 O :   -0.312276
   5 H :    0.091397
   6 H :    0.112725
   7 H :    0.123808
   8 H :    0.114975
   9 H :    0.117152
  10 H :    0.104781
  11 H :    0.105907
  12 C :   -0.049902
  13 H :    0.104662
  14 H :    0.119358
  15 O :   -0.349427
  16 C :    0.008140
  17 C :    0.033583
  18 C :   -0.242128
  19 C :   -0.029479
  20 O :   -0.310129
  21 H :    0.116143
  22 H :    0.116572
  23 O :   -0.410428
  24 H :    0.120162
  25 H :    0.109096
  26 H :    0.103936
  27 H :    0.103796
  28 H :    0.282956

  Mayer bond orders larger than 0.100000
B(  0-C ,  1-C ) :   0.9421 B(  0-C ,  4-O ) :   0.9189 B(  0-C ,  5-H ) :   0.9087
B(  0-C , 15-O ) :   0.8327 B(  1-C ,  2-C ) :   0.9553 B(  1-C ,  6-H ) :   0.9384
B(  1-C ,  7-H ) :   0.9359 B(  2-C ,  3-C ) :   0.9535 B(  2-C ,  8-H ) :   0.9450
B(  2-C ,  9-H ) :   0.9448 B(  3-C ,  4-O ) :   0.8339 B(  3-C , 10-H ) :   0.9337
B(  3-C , 11-H ) :   0.9398 B( 12-C , 13-H ) :   0.9273 B( 12-C , 14-H ) :   0.9197
B( 12-C , 15-O ) :   0.8418 B( 12-C , 16-C ) :   0.8897 B( 16-C , 17-C ) :   0.8804
B( 16-C , 20-O ) :   0.8825 B( 16-C , 21-H ) :   0.9195 B( 17-C , 18-C ) :   0.9268
B( 17-C , 22-H ) :   0.9362 B( 17-C , 23-O ) :   0.9014 B( 18-C , 19-C ) :   0.9423
B( 18-C , 24-H ) :   0.9414 B( 18-C , 25-H ) :   0.9332 B( 19-C , 20-O ) :   0.8409
B( 19-C , 26-H ) :   0.9179 B( 19-C , 27-H ) :   0.9377 B( 23-O , 28-H ) :   0.7899

FINAL SINGLE POINT ENERGY      -652.854929250234

DIPOLE MOMENT
-------------
                                X             Y             Z
Electronic contribution:     -2.45664      -3.43488       0.52315
Nuclear contribution   :      3.02195       4.27837      -0.80200
                        -----------------------------------------
Total Dipole Moment    :      0.56531       0.84349      -0.27886
                        -----------------------------------------
Magnitude (a.u.)       :      1.05300
Magnitude (Debye)      :      2.67652

Rotational constants in cm-1:     0.050151     0.017174     0.015796
Rotational constants in MHz :  1503.500554   514.870350   473.550644

                             ****ORCA TERMINATED NORMALLY****
TOTAL RUN TIME: 0 days 1 hours 2 minutes 45 seconds 320 msec
