                         Program Version 4.2.0 -  RELEASE  -
|  1> # Test redundant internal optimization
|  2> #
|  3> ! RKS B3LYP  Opt TightSCF SmallPrint
|  4>
|  5> %basis
|  6>         Basis "6-31G"
|  7> end
|  8>
|  9> %geom
| 10> Constraints
| 11> { D 4  0  15  12  285.0   C } # D for Dihedral angle
| 12> { D 0  15  12  16  135.0   C } # D for Dihedral angle
| 13> { D 0  4  3  2   C } # D for Dihedral angle
| 14> { D 4  3  2  1   C } # D for Dihedral angle
| 15> { D 3  2  1  0   C } # D for Dihedral angle
| 16> { D 2  1  0  4   C } # D for Dihedral angle
| 17> { D 1  0  4  3   C } # D for Dihedral angle
| 18> { D 16  20  19  18   C } # D for Dihedral angle
| 19> { D 20  19  18  17   C } # D for Dihedral angle
| 20> { D 19  18  17  16   C } # D for Dihedral angle
| 21> { D 18  17  16  20   C } # D for Dihedral angle
| 22> { D 17  16  20  19   C } # D for Dihedral angle
| 23> { D 15  12  16  20   C } # D for Dihedral angle
| 24> end
| 25> end
| 26>
| 27>
| 28> #%pal
| 29> #nprocs 8
| 30> #end
| 31>
| 32> * xyz 0 1
| 33> C  -21.048   26.222   46.251
| 34> C  -20.361   27.558   45.944
| 35> C  -20.329   28.222   47.341
| 36> C  -20.110   27.022   48.296
| 37> O  -20.473   25.807   47.535
| 38> H  -20.833   25.428   45.533
| 39> H  -19.344   27.382   45.576
| 40> H  -20.898   28.157   45.201
| 41> H  -19.543   28.978   47.434
| 42> H  -21.289   28.710   47.548
| 43> H  -20.733   27.082   49.195
| 44> H  -19.064   26.913   48.597
| 45> C  -23.396   25.070   46.435
| 46> H  -23.885   24.901   45.468
| 47> H  -22.730   24.221   46.636
| 48> O  -22.586   26.394   46.375
| 49> C  -24.489   25.084   47.540
| 50> C  -25.564   26.137   47.245
| 51> C  -26.427   25.414   46.184
| 52> C  -26.377   23.934   46.638
| 53> O  -25.221   23.813   47.552
| 54> H  -24.010   25.187   48.515
| 55> O  -26.394   26.422   48.526
| 56> H  -25.151   27.085   46.884
| 57> H  -27.450   25.801   46.134
| 58> H  -25.977   25.530   45.191
| 59> H  -26.244   23.242   45.799
| 60> H  -27.266   23.640   47.201
| 61> H  -26.819   25.485   48.907
| 62> *
| 63>
| 64>                          ****END OF INPUT****
 Total Charge           Charge          ....    0
 Multiplicity           Mult            ....    1
 Number of Electrons    NEL             ....  102
FINAL SINGLE POINT ENERGY      -652.840795742741
FINAL SINGLE POINT ENERGY      -652.864596517978
FINAL SINGLE POINT ENERGY      -652.868357630460
FINAL SINGLE POINT ENERGY      -652.869025119775
FINAL SINGLE POINT ENERGY      -652.869117243297
FINAL SINGLE POINT ENERGY      -652.869127520538
                    ***********************HURRAY********************

CARTESIAN COORDINATES (ANGSTROEM)
---------------------------------
  C    -21.102455   26.126070   46.243050
  C    -20.547635   27.526897   45.984362
  C    -20.610276   28.157219   47.394533
  C    -20.293496   26.966050   48.325677
  O    -20.524102   25.742964   47.512548
  H    -20.813325   25.352165   45.526071
  H    -19.512356   27.445221   45.634465
  H    -21.133771   28.070697   45.240944
  H    -19.901344   28.981286   47.518983
  H    -21.618882   28.535943   47.582800
  H    -20.935785   26.929101   49.208977
  H    -19.245927   26.937203   48.639471
  C    -23.282717   24.983085   46.360818
  H    -23.728466   24.798150   45.375192
  H    -22.621643   24.148266   46.614960
  O    -22.539103   26.240013   46.316779
  C    -24.351455   25.107563   47.444281
  C    -25.404809   26.196846   47.195408
  C    -26.358126   25.487816   46.201357
  C    -26.335913   24.013808   46.677198
  O    -25.126017   23.863863   47.524928
  H    -23.861660   25.248247   48.411862
  O    -26.083960   26.552290   48.432857
  H    -24.978043   27.122605   46.813679
  H    -27.355536   25.932471   46.237017
  H    -25.977274   25.581511   45.178363
  H    -26.281302   23.299245   45.850115
  H    -27.198795   23.760798   47.300843
  H    -26.286826   25.733607   48.933463

 Multiplicity           Mult            ....    1
 Number of Electrons    NEL             ....  102
 Basis Dimension        Dim             ....  149

ORBITAL ENERGIES
----------------

  NO   OCC          E(Eh)            E(eV)
   0   2.0000     -19.147092      -521.0188
   1   2.0000     -19.143093      -520.9100
   2   2.0000     -19.140010      -520.8261
   3   2.0000     -19.133538      -520.6500
   4   2.0000     -10.280234      -279.7394
   5   2.0000     -10.233716      -278.4736
   6   2.0000     -10.230339      -278.3817
   7   2.0000     -10.229985      -278.3721
   8   2.0000     -10.228828      -278.3406
   9   2.0000     -10.224659      -278.2271
  10   2.0000     -10.186090      -277.1776
  11   2.0000     -10.185628      -277.1650
  12   2.0000     -10.184552      -277.1358
  13   2.0000      -1.055370       -28.7181
  14   2.0000      -1.033834       -28.1320
  15   2.0000      -1.002304       -27.2741
  16   2.0000      -0.995072       -27.0773
  17   2.0000      -0.790223       -21.5031
  18   2.0000      -0.777058       -21.1448
  19   2.0000      -0.765612       -20.8334
  20   2.0000      -0.728742       -19.8301
  21   2.0000      -0.672749       -18.3064
  22   2.0000      -0.602323       -16.3900
  23   2.0000      -0.598220       -16.2784
  24   2.0000      -0.590729       -16.0745
  25   2.0000      -0.581840       -15.8327
  26   2.0000      -0.521426       -14.1887
  27   2.0000      -0.516172       -14.0458
  28   2.0000      -0.495879       -13.4936
  29   2.0000      -0.486745       -13.2450
  30   2.0000      -0.469026       -12.7628
  31   2.0000      -0.456252       -12.4153
  32   2.0000      -0.451307       -12.2807
  33   2.0000      -0.436118       -11.8674
  34   2.0000      -0.423841       -11.5333
  35   2.0000      -0.411631       -11.2011
  36   2.0000      -0.400507       -10.8983
  37   2.0000      -0.390818       -10.6347
  38   2.0000      -0.373601       -10.1662
  39   2.0000      -0.364729        -9.9248
  40   2.0000      -0.358216        -9.7475
  41   2.0000      -0.355354        -9.6697
  42   2.0000      -0.347552        -9.4574
  43   2.0000      -0.332442        -9.0462
  44   2.0000      -0.324613        -8.8332
  45   2.0000      -0.306334        -8.3358
  46   2.0000      -0.298577        -8.1247
  47   2.0000      -0.279718        -7.6115
  48   2.0000      -0.264081        -7.1860
  49   2.0000      -0.252642        -6.8747
  50   2.0000      -0.243752        -6.6328
  51   0.0000       0.065975         1.7953
  52   0.0000       0.080925         2.2021
  53   0.0000       0.095815         2.6073
  54   0.0000       0.101014         2.7487
  55   0.0000       0.108992         2.9658

MULLIKEN ATOMIC CHARGES
-----------------------
   0 C :    0.282445
   1 C :   -0.260110
   2 C :   -0.298611
   3 C :   -0.004896
   4 O :   -0.511189
   5 H :    0.144944
   6 H :    0.145654
   7 H :    0.154964
   8 H :    0.141250
   9 H :    0.164916
  10 H :    0.150402
  11 H :    0.143218
  12 C :   -0.010397
  13 H :    0.130697
  14 H :    0.165320
  15 O :   -0.527807
  16 C :    0.060001
  17 C :    0.096095
  18 C :   -0.301608
  19 C :   -0.031150
  20 O :   -0.527217
  21 H :    0.165924
  22 O :   -0.606302
  23 H :    0.171534
  24 H :    0.161859
  25 H :    0.144529
  26 H :    0.147219
  27 H :    0.145586
  28 H :    0.362730
Sum of atomic charges:   -0.0000000

LOEWDIN ATOMIC CHARGES
----------------------
   0 C :    0.172617
   1 C :   -0.215186
   2 C :   -0.215682
   3 C :   -0.027816
   4 O :   -0.330233
   5 H :    0.097887
   6 H :    0.114371
   7 H :    0.123191
   8 H :    0.113722
   9 H :    0.120248
  10 H :    0.106824
  11 H :    0.103152
  12 C :   -0.040078
  13 H :    0.095613
  14 H :    0.117435
  15 O :   -0.333958
  16 C :    0.015326
  17 C :    0.038523
  18 C :   -0.241394
  19 C :   -0.038686
  20 O :   -0.331472
  21 H :    0.119203
  22 O :   -0.416802
  23 H :    0.125788
  24 H :    0.126363
  25 H :    0.113347
  26 H :    0.103965
  27 H :    0.102241
  28 H :    0.281491

  Mayer bond orders larger than 0.100000
B(  0-C ,  1-C ) :   0.9504 B(  0-C ,  4-O ) :   0.9079 B(  0-C ,  5-H ) :   0.9211
B(  0-C , 15-O ) :   0.8588 B(  1-C ,  2-C ) :   0.9566 B(  1-C ,  6-H ) :   0.9402
B(  1-C ,  7-H ) :   0.9366 B(  2-C ,  3-C ) :   0.9550 B(  2-C ,  8-H ) :   0.9452
B(  2-C ,  9-H ) :   0.9436 B(  3-C ,  4-O ) :   0.8348 B(  3-C , 10-H ) :   0.9352
B(  3-C , 11-H ) :   0.9404 B( 12-C , 13-H ) :   0.9288 B( 12-C , 14-H ) :   0.9164
B( 12-C , 15-O ) :   0.8165 B( 12-C , 16-C ) :   0.9025 B( 16-C , 17-C ) :   0.9147
B( 16-C , 20-O ) :   0.8417 B( 16-C , 21-H ) :   0.9248 B( 17-C , 18-C ) :   0.9121
B( 17-C , 22-O ) :   0.8872 B( 17-C , 23-H ) :   0.9255 B( 18-C , 19-C ) :   0.9415
B( 18-C , 24-H ) :   0.9381 B( 18-C , 25-H ) :   0.9349 B( 19-C , 20-O ) :   0.8453
B( 19-C , 26-H ) :   0.9352 B( 19-C , 27-H ) :   0.9383 B( 22-O , 28-H ) :   0.7960

FINAL SINGLE POINT ENERGY      -652.869129405896

DIPOLE MOMENT
-------------
                                X             Y             Z
Electronic contribution:     -0.98893      -2.85591       1.98028
Nuclear contribution   :      1.15667       3.09235      -2.79176
                        -----------------------------------------
Total Dipole Moment    :      0.16774       0.23644      -0.81149
                        -----------------------------------------
Magnitude (a.u.)       :      0.86171
Magnitude (Debye)      :      2.19030

Rotational constants in cm-1:     0.055377     0.012856     0.012296
Rotational constants in MHz :  1660.175097   385.409340   368.621564

                             ****ORCA TERMINATED NORMALLY****
TOTAL RUN TIME: 0 days 0 hours 21 minutes 34 seconds 111 msec
