                         Program Version 4.2.0 -  RELEASE  -
|  1> # Test redundant internal optimization
|  2> #
|  3> ! RKS B3LYP  Opt TightSCF SmallPrint
|  4>
|  5> %basis
|  6>         Basis "6-31G"
|  7> end
|  8>
|  9> %geom
| 10> Constraints
| 11> { D 4  0  15  12  30.0   C } # D for Dihedral angle
| 12> { D 0  15  12  16  75.0   C } # D for Dihedral angle
| 13> { D 0  4  3  2   C } # D for Dihedral angle
| 14> { D 4  3  2  1   C } # D for Dihedral angle
| 15> { D 3  2  1  0   C } # D for Dihedral angle
| 16> { D 2  1  0  4   C } # D for Dihedral angle
| 17> { D 1  0  4  3   C } # D for Dihedral angle
| 18> { D 16  20  19  18   C } # D for Dihedral angle
| 19> { D 20  19  18  17   C } # D for Dihedral angle
| 20> { D 19  18  17  16   C } # D for Dihedral angle
| 21> { D 18  17  16  20   C } # D for Dihedral angle
| 22> { D 17  16  20  19   C } # D for Dihedral angle
| 23> { D 15  12  16  20   C } # D for Dihedral angle
| 24> end
| 25> end
| 26>
| 27>
| 28> #%pal
| 29> #nprocs 8
| 30> #end
| 31>
| 32> * xyz 0 1
| 33> C  -21.048   26.222   46.251
| 34> C  -20.361   27.558   45.944
| 35> C  -20.329   28.222   47.341
| 36> C  -20.110   27.022   48.296
| 37> O  -20.473   25.807   47.535
| 38> H  -20.833   25.428   45.533
| 39> H  -19.344   27.382   45.576
| 40> H  -20.898   28.157   45.201
| 41> H  -19.543   28.978   47.434
| 42> H  -21.289   28.710   47.548
| 43> H  -20.733   27.082   49.195
| 44> H  -19.064   26.913   48.597
| 45> C  -23.091   26.824   47.779
| 46> H  -24.173   26.651   47.844
| 47> H  -22.602   26.230   48.562
| 48> O  -22.586   26.394   46.375
| 49> C  -22.818   28.323   48.083
| 50> C  -23.606   29.235   47.136
| 51> C  -25.016   29.205   47.771
| 52> C  -24.716   29.126   49.289
| 53> O  -23.314   28.674   49.418
| 54> H  -21.741   28.497   48.086
| 55> H  -23.192   30.250   47.161
| 56> O  -23.596   28.740   45.663
| 57> H  -25.618   30.080   47.509
| 58> H  -25.559   28.312   47.437
| 59> H  -25.370   28.419   49.810
| 60> H  -24.787   30.101   49.779
| 61> H  -24.006   27.725   45.614
| 62> *
| 63>
| 64>                          ****END OF INPUT****
 Total Charge           Charge          ....    0
 Multiplicity           Mult            ....    1
 Number of Electrons    NEL             ....  102
FINAL SINGLE POINT ENERGY      -652.690564076727
FINAL SINGLE POINT ENERGY      -652.753841594245
FINAL SINGLE POINT ENERGY      -652.793011761884
FINAL SINGLE POINT ENERGY      -652.817253754108
FINAL SINGLE POINT ENERGY      -652.831978853631
FINAL SINGLE POINT ENERGY      -652.840813305573
FINAL SINGLE POINT ENERGY      -652.846055696234
FINAL SINGLE POINT ENERGY      -652.849237334888
FINAL SINGLE POINT ENERGY      -652.851160949109
FINAL SINGLE POINT ENERGY      -652.852164304735
FINAL SINGLE POINT ENERGY      -652.855481766771
FINAL SINGLE POINT ENERGY      -652.855549324161
FINAL SINGLE POINT ENERGY      -652.855582159256
FINAL SINGLE POINT ENERGY      -652.855603855425
FINAL SINGLE POINT ENERGY      -652.855624586077
FINAL SINGLE POINT ENERGY      -652.855642956715
FINAL SINGLE POINT ENERGY      -652.855658167136
FINAL SINGLE POINT ENERGY      -652.855668521066
FINAL SINGLE POINT ENERGY      -652.855677079328
                    ***********************HURRAY********************

CARTESIAN COORDINATES (ANGSTROEM)
---------------------------------
  C    -21.137753   26.269800   46.434429
  C    -20.313972   27.415150   45.835010
  C    -19.844925   28.174886   47.107111
  C    -19.630227   27.034280   48.129449
  O    -20.380958   25.861758   47.588390
  H    -21.149695   25.402412   45.769261
  H    -19.466137   26.974655   45.301435
  H    -20.887163   28.047383   45.152725
  H    -18.918672   28.732161   46.931967
  H    -20.597327   28.896766   47.421665
  H    -20.008731   27.261728   49.130282
  H    -18.584459   26.724751   48.201239
  C    -23.212005   26.877560   47.907546
  H    -24.258806   26.603861   47.754642
  H    -22.817076   26.275718   48.733025
  O    -22.571238   26.457350   46.652931
  C    -23.082325   28.357385   48.278587
  C    -23.754411   29.325110   47.291056
  C    -25.245538   29.213744   47.709569
  C    -25.174741   29.025079   49.239189
  O    -23.775596   28.590217   49.547285
  H    -22.043916   28.611749   48.477910
  H    -23.395593   30.343801   47.465506
  O    -23.487268   29.041670   45.898311
  H    -25.815361   30.100728   47.419142
  H    -25.699032   28.350597   47.210200
  H    -25.868792   28.267583   49.615473
  H    -25.336274   29.957296   49.787427
  H    -23.358010   28.071821   45.776239

 Multiplicity           Mult            ....    1
 Number of Electrons    NEL             ....  102
 Basis Dimension        Dim             ....  149

ORBITAL ENERGIES
----------------

  NO   OCC          E(Eh)            E(eV)
   0   2.0000     -19.156626      -521.2783
   1   2.0000     -19.154583      -521.2227
   2   2.0000     -19.144927      -520.9600
   3   2.0000     -19.129431      -520.5383
   4   2.0000     -10.286957      -279.9223
   5   2.0000     -10.238521      -278.6043
   6   2.0000     -10.236331      -278.5447
   7   2.0000     -10.236194      -278.5410
   8   2.0000     -10.235345      -278.5179
   9   2.0000     -10.231160      -278.4040
  10   2.0000     -10.194553      -277.4079
  11   2.0000     -10.192301      -277.3466
  12   2.0000     -10.186134      -277.1788
  13   2.0000      -1.058338       -28.7989
  14   2.0000      -1.029339       -28.0097
  15   2.0000      -1.007616       -27.4186
  16   2.0000      -0.998871       -27.1807
  17   2.0000      -0.794000       -21.6058
  18   2.0000      -0.779959       -21.2238
  19   2.0000      -0.773459       -21.0469
  20   2.0000      -0.738500       -20.0956
  21   2.0000      -0.684793       -18.6342
  22   2.0000      -0.610161       -16.6033
  23   2.0000      -0.606770       -16.5111
  24   2.0000      -0.601809       -16.3761
  25   2.0000      -0.575105       -15.6494
  26   2.0000      -0.532917       -14.5014
  27   2.0000      -0.509567       -13.8660
  28   2.0000      -0.505464       -13.7544
  29   2.0000      -0.490080       -13.3358
  30   2.0000      -0.475000       -12.9254
  31   2.0000      -0.459896       -12.5144
  32   2.0000      -0.454143       -12.3579
  33   2.0000      -0.431065       -11.7299
  34   2.0000      -0.425115       -11.5680
  35   2.0000      -0.416889       -11.3441
  36   2.0000      -0.415865       -11.3163
  37   2.0000      -0.397738       -10.8230
  38   2.0000      -0.382791       -10.4163
  39   2.0000      -0.373226       -10.1560
  40   2.0000      -0.364410        -9.9161
  41   2.0000      -0.354049        -9.6342
  42   2.0000      -0.349928        -9.5220
  43   2.0000      -0.345043        -9.3891
  44   2.0000      -0.328992        -8.9523
  45   2.0000      -0.319525        -8.6947
  46   2.0000      -0.298945        -8.1347
  47   2.0000      -0.277184        -7.5426
  48   2.0000      -0.267134        -7.2691
  49   2.0000      -0.258794        -7.0421
  50   2.0000      -0.240493        -6.5441
  51   0.0000       0.055847         1.5197
  52   0.0000       0.070317         1.9134
  53   0.0000       0.082331         2.2403
  54   0.0000       0.089358         2.4315
  55   0.0000       0.102246         2.7823

MULLIKEN ATOMIC CHARGES
-----------------------
   0 C :    0.314838
   1 C :   -0.279137
   2 C :   -0.321732
   3 C :   -0.022505
   4 O :   -0.509667
   5 H :    0.168826
   6 H :    0.155848
   7 H :    0.168125
   8 H :    0.148968
   9 H :    0.164315
  10 H :    0.154963
  11 H :    0.155002
  12 C :   -0.040528
  13 H :    0.161523
  14 H :    0.176827
  15 O :   -0.558840
  16 C :    0.047572
  17 C :    0.111787
  18 C :   -0.307239
  19 C :   -0.021586
  20 O :   -0.522137
  21 H :    0.153583
  22 H :    0.149201
  23 O :   -0.633139
  24 H :    0.154276
  25 H :    0.147784
  26 H :    0.146349
  27 H :    0.150859
  28 H :    0.385864
Sum of atomic charges:   -0.0000000

LOEWDIN ATOMIC CHARGES
----------------------
   0 C :    0.180704
   1 C :   -0.227294
   2 C :   -0.225174
   3 C :   -0.034408
   4 O :   -0.315368
   5 H :    0.111232
   6 H :    0.121994
   7 H :    0.129213
   8 H :    0.118486
   9 H :    0.114523
  10 H :    0.106987
  11 H :    0.109661
  12 C :   -0.049757
  13 H :    0.115871
  14 H :    0.121543
  15 O :   -0.343107
  16 C :   -0.000655
  17 C :    0.039361
  18 C :   -0.238244
  19 C :   -0.032195
  20 O :   -0.323057
  21 H :    0.110063
  22 H :    0.108781
  23 O :   -0.429152
  24 H :    0.122498
  25 H :    0.112374
  26 H :    0.104118
  27 H :    0.107154
  28 H :    0.283847

  Mayer bond orders larger than 0.100000
B(  0-C ,  1-C ) :   0.9194 B(  0-C ,  4-O ) :   0.9204 B(  0-C ,  5-H ) :   0.9350
B(  0-C , 15-O ) :   0.8299 B(  1-C ,  2-C ) :   0.9539 B(  1-C ,  6-H ) :   0.9327
B(  1-C ,  7-H ) :   0.9271 B(  2-C ,  3-C ) :   0.9505 B(  2-C ,  8-H ) :   0.9433
B(  2-C ,  9-H ) :   0.9242 B(  3-C ,  4-O ) :   0.8295 B(  3-C , 10-H ) :   0.9303
B(  3-C , 11-H ) :   0.9380 B( 12-C , 13-H ) :   0.9374 B( 12-C , 14-H ) :   0.9219
B( 12-C , 15-O ) :   0.8035 B( 12-C , 16-C ) :   0.8807 B( 16-C , 17-C ) :   0.9054
B( 16-C , 20-O ) :   0.8398 B( 16-C , 21-H ) :   0.9140 B( 17-C , 18-C ) :   0.9029
B( 17-C , 22-H ) :   0.9355 B( 17-C , 23-O ) :   0.9235 B( 18-C , 19-C ) :   0.9392
B( 18-C , 24-H ) :   0.9438 B( 18-C , 25-H ) :   0.9429 B( 19-C , 20-O ) :   0.8344
B( 19-C , 26-H ) :   0.9333 B( 19-C , 27-H ) :   0.9381 B( 23-O , 28-H ) :   0.7303

FINAL SINGLE POINT ENERGY      -652.855679864132

DIPOLE MOMENT
-------------
                                X             Y             Z
Electronic contribution:     -0.53403      -3.03092      -0.04153
Nuclear contribution   :      0.74966       3.42382       0.10805
                        -----------------------------------------
Total Dipole Moment    :      0.21563       0.39291       0.06652
                        -----------------------------------------
Magnitude (a.u.)       :      0.45310
Magnitude (Debye)      :      1.15168

Rotational constants in cm-1:     0.048880     0.016875     0.015673
Rotational constants in MHz :  1465.376273   505.902673   469.870005

                             ****ORCA TERMINATED NORMALLY****
TOTAL RUN TIME: 0 days 1 hours 33 minutes 16 seconds 230 msec
