                         Program Version 4.2.0 -  RELEASE  -
|  1> # Test redundant internal optimization
|  2> #
|  3> ! RKS B3LYP  Opt TightSCF SmallPrint
|  4>
|  5> %basis
|  6>         Basis "6-31G"
|  7> end
|  8>
|  9> %geom
| 10> Constraints
| 11> { D 4  0  15  12  270.0   C } # D for Dihedral angle
| 12> { D 0  15  12  16  315.0   C } # D for Dihedral angle
| 13> { D 0  4  3  2   C } # D for Dihedral angle
| 14> { D 4  3  2  1   C } # D for Dihedral angle
| 15> { D 3  2  1  0   C } # D for Dihedral angle
| 16> { D 2  1  0  4   C } # D for Dihedral angle
| 17> { D 1  0  4  3   C } # D for Dihedral angle
| 18> { D 16  20  19  18   C } # D for Dihedral angle
| 19> { D 20  19  18  17   C } # D for Dihedral angle
| 20> { D 19  18  17  16   C } # D for Dihedral angle
| 21> { D 18  17  16  20   C } # D for Dihedral angle
| 22> { D 17  16  20  19   C } # D for Dihedral angle
| 23> { D 15  12  16  20   C } # D for Dihedral angle
| 24> end
| 25> end
| 26>
| 27>
| 28> #%pal
| 29> #nprocs 8
| 30> #end
| 31>
| 32> * xyz 0 1
| 33> C  -21.048   26.222   46.251
| 34> C  -20.361   27.558   45.944
| 35> C  -20.329   28.222   47.341
| 36> C  -20.110   27.022   48.296
| 37> O  -20.473   25.807   47.535
| 38> H  -20.833   25.428   45.533
| 39> H  -19.344   27.382   45.576
| 40> H  -20.898   28.157   45.201
| 41> H  -19.543   28.978   47.434
| 42> H  -21.289   28.710   47.548
| 43> H  -20.733   27.082   49.195
| 44> H  -19.064   26.913   48.597
| 45> C  -23.420   25.119   46.072
| 46> H  -23.347   24.429   46.922
| 47> H  -24.477   25.376   45.929
| 48> O  -22.586   26.394   46.375
| 49> C  -22.938   24.375   44.796
| 50> C  -21.517   23.828   44.974
| 51> C  -21.775   22.550   45.808
| 52> C  -23.132   22.041   45.259
| 53> O  -23.757   23.182   44.558
| 54> H  -23.066   25.029   43.931
| 55> O  -20.909   23.467   43.591
| 56> H  -20.843   24.533   45.473
| 57> H  -20.978   21.808   45.705
| 58> H  -21.859   22.806   46.871
| 59> H  -23.802   21.696   46.053
| 60> H  -23.010   21.239   44.526
| 61> H  -21.567   22.760   43.072
| 62> *
| 63>
| 64>                          ****END OF INPUT****
 Total Charge           Charge          ....    0
 Multiplicity           Mult            ....    1
 Number of Electrons    NEL             ....  102
FINAL SINGLE POINT ENERGY      -652.764726354270
FINAL SINGLE POINT ENERGY      -652.828183852226
FINAL SINGLE POINT ENERGY      -652.850096036359
FINAL SINGLE POINT ENERGY      -652.854284080662
FINAL SINGLE POINT ENERGY      -652.854955265363
FINAL SINGLE POINT ENERGY      -652.855079342785
FINAL SINGLE POINT ENERGY      -652.855093905886
FINAL SINGLE POINT ENERGY      -652.855103103548
FINAL SINGLE POINT ENERGY      -652.855106762826
                    ***********************HURRAY********************

CARTESIAN COORDINATES (ANGSTROEM)
---------------------------------
  C    -20.789165   26.333062   46.270626
  C    -20.353610   27.789050   46.091636
  C    -20.563417   28.361405   47.514965
  C    -20.193100   27.168134   48.424974
  O    -20.255656   25.961809   47.565180
  H    -20.367628   25.642903   45.546159
  H    -19.294560   27.817874   45.810305
  H    -20.941850   28.300835   45.328122
  H    -19.943266   29.241052   47.710075
  H    -21.613236   28.637164   47.647365
  H    -20.883215   27.039913   49.263241
  H    -19.169368   27.227919   48.807172
  C    -23.062204   25.183831   45.941604
  H    -23.113900   24.532876   46.826512
  H    -24.053378   25.614831   45.791449
  O    -22.226039   26.333838   46.271014
  C    -22.773348   24.280678   44.718178
  C    -21.476598   23.451991   44.669405
  C    -21.795850   22.299714   45.669569
  C    -23.311379   22.065693   45.444162
  O    -23.837157   23.270961   44.766986
  H    -22.896879   24.841161   43.786576
  O    -21.268979   22.948671   43.318680
  H    -20.560080   23.977059   44.913933
  H    -21.188645   21.419360   45.447534
  H    -21.583727   22.622932   46.694066
  H    -23.862195   21.916208   46.377335
  H    -23.508096   21.215146   44.783838
  H    -22.121473   22.616931   42.965338

 Multiplicity           Mult            ....    1
 Number of Electrons    NEL             ....  102
 Basis Dimension        Dim             ....  149

ORBITAL ENERGIES
----------------

  NO   OCC          E(Eh)            E(eV)
   0   2.0000     -19.151224      -521.1313
   1   2.0000     -19.141443      -520.8651
   2   2.0000     -19.141400      -520.8640
   3   2.0000     -19.136456      -520.7294
   4   2.0000     -10.278379      -279.6889
   5   2.0000     -10.245575      -278.7963
   6   2.0000     -10.241322      -278.6805
   7   2.0000     -10.235230      -278.5148
   8   2.0000     -10.231886      -278.4238
   9   2.0000     -10.222786      -278.1761
  10   2.0000     -10.190940      -277.3096
  11   2.0000     -10.182142      -277.0702
  12   2.0000     -10.182030      -277.0671
  13   2.0000      -1.050498       -28.5855
  14   2.0000      -1.043088       -28.3839
  15   2.0000      -1.010761       -27.5042
  16   2.0000      -0.990825       -26.9617
  17   2.0000      -0.786469       -21.4009
  18   2.0000      -0.779980       -21.2243
  19   2.0000      -0.767645       -20.8887
  20   2.0000      -0.735563       -20.0157
  21   2.0000      -0.676707       -18.4141
  22   2.0000      -0.607926       -16.5425
  23   2.0000      -0.604181       -16.4406
  24   2.0000      -0.595241       -16.1973
  25   2.0000      -0.579074       -15.7574
  26   2.0000      -0.524948       -14.2846
  27   2.0000      -0.522388       -14.2149
  28   2.0000      -0.499219       -13.5844
  29   2.0000      -0.480302       -13.0697
  30   2.0000      -0.472142       -12.8476
  31   2.0000      -0.459786       -12.5114
  32   2.0000      -0.449427       -12.2295
  33   2.0000      -0.430117       -11.7041
  34   2.0000      -0.426630       -11.6092
  35   2.0000      -0.421823       -11.4784
  36   2.0000      -0.399151       -10.8614
  37   2.0000      -0.396144       -10.7796
  38   2.0000      -0.375191       -10.2095
  39   2.0000      -0.372806       -10.1446
  40   2.0000      -0.362839        -9.8734
  41   2.0000      -0.353245        -9.6123
  42   2.0000      -0.346152        -9.4193
  43   2.0000      -0.333785        -9.0827
  44   2.0000      -0.319469        -8.6932
  45   2.0000      -0.313519        -8.5313
  46   2.0000      -0.301323        -8.1994
  47   2.0000      -0.274879        -7.4798
  48   2.0000      -0.270157        -7.3514
  49   2.0000      -0.249670        -6.7939
  50   2.0000      -0.244361        -6.6494
  51   0.0000       0.063200         1.7197
  52   0.0000       0.073889         2.0106
  53   0.0000       0.092020         2.5040
  54   0.0000       0.098503         2.6804
  55   0.0000       0.103435         2.8146

MULLIKEN ATOMIC CHARGES
-----------------------
   0 C :    0.276887
   1 C :   -0.249935
   2 C :   -0.295215
   3 C :   -0.001836
   4 O :   -0.512568
   5 H :    0.139133
   6 H :    0.141889
   7 H :    0.152340
   8 H :    0.137652
   9 H :    0.163753
  10 H :    0.147622
  11 H :    0.140533
  12 C :    0.012602
  13 H :    0.136034
  14 H :    0.170243
  15 O :   -0.531719
  16 C :    0.025439
  17 C :    0.078018
  18 C :   -0.298719
  19 C :   -0.031950
  20 O :   -0.522545
  21 H :    0.162919
  22 O :   -0.603473
  23 H :    0.171178
  24 H :    0.165341
  25 H :    0.161415
  26 H :    0.152191
  27 H :    0.147088
  28 H :    0.365684
Sum of atomic charges:    0.0000000

LOEWDIN ATOMIC CHARGES
----------------------
   0 C :    0.170439
   1 C :   -0.214289
   2 C :   -0.215378
   3 C :   -0.027113
   4 O :   -0.331844
   5 H :    0.095820
   6 H :    0.111639
   7 H :    0.122074
   8 H :    0.112234
   9 H :    0.119974
  10 H :    0.105260
  11 H :    0.101398
  12 C :   -0.038782
  13 H :    0.097310
  14 H :    0.125459
  15 O :   -0.330100
  16 C :    0.005250
  17 C :    0.033615
  18 C :   -0.239730
  19 C :   -0.039756
  20 O :   -0.325029
  21 H :    0.114818
  22 O :   -0.415806
  23 H :    0.119301
  24 H :    0.128294
  25 H :    0.122128
  26 H :    0.106674
  27 H :    0.103031
  28 H :    0.283111

  Mayer bond orders larger than 0.100000
B(  0-C ,  1-C ) :   0.9438 B(  0-C ,  4-O ) :   0.9198 B(  0-C ,  5-H ) :   0.8998
B(  0-C , 15-O ) :   0.8608 B(  1-C ,  2-C ) :   0.9582 B(  1-C ,  6-H ) :   0.9408
B(  1-C ,  7-H ) :   0.9374 B(  2-C ,  3-C ) :   0.9546 B(  2-C ,  8-H ) :   0.9460
B(  2-C ,  9-H ) :   0.9435 B(  3-C ,  4-O ) :   0.8368 B(  3-C , 10-H ) :   0.9358
B(  3-C , 11-H ) :   0.9403 B( 12-C , 13-H ) :   0.9237 B( 12-C , 14-H ) :   0.9321
B( 12-C , 15-O ) :   0.8414 B( 12-C , 16-C ) :   0.8792 B( 16-C , 17-C ) :   0.9083
B( 16-C , 20-O ) :   0.8257 B( 16-C , 21-H ) :   0.9240 B( 17-C , 18-C ) :   0.9110
B( 17-C , 22-O ) :   0.8851 B( 17-C , 23-H ) :   0.9127 B( 18-C , 19-C ) :   0.9407
B( 18-C , 24-H ) :   0.9371 B( 18-C , 25-H ) :   0.9308 B( 19-C , 20-O ) :   0.8348
B( 19-C , 26-H ) :   0.9347 B( 19-C , 27-H ) :   0.9380 B( 22-O , 28-H ) :   0.7928

FINAL SINGLE POINT ENERGY      -652.855127240310

DIPOLE MOMENT
-------------
                                X             Y             Z
Electronic contribution:     -1.79579      -2.18480      -3.01740
Nuclear contribution   :      1.85323       2.30493       3.37158
                        -----------------------------------------
Total Dipole Moment    :      0.05744       0.12013       0.35417
                        -----------------------------------------
Magnitude (a.u.)       :      0.37838
Magnitude (Debye)      :      0.96176

Rotational constants in cm-1:     0.056194     0.012962     0.012749
Rotational constants in MHz :  1684.643217   388.593480   382.211113

                             ****ORCA TERMINATED NORMALLY****
TOTAL RUN TIME: 0 days 0 hours 34 minutes 11 seconds 808 msec
