                         Program Version 4.2.0 -  RELEASE  -
|  1> # Test redundant internal optimization
|  2> #
|  3> ! RKS B3LYP  Opt TightSCF SmallPrint
|  4>
|  5> %basis
|  6>         Basis "6-31G"
|  7> end
|  8>
|  9> %geom
| 10> Constraints
| 11> { D 4  0  15  12  60.0   C } # D for Dihedral angle
| 12> { D 0  15  12  16  135.0   C } # D for Dihedral angle
| 13> { D 0  4  3  2   C } # D for Dihedral angle
| 14> { D 4  3  2  1   C } # D for Dihedral angle
| 15> { D 3  2  1  0   C } # D for Dihedral angle
| 16> { D 2  1  0  4   C } # D for Dihedral angle
| 17> { D 1  0  4  3   C } # D for Dihedral angle
| 18> { D 16  20  19  18   C } # D for Dihedral angle
| 19> { D 20  19  18  17   C } # D for Dihedral angle
| 20> { D 19  18  17  16   C } # D for Dihedral angle
| 21> { D 18  17  16  20   C } # D for Dihedral angle
| 22> { D 17  16  20  19   C } # D for Dihedral angle
| 23> { D 15  12  16  20   C } # D for Dihedral angle
| 24> end
| 25> end
| 26>
| 27>
| 28> #%pal
| 29> #nprocs 8
| 30> #end
| 31>
| 32> * xyz 0 1
| 33> C  -21.048   26.222   46.251
| 34> C  -20.361   27.558   45.944
| 35> C  -20.329   28.222   47.341
| 36> C  -20.110   27.022   48.296
| 37> O  -20.473   25.807   47.535
| 38> H  -20.833   25.428   45.533
| 39> H  -19.344   27.382   45.576
| 40> H  -20.898   28.157   45.201
| 41> H  -19.543   28.978   47.434
| 42> H  -21.289   28.710   47.548
| 43> H  -20.733   27.082   49.195
| 44> H  -19.064   26.913   48.597
| 45> C  -23.051   27.452   47.413
| 46> H  -23.428   26.940   48.307
| 47> H  -22.210   28.091   47.713
| 48> O  -22.586   26.394   46.375
| 49> C  -24.175   28.375   46.868
| 50> C  -24.527   29.477   47.874
| 51> C  -23.376   30.486   47.649
| 52> C  -23.106   30.378   46.127
| 53> O  -23.710   29.104   45.683
| 54> H  -25.022   27.761   46.555
| 55> O  -25.895   30.115   47.508
| 56> H  -24.579   29.115   48.907
| 57> H  -23.639   31.504   47.954
| 58> H  -22.492   30.182   48.221
| 59> H  -22.036   30.369   45.891
| 60> H  -23.589   31.179   45.559
| 61> H  -25.866   30.484   46.477
| 62> *
| 63>
| 64>                          ****END OF INPUT****
 Total Charge           Charge          ....    0
 Multiplicity           Mult            ....    1
 Number of Electrons    NEL             ....  102
FINAL SINGLE POINT ENERGY      -652.790760703703
FINAL SINGLE POINT ENERGY      -652.829373112743
FINAL SINGLE POINT ENERGY      -652.849444599690
FINAL SINGLE POINT ENERGY      -652.853443052751
FINAL SINGLE POINT ENERGY      -652.854054477875
FINAL SINGLE POINT ENERGY      -652.854183888433
FINAL SINGLE POINT ENERGY      -652.854203943861
FINAL SINGLE POINT ENERGY      -652.854206921094
FINAL SINGLE POINT ENERGY      -652.854205431418
                    ***********************HURRAY********************

CARTESIAN COORDINATES (ANGSTROEM)
---------------------------------
  C    -21.211821   26.335944   46.383956
  C    -20.278255   27.472016   45.937523
  C    -19.835899   28.083600   47.299691
  C    -19.759506   26.836226   48.218414
  O    -20.544393   25.775282   47.541750
  H    -21.258823   25.527254   45.652543
  H    -19.421791   27.039249   45.410762
  H    -20.789181   28.182284   45.282978
  H    -18.866971   28.589424   47.231936
  H    -20.559662   28.819042   47.659911
  H    -20.174903   27.006753   49.216873
  H    -18.737201   26.460275   48.319071
  C    -23.116629   27.566595   47.542946
  H    -23.592600   26.993093   48.349440
  H    -22.326650   28.178686   47.983841
  O    -22.605629   26.635043   46.554500
  C    -24.157813   28.446291   46.854935
  C    -24.783339   29.526026   47.751639
  C    -23.716742   30.649999   47.679851
  C    -23.188648   30.542960   46.227737
  O    -23.579055   29.198217   45.734442
  H    -24.923755   27.798497   46.418929
  O    -26.064363   29.963840   47.224617
  H    -24.988997   29.192052   48.769589
  H    -24.165882   31.621303   47.901329
  H    -22.920278   30.465733   48.409741
  H    -22.100652   30.645694   46.163106
  H    -23.647154   31.277557   45.559158
  H    -25.995406   30.058067   46.250791

 Multiplicity           Mult            ....    1
 Number of Electrons    NEL             ....  102
 Basis Dimension        Dim             ....  149

ORBITAL ENERGIES
----------------

  NO   OCC          E(Eh)            E(eV)
   0   2.0000     -19.147225      -521.0225
   1   2.0000     -19.141701      -520.8722
   2   2.0000     -19.141017      -520.8536
   3   2.0000     -19.140146      -520.8299
   4   2.0000     -10.275902      -279.6215
   5   2.0000     -10.247105      -278.8379
   6   2.0000     -10.236380      -278.5461
   7   2.0000     -10.235985      -278.5353
   8   2.0000     -10.234675      -278.4997
   9   2.0000     -10.230722      -278.3921
  10   2.0000     -10.195494      -277.4335
  11   2.0000     -10.194958      -277.4189
  12   2.0000     -10.186182      -277.1801
  13   2.0000      -1.051174       -28.6039
  14   2.0000      -1.039167       -28.2772
  15   2.0000      -1.010281       -27.4912
  16   2.0000      -0.994233       -27.0545
  17   2.0000      -0.790662       -21.5150
  18   2.0000      -0.787001       -21.4154
  19   2.0000      -0.774847       -21.0847
  20   2.0000      -0.733916       -19.9709
  21   2.0000      -0.681142       -18.5348
  22   2.0000      -0.609460       -16.5843
  23   2.0000      -0.604924       -16.4608
  24   2.0000      -0.600501       -16.3405
  25   2.0000      -0.579209       -15.7611
  26   2.0000      -0.528441       -14.3796
  27   2.0000      -0.510178       -13.8826
  28   2.0000      -0.504401       -13.7255
  29   2.0000      -0.490734       -13.3535
  30   2.0000      -0.478549       -13.0220
  31   2.0000      -0.462514       -12.5857
  32   2.0000      -0.455618       -12.3980
  33   2.0000      -0.440542       -11.9878
  34   2.0000      -0.425536       -11.5794
  35   2.0000      -0.417476       -11.3601
  36   2.0000      -0.407133       -11.0787
  37   2.0000      -0.398766       -10.8510
  38   2.0000      -0.380986       -10.3672
  39   2.0000      -0.376495       -10.2449
  40   2.0000      -0.365668        -9.9503
  41   2.0000      -0.359029        -9.7697
  42   2.0000      -0.348327        -9.4785
  43   2.0000      -0.335691        -9.1346
  44   2.0000      -0.316474        -8.6117
  45   2.0000      -0.311742        -8.4829
  46   2.0000      -0.304561        -8.2875
  47   2.0000      -0.274974        -7.4824
  48   2.0000      -0.262527        -7.1437
  49   2.0000      -0.258458        -7.0330
  50   2.0000      -0.242801        -6.6070
  51   0.0000       0.046493         1.2651
  52   0.0000       0.074789         2.0351
  53   0.0000       0.083109         2.2615
  54   0.0000       0.097119         2.6427
  55   0.0000       0.100852         2.7443

MULLIKEN ATOMIC CHARGES
-----------------------
   0 C :    0.301681
   1 C :   -0.276461
   2 C :   -0.322154
   3 C :   -0.012291
   4 O :   -0.506324
   5 H :    0.167798
   6 H :    0.151987
   7 H :    0.170497
   8 H :    0.144025
   9 H :    0.144598
  10 H :    0.141417
  11 H :    0.149498
  12 C :    0.001104
  13 H :    0.145939
  14 H :    0.119650
  15 O :   -0.515272
  16 C :    0.070564
  17 C :    0.076412
  18 C :   -0.292727
  19 C :   -0.038019
  20 O :   -0.513296
  21 H :    0.173741
  22 O :   -0.598921
  23 H :    0.152593
  24 H :    0.163304
  25 H :    0.139514
  26 H :    0.144220
  27 H :    0.151005
  28 H :    0.365917
Sum of atomic charges:   -0.0000000

LOEWDIN ATOMIC CHARGES
----------------------
   0 C :    0.178005
   1 C :   -0.229550
   2 C :   -0.225458
   3 C :   -0.035572
   4 O :   -0.323637
   5 H :    0.114351
   6 H :    0.120076
   7 H :    0.128801
   8 H :    0.114880
   9 H :    0.103445
  10 H :    0.100459
  11 H :    0.105900
  12 C :   -0.039019
  13 H :    0.107400
  14 H :    0.093524
  15 O :   -0.311343
  16 C :    0.015356
  17 C :    0.035089
  18 C :   -0.240735
  19 C :   -0.041864
  20 O :   -0.324636
  21 H :    0.122845
  22 O :   -0.411892
  23 H :    0.116108
  24 H :    0.127401
  25 H :    0.109928
  26 H :    0.101216
  27 H :    0.104769
  28 H :    0.284153

  Mayer bond orders larger than 0.100000
B(  0-C ,  1-C ) :   0.9154 B(  0-C ,  4-O ) :   0.8975 B(  0-C ,  5-H ) :   0.9364
B(  0-C , 15-O ) :   0.9020 B(  1-C ,  2-C ) :   0.9560 B(  1-C ,  6-H ) :   0.9350
B(  1-C ,  7-H ) :   0.9284 B(  2-C ,  3-C ) :   0.9456 B(  2-C ,  8-H ) :   0.9446
B(  2-C ,  9-H ) :   0.9371 B(  3-C ,  4-O ) :   0.8498 B(  3-C , 10-H ) :   0.9338
B(  3-C , 11-H ) :   0.9384 B( 12-C , 13-H ) :   0.9201 B( 12-C , 14-H ) :   0.9087
B( 12-C , 15-O ) :   0.8390 B( 12-C , 16-C ) :   0.8992 B( 16-C , 17-C ) :   0.8982
B( 16-C , 20-O ) :   0.8571 B( 16-C , 21-H ) :   0.9225 B( 17-C , 18-C ) :   0.9079
B( 17-C , 22-O ) :   0.8957 B( 17-C , 23-H ) :   0.9331 B( 18-C , 19-C ) :   0.9417
B( 18-C , 24-H ) :   0.9377 B( 18-C , 25-H ) :   0.9347 B( 19-C , 20-O ) :   0.8543
B( 19-C , 26-H ) :   0.9314 B( 19-C , 27-H ) :   0.9369 B( 22-O , 28-H ) :   0.7937

FINAL SINGLE POINT ENERGY      -652.854203744050

DIPOLE MOMENT
-------------
                                X             Y             Z
Electronic contribution:     -4.89294      -4.41358      -2.17212
Nuclear contribution   :      5.92149       5.66479       2.54610
                        -----------------------------------------
Total Dipole Moment    :      1.02855       1.25120       0.37397
                        -----------------------------------------
Magnitude (a.u.)       :      1.66231
Magnitude (Debye)      :      4.22527

Rotational constants in cm-1:     0.054946     0.014481     0.013715
Rotational constants in MHz :  1647.254216   434.119874   411.161778

                             ****ORCA TERMINATED NORMALLY****
TOTAL RUN TIME: 0 days 0 hours 38 minutes 12 seconds 304 msec
