                         Program Version 4.2.1 -  RELEASE  -
|  1> # Test redundant internal optimization
|  2> #
|  3> ! RKS B3LYP  Opt TightSCF SmallPrint
|  4>
|  5> %basis
|  6>         Basis "6-31G"
|  7> end
|  8>
|  9> %geom
| 10> Constraints
| 11> { D 4  0  19  14  270.0   C } # D for Dihedral angle
| 12> { D 0  19  14  12  135.0   C } # D for Dihedral angle
| 13> { D 0  4  3  2   C } # D for Dihedral angle
| 14> { D 4  3  2  1   C } # D for Dihedral angle
| 15> { D 3  2  1  0   C } # D for Dihedral angle
| 16> { D 2  1  0  4   C } # D for Dihedral angle
| 17> { D 1  0  4  3   C } # D for Dihedral angle
| 18> { D 14  15  16  17   C } # D for Dihedral angle
| 19> { D 15  16  17  12   C } # D for Dihedral angle
| 20> { D 16  17  12  14   C } # D for Dihedral angle
| 21> { D 17  12  14  15   C } # D for Dihedral angle
| 22> { D 12  14  15  16   C } # D for Dihedral angle
| 23> end
| 24> end
| 25>
| 26>
| 27> #%pal
| 28> #nprocs 8
| 29> #end
| 30>
| 31> * xyz 0 1
| 32> C  -21.048   26.222   46.251
| 33> C  -20.361   27.558   45.944
| 34> C  -20.329   28.222   47.341
| 35> C  -20.110   27.022   48.296
| 36> O  -20.473   25.807   47.535
| 37> H  -20.833   25.428   45.533
| 38> H  -19.344   27.382   45.576
| 39> H  -20.898   28.157   45.201
| 40> H  -19.543   28.978   47.434
| 41> H  -21.289   28.710   47.548
| 42> H  -20.733   27.082   49.195
| 43> H  -19.064   26.913   48.597
| 44> C  -24.317   24.996   47.141
| 45> H  -24.712   23.968   47.124
| 46> C  -23.226   25.191   46.082
| 47> C  -24.064   25.369   44.795
| 48> C  -25.316   26.134   45.294
| 49> O  -25.363   25.952   46.761
| 50> H  -24.011   25.245   48.158
| 51> O  -22.472   26.381   46.366
| 52> H  -22.529   24.348   46.022
| 53> H  -23.528   25.912   44.011
| 54> H  -24.347   24.389   44.390
| 55> H  -26.245   25.752   44.855
| 56> H  -25.252   27.210   45.105
| 57> *
| 58>
| 59>                          ****END OF INPUT****
 Total Charge           Charge          ....    0
 Multiplicity           Mult            ....    1
 Number of Electrons    NEL             ....   86
FINAL SINGLE POINT ENERGY      -538.433521885890
FINAL SINGLE POINT ENERGY      -538.435438911815
FINAL SINGLE POINT ENERGY      -538.435720005705
FINAL SINGLE POINT ENERGY      -538.435740836719
FINAL SINGLE POINT ENERGY      -538.435747272056
                    ***********************HURRAY********************

CARTESIAN COORDINATES (ANGSTROEM)
---------------------------------
  C    -20.983810   26.180234   46.232004
  C    -20.397248   27.563632   45.947431
  C    -20.417491   28.212218   47.351803
  C    -20.114588   27.021273   48.289057
  O    -20.391431   25.797814   47.495806
  H    -20.722527   25.393841   45.517115
  H    -19.369846   27.452981   45.581455
  H    -20.983118   28.113791   45.208586
  H    -19.685712   29.019221   47.454507
  H    -21.413614   28.616617   47.553064
  H    -20.742328   27.011562   49.183609
  H    -19.062493   26.970546   48.585577
  C    -24.308120   25.028307   47.147385
  H    -24.750163   24.020713   47.152339
  C    -23.227198   25.140989   46.072182
  C    -24.071051   25.349168   44.799486
  C    -25.266287   26.194439   45.301530
  O    -25.298883   26.036266   46.770585
  H    -23.938538   25.278533   48.142165
  O    -22.414533   26.326489   46.333872
  H    -22.587437   24.251935   46.024795
  H    -23.498382   25.848305   44.013624
  H    -24.406442   24.377021   44.419234
  H    -26.221627   25.861629   44.880992
  H    -25.134134   27.260477   45.096798

 Multiplicity           Mult            ....    1
 Number of Electrons    NEL             ....   86
 Basis Dimension        Dim             ....  127

ORBITAL ENERGIES
----------------

  NO   OCC          E(Eh)            E(eV)
   0   2.0000     -19.141226      -520.8592
   1   2.0000     -19.136277      -520.7246
   2   2.0000     -19.125584      -520.4336
   3   2.0000     -10.278854      -279.7018
   4   2.0000     -10.239892      -278.6416
   5   2.0000     -10.222135      -278.1584
   6   2.0000     -10.219001      -278.0731
   7   2.0000     -10.218341      -278.0552
   8   2.0000     -10.185511      -277.1618
   9   2.0000     -10.183631      -277.1107
  10   2.0000     -10.182230      -277.0726
  11   2.0000      -1.052624       -28.6434
  12   2.0000      -1.012196       -27.5432
  13   2.0000      -0.988903       -26.9094
  14   2.0000      -0.790692       -21.5158
  15   2.0000      -0.774951       -21.0875
  16   2.0000      -0.738778       -20.1032
  17   2.0000      -0.718705       -19.5569
  18   2.0000      -0.605137       -16.4666
  19   2.0000      -0.598079       -16.2746
  20   2.0000      -0.594913       -16.1884
  21   2.0000      -0.578550       -15.7431
  22   2.0000      -0.520837       -14.1727
  23   2.0000      -0.502251       -13.6669
  24   2.0000      -0.480406       -13.0725
  25   2.0000      -0.474793       -12.9198
  26   2.0000      -0.452928       -12.3248
  27   2.0000      -0.441122       -12.0035
  28   2.0000      -0.426054       -11.5935
  29   2.0000      -0.415573       -11.3083
  30   2.0000      -0.403787       -10.9876
  31   2.0000      -0.384440       -10.4611
  32   2.0000      -0.371554       -10.1105
  33   2.0000      -0.365915        -9.9570
  34   2.0000      -0.354880        -9.6568
  35   2.0000      -0.352050        -9.5798
  36   2.0000      -0.341644        -9.2966
  37   2.0000      -0.321940        -8.7604
  38   2.0000      -0.304079        -8.2744
  39   2.0000      -0.296666        -8.0727
  40   2.0000      -0.267812        -7.2875
  41   2.0000      -0.248642        -6.7659
  42   2.0000      -0.230332        -6.2677
  43   0.0000       0.077715         2.1147
  44   0.0000       0.098134         2.6704
  45   0.0000       0.099907         2.7186
  46   0.0000       0.114516         3.1161
  47   0.0000       0.121137         3.2963

MULLIKEN ATOMIC CHARGES
-----------------------
   0 C :    0.279854
   1 C :   -0.255864
   2 C :   -0.299674
   3 C :   -0.001440
   4 O :   -0.510733
   5 H :    0.137610
   6 H :    0.142859
   7 H :    0.151240
   8 H :    0.139660
   9 H :    0.168445
  10 H :    0.149003
  11 H :    0.140229
  12 C :    0.016659
  13 H :    0.120435
  14 C :    0.057781
  15 C :   -0.287847
  16 C :    0.007683
  17 O :   -0.521327
  18 H :    0.165560
  19 O :   -0.510831
  20 H :    0.137798
  21 H :    0.149125
  22 H :    0.140076
  23 H :    0.132219
  24 H :    0.151478
Sum of atomic charges:   -0.0000000

LOEWDIN ATOMIC CHARGES
----------------------
   0 C :    0.171857
   1 C :   -0.216366
   2 C :   -0.216031
   3 C :   -0.027153
   4 O :   -0.330218
   5 H :    0.095252
   6 H :    0.112633
   7 H :    0.121192
   8 H :    0.112816
   9 H :    0.122171
  10 H :    0.106371
  11 H :    0.101457
  12 C :   -0.034506
  13 H :    0.089995
  14 C :    0.038862
  15 C :   -0.232325
  16 C :   -0.026913
  17 O :   -0.330239
  18 H :    0.122495
  19 O :   -0.321513
  20 H :    0.104138
  21 H :    0.120159
  22 H :    0.111731
  23 H :    0.097089
  24 H :    0.107045

  Mayer bond orders larger than 0.100000
B(  0-C ,  1-C ) :   0.9480 B(  0-C ,  4-O ) :   0.9134 B(  0-C ,  5-H ) :   0.9185
B(  0-C , 19-O ) :   0.8669 B(  1-C ,  2-C ) :   0.9578 B(  1-C ,  6-H ) :   0.9398
B(  1-C ,  7-H ) :   0.9373 B(  2-C ,  3-C ) :   0.9549 B(  2-C ,  8-H ) :   0.9453
B(  2-C ,  9-H ) :   0.9429 B(  3-C ,  4-O ) :   0.8378 B(  3-C , 10-H ) :   0.9353
B(  3-C , 11-H ) :   0.9404 B( 12-C , 13-H ) :   0.9141 B( 12-C , 14-C ) :   0.9327
B( 12-C , 17-O ) :   0.8698 B( 12-C , 18-H ) :   0.9317 B( 14-C , 15-C ) :   0.9426
B( 14-C , 19-O ) :   0.8217 B( 14-C , 20-H ) :   0.9194 B( 15-C , 16-C ) :   0.9466
B( 15-C , 21-H ) :   0.9415 B( 15-C , 22-H ) :   0.9379 B( 16-C , 17-O ) :   0.8586
B( 16-C , 23-H ) :   0.9336 B( 16-C , 24-H ) :   0.9362

FINAL SINGLE POINT ENERGY      -538.435747867219

DIPOLE MOMENT
-------------
                                X             Y             Z
Electronic contribution:     -1.07492      -1.81565       1.63239
Nuclear contribution   :      1.70381       1.77513      -2.45796
                        -----------------------------------------
Total Dipole Moment    :      0.62889      -0.04053      -0.82557
                        -----------------------------------------
Magnitude (a.u.)       :      1.03861
Magnitude (Debye)      :      2.63993

Rotational constants in cm-1:     0.079164     0.020166     0.019496
Rotational constants in MHz :  2373.289575   604.574445   584.482752

                             ****ORCA TERMINATED NORMALLY****
TOTAL RUN TIME: 0 days 0 hours 11 minutes 51 seconds 700 msec
