                         Program Version 4.2.0 -  RELEASE  -
|  1> # Test redundant internal optimization
|  2> #
|  3> ! RKS B3LYP  Opt TightSCF SmallPrint
|  4>
|  5> %basis
|  6>         Basis "6-31G"
|  7> end
|  8>
|  9> %geom
| 10> Constraints
| 11> { D 4  0  15  12  30.0   C } # D for Dihedral angle
| 12> { D 0  15  12  16  180.0   C } # D for Dihedral angle
| 13> { D 0  4  3  2   C } # D for Dihedral angle
| 14> { D 4  3  2  1   C } # D for Dihedral angle
| 15> { D 3  2  1  0   C } # D for Dihedral angle
| 16> { D 2  1  0  4   C } # D for Dihedral angle
| 17> { D 1  0  4  3   C } # D for Dihedral angle
| 18> { D 16  20  19  18   C } # D for Dihedral angle
| 19> { D 20  19  18  17   C } # D for Dihedral angle
| 20> { D 19  18  17  16   C } # D for Dihedral angle
| 21> { D 18  17  16  20   C } # D for Dihedral angle
| 22> { D 17  16  20  19   C } # D for Dihedral angle
| 23> { D 15  12  16  20   C } # D for Dihedral angle
| 24> end
| 25> end
| 26>
| 27>
| 28> #%pal
| 29> #nprocs 8
| 30> #end
| 31>
| 32> * xyz 0 1
| 33> C  -21.048   26.222   46.251
| 34> C  -20.361   27.558   45.944
| 35> C  -20.329   28.222   47.341
| 36> C  -20.110   27.022   48.296
| 37> O  -20.473   25.807   47.535
| 38> H  -20.833   25.428   45.533
| 39> H  -19.344   27.382   45.576
| 40> H  -20.898   28.157   45.201
| 41> H  -19.543   28.978   47.434
| 42> H  -21.289   28.710   47.548
| 43> H  -20.733   27.082   49.195
| 44> H  -19.064   26.913   48.597
| 45> C  -23.091   26.824   47.779
| 46> H  -22.791   26.071   48.518
| 47> H  -22.648   27.785   48.070
| 48> O  -22.586   26.394   46.375
| 49> C  -24.636   26.979   47.840
| 50> C  -25.089   27.515   49.203
| 51> C  -24.788   29.026   49.062
| 52> C  -25.094   29.307   47.570
| 53> O  -25.087   27.997   46.885
| 54> H  -25.102   26.036   47.548
| 55> H  -26.163   27.345   49.337
| 56> O  -24.338   26.860   50.395
| 57> H  -25.391   29.644   49.736
| 58> H  -23.732   29.222   49.283
| 59> H  -24.346   29.959   47.104
| 60> H  -26.086   29.744   47.422
| 61> H  -23.260   27.018   50.284
| 62> *
| 63>
| 64>                          ****END OF INPUT****
 Total Charge           Charge          ....    0
 Multiplicity           Mult            ....    1
 Number of Electrons    NEL             ....  102
FINAL SINGLE POINT ENERGY      -652.818411741511
FINAL SINGLE POINT ENERGY      -652.843398449906
FINAL SINGLE POINT ENERGY      -652.849719267109
FINAL SINGLE POINT ENERGY      -652.852012898265
FINAL SINGLE POINT ENERGY      -652.852220936292
FINAL SINGLE POINT ENERGY      -652.852279659893
FINAL SINGLE POINT ENERGY      -652.852283477370
                    ***********************HURRAY********************

CARTESIAN COORDINATES (ANGSTROEM)
---------------------------------
  C    -21.153203   26.294249   46.358486
  C    -20.383203   27.539751   45.902997
  C    -20.007627   28.198722   47.257893
  C    -19.756593   26.977308   48.174810
  O    -20.406394   25.821034   47.505179
  H    -21.137488   25.487081   45.623829
  H    -19.485379   27.223883   45.359987
  H    -20.986250   28.182302   45.257865
  H    -19.122197   28.837874   47.182280
  H    -20.832672   28.817443   47.623085
  H    -20.182432   27.091400   49.176569
  H    -18.694385   26.732104   48.265097
  C    -23.025971   26.885444   47.921895
  H    -22.766764   26.109122   48.652061
  H    -22.575644   27.836778   48.240288
  O    -22.564914   26.504820   46.599951
  C    -24.543276   27.024462   47.833431
  C    -25.213371   27.465083   49.146515
  C    -25.038979   29.012433   49.091919
  C    -25.181702   29.316995   47.585150
  O    -24.965229   28.034881   46.868041
  H    -24.944795   26.077269   47.463538
  H    -26.272253   27.200653   49.115250
  O    -24.718811   26.832205   50.350864
  H    -25.778422   29.533286   49.705612
  H    -24.042069   29.281458   49.465054
  H    -24.455550   30.054100   47.227851
  H    -26.187324   29.662040   47.326431
  H    -23.830102   27.172821   50.580073

 Multiplicity           Mult            ....    1
 Number of Electrons    NEL             ....  102
 Basis Dimension        Dim             ....  149

ORBITAL ENERGIES
----------------

  NO   OCC          E(Eh)            E(eV)
   0   2.0000     -19.150354      -521.1076
   1   2.0000     -19.148088      -521.0460
   2   2.0000     -19.137509      -520.7581
   3   2.0000     -19.135613      -520.7065
   4   2.0000     -10.277060      -279.6530
   5   2.0000     -10.244969      -278.7798
   6   2.0000     -10.234672      -278.4996
   7   2.0000     -10.230041      -278.3736
   8   2.0000     -10.229672      -278.3635
   9   2.0000     -10.228726      -278.3378
  10   2.0000     -10.195642      -277.4375
  11   2.0000     -10.195115      -277.4232
  12   2.0000     -10.186612      -277.1918
  13   2.0000      -1.053991       -28.6806
  14   2.0000      -1.033503       -28.1230
  15   2.0000      -1.015303       -27.6278
  16   2.0000      -0.992805       -27.0156
  17   2.0000      -0.790675       -21.5153
  18   2.0000      -0.782905       -21.3039
  19   2.0000      -0.771555       -20.9951
  20   2.0000      -0.733575       -19.9616
  21   2.0000      -0.681173       -18.5356
  22   2.0000      -0.611378       -16.6364
  23   2.0000      -0.606068       -16.4919
  24   2.0000      -0.595590       -16.2068
  25   2.0000      -0.572571       -15.5805
  26   2.0000      -0.528243       -14.3742
  27   2.0000      -0.508059       -13.8250
  28   2.0000      -0.502265       -13.6673
  29   2.0000      -0.497096       -13.5267
  30   2.0000      -0.470748       -12.8097
  31   2.0000      -0.460814       -12.5394
  32   2.0000      -0.449553       -12.2330
  33   2.0000      -0.431359       -11.7379
  34   2.0000      -0.426077       -11.5941
  35   2.0000      -0.417703       -11.3663
  36   2.0000      -0.411066       -11.1857
  37   2.0000      -0.401309       -10.9202
  38   2.0000      -0.379791       -10.3346
  39   2.0000      -0.374890       -10.2013
  40   2.0000      -0.362092        -9.8530
  41   2.0000      -0.356879        -9.7112
  42   2.0000      -0.346471        -9.4279
  43   2.0000      -0.337227        -9.1764
  44   2.0000      -0.323190        -8.7945
  45   2.0000      -0.313508        -8.5310
  46   2.0000      -0.307981        -8.3806
  47   2.0000      -0.270936        -7.3726
  48   2.0000      -0.263058        -7.1582
  49   2.0000      -0.246307        -6.7023
  50   2.0000      -0.241692        -6.5768
  51   0.0000       0.044406         1.2084
  52   0.0000       0.065324         1.7776
  53   0.0000       0.085768         2.3339
  54   0.0000       0.091836         2.4990
  55   0.0000       0.104373         2.8401

MULLIKEN ATOMIC CHARGES
-----------------------
   0 C :    0.296383
   1 C :   -0.258809
   2 C :   -0.318563
   3 C :   -0.010905
   4 O :   -0.510001
   5 H :    0.165381
   6 H :    0.148052
   7 H :    0.162871
   8 H :    0.147099
   9 H :    0.151241
  10 H :    0.133939
  11 H :    0.152258
  12 C :   -0.007722
  13 H :    0.156065
  14 H :    0.103339
  15 O :   -0.519467
  16 C :    0.096252
  17 C :    0.077648
  18 C :   -0.317544
  19 C :   -0.008071
  20 O :   -0.505233
  21 H :    0.165644
  22 H :    0.170197
  23 O :   -0.597749
  24 H :    0.158976
  25 H :    0.126167
  26 H :    0.141457
  27 H :    0.146645
  28 H :    0.354450
Sum of atomic charges:   -0.0000000

LOEWDIN ATOMIC CHARGES
----------------------
   0 C :    0.179063
   1 C :   -0.224966
   2 C :   -0.223437
   3 C :   -0.033851
   4 O :   -0.320456
   5 H :    0.112176
   6 H :    0.116715
   7 H :    0.126444
   8 H :    0.116629
   9 H :    0.108687
  10 H :    0.097208
  11 H :    0.107462
  12 C :   -0.050256
  13 H :    0.109197
  14 H :    0.079042
  15 O :   -0.317055
  16 C :    0.024007
  17 C :    0.034627
  18 C :   -0.241005
  19 C :   -0.030154
  20 O :   -0.312848
  21 H :    0.121700
  22 H :    0.120695
  23 O :   -0.406226
  24 H :    0.122960
  25 H :    0.100616
  26 H :    0.100996
  27 H :    0.105140
  28 H :    0.276889

  Mayer bond orders larger than 0.100000
B(  0-C ,  1-C ) :   0.9166 B(  0-C ,  4-O ) :   0.9000 B(  0-C ,  5-H ) :   0.9345
B(  0-C , 15-O ) :   0.8780 B(  1-C ,  2-C ) :   0.9536 B(  1-C ,  6-H ) :   0.9347
B(  1-C ,  7-H ) :   0.9357 B(  2-C ,  3-C ) :   0.9499 B(  2-C ,  8-H ) :   0.9443
B(  2-C ,  9-H ) :   0.9411 B(  3-C ,  4-O ) :   0.8405 B(  3-C , 10-H ) :   0.9339
B(  3-C , 11-H ) :   0.9393 B( 12-C , 13-H ) :   0.9008 B( 12-C , 14-H ) :   0.9038
B( 12-C , 15-O ) :   0.8413 B( 12-C , 16-C ) :   0.9101 B( 16-C , 17-C ) :   0.8738
B( 16-C , 20-O ) :   0.8681 B( 16-C , 21-H ) :   0.9280 B( 17-C , 18-C ) :   0.9214
B( 17-C , 22-H ) :   0.9335 B( 17-C , 23-O ) :   0.8987 B( 18-C , 19-C ) :   0.9381
B( 18-C , 24-H ) :   0.9415 B( 18-C , 25-H ) :   0.9420 B( 19-C , 20-O ) :   0.8533
B( 19-C , 26-H ) :   0.9318 B( 19-C , 27-H ) :   0.9381 B( 23-O , 28-H ) :   0.7984

FINAL SINGLE POINT ENERGY      -652.852282415863

DIPOLE MOMENT
-------------
                                X             Y             Z
Electronic contribution:     -3.14059      -5.42338      -1.42628
Nuclear contribution   :      3.98752       6.93058       1.99040
                        -----------------------------------------
Total Dipole Moment    :      0.84693       1.50720       0.56411
                        -----------------------------------------
Magnitude (a.u.)       :      1.81856
Magnitude (Debye)      :      4.62241

Rotational constants in cm-1:     0.045805     0.014783     0.013728
Rotational constants in MHz :  1373.211513   443.177819   411.540473

                             ****ORCA TERMINATED NORMALLY****
TOTAL RUN TIME: 0 days 2 hours 27 minutes 45 seconds 10 msec
