                         Program Version 4.2.0 -  RELEASE  -
|  1> # Test redundant internal optimization
|  2> #
|  3> ! RKS B3LYP  Opt TightSCF SmallPrint
|  4>
|  5> %basis
|  6>         Basis "6-31G"
|  7> end
|  8>
|  9> %geom
| 10> Constraints
| 11> { D 4  0  15  12  330.0   C } # D for Dihedral angle
| 12> { D 0  15  12  16  165.0   C } # D for Dihedral angle
| 13> { D 0  4  3  2   C } # D for Dihedral angle
| 14> { D 4  3  2  1   C } # D for Dihedral angle
| 15> { D 3  2  1  0   C } # D for Dihedral angle
| 16> { D 2  1  0  4   C } # D for Dihedral angle
| 17> { D 1  0  4  3   C } # D for Dihedral angle
| 18> { D 16  20  19  18   C } # D for Dihedral angle
| 19> { D 20  19  18  17   C } # D for Dihedral angle
| 20> { D 19  18  17  16   C } # D for Dihedral angle
| 21> { D 18  17  16  20   C } # D for Dihedral angle
| 22> { D 17  16  20  19   C } # D for Dihedral angle
| 23> { D 15  12  16  20   C } # D for Dihedral angle
| 24> end
| 25> end
| 26>
| 27>
| 28> #%pal
| 29> #nprocs 8
| 30> #end
| 31>
| 32> * xyz 0 1
| 33> C  -21.048   26.222   46.251
| 34> C  -20.361   27.558   45.944
| 35> C  -20.329   28.222   47.341
| 36> C  -20.110   27.022   48.296
| 37> O  -20.473   25.807   47.535
| 38> H  -20.833   25.428   45.533
| 39> H  -19.344   27.382   45.576
| 40> H  -20.898   28.157   45.201
| 41> H  -19.543   28.978   47.434
| 42> H  -21.289   28.710   47.548
| 43> H  -20.733   27.082   49.195
| 44> H  -19.064   26.913   48.597
| 45> C  -23.271   25.476   47.424
| 46> H  -23.319   24.452   47.032
| 47> H  -22.691   25.459   48.356
| 48> O  -22.586   26.394   46.375
| 49> C  -24.714   25.934   47.773
| 50> C  -24.736   27.393   48.244
| 51> C  -24.653   28.157   46.901
| 52> C  -25.465   27.260   45.934
| 53> O  -25.557   25.929   46.573
| 54> H  -25.154   25.225   48.476
| 55> H  -25.682   27.609   48.753
| 56> O  -23.569   27.741   49.208
| 57> H  -25.055   29.174   46.965
| 58> H  -23.608   28.231   46.574
| 59> H  -24.986   27.157   44.955
| 60> H  -26.488   27.620   45.792
| 61> H  -22.612   27.532   48.718
| 62> *
| 63>
| 64>                          ****END OF INPUT****
 Total Charge           Charge          ....    0
 Multiplicity           Mult            ....    1
 Number of Electrons    NEL             ....  102
FINAL SINGLE POINT ENERGY      -652.833700173664
FINAL SINGLE POINT ENERGY      -652.857060307949
FINAL SINGLE POINT ENERGY      -652.861470601255
FINAL SINGLE POINT ENERGY      -652.863134752738
FINAL SINGLE POINT ENERGY      -652.863277433150
FINAL SINGLE POINT ENERGY      -652.863308859740
FINAL SINGLE POINT ENERGY      -652.863308500286
                    ***********************HURRAY********************

CARTESIAN COORDINATES (ANGSTROEM)
---------------------------------
  C    -21.058240   26.147098   46.322422
  C    -20.430145   27.493797   45.961171
  C    -20.341033   28.182136   47.342984
  C    -20.035650   27.009150   48.302840
  O    -20.413028   25.773183   47.560292
  H    -20.840613   25.332481   45.624119
  H    -19.432448   27.321242   45.543693
  H    -21.028715   28.049610   45.236275
  H    -19.563943   28.951965   47.378040
  H    -21.292233   28.667012   47.586913
  H    -20.602184   27.046064   49.238308
  H    -18.971443   26.919080   48.535359
  C    -23.182037   25.455946   47.413478
  H    -23.238180   24.425954   47.036906
  H    -22.617223   25.443848   48.350546
  O    -22.501794   26.292004   46.422147
  C    -24.598933   25.956074   47.673871
  C    -24.725983   27.388410   48.222906
  C    -24.713168   28.238330   46.914478
  C    -25.464846   27.329942   45.917059
  O    -25.446837   25.961189   46.489984
  H    -25.049991   25.234312   48.366367
  H    -25.674129   27.497925   48.753712
  O    -23.713653   27.756166   49.192222
  H    -25.197622   29.209715   47.050262
  H    -23.679652   28.389188   46.596144
  H    -24.989246   27.302510   44.932816
  H    -26.515971   27.612410   45.803166
  H    -22.852059   27.837259   48.735520

 Multiplicity           Mult            ....    1
 Number of Electrons    NEL             ....  102
 Basis Dimension        Dim             ....  149

ORBITAL ENERGIES
----------------

  NO   OCC          E(Eh)            E(eV)
   0   2.0000     -19.157236      -521.2949
   1   2.0000     -19.149456      -521.0832
   2   2.0000     -19.142331      -520.8893
   3   2.0000     -19.130248      -520.5605
   4   2.0000     -10.287054      -279.9250
   5   2.0000     -10.241064      -278.6735
   6   2.0000     -10.236466      -278.5484
   7   2.0000     -10.228595      -278.3342
   8   2.0000     -10.225027      -278.2371
   9   2.0000     -10.219361      -278.0830
  10   2.0000     -10.202933      -277.6359
  11   2.0000     -10.197130      -277.4780
  12   2.0000     -10.179118      -276.9879
  13   2.0000      -1.063486       -28.9389
  14   2.0000      -1.027409       -27.9572
  15   2.0000      -1.009863       -27.4798
  16   2.0000      -0.998118       -27.1602
  17   2.0000      -0.801776       -21.8174
  18   2.0000      -0.772577       -21.0229
  19   2.0000      -0.765796       -20.8384
  20   2.0000      -0.738637       -20.0993
  21   2.0000      -0.676109       -18.3979
  22   2.0000      -0.614193       -16.7130
  23   2.0000      -0.600707       -16.3461
  24   2.0000      -0.599907       -16.3243
  25   2.0000      -0.567018       -15.4293
  26   2.0000      -0.525390       -14.2966
  27   2.0000      -0.517238       -14.0748
  28   2.0000      -0.506387       -13.7795
  29   2.0000      -0.491790       -13.3823
  30   2.0000      -0.472495       -12.8572
  31   2.0000      -0.462169       -12.5763
  32   2.0000      -0.443717       -12.0742
  33   2.0000      -0.426672       -11.6103
  34   2.0000      -0.421835       -11.4787
  35   2.0000      -0.416700       -11.3390
  36   2.0000      -0.407393       -11.0857
  37   2.0000      -0.399339       -10.8666
  38   2.0000      -0.384758       -10.4698
  39   2.0000      -0.371568       -10.1109
  40   2.0000      -0.368292       -10.0217
  41   2.0000      -0.359239        -9.7754
  42   2.0000      -0.352211        -9.5842
  43   2.0000      -0.342526        -9.3206
  44   2.0000      -0.323739        -8.8094
  45   2.0000      -0.307792        -8.3754
  46   2.0000      -0.306768        -8.3476
  47   2.0000      -0.272912        -7.4263
  48   2.0000      -0.264037        -7.1848
  49   2.0000      -0.259445        -7.0598
  50   2.0000      -0.236566        -6.4373
  51   0.0000       0.040209         1.0941
  52   0.0000       0.083177         2.2634
  53   0.0000       0.090426         2.4606
  54   0.0000       0.093826         2.5531
  55   0.0000       0.100365         2.7311

MULLIKEN ATOMIC CHARGES
-----------------------
   0 C :    0.303473
   1 C :   -0.263651
   2 C :   -0.316389
   3 C :   -0.024855
   4 O :   -0.508979
   5 H :    0.155863
   6 H :    0.152940
   7 H :    0.161449
   8 H :    0.155310
   9 H :    0.146497
  10 H :    0.152172
  11 H :    0.157143
  12 C :   -0.012604
  13 H :    0.147862
  14 H :    0.158377
  15 O :   -0.545450
  16 C :    0.082242
  17 C :    0.074026
  18 C :   -0.309709
  19 C :   -0.001545
  20 O :   -0.519893
  21 H :    0.153010
  22 H :    0.162321
  23 O :   -0.615188
  24 H :    0.140337
  25 H :    0.159519
  26 H :    0.146846
  27 H :    0.140318
  28 H :    0.368556
Sum of atomic charges:   -0.0000000

LOEWDIN ATOMIC CHARGES
----------------------
   0 C :    0.178882
   1 C :   -0.215223
   2 C :   -0.219823
   3 C :   -0.035285
   4 O :   -0.319590
   5 H :    0.101061
   6 H :    0.118821
   7 H :    0.125908
   8 H :    0.120933
   9 H :    0.104548
  10 H :    0.104513
  11 H :    0.110977
  12 C :   -0.047774
  13 H :    0.106836
  14 H :    0.110997
  15 O :   -0.342793
  16 C :    0.017546
  17 C :    0.037941
  18 C :   -0.242587
  19 C :   -0.024427
  20 O :   -0.322643
  21 H :    0.115841
  22 H :    0.116321
  23 O :   -0.410586
  24 H :    0.113668
  25 H :    0.116677
  26 H :    0.105738
  27 H :    0.100302
  28 H :    0.273221

  Mayer bond orders larger than 0.100000
B(  0-C ,  1-C ) :   0.9427 B(  0-C ,  4-O ) :   0.9002 B(  0-C ,  5-H ) :   0.9222
B(  0-C , 15-O ) :   0.8480 B(  1-C ,  2-C ) :   0.9514 B(  1-C ,  6-H ) :   0.9366
B(  1-C ,  7-H ) :   0.9348 B(  2-C ,  3-C ) :   0.9507 B(  2-C ,  8-H ) :   0.9429
B(  2-C ,  9-H ) :   0.9328 B(  3-C ,  4-O ) :   0.8331 B(  3-C , 10-H ) :   0.9283
B(  3-C , 11-H ) :   0.9386 B( 12-C , 13-H ) :   0.9233 B( 12-C , 14-H ) :   0.8965
B( 12-C , 15-O ) :   0.8173 B( 12-C , 16-C ) :   0.9196 B( 16-C , 17-C ) :   0.8856
B( 16-C , 20-O ) :   0.8743 B( 16-C , 21-H ) :   0.9273 B( 17-C , 18-C ) :   0.9346
B( 17-C , 22-H ) :   0.9360 B( 17-C , 23-O ) :   0.9004 B( 18-C , 19-C ) :   0.9460
B( 18-C , 24-H ) :   0.9411 B( 18-C , 25-H ) :   0.9264 B( 19-C , 20-O ) :   0.8403
B( 19-C , 26-H ) :   0.9322 B( 19-C , 27-H ) :   0.9378 B( 23-O , 28-H ) :   0.7712

FINAL SINGLE POINT ENERGY      -652.863306819767

DIPOLE MOMENT
-------------
                                X             Y             Z
Electronic contribution:     -2.31255      -4.47637       0.44471
Nuclear contribution   :      3.27376       5.39318      -0.76424
                        -----------------------------------------
Total Dipole Moment    :      0.96120       0.91682      -0.31953
                        -----------------------------------------
Magnitude (a.u.)       :      1.36622
Magnitude (Debye)      :      3.47266

Rotational constants in cm-1:     0.045670     0.017751     0.016834
Rotational constants in MHz :  1369.152266   532.172724   504.664778

                             ****ORCA TERMINATED NORMALLY****
TOTAL RUN TIME: 0 days 0 hours 37 minutes 9 seconds 491 msec
