                         Program Version 4.2.0 -  RELEASE  -
|  1> # Test redundant internal optimization
|  2> #
|  3> ! RKS B3LYP  Opt TightSCF SmallPrint
|  4>
|  5> %basis
|  6>         Basis "6-31G"
|  7> end
|  8>
|  9> %geom
| 10> Constraints
| 11> { D 4  0  15  12  30.0   C } # D for Dihedral angle
| 12> { D 0  15  12  16  165.0   C } # D for Dihedral angle
| 13> { D 0  4  3  2   C } # D for Dihedral angle
| 14> { D 4  3  2  1   C } # D for Dihedral angle
| 15> { D 3  2  1  0   C } # D for Dihedral angle
| 16> { D 2  1  0  4   C } # D for Dihedral angle
| 17> { D 1  0  4  3   C } # D for Dihedral angle
| 18> { D 16  20  19  18   C } # D for Dihedral angle
| 19> { D 20  19  18  17   C } # D for Dihedral angle
| 20> { D 19  18  17  16   C } # D for Dihedral angle
| 21> { D 18  17  16  20   C } # D for Dihedral angle
| 22> { D 17  16  20  19   C } # D for Dihedral angle
| 23> { D 15  12  16  20   C } # D for Dihedral angle
| 24> end
| 25> end
| 26>
| 27>
| 28> #%pal
| 29> #nprocs 8
| 30> #end
| 31>
| 32> * xyz 0 1
| 33> C  -21.048   26.222   46.251
| 34> C  -20.361   27.558   45.944
| 35> C  -20.329   28.222   47.341
| 36> C  -20.110   27.022   48.296
| 37> O  -20.473   25.807   47.535
| 38> H  -20.833   25.428   45.533
| 39> H  -19.344   27.382   45.576
| 40> H  -20.898   28.157   45.201
| 41> H  -19.543   28.978   47.434
| 42> H  -21.289   28.710   47.548
| 43> H  -20.733   27.082   49.195
| 44> H  -19.064   26.913   48.597
| 45> C  -23.091   26.824   47.779
| 46> H  -23.035   25.967   48.462
| 47> H  -22.463   27.628   48.184
| 48> O  -22.586   26.394   46.375
| 49> C  -24.558   27.336   47.759
| 50> C  -24.984   27.859   49.135
| 51> C  -24.332   29.262   49.154
| 52> C  -24.442   29.720   47.678
| 53> O  -24.682   28.501   46.876
| 54> H  -25.204   26.555   47.352
| 55> O  -26.532   27.973   49.207
| 56> H  -24.646   27.223   49.961
| 57> H  -24.829   29.952   49.843
| 58> H  -23.281   29.185   49.457
| 59> H  -23.529   30.209   47.322
| 60> H  -25.291   30.389   47.510
| 61> H  -26.893   28.606   48.389
| 62> *
| 63>
| 64>                          ****END OF INPUT****
 Total Charge           Charge          ....    0
 Multiplicity           Mult            ....    1
 Number of Electrons    NEL             ....  102
FINAL SINGLE POINT ENERGY      -652.822194018102
FINAL SINGLE POINT ENERGY      -652.846847023765
FINAL SINGLE POINT ENERGY      -652.852982349027
FINAL SINGLE POINT ENERGY      -652.855641336142
FINAL SINGLE POINT ENERGY      -652.855921411638
FINAL SINGLE POINT ENERGY      -652.855959234266
FINAL SINGLE POINT ENERGY      -652.855965454634
                    ***********************HURRAY********************

CARTESIAN COORDINATES (ANGSTROEM)
---------------------------------
  C    -21.197963   26.296474   46.375258
  C    -20.419022   27.539460   45.928779
  C    -20.024019   28.176147   47.288776
  C    -19.777616   26.940177   48.187834
  O    -20.446535   25.799668   47.508278
  H    -21.195765   25.499025   45.629614
  H    -19.530139   27.221507   45.372451
  H    -21.023029   28.196792   45.299733
  H    -19.132606   28.806941   47.213511
  H    -20.839111   28.799509   47.668279
  H    -20.190830   27.044145   49.195668
  H    -18.716951   26.682758   48.262706
  C    -23.073820   26.887203   47.948273
  H    -23.066287   26.011708   48.611075
  H    -22.446628   27.664045   48.402317
  O    -22.604675   26.519095   46.626593
  C    -24.500345   27.403645   47.778535
  C    -25.158730   27.883941   49.079604
  C    -24.604672   29.328104   49.200628
  C    -24.523685   29.794538   47.725268
  O    -24.565255   28.569488   46.892158
  H    -25.095975   26.623425   47.295846
  O    -26.607623   27.875969   48.959980
  H    -24.937219   27.260407   49.947171
  H    -25.269987   29.945582   49.809213
  H    -23.616138   29.317894   49.673466
  H    -23.604267   30.347102   47.505245
  H    -25.377995   30.414055   47.433713
  H    -26.856114   28.215195   48.074028

 Multiplicity           Mult            ....    1
 Number of Electrons    NEL             ....  102
 Basis Dimension        Dim             ....  149

ORBITAL ENERGIES
----------------

  NO   OCC          E(Eh)            E(eV)
   0   2.0000     -19.147632      -521.0335
   1   2.0000     -19.141819      -520.8754
   2   2.0000     -19.139754      -520.8192
   3   2.0000     -19.137667      -520.7624
   4   2.0000     -10.277437      -279.6633
   5   2.0000     -10.244580      -278.7692
   6   2.0000     -10.233940      -278.4797
   7   2.0000     -10.233800      -278.4759
   8   2.0000     -10.232886      -278.4510
   9   2.0000     -10.232741      -278.4470
  10   2.0000     -10.194450      -277.4051
  11   2.0000     -10.192325      -277.3473
  12   2.0000     -10.185829      -277.1705
  13   2.0000      -1.054058       -28.6824
  14   2.0000      -1.037167       -28.2228
  15   2.0000      -1.007482       -27.4150
  16   2.0000      -0.992994       -27.0207
  17   2.0000      -0.791051       -21.5256
  18   2.0000      -0.785783       -21.3822
  19   2.0000      -0.772026       -21.0079
  20   2.0000      -0.734359       -19.9829
  21   2.0000      -0.676630       -18.4120
  22   2.0000      -0.606797       -16.5118
  23   2.0000      -0.605489       -16.4762
  24   2.0000      -0.596322       -16.2267
  25   2.0000      -0.579410       -15.7666
  26   2.0000      -0.527894       -14.3647
  27   2.0000      -0.508136       -13.8271
  28   2.0000      -0.500587       -13.6217
  29   2.0000      -0.493506       -13.4290
  30   2.0000      -0.477761       -13.0005
  31   2.0000      -0.461987       -12.5713
  32   2.0000      -0.454998       -12.3811
  33   2.0000      -0.439513       -11.9598
  34   2.0000      -0.419634       -11.4188
  35   2.0000      -0.417566       -11.3626
  36   2.0000      -0.404998       -11.0206
  37   2.0000      -0.395606       -10.7650
  38   2.0000      -0.378450       -10.2982
  39   2.0000      -0.373387       -10.1604
  40   2.0000      -0.361990        -9.8502
  41   2.0000      -0.360642        -9.8136
  42   2.0000      -0.349385        -9.5072
  43   2.0000      -0.337206        -9.1759
  44   2.0000      -0.323807        -8.8112
  45   2.0000      -0.311230        -8.4690
  46   2.0000      -0.305936        -8.3249
  47   2.0000      -0.272472        -7.4143
  48   2.0000      -0.262821        -7.1517
  49   2.0000      -0.247981        -6.7479
  50   2.0000      -0.245155        -6.6710
  51   0.0000       0.049030         1.3342
  52   0.0000       0.076081         2.0703
  53   0.0000       0.087722         2.3870
  54   0.0000       0.098067         2.6685
  55   0.0000       0.102355         2.7852

MULLIKEN ATOMIC CHARGES
-----------------------
   0 C :    0.297434
   1 C :   -0.258715
   2 C :   -0.319080
   3 C :   -0.016552
   4 O :   -0.509894
   5 H :    0.164345
   6 H :    0.147333
   7 H :    0.165206
   8 H :    0.146835
   9 H :    0.152709
  10 H :    0.141238
  11 H :    0.151605
  12 C :    0.010845
  13 H :    0.147911
  14 H :    0.114454
  15 O :   -0.523067
  16 C :    0.063342
  17 C :    0.076823
  18 C :   -0.298000
  19 C :   -0.029941
  20 O :   -0.510898
  21 H :    0.173589
  22 O :   -0.601993
  23 H :    0.152765
  24 H :    0.165397
  25 H :    0.139248
  26 H :    0.142974
  27 H :    0.147184
  28 H :    0.366901
Sum of atomic charges:    0.0000000

LOEWDIN ATOMIC CHARGES
----------------------
   0 C :    0.180062
   1 C :   -0.224725
   2 C :   -0.223631
   3 C :   -0.035534
   4 O :   -0.321359
   5 H :    0.111364
   6 H :    0.116319
   7 H :    0.127726
   8 H :    0.116661
   9 H :    0.109228
  10 H :    0.099954
  11 H :    0.107123
  12 C :   -0.037092
  13 H :    0.105772
  14 H :    0.087278
  15 O :   -0.321164
  16 C :    0.018149
  17 C :    0.035864
  18 C :   -0.243019
  19 C :   -0.039503
  20 O :   -0.320998
  21 H :    0.122843
  22 O :   -0.413849
  23 H :    0.115758
  24 H :    0.127751
  25 H :    0.110123
  26 H :    0.101488
  27 H :    0.102961
  28 H :    0.284450

  Mayer bond orders larger than 0.100000
B(  0-C ,  1-C ) :   0.9174 B(  0-C ,  4-O ) :   0.9027 B(  0-C ,  5-H ) :   0.9348
B(  0-C , 15-O ) :   0.8744 B(  1-C ,  2-C ) :   0.9538 B(  1-C ,  6-H ) :   0.9348
B(  1-C ,  7-H ) :   0.9349 B(  2-C ,  3-C ) :   0.9496 B(  2-C ,  8-H ) :   0.9442
B(  2-C ,  9-H ) :   0.9403 B(  3-C ,  4-O ) :   0.8396 B(  3-C , 10-H ) :   0.9324
B(  3-C , 11-H ) :   0.9388 B( 12-C , 13-H ) :   0.9125 B( 12-C , 14-H ) :   0.9056
B( 12-C , 15-O ) :   0.8345 B( 12-C , 16-C ) :   0.9027 B( 16-C , 17-C ) :   0.9000
B( 16-C , 20-O ) :   0.8606 B( 16-C , 21-H ) :   0.9215 B( 17-C , 18-C ) :   0.9112
B( 17-C , 22-O ) :   0.8959 B( 17-C , 23-H ) :   0.9327 B( 18-C , 19-C ) :   0.9396
B( 18-C , 24-H ) :   0.9366 B( 18-C , 25-H ) :   0.9343 B( 19-C , 20-O ) :   0.8543
B( 19-C , 26-H ) :   0.9338 B( 19-C , 27-H ) :   0.9372 B( 22-O , 28-H ) :   0.7927

FINAL SINGLE POINT ENERGY      -652.855955450043

DIPOLE MOMENT
-------------
                                X             Y             Z
Electronic contribution:     -4.34911      -4.66769      -2.26572
Nuclear contribution   :      5.32745       5.82317       2.70591
                        -----------------------------------------
Total Dipole Moment    :      0.97834       1.15548       0.44019
                        -----------------------------------------
Magnitude (a.u.)       :      1.57672
Magnitude (Debye)      :      4.00770

Rotational constants in cm-1:     0.054546     0.013722     0.013291
Rotational constants in MHz :  1635.237949   411.382428   398.456489

                             ****ORCA TERMINATED NORMALLY****
TOTAL RUN TIME: 0 days 0 hours 24 minutes 47 seconds 12 msec
