                         Program Version 4.2.0 -  RELEASE  -
|  1> # Test redundant internal optimization
|  2> #
|  3> ! RKS B3LYP  Opt TightSCF SmallPrint
|  4>
|  5> %basis
|  6>         Basis "6-31G"
|  7> end
|  8>
|  9> %geom
| 10> Constraints
| 11> { D 4  0  15  12  120.0   C } # D for Dihedral angle
| 12> { D 0  15  12  16  75.0   C } # D for Dihedral angle
| 13> { D 0  4  3  2   C } # D for Dihedral angle
| 14> { D 4  3  2  1   C } # D for Dihedral angle
| 15> { D 3  2  1  0   C } # D for Dihedral angle
| 16> { D 2  1  0  4   C } # D for Dihedral angle
| 17> { D 1  0  4  3   C } # D for Dihedral angle
| 18> { D 16  20  19  18   C } # D for Dihedral angle
| 19> { D 20  19  18  17   C } # D for Dihedral angle
| 20> { D 19  18  17  16   C } # D for Dihedral angle
| 21> { D 18  17  16  20   C } # D for Dihedral angle
| 22> { D 17  16  20  19   C } # D for Dihedral angle
| 23> { D 15  12  16  20   C } # D for Dihedral angle
| 24> end
| 25> end
| 26>
| 27>
| 28> #%pal
| 29> #nprocs 8
| 30> #end
| 31>
| 32> * xyz 0 1
| 33> C  -21.048   26.222   46.251
| 34> C  -20.361   27.558   45.944
| 35> C  -20.329   28.222   47.341
| 36> C  -20.110   27.022   48.296
| 37> O  -20.473   25.807   47.535
| 38> H  -20.833   25.428   45.533
| 39> H  -19.344   27.382   45.576
| 40> H  -20.898   28.157   45.201
| 41> H  -19.543   28.978   47.434
| 42> H  -21.289   28.710   47.548
| 43> H  -20.733   27.082   49.195
| 44> H  -19.064   26.913   48.597
| 45> C  -23.119   27.818   46.058
| 46> H  -24.145   27.912   46.434
| 47> H  -22.501   28.578   46.553
| 48> O  -22.586   26.394   46.375
| 49> C  -23.125   28.132   44.536
| 50> C  -24.101   27.219   43.784
| 51> C  -25.459   27.896   44.086
| 52> C  -25.102   29.404   44.116
| 53> O  -23.637   29.485   44.294
| 54> H  -22.101   28.105   44.161
| 55> O  -23.797   27.255   42.261
| 56> H  -24.062   26.177   44.118
| 57> H  -26.225   27.663   43.339
| 58> H  -25.834   27.568   45.063
| 59> H  -25.594   29.935   44.937
| 60> H  -25.341   29.908   43.176
| 61> H  -23.832   28.291   41.902
| 62> *
| 63>
| 64>                          ****END OF INPUT****
 Total Charge           Charge          ....    0
 Multiplicity           Mult            ....    1
 Number of Electrons    NEL             ....  102
FINAL SINGLE POINT ENERGY      -652.816656744256
FINAL SINGLE POINT ENERGY      -652.841753576561
FINAL SINGLE POINT ENERGY      -652.851495310266
FINAL SINGLE POINT ENERGY      -652.853442182821
FINAL SINGLE POINT ENERGY      -652.853768387858
FINAL SINGLE POINT ENERGY      -652.853819571789
                    ***********************HURRAY********************

CARTESIAN COORDINATES (ANGSTROEM)
---------------------------------
  C    -21.150310   26.325434   46.303115
  C    -20.191082   27.470436   45.955932
  C    -20.045063   28.202496   47.323094
  C    -20.105456   27.029119   48.330549
  O    -20.703278   25.890051   47.600419
  H    -21.064954   25.453834   45.652811
  H    -19.233826   27.028439   45.659333
  H    -20.521710   28.125207   45.149222
  H    -19.106265   28.759984   47.393978
  H    -20.865385   28.908342   47.482552
  H    -20.718406   27.248609   49.209205
  H    -19.112308   26.708342   48.657858
  C    -23.190954   27.903699   46.059123
  H    -24.203428   27.811027   46.460694
  H    -22.700715   28.732526   46.583263
  O    -22.579212   26.616432   46.349800
  C    -23.233377   28.237123   44.562508
  C    -24.080710   27.280823   43.710183
  C    -25.512998   27.803253   43.986099
  C    -25.314365   29.333647   44.122519
  O    -23.866717   29.548530   44.377089
  H    -22.226035   28.319151   44.149220
  O    -23.722377   27.382089   42.303851
  H    -23.939056   26.234054   43.976096
  H    -26.187082   27.533014   43.168992
  H    -25.905979   27.366090   44.909893
  H    -25.888227   29.766361   44.947747
  H    -25.562292   29.874987   43.204181
  H    -23.654431   28.327900   42.054675

 Multiplicity           Mult            ....    1
 Number of Electrons    NEL             ....  102
 Basis Dimension        Dim             ....  149

ORBITAL ENERGIES
----------------

  NO   OCC          E(Eh)            E(eV)
   0   2.0000     -19.149422      -521.0823
   1   2.0000     -19.141889      -520.8773
   2   2.0000     -19.139635      -520.8160
   3   2.0000     -19.138869      -520.7951
   4   2.0000     -10.281751      -279.7807
   5   2.0000     -10.239480      -278.6304
   6   2.0000     -10.236056      -278.5372
   7   2.0000     -10.235432      -278.5203
   8   2.0000     -10.234957      -278.5073
   9   2.0000     -10.227387      -278.3013
  10   2.0000     -10.195467      -277.4328
  11   2.0000     -10.194431      -277.4046
  12   2.0000     -10.190684      -277.3026
  13   2.0000      -1.050560       -28.5872
  14   2.0000      -1.039466       -28.2853
  15   2.0000      -1.008364       -27.4390
  16   2.0000      -0.993881       -27.0449
  17   2.0000      -0.790537       -21.5116
  18   2.0000      -0.783464       -21.3191
  19   2.0000      -0.771256       -20.9869
  20   2.0000      -0.737547       -20.0697
  21   2.0000      -0.681491       -18.5443
  22   2.0000      -0.607817       -16.5395
  23   2.0000      -0.605314       -16.4714
  24   2.0000      -0.604226       -16.4418
  25   2.0000      -0.574404       -15.6303
  26   2.0000      -0.530779       -14.4432
  27   2.0000      -0.510339       -13.8870
  28   2.0000      -0.501643       -13.6504
  29   2.0000      -0.493415       -13.4265
  30   2.0000      -0.475858       -12.9488
  31   2.0000      -0.462276       -12.5792
  32   2.0000      -0.448479       -12.2037
  33   2.0000      -0.441609       -12.0168
  34   2.0000      -0.428833       -11.6691
  35   2.0000      -0.415812       -11.3148
  36   2.0000      -0.410244       -11.1633
  37   2.0000      -0.396338       -10.7849
  38   2.0000      -0.384994       -10.4762
  39   2.0000      -0.373619       -10.1667
  40   2.0000      -0.366927        -9.9846
  41   2.0000      -0.357212        -9.7202
  42   2.0000      -0.354110        -9.6358
  43   2.0000      -0.334094        -9.0912
  44   2.0000      -0.315365        -8.5815
  45   2.0000      -0.310856        -8.4588
  46   2.0000      -0.294759        -8.0208
  47   2.0000      -0.277024        -7.5382
  48   2.0000      -0.269618        -7.3367
  49   2.0000      -0.257045        -6.9945
  50   2.0000      -0.241711        -6.5773
  51   0.0000       0.060437         1.6446
  52   0.0000       0.068784         1.8717
  53   0.0000       0.082942         2.2570
  54   0.0000       0.095637         2.6024
  55   0.0000       0.097017         2.6400

MULLIKEN ATOMIC CHARGES
-----------------------
   0 C :    0.318274
   1 C :   -0.306820
   2 C :   -0.311058
   3 C :   -0.002701
   4 O :   -0.494811
   5 H :    0.162765
   6 H :    0.159255
   7 H :    0.150953
   8 H :    0.147188
   9 H :    0.156305
  10 H :    0.149193
  11 H :    0.145259
  12 C :   -0.015762
  13 H :    0.156705
  14 H :    0.142263
  15 O :   -0.531491
  16 C :    0.036257
  17 C :    0.092075
  18 C :   -0.304660
  19 C :   -0.030999
  20 O :   -0.526517
  21 H :    0.163575
  22 O :   -0.604264
  23 H :    0.174807
  24 H :    0.164681
  25 H :    0.151554
  26 H :    0.148991
  27 H :    0.147327
  28 H :    0.361656
Sum of atomic charges:    0.0000000

LOEWDIN ATOMIC CHARGES
----------------------
   0 C :    0.182319
   1 C :   -0.232592
   2 C :   -0.220343
   3 C :   -0.029808
   4 O :   -0.310395
   5 H :    0.109290
   6 H :    0.124541
   7 H :    0.116248
   8 H :    0.117026
   9 H :    0.111114
  10 H :    0.106022
  11 H :    0.104083
  12 C :   -0.040459
  13 H :    0.115457
  14 H :    0.100313
  15 O :   -0.333010
  16 C :   -0.000156
  17 C :    0.037276
  18 C :   -0.241603
  19 C :   -0.038323
  20 O :   -0.331987
  21 H :    0.109509
  22 O :   -0.415558
  23 H :    0.126867
  24 H :    0.127630
  25 H :    0.117120
  26 H :    0.105194
  27 H :    0.103053
  28 H :    0.281172

  Mayer bond orders larger than 0.100000
B(  0-C ,  1-C ) :   0.9299 B(  0-C ,  4-O ) :   0.9198 B(  0-C ,  5-H ) :   0.9312
B(  0-C , 15-O ) :   0.8588 B(  1-C ,  2-C ) :   0.9501 B(  1-C ,  6-H ) :   0.9334
B(  1-C ,  7-H ) :   0.9211 B(  2-C ,  3-C ) :   0.9487 B(  2-C ,  8-H ) :   0.9452
B(  2-C ,  9-H ) :   0.9380 B(  3-C ,  4-O ) :   0.8439 B(  3-C , 10-H ) :   0.9345
B(  3-C , 11-H ) :   0.9393 B( 12-C , 13-H ) :   0.9377 B( 12-C , 14-H ) :   0.9049
B( 12-C , 15-O ) :   0.8483 B( 12-C , 16-C ) :   0.8740 B( 16-C , 17-C ) :   0.9081
B( 16-C , 20-O ) :   0.8411 B( 16-C , 21-H ) :   0.9138 B( 17-C , 18-C ) :   0.9146
B( 17-C , 22-O ) :   0.8884 B( 17-C , 23-H ) :   0.9245 B( 18-C , 19-C ) :   0.9413
B( 18-C , 24-H ) :   0.9372 B( 18-C , 25-H ) :   0.9333 B( 19-C , 20-O ) :   0.8405
B( 19-C , 26-H ) :   0.9352 B( 19-C , 27-H ) :   0.9379 B( 22-O , 28-H ) :   0.7971

FINAL SINGLE POINT ENERGY      -652.853825914350

DIPOLE MOMENT
-------------
                                X             Y             Z
Electronic contribution:     -0.61658      -2.91588      -1.40173
Nuclear contribution   :      0.65221       4.02117       1.47846
                        -----------------------------------------
Total Dipole Moment    :      0.03563       1.10529       0.07673
                        -----------------------------------------
Magnitude (a.u.)       :      1.10853
Magnitude (Debye)      :      2.81765

Rotational constants in cm-1:     0.059011     0.012908     0.012485
Rotational constants in MHz :  1769.118551   386.970468   374.275901

                             ****ORCA TERMINATED NORMALLY****
TOTAL RUN TIME: 0 days 1 hours 11 minutes 50 seconds 467 msec
