                         Program Version 4.2.0 -  RELEASE  -
|  1> # Test redundant internal optimization
|  2> #
|  3> ! RKS B3LYP  Opt TightSCF SmallPrint
|  4>
|  5> %basis
|  6>         Basis "6-31G"
|  7> end
|  8>
|  9> %geom
| 10> Constraints
| 11> { D 4  0  15  12  195.0   C } # D for Dihedral angle
| 12> { D 0  15  12  16  150.0   C } # D for Dihedral angle
| 13> { D 0  4  3  2   C } # D for Dihedral angle
| 14> { D 4  3  2  1   C } # D for Dihedral angle
| 15> { D 3  2  1  0   C } # D for Dihedral angle
| 16> { D 2  1  0  4   C } # D for Dihedral angle
| 17> { D 1  0  4  3   C } # D for Dihedral angle
| 18> { D 16  20  19  18   C } # D for Dihedral angle
| 19> { D 20  19  18  17   C } # D for Dihedral angle
| 20> { D 19  18  17  16   C } # D for Dihedral angle
| 21> { D 18  17  16  20   C } # D for Dihedral angle
| 22> { D 17  16  20  19   C } # D for Dihedral angle
| 23> { D 15  12  16  20   C } # D for Dihedral angle
| 24> end
| 25> end
| 26>
| 27>
| 28> #%pal
| 29> #nprocs 8
| 30> #end
| 31>
| 32> * xyz 0 1
| 33> C  -21.048   26.222   46.251
| 34> C  -20.361   27.558   45.944
| 35> C  -20.329   28.222   47.341
| 36> C  -20.110   27.022   48.296
| 37> O  -20.473   25.807   47.535
| 38> H  -20.833   25.428   45.533
| 39> H  -19.344   27.382   45.576
| 40> H  -20.898   28.157   45.201
| 41> H  -19.543   28.978   47.434
| 42> H  -21.289   28.710   47.548
| 43> H  -20.733   27.082   49.195
| 44> H  -19.064   26.913   48.597
| 45> C  -23.353   26.472   45.026
| 46> H  -23.409   27.519   44.702
| 47> H  -22.826   25.901   44.251
| 48> O  -22.586   26.394   46.375
| 49> C  -24.799   25.913   45.124
| 50> C  -25.661   26.762   46.065
| 51> C  -26.023   27.964   45.159
| 52> C  -26.162   27.318   43.758
| 53> O  -25.475   26.011   43.827
| 54> H  -24.756   24.853   45.383
| 55> O  -26.939   25.977   46.470
| 56> H  -25.137   27.061   46.979
| 57> H  -26.937   28.474   45.477
| 58> H  -25.209   28.699   45.168
| 59> H  -25.703   27.924   42.970
| 60> H  -27.204   27.122   43.491
| 61> H  -27.483   25.667   45.569
| 62> *
| 63>
| 64>                          ****END OF INPUT****
 Total Charge           Charge          ....    0
 Multiplicity           Mult            ....    1
 Number of Electrons    NEL             ....  102
FINAL SINGLE POINT ENERGY      -652.835283725979
FINAL SINGLE POINT ENERGY      -652.858696168000
FINAL SINGLE POINT ENERGY      -652.862253490262
FINAL SINGLE POINT ENERGY      -652.862901117004
FINAL SINGLE POINT ENERGY      -652.863002928703
FINAL SINGLE POINT ENERGY      -652.863015738918
                    ***********************HURRAY********************

CARTESIAN COORDINATES (ANGSTROEM)
---------------------------------
  C    -21.142619   26.213488   46.172861
  C    -20.385514   27.514118   45.915518
  C    -20.450833   28.203461   47.299886
  C    -20.362096   27.015037   48.279441
  O    -20.708648   25.810667   47.477032
  H    -20.922922   25.395532   45.477763
  H    -19.349682   27.281710   45.641551
  H    -20.824575   28.117534   45.115392
  H    -19.644239   28.927795   47.446955
  H    -21.407497   28.722802   47.409820
  H    -21.062453   27.088312   49.114768
  H    -19.351046   26.852678   48.663836
  C    -23.255919   26.510962   44.937660
  H    -23.258661   27.544873   44.565077
  H    -22.750930   25.883796   44.189455
  O    -22.582837   26.428757   46.224081
  C    -24.678355   25.988108   45.133954
  C    -25.540554   26.805412   46.106006
  C    -25.988264   27.987084   45.208270
  C    -26.153764   27.331234   43.814554
  O    -25.406110   26.049058   43.861430
  H    -24.636760   24.939189   45.437550
  O    -26.676064   26.024847   46.571575
  H    -25.000249   27.108702   47.001042
  H    -26.914619   28.427751   45.584226
  H    -25.218738   28.767130   45.193045
  H    -25.753148   27.946524   43.002986
  H    -27.195746   27.087674   43.585241
  H    -27.064158   25.537766   45.814026

 Multiplicity           Mult            ....    1
 Number of Electrons    NEL             ....  102
 Basis Dimension        Dim             ....  149

ORBITAL ENERGIES
----------------

  NO   OCC          E(Eh)            E(eV)
   0   2.0000     -19.145904      -520.9865
   1   2.0000     -19.144920      -520.9598
   2   2.0000     -19.143102      -520.9103
   3   2.0000     -19.133436      -520.6473
   4   2.0000     -10.283032      -279.8155
   5   2.0000     -10.234662      -278.4993
   6   2.0000     -10.234458      -278.4938
   7   2.0000     -10.232512      -278.4408
   8   2.0000     -10.232198      -278.4323
   9   2.0000     -10.227199      -278.2962
  10   2.0000     -10.190222      -277.2900
  11   2.0000     -10.189597      -277.2730
  12   2.0000     -10.187631      -277.2195
  13   2.0000      -1.057144       -28.7663
  14   2.0000      -1.035680       -28.1823
  15   2.0000      -1.003521       -27.3072
  16   2.0000      -0.998687       -27.1756
  17   2.0000      -0.790321       -21.5057
  18   2.0000      -0.779667       -21.2158
  19   2.0000      -0.768594       -20.9145
  20   2.0000      -0.732054       -19.9202
  21   2.0000      -0.676709       -18.4142
  22   2.0000      -0.604068       -16.4375
  23   2.0000      -0.603871       -16.4322
  24   2.0000      -0.592947       -16.1349
  25   2.0000      -0.581251       -15.8166
  26   2.0000      -0.523516       -14.2456
  27   2.0000      -0.517944       -14.0940
  28   2.0000      -0.499990       -13.6054
  29   2.0000      -0.491171       -13.3655
  30   2.0000      -0.472056       -12.8453
  31   2.0000      -0.455660       -12.3992
  32   2.0000      -0.453948       -12.3525
  33   2.0000      -0.445457       -12.1215
  34   2.0000      -0.425825       -11.5873
  35   2.0000      -0.414848       -11.2886
  36   2.0000      -0.401532       -10.9262
  37   2.0000      -0.391894       -10.6640
  38   2.0000      -0.377421       -10.2702
  39   2.0000      -0.367209        -9.9923
  40   2.0000      -0.362335        -9.8596
  41   2.0000      -0.358434        -9.7535
  42   2.0000      -0.355287        -9.6679
  43   2.0000      -0.332972        -9.0606
  44   2.0000      -0.316760        -8.6195
  45   2.0000      -0.311935        -8.4882
  46   2.0000      -0.301836        -8.2134
  47   2.0000      -0.273344        -7.4381
  48   2.0000      -0.261421        -7.1136
  49   2.0000      -0.257297        -7.0014
  50   2.0000      -0.245482        -6.6799
  51   0.0000       0.065672         1.7870
  52   0.0000       0.069058         1.8792
  53   0.0000       0.095290         2.5930
  54   0.0000       0.097382         2.6499
  55   0.0000       0.104700         2.8490

MULLIKEN ATOMIC CHARGES
-----------------------
   0 C :    0.304123
   1 C :   -0.272716
   2 C :   -0.297505
   3 C :   -0.002828
   4 O :   -0.502079
   5 H :    0.141902
   6 H :    0.147425
   7 H :    0.142446
   8 H :    0.143539
   9 H :    0.157436
  10 H :    0.156762
  11 H :    0.143505
  12 C :   -0.013975
  13 H :    0.125682
  14 H :    0.144425
  15 O :   -0.515724
  16 C :    0.060495
  17 C :    0.093116
  18 C :   -0.300990
  19 C :   -0.031906
  20 O :   -0.527927
  21 H :    0.168995
  22 O :   -0.602607
  23 H :    0.177334
  24 H :    0.161186
  25 H :    0.145539
  26 H :    0.144780
  27 H :    0.147464
  28 H :    0.362106
Sum of atomic charges:   -0.0000000

LOEWDIN ATOMIC CHARGES
----------------------
   0 C :    0.180662
   1 C :   -0.230491
   2 C :   -0.216538
   3 C :   -0.024757
   4 O :   -0.302233
   5 H :    0.097455
   6 H :    0.115459
   7 H :    0.113679
   8 H :    0.115099
   9 H :    0.116709
  10 H :    0.110655
  11 H :    0.103472
  12 C :   -0.042768
  13 H :    0.089634
  14 H :    0.103951
  15 O :   -0.336363
  16 C :    0.017745
  17 C :    0.039402
  18 C :   -0.242446
  19 C :   -0.038734
  20 O :   -0.331876
  21 H :    0.120754
  22 O :   -0.413874
  23 H :    0.128602
  24 H :    0.126531
  25 H :    0.113169
  26 H :    0.102889
  27 H :    0.103027
  28 H :    0.281188

  Mayer bond orders larger than 0.100000
B(  0-C ,  1-C ) :   0.9275 B(  0-C ,  4-O ) :   0.9427 B(  0-C ,  5-H ) :   0.9188
B(  0-C , 15-O ) :   0.8258 B(  1-C ,  2-C ) :   0.9528 B(  1-C ,  6-H ) :   0.9341
B(  1-C ,  7-H ) :   0.9361 B(  2-C ,  3-C ) :   0.9555 B(  2-C ,  8-H ) :   0.9450
B(  2-C ,  9-H ) :   0.9451 B(  3-C ,  4-O ) :   0.8342 B(  3-C , 10-H ) :   0.9342
B(  3-C , 11-H ) :   0.9396 B( 12-C , 13-H ) :   0.9186 B( 12-C , 14-H ) :   0.9137
B( 12-C , 15-O ) :   0.8303 B( 12-C , 16-C ) :   0.9015 B( 16-C , 17-C ) :   0.9144
B( 16-C , 20-O ) :   0.8416 B( 16-C , 21-H ) :   0.9249 B( 17-C , 18-C ) :   0.9111
B( 17-C , 22-O ) :   0.8903 B( 17-C , 23-H ) :   0.9242 B( 18-C , 19-C ) :   0.9402
B( 18-C , 24-H ) :   0.9382 B( 18-C , 25-H ) :   0.9351 B( 19-C , 20-O ) :   0.8434
B( 19-C , 26-H ) :   0.9359 B( 19-C , 27-H ) :   0.9381 B( 22-O , 28-H ) :   0.7962

FINAL SINGLE POINT ENERGY      -652.863018212905

DIPOLE MOMENT
-------------
                                X             Y             Z
Electronic contribution:     -2.55004      -5.85710       0.67274
Nuclear contribution   :      3.17308       7.23326      -1.44564
                        -----------------------------------------
Total Dipole Moment    :      0.62303       1.37616      -0.77290
                        -----------------------------------------
Magnitude (a.u.)       :      1.69687
Magnitude (Debye)      :      4.31309

Rotational constants in cm-1:     0.056423     0.012073     0.011616
Rotational constants in MHz :  1691.507476   361.945852   348.228438

                             ****ORCA TERMINATED NORMALLY****
TOTAL RUN TIME: 0 days 0 hours 18 minutes 6 seconds 742 msec
