                         Program Version 4.2.0 -  RELEASE  -
|  1> # Test redundant internal optimization
|  2> #
|  3> ! RKS B3LYP  Opt TightSCF SmallPrint
|  4>
|  5> %basis
|  6>         Basis "6-31G"
|  7> end
|  8>
|  9> %geom
| 10> Constraints
| 11> { D 4  0  15  12  210.0   C } # D for Dihedral angle
| 12> { D 0  15  12  16  0.0   C } # D for Dihedral angle
| 13> { D 0  4  3  2   C } # D for Dihedral angle
| 14> { D 4  3  2  1   C } # D for Dihedral angle
| 15> { D 3  2  1  0   C } # D for Dihedral angle
| 16> { D 2  1  0  4   C } # D for Dihedral angle
| 17> { D 1  0  4  3   C } # D for Dihedral angle
| 18> { D 16  20  19  18   C } # D for Dihedral angle
| 19> { D 20  19  18  17   C } # D for Dihedral angle
| 20> { D 19  18  17  16   C } # D for Dihedral angle
| 21> { D 18  17  16  20   C } # D for Dihedral angle
| 22> { D 17  16  20  19   C } # D for Dihedral angle
| 23> { D 15  12  16  20   C } # D for Dihedral angle
| 24> end
| 25> end
| 26>
| 27>
| 28> #%pal
| 29> #nprocs 8
| 30> #end
| 31>
| 32> * xyz 0 1
| 33> C  -21.048   26.222   46.251
| 34> C  -20.361   27.558   45.944
| 35> C  -20.329   28.222   47.341
| 36> C  -20.110   27.022   48.296
| 37> O  -20.473   25.807   47.535
| 38> H  -20.833   25.428   45.533
| 39> H  -19.344   27.382   45.576
| 40> H  -20.898   28.157   45.201
| 41> H  -19.543   28.978   47.434
| 42> H  -21.289   28.710   47.548
| 43> H  -20.733   27.082   49.195
| 44> H  -19.064   26.913   48.597
| 45> C  -23.389   26.110   45.076
| 46> H  -24.101   25.296   45.261
| 47> H  -23.957   27.000   44.773
| 48> O  -22.586   26.394   46.375
| 49> C  -22.479   25.702   43.884
| 50> C  -23.290   25.543   42.594
| 51> C  -23.470   27.015   42.153
| 52> C  -22.138   27.677   42.586
| 53> O  -21.523   26.772   43.580
| 54> H  -21.897   24.822   44.164
| 55> O  -22.467   24.752   41.541
| 56> H  -24.244   25.026   42.746
| 57> H  -23.657   27.117   41.079
| 58> H  -24.316   27.467   42.684
| 59> H  -22.288   28.662   43.042
| 60> H  -21.431   27.774   41.757
| 61> H  -21.507   25.253   41.372
| 62> *
| 63>
| 64>                          ****END OF INPUT****
 Total Charge           Charge          ....    0
 Multiplicity           Mult            ....    1
 Number of Electrons    NEL             ....  102
FINAL SINGLE POINT ENERGY      -652.821990789751
FINAL SINGLE POINT ENERGY      -652.844311503821
FINAL SINGLE POINT ENERGY      -652.851982861106
FINAL SINGLE POINT ENERGY      -652.853985588337
FINAL SINGLE POINT ENERGY      -652.854332672160
FINAL SINGLE POINT ENERGY      -652.854390505565
FINAL SINGLE POINT ENERGY      -652.854393895956
                    ***********************HURRAY********************

CARTESIAN COORDINATES (ANGSTROEM)
---------------------------------
  C    -20.853980   26.231110   46.246021
  C    -20.195969   27.599235   46.075510
  C    -20.404404   28.232489   47.472837
  C    -20.274095   27.020213   48.419869
  O    -20.465652   25.820621   47.567660
  H    -20.517248   25.461100   45.551567
  H    -19.128080   27.460621   45.865830
  H    -20.637066   28.169512   45.259081
  H    -19.673854   29.016211   47.694712
  H    -21.408037   28.663393   47.536627
  H    -21.026492   27.008504   49.213120
  H    -19.277585   26.932951   48.864325
  C    -23.127109   26.121221   45.064840
  H    -23.832211   25.317350   45.317173
  H    -23.708474   27.039368   44.907927
  O    -22.308283   26.351070   46.246686
  C    -22.424066   25.735234   43.760642
  C    -23.396196   25.573954   42.581334
  C    -23.572071   27.045025   42.113359
  C    -22.170915   27.660022   42.358836
  O    -21.471760   26.753815   43.305384
  H    -21.849484   24.813542   43.896101
  O    -22.818682   24.739804   41.541686
  H    -24.336453   25.090353   42.847210
  H    -23.876584   27.081731   41.064783
  H    -24.338722   27.546070   42.713914
  H    -22.217620   28.661676   42.795637
  H    -21.563843   27.703202   41.449539
  H    -21.890065   25.013605   41.385791

 Multiplicity           Mult            ....    1
 Number of Electrons    NEL             ....  102
 Basis Dimension        Dim             ....  149

ORBITAL ENERGIES
----------------

  NO   OCC          E(Eh)            E(eV)
   0   2.0000     -19.156538      -521.2759
   1   2.0000     -19.148221      -521.0496
   2   2.0000     -19.130116      -520.5569
   3   2.0000     -19.129228      -520.5328
   4   2.0000     -10.269870      -279.4574
   5   2.0000     -10.253460      -279.0108
   6   2.0000     -10.245959      -278.8067
   7   2.0000     -10.242583      -278.7148
   8   2.0000     -10.235784      -278.5298
   9   2.0000     -10.215358      -277.9740
  10   2.0000     -10.199785      -277.5503
  11   2.0000     -10.175106      -276.8787
  12   2.0000     -10.169534      -276.7271
  13   2.0000      -1.050296       -28.5800
  14   2.0000      -1.039353       -28.2822
  15   2.0000      -1.016992       -27.6738
  16   2.0000      -0.982186       -26.7266
  17   2.0000      -0.794877       -21.6297
  18   2.0000      -0.776482       -21.1291
  19   2.0000      -0.770589       -20.9688
  20   2.0000      -0.729155       -19.8413
  21   2.0000      -0.676730       -18.4148
  22   2.0000      -0.615242       -16.7416
  23   2.0000      -0.610451       -16.6112
  24   2.0000      -0.587807       -15.9950
  25   2.0000      -0.565402       -15.3854
  26   2.0000      -0.534877       -14.5547
  27   2.0000      -0.514351       -13.9962
  28   2.0000      -0.492553       -13.4031
  29   2.0000      -0.486746       -13.2450
  30   2.0000      -0.475254       -12.9323
  31   2.0000      -0.457099       -12.4383
  32   2.0000      -0.451046       -12.2736
  33   2.0000      -0.441621       -12.0171
  34   2.0000      -0.426826       -11.6145
  35   2.0000      -0.411326       -11.1928
  36   2.0000      -0.405728       -11.0404
  37   2.0000      -0.393712       -10.7134
  38   2.0000      -0.382453       -10.4071
  39   2.0000      -0.371056       -10.0970
  40   2.0000      -0.359961        -9.7950
  41   2.0000      -0.352129        -9.5819
  42   2.0000      -0.344257        -9.3677
  43   2.0000      -0.337381        -9.1806
  44   2.0000      -0.320406        -8.7187
  45   2.0000      -0.304656        -8.2901
  46   2.0000      -0.299871        -8.1599
  47   2.0000      -0.281934        -7.6718
  48   2.0000      -0.255751        -6.9593
  49   2.0000      -0.250630        -6.8200
  50   2.0000      -0.236649        -6.4395
  51   0.0000       0.053318         1.4508
  52   0.0000       0.080638         2.1943
  53   0.0000       0.086341         2.3495
  54   0.0000       0.089350         2.4313
  55   0.0000       0.098237         2.6732

MULLIKEN ATOMIC CHARGES
-----------------------
   0 C :    0.303648
   1 C :   -0.248742
   2 C :   -0.303064
   3 C :    0.000257
   4 O :   -0.506964
   5 H :    0.145535
   6 H :    0.136936
   7 H :    0.155665
   8 H :    0.135273
   9 H :    0.155332
  10 H :    0.149587
  11 H :    0.137252
  12 C :    0.031426
  13 H :    0.144612
  14 H :    0.133966
  15 O :   -0.535050
  16 C :    0.024300
  17 C :    0.077772
  18 C :   -0.295190
  19 C :   -0.034793
  20 O :   -0.524137
  21 H :    0.169964
  22 O :   -0.597442
  23 H :    0.157942
  24 H :    0.165398
  25 H :    0.149040
  26 H :    0.152707
  27 H :    0.152821
  28 H :    0.365949
Sum of atomic charges:   -0.0000000

LOEWDIN ATOMIC CHARGES
----------------------
   0 C :    0.186847
   1 C :   -0.223150
   2 C :   -0.220160
   3 C :   -0.025966
   4 O :   -0.309098
   5 H :    0.099619
   6 H :    0.110873
   7 H :    0.121172
   8 H :    0.110967
   9 H :    0.115578
  10 H :    0.106315
  11 H :    0.099728
  12 C :   -0.034833
  13 H :    0.107979
  14 H :    0.098853
  15 O :   -0.339411
  16 C :   -0.001221
  17 C :    0.040178
  18 C :   -0.240056
  19 C :   -0.038329
  20 O :   -0.331400
  21 H :    0.116575
  22 O :   -0.410678
  23 H :    0.119028
  24 H :    0.128530
  25 H :    0.115532
  26 H :    0.106988
  27 H :    0.105395
  28 H :    0.284148

  Mayer bond orders larger than 0.100000
B(  0-C ,  1-C ) :   0.9375 B(  0-C ,  4-O ) :   0.9237 B(  0-C ,  5-H ) :   0.9168
B(  0-C , 15-O ) :   0.8211 B(  1-C ,  2-C ) :   0.9493 B(  1-C ,  6-H ) :   0.9369
B(  1-C ,  7-H ) :   0.9316 B(  2-C ,  3-C ) :   0.9539 B(  2-C ,  8-H ) :   0.9456
B(  2-C ,  9-H ) :   0.9450 B(  3-C ,  4-O ) :   0.8383 B(  3-C , 10-H ) :   0.9355
B(  3-C , 11-H ) :   0.9402 B( 12-C , 13-H ) :   0.9152 B( 12-C , 14-H ) :   0.9251
B( 12-C , 15-O ) :   0.8559 B( 12-C , 16-C ) :   0.8992 B( 16-C , 17-C ) :   0.8945
B( 16-C , 20-O ) :   0.8384 B( 16-C , 21-H ) :   0.9182 B( 17-C , 18-C ) :   0.9118
B( 17-C , 22-O ) :   0.8984 B( 17-C , 23-H ) :   0.9326 B( 18-C , 19-C ) :   0.9410
B( 18-C , 24-H ) :   0.9373 B( 18-C , 25-H ) :   0.9324 B( 19-C , 20-O ) :   0.8389
B( 19-C , 26-H ) :   0.9331 B( 19-C , 27-H ) :   0.9371 B( 22-O , 28-H ) :   0.7935

FINAL SINGLE POINT ENERGY      -652.854394113452

DIPOLE MOMENT
-------------
                                X             Y             Z
Electronic contribution:      0.15180      -5.12931      -0.24681
Nuclear contribution   :     -0.37445       6.32629      -0.55149
                        -----------------------------------------
Total Dipole Moment    :     -0.22266       1.19698      -0.79830
                        -----------------------------------------
Magnitude (a.u.)       :      1.45589
Magnitude (Debye)      :      3.70059

Rotational constants in cm-1:     0.064536     0.013114     0.012328
Rotational constants in MHz :  1934.726960   393.143965   369.580463

                             ****ORCA TERMINATED NORMALLY****
TOTAL RUN TIME: 0 days 0 hours 26 minutes 39 seconds 993 msec
