                         Program Version 4.2.0 -  RELEASE  -
|  1> # Test redundant internal optimization
|  2> #
|  3> ! RKS B3LYP  Opt TightSCF SmallPrint
|  4>
|  5> %basis
|  6>         Basis "6-31G"
|  7> end
|  8>
|  9> %geom
| 10> Constraints
| 11> { D 4  0  15  12  300.0   C } # D for Dihedral angle
| 12> { D 0  15  12  16  285.0   C } # D for Dihedral angle
| 13> { D 0  4  3  2   C } # D for Dihedral angle
| 14> { D 4  3  2  1   C } # D for Dihedral angle
| 15> { D 3  2  1  0   C } # D for Dihedral angle
| 16> { D 2  1  0  4   C } # D for Dihedral angle
| 17> { D 1  0  4  3   C } # D for Dihedral angle
| 18> { D 16  20  19  18   C } # D for Dihedral angle
| 19> { D 20  19  18  17   C } # D for Dihedral angle
| 20> { D 19  18  17  16   C } # D for Dihedral angle
| 21> { D 18  17  16  20   C } # D for Dihedral angle
| 22> { D 17  16  20  19   C } # D for Dihedral angle
| 23> { D 15  12  16  20   C } # D for Dihedral angle
| 24> end
| 25> end
| 26>
| 27>
| 28> #%pal
| 29> #nprocs 8
| 30> #end
| 31>
| 32> * xyz 0 1
| 33> C  -21.048   26.222   46.251
| 34> C  -20.361   27.558   45.944
| 35> C  -20.329   28.222   47.341
| 36> C  -20.110   27.022   48.296
| 37> O  -20.473   25.807   47.535
| 38> H  -20.833   25.428   45.533
| 39> H  -19.344   27.382   45.576
| 40> H  -20.898   28.157   45.201
| 41> H  -19.543   28.978   47.434
| 42> H  -21.289   28.710   47.548
| 43> H  -20.733   27.082   49.195
| 44> H  -19.064   26.913   48.597
| 45> C  -23.362   25.116   46.798
| 46> H  -22.840   24.637   47.635
| 47> H  -24.376   25.374   47.128
| 48> O  -22.586   26.394   46.375
| 49> C  -23.489   24.082   45.645
| 50> C  -24.131   24.710   44.402
| 51> C  -22.937   25.478   43.787
| 52> C  -21.728   24.564   44.106
| 53> O  -22.162   23.655   45.190
| 54> H  -24.001   23.193   46.017
| 55> H  -24.477   23.925   43.721
| 56> O  -25.333   25.634   44.737
| 57> H  -23.053   25.656   42.713
| 58> H  -22.823   26.453   44.278
| 59> H  -20.851   25.128   44.440
| 60> H  -21.443   23.937   43.256
| 61> H  -25.009   26.428   45.418
| 62> *
| 63>
| 64>                          ****END OF INPUT****
 Total Charge           Charge          ....    0
 Multiplicity           Mult            ....    1
 Number of Electrons    NEL             ....  102
FINAL SINGLE POINT ENERGY      -652.798386926264
FINAL SINGLE POINT ENERGY      -652.841360029746
FINAL SINGLE POINT ENERGY      -652.859476710794
FINAL SINGLE POINT ENERGY      -652.863007978258
FINAL SINGLE POINT ENERGY      -652.863542905362
FINAL SINGLE POINT ENERGY      -652.863696666833
FINAL SINGLE POINT ENERGY      -652.863732356557
FINAL SINGLE POINT ENERGY      -652.863746485046
FINAL SINGLE POINT ENERGY      -652.863749184201
                    ***********************HURRAY********************

CARTESIAN COORDINATES (ANGSTROEM)
---------------------------------
  C    -20.949373   26.326028   46.332664
  C    -20.360311   27.725355   46.154169
  C    -20.392564   28.267964   47.600816
  C    -20.098393   27.014620   48.453929
  O    -20.368873   25.849286   47.570250
  H    -20.689362   25.580513   45.586921
  H    -19.331988   27.638224   45.785672
  H    -20.939163   28.333469   45.455333
  H    -19.660336   29.063813   47.767639
  H    -21.388936   28.660651   47.822473
  H    -20.731674   26.940835   49.341643
  H    -19.048780   26.940034   48.753032
  C    -23.150366   25.278007   46.771669
  H    -22.666017   24.794470   47.627323
  H    -24.136236   25.636967   47.079547
  O    -22.389132   26.483540   46.444600
  C    -23.357383   24.232396   45.668440
  C    -24.186856   24.699573   44.456956
  C    -23.080567   25.244495   43.501424
  C    -21.897815   24.288742   43.770177
  O    -22.176597   23.618813   45.070397
  H    -23.877304   23.408360   46.175264
  H    -24.706548   23.850072   44.009621
  O    -25.228277   25.653094   44.768474
  H    -23.395441   25.245977   42.454418
  H    -22.836172   26.270427   43.798025
  H    -20.932928   24.801459   43.820837
  H    -21.826943   23.492436   43.023194
  H    -24.821667   26.505378   45.032092

 Multiplicity           Mult            ....    1
 Number of Electrons    NEL             ....  102
 Basis Dimension        Dim             ....  149

ORBITAL ENERGIES
----------------

  NO   OCC          E(Eh)            E(eV)
   0   2.0000     -19.148349      -521.0531
   1   2.0000     -19.143776      -520.9286
   2   2.0000     -19.142741      -520.9005
   3   2.0000     -19.141035      -520.8541
   4   2.0000     -10.276463      -279.6368
   5   2.0000     -10.239760      -278.6380
   6   2.0000     -10.231588      -278.4157
   7   2.0000     -10.231499      -278.4133
   8   2.0000     -10.225578      -278.2521
   9   2.0000     -10.225534      -278.2509
  10   2.0000     -10.188809      -277.2516
  11   2.0000     -10.187543      -277.2171
  12   2.0000     -10.186251      -277.1820
  13   2.0000      -1.054606       -28.6973
  14   2.0000      -1.030950       -28.0536
  15   2.0000      -1.014142       -27.5962
  16   2.0000      -0.992374       -27.0039
  17   2.0000      -0.790412       -21.5082
  18   2.0000      -0.776597       -21.1323
  19   2.0000      -0.767677       -20.8895
  20   2.0000      -0.732157       -19.9230
  21   2.0000      -0.679114       -18.4796
  22   2.0000      -0.608303       -16.5528
  23   2.0000      -0.603176       -16.4132
  24   2.0000      -0.598307       -16.2808
  25   2.0000      -0.564454       -15.3596
  26   2.0000      -0.529257       -14.4018
  27   2.0000      -0.508628       -13.8405
  28   2.0000      -0.500448       -13.6179
  29   2.0000      -0.486758       -13.2454
  30   2.0000      -0.464841       -12.6490
  31   2.0000      -0.460751       -12.5377
  32   2.0000      -0.441444       -12.0123
  33   2.0000      -0.439397       -11.9566
  34   2.0000      -0.426709       -11.6113
  35   2.0000      -0.411029       -11.1847
  36   2.0000      -0.403724       -10.9859
  37   2.0000      -0.395292       -10.7564
  38   2.0000      -0.382166       -10.3993
  39   2.0000      -0.365668        -9.9503
  40   2.0000      -0.361387        -9.8338
  41   2.0000      -0.357042        -9.7156
  42   2.0000      -0.346177        -9.4200
  43   2.0000      -0.331485        -9.0202
  44   2.0000      -0.331006        -9.0071
  45   2.0000      -0.311975        -8.4893
  46   2.0000      -0.299495        -8.1497
  47   2.0000      -0.277642        -7.5550
  48   2.0000      -0.264644        -7.2013
  49   2.0000      -0.256546        -6.9810
  50   2.0000      -0.239711        -6.5229
  51   0.0000       0.067540         1.8379
  52   0.0000       0.076385         2.0785
  53   0.0000       0.091441         2.4882
  54   0.0000       0.098773         2.6877
  55   0.0000       0.102038         2.7766

MULLIKEN ATOMIC CHARGES
-----------------------
   0 C :    0.279160
   1 C :   -0.264549
   2 C :   -0.296524
   3 C :   -0.006206
   4 O :   -0.510365
   5 H :    0.173383
   6 H :    0.145798
   7 H :    0.151276
   8 H :    0.141244
   9 H :    0.161006
  10 H :    0.147125
  11 H :    0.144154
  12 C :   -0.047926
  13 H :    0.169454
  14 H :    0.153868
  15 O :   -0.540157
  16 C :    0.092984
  17 C :    0.091793
  18 C :   -0.316083
  19 C :   -0.021729
  20 O :   -0.516984
  21 H :    0.151484
  22 H :    0.163654
  23 O :   -0.605164
  24 H :    0.152446
  25 H :    0.152269
  26 H :    0.134742
  27 H :    0.152604
  28 H :    0.367242
Sum of atomic charges:   -0.0000000

LOEWDIN ATOMIC CHARGES
----------------------
   0 C :    0.169699
   1 C :   -0.216274
   2 C :   -0.215647
   3 C :   -0.028732
   4 O :   -0.321997
   5 H :    0.109434
   6 H :    0.114573
   7 H :    0.120694
   8 H :    0.113501
   9 H :    0.118524
  10 H :    0.105168
  11 H :    0.103629
  12 C :   -0.058115
  13 H :    0.116990
  14 H :    0.118304
  15 O :   -0.341408
  16 C :    0.007306
  17 C :    0.036360
  18 C :   -0.242816
  19 C :   -0.032620
  20 O :   -0.321434
  21 H :    0.116496
  22 H :    0.116740
  23 O :   -0.408799
  24 H :    0.120043
  25 H :    0.114181
  26 H :    0.094997
  27 H :    0.107017
  28 H :    0.284185

  Mayer bond orders larger than 0.100000
B(  0-C ,  1-C ) :   0.9477 B(  0-C ,  4-O ) :   0.9009 B(  0-C ,  5-H ) :   0.8975
B(  0-C , 15-O ) :   0.8396 B(  1-C ,  2-C ) :   0.9549 B(  1-C ,  6-H ) :   0.9403
B(  1-C ,  7-H ) :   0.9363 B(  2-C ,  3-C ) :   0.9553 B(  2-C ,  8-H ) :   0.9452
B(  2-C ,  9-H ) :   0.9444 B(  3-C ,  4-O ) :   0.8373 B(  3-C , 10-H ) :   0.9358
B(  3-C , 11-H ) :   0.9403 B( 12-C , 13-H ) :   0.9171 B( 12-C , 14-H ) :   0.9215
B( 12-C , 15-O ) :   0.8485 B( 12-C , 16-C ) :   0.8973 B( 16-C , 17-C ) :   0.8806
B( 16-C , 20-O ) :   0.8692 B( 16-C , 21-H ) :   0.9214 B( 17-C , 18-C ) :   0.9257
B( 17-C , 22-H ) :   0.9368 B( 17-C , 23-O ) :   0.9042 B( 18-C , 19-C ) :   0.9424
B( 18-C , 24-H ) :   0.9409 B( 18-C , 25-H ) :   0.9339 B( 19-C , 20-O ) :   0.8408
B( 19-C , 26-H ) :   0.9195 B( 19-C , 27-H ) :   0.9393 B( 23-O , 28-H ) :   0.7902

FINAL SINGLE POINT ENERGY      -652.863747684614

DIPOLE MOMENT
-------------
                                X             Y             Z
Electronic contribution:     -2.59078      -3.95633       0.41006
Nuclear contribution   :      3.09885       4.91755      -0.68984
                        -----------------------------------------
Total Dipole Moment    :      0.50807       0.96122      -0.27978
                        -----------------------------------------
Magnitude (a.u.)       :      1.12265
Magnitude (Debye)      :      2.85355

Rotational constants in cm-1:     0.050176     0.015732     0.015065
Rotational constants in MHz :  1504.230545   471.626449   451.636851

                             ****ORCA TERMINATED NORMALLY****
TOTAL RUN TIME: 0 days 0 hours 30 minutes 43 seconds 958 msec
