                         Program Version 4.2.0 -  RELEASE  -
|  1> # Test redundant internal optimization
|  2> #
|  3> ! RKS B3LYP  Opt TightSCF SmallPrint
|  4>
|  5> %basis
|  6>         Basis "6-31G"
|  7> end
|  8>
|  9> %geom
| 10> Constraints
| 11> { D 4  0  15  12  105.0   C } # D for Dihedral angle
| 12> { D 0  15  12  16  135.0   C } # D for Dihedral angle
| 13> { D 0  4  3  2   C } # D for Dihedral angle
| 14> { D 4  3  2  1   C } # D for Dihedral angle
| 15> { D 3  2  1  0   C } # D for Dihedral angle
| 16> { D 2  1  0  4   C } # D for Dihedral angle
| 17> { D 1  0  4  3   C } # D for Dihedral angle
| 18> { D 16  20  19  18   C } # D for Dihedral angle
| 19> { D 20  19  18  17   C } # D for Dihedral angle
| 20> { D 19  18  17  16   C } # D for Dihedral angle
| 21> { D 18  17  16  20   C } # D for Dihedral angle
| 22> { D 17  16  20  19   C } # D for Dihedral angle
| 23> { D 15  12  16  20   C } # D for Dihedral angle
| 24> end
| 25> end
| 26>
| 27>
| 28> #%pal
| 29> #nprocs 8
| 30> #end
| 31>
| 32> * xyz 0 1
| 33> C  -21.048   26.222   46.251
| 34> C  -20.361   27.558   45.944
| 35> C  -20.329   28.222   47.341
| 36> C  -20.110   27.022   48.296
| 37> O  -20.473   25.807   47.535
| 38> H  -20.833   25.428   45.533
| 39> H  -19.344   27.382   45.576
| 40> H  -20.898   28.157   45.201
| 41> H  -19.543   28.978   47.434
| 42> H  -21.289   28.710   47.548
| 43> H  -20.733   27.082   49.195
| 44> H  -19.064   26.913   48.597
| 45> C  -23.085   27.864   46.420
| 46> H  -23.365   28.120   47.450
| 47> H  -22.289   28.550   46.102
| 48> O  -22.586   26.394   46.375
| 49> C  -24.315   28.110   45.503
| 50> C  -25.534   27.314   45.983
| 51> C  -26.039   28.190   47.154
| 52> C  -25.737   29.631   46.672
| 53> O  -24.743   29.510   45.584
| 54> H  -24.031   27.922   44.466
| 55> O  -26.599   27.241   44.854
| 56> H  -25.288   26.292   46.291
| 57> H  -27.100   28.036   47.372
| 58> H  -25.473   27.960   48.066
| 59> H  -25.325   30.261   47.466
| 60> H  -26.618   30.123   46.251
| 61> H  -26.862   28.254   44.529
| 62> *
| 63>
| 64>                          ****END OF INPUT****
 Total Charge           Charge          ....    0
 Multiplicity           Mult            ....    1
 Number of Electrons    NEL             ....  102
FINAL SINGLE POINT ENERGY      -652.818598409323
FINAL SINGLE POINT ENERGY      -652.844152695044
FINAL SINGLE POINT ENERGY      -652.854660999606
FINAL SINGLE POINT ENERGY      -652.856563818042
FINAL SINGLE POINT ENERGY      -652.856876414231
FINAL SINGLE POINT ENERGY      -652.856924731482
FINAL SINGLE POINT ENERGY      -652.856931150517
                    ***********************HURRAY********************

CARTESIAN COORDINATES (ANGSTROEM)
---------------------------------
  C    -21.244689   26.390777   46.326697
  C    -20.264867   27.500339   45.926635
  C    -19.949772   28.165735   47.296665
  C    -19.972920   26.958549   48.267023
  O    -20.698311   25.877830   47.560452
  H    -21.260238   25.540198   45.644179
  H    -19.366707   27.028938   45.514926
  H    -20.656308   28.194454   45.178044
  H    -18.981376   28.675063   47.296695
  H    -20.713884   28.902117   47.562415
  H    -20.484423   27.175218   49.209473
  H    -18.970573   26.578647   48.485003
  C    -23.144853   28.106731   46.541442
  H    -23.424501   28.326122   47.579900
  H    -22.408723   28.849047   46.221170
  O    -22.643875   26.743924   46.453140
  C    -24.350371   28.205932   45.606228
  C    -25.536194   27.301951   45.971053
  C    -26.216938   28.119454   47.096822
  C    -25.999334   29.587539   46.653622
  O    -24.900361   29.565626   45.653978
  H    -24.024718   28.023031   44.578103
  O    -26.417848   27.120463   44.827362
  H    -25.229813   26.302377   46.273285
  H    -27.273149   27.853203   47.183605
  H    -25.733870   27.916168   48.058851
  H    -25.714418   30.246162   47.480002
  H    -26.877004   30.011894   46.156199
  H    -26.553963   27.985514   44.386031

 Multiplicity           Mult            ....    1
 Number of Electrons    NEL             ....  102
 Basis Dimension        Dim             ....  149

ORBITAL ENERGIES
----------------

  NO   OCC          E(Eh)            E(eV)
   0   2.0000     -19.145776      -520.9830
   1   2.0000     -19.145457      -520.9744
   2   2.0000     -19.140041      -520.8270
   3   2.0000     -19.133479      -520.6484
   4   2.0000     -10.282636      -279.8047
   5   2.0000     -10.235093      -278.5110
   6   2.0000     -10.233495      -278.4676
   7   2.0000     -10.232608      -278.4434
   8   2.0000     -10.232312      -278.4354
   9   2.0000     -10.229688      -278.3639
  10   2.0000     -10.197087      -277.4768
  11   2.0000     -10.196475      -277.4602
  12   2.0000     -10.186459      -277.1876
  13   2.0000      -1.052462       -28.6389
  14   2.0000      -1.035538       -28.1784
  15   2.0000      -1.003279       -27.3006
  16   2.0000      -0.997398       -27.1406
  17   2.0000      -0.792776       -21.5725
  18   2.0000      -0.781530       -21.2665
  19   2.0000      -0.770644       -20.9703
  20   2.0000      -0.734090       -19.9756
  21   2.0000      -0.681350       -18.5405
  22   2.0000      -0.607450       -16.5296
  23   2.0000      -0.603172       -16.4131
  24   2.0000      -0.599273       -16.3070
  25   2.0000      -0.574156       -15.6236
  26   2.0000      -0.525486       -14.2992
  27   2.0000      -0.515569       -14.0294
  28   2.0000      -0.505194       -13.7470
  29   2.0000      -0.490679       -13.3521
  30   2.0000      -0.473870       -12.8947
  31   2.0000      -0.460790       -12.5387
  32   2.0000      -0.449824       -12.2403
  33   2.0000      -0.438750       -11.9390
  34   2.0000      -0.429745       -11.6939
  35   2.0000      -0.413942       -11.2639
  36   2.0000      -0.407564       -11.0904
  37   2.0000      -0.391500       -10.6532
  38   2.0000      -0.386624       -10.5206
  39   2.0000      -0.366495        -9.9728
  40   2.0000      -0.365735        -9.9521
  41   2.0000      -0.359089        -9.7713
  42   2.0000      -0.356005        -9.6874
  43   2.0000      -0.330228        -8.9860
  44   2.0000      -0.317387        -8.6365
  45   2.0000      -0.307390        -8.3645
  46   2.0000      -0.295262        -8.0345
  47   2.0000      -0.275828        -7.5057
  48   2.0000      -0.267656        -7.2833
  49   2.0000      -0.257065        -6.9951
  50   2.0000      -0.242849        -6.6083
  51   0.0000       0.063902         1.7389
  52   0.0000       0.069379         1.8879
  53   0.0000       0.090988         2.4759
  54   0.0000       0.096218         2.6182
  55   0.0000       0.102630         2.7927

MULLIKEN ATOMIC CHARGES
-----------------------
   0 C :    0.315251
   1 C :   -0.306628
   2 C :   -0.311968
   3 C :   -0.006347
   4 O :   -0.496475
   5 H :    0.166234
   6 H :    0.160861
   7 H :    0.153806
   8 H :    0.147688
   9 H :    0.152794
  10 H :    0.146326
  11 H :    0.147199
  12 C :   -0.011171
  13 H :    0.136381
  14 H :    0.147164
  15 O :   -0.532970
  16 C :    0.064562
  17 C :    0.090840
  18 C :   -0.296161
  19 C :   -0.035370
  20 O :   -0.531023
  21 H :    0.157218
  22 O :   -0.603135
  23 H :    0.181800
  24 H :    0.162040
  25 H :    0.145293
  26 H :    0.147260
  27 H :    0.147469
  28 H :    0.361062
Sum of atomic charges:    0.0000000

LOEWDIN ATOMIC CHARGES
----------------------
   0 C :    0.179234
   1 C :   -0.233314
   2 C :   -0.222985
   3 C :   -0.031068
   4 O :   -0.316572
   5 H :    0.112106
   6 H :    0.125409
   7 H :    0.118057
   8 H :    0.117221
   9 H :    0.110747
  10 H :    0.104201
  11 H :    0.104607
  12 C :   -0.040498
  13 H :    0.097398
  14 H :    0.105598
  15 O :   -0.328470
  16 C :    0.014535
  17 C :    0.039177
  18 C :   -0.240452
  19 C :   -0.039311
  20 O :   -0.334602
  21 H :    0.114674
  22 O :   -0.415047
  23 H :    0.131084
  24 H :    0.126869
  25 H :    0.114413
  26 H :    0.103737
  27 H :    0.102814
  28 H :    0.280437

  Mayer bond orders larger than 0.100000
B(  0-C ,  1-C ) :   0.9307 B(  0-C ,  4-O ) :   0.9116 B(  0-C ,  5-H ) :   0.9333
B(  0-C , 15-O ) :   0.8756 B(  1-C ,  2-C ) :   0.9516 B(  1-C ,  6-H ) :   0.9334
B(  1-C ,  7-H ) :   0.9291 B(  2-C ,  3-C ) :   0.9472 B(  2-C ,  8-H ) :   0.9454
B(  2-C ,  9-H ) :   0.9397 B(  3-C ,  4-O ) :   0.8476 B(  3-C , 10-H ) :   0.9345
B(  3-C , 11-H ) :   0.9392 B( 12-C , 13-H ) :   0.9260 B( 12-C , 14-H ) :   0.9054
B( 12-C , 15-O ) :   0.8295 B( 12-C , 16-C ) :   0.8915 B( 16-C , 17-C ) :   0.9147
B( 16-C , 20-O ) :   0.8430 B( 16-C , 21-H ) :   0.9272 B( 17-C , 18-C ) :   0.9131
B( 17-C , 22-O ) :   0.8897 B( 17-C , 23-H ) :   0.9225 B( 18-C , 19-C ) :   0.9410
B( 18-C , 24-H ) :   0.9381 B( 18-C , 25-H ) :   0.9350 B( 19-C , 20-O ) :   0.8415
B( 19-C , 26-H ) :   0.9354 B( 19-C , 27-H ) :   0.9379 B( 22-O , 28-H ) :   0.7968

FINAL SINGLE POINT ENERGY      -652.856932181436

DIPOLE MOMENT
-------------
                                X             Y             Z
Electronic contribution:     -2.64053      -3.43303      -2.74619
Nuclear contribution   :      3.34052       4.67194       3.17264
                        -----------------------------------------
Total Dipole Moment    :      0.70000       1.23891       0.42645
                        -----------------------------------------
Magnitude (a.u.)       :      1.48551
Magnitude (Debye)      :      3.77587

Rotational constants in cm-1:     0.057967     0.012345     0.011756
Rotational constants in MHz :  1737.795480   370.090618   352.443256

                             ****ORCA TERMINATED NORMALLY****
TOTAL RUN TIME: 0 days 0 hours 38 minutes 6 seconds 144 msec
