                         Program Version 4.2.0 -  RELEASE  -
|  1> # Test redundant internal optimization
|  2> #
|  3> ! RKS B3LYP  Opt TightSCF SmallPrint
|  4>
|  5> %basis
|  6>         Basis "6-31G"
|  7> end
|  8>
|  9> %geom
| 10> Constraints
| 11> { D 4  0  15  12  30.0   C } # D for Dihedral angle
| 12> { D 0  15  12  16  270.0   C } # D for Dihedral angle
| 13> { D 0  4  3  2   C } # D for Dihedral angle
| 14> { D 4  3  2  1   C } # D for Dihedral angle
| 15> { D 3  2  1  0   C } # D for Dihedral angle
| 16> { D 2  1  0  4   C } # D for Dihedral angle
| 17> { D 1  0  4  3   C } # D for Dihedral angle
| 18> { D 16  20  19  18   C } # D for Dihedral angle
| 19> { D 20  19  18  17   C } # D for Dihedral angle
| 20> { D 19  18  17  16   C } # D for Dihedral angle
| 21> { D 18  17  16  20   C } # D for Dihedral angle
| 22> { D 17  16  20  19   C } # D for Dihedral angle
| 23> { D 15  12  16  20   C } # D for Dihedral angle
| 24> end
| 25> end
| 26>
| 27>
| 28> #%pal
| 29> #nprocs 8
| 30> #end
| 31>
| 32> * xyz 0 1
| 33> C  -21.048   26.222   46.251
| 34> C  -20.361   27.558   45.944
| 35> C  -20.329   28.222   47.341
| 36> C  -20.110   27.022   48.296
| 37> O  -20.473   25.807   47.535
| 38> H  -20.833   25.428   45.533
| 39> H  -19.344   27.382   45.576
| 40> H  -20.898   28.157   45.201
| 41> H  -19.543   28.978   47.434
| 42> H  -21.289   28.710   47.548
| 43> H  -20.733   27.082   49.195
| 44> H  -19.064   26.913   48.597
| 45> C  -23.091   26.824   47.779
| 46> H  -22.323   27.436   48.269
| 47> H  -24.005   27.426   47.691
| 48> O  -22.586   26.394   46.375
| 49> C  -23.410   25.613   48.700
| 50> C  -24.014   26.071   50.032
| 51> C  -25.482   26.350   49.631
| 52> C  -25.769   25.263   48.565
| 53> O  -24.453   24.774   48.100
| 54> H  -22.517   24.993   48.797
| 55> H  -23.962   25.260   50.768
| 56> O  -23.305   27.318   50.627
| 57> H  -26.172   26.294   50.480
| 58> H  -25.569   27.352   49.195
| 59> H  -26.330   25.654   47.708
| 60> H  -26.305   24.404   48.978
| 61> H  -23.345   28.144   49.909
| 62> *
| 63>
| 64>                          ****END OF INPUT****
 Total Charge           Charge          ....    0
 Multiplicity           Mult            ....    1
 Number of Electrons    NEL             ....  102
FINAL SINGLE POINT ENERGY      -652.818041923982
FINAL SINGLE POINT ENERGY      -652.842242869358
FINAL SINGLE POINT ENERGY      -652.849105696682
FINAL SINGLE POINT ENERGY      -652.851883704657
FINAL SINGLE POINT ENERGY      -652.852304857703
FINAL SINGLE POINT ENERGY      -652.852409113690
FINAL SINGLE POINT ENERGY      -652.852409631956
FINAL SINGLE POINT ENERGY      -652.852407716708
                    ***********************HURRAY********************

CARTESIAN COORDINATES (ANGSTROEM)
---------------------------------
  C    -21.122868   26.281173   46.375600
  C    -20.359524   27.528343   45.911578
  C    -20.078907   28.252745   47.257583
  C    -19.849990   27.076414   48.238952
  O    -20.432337   25.875650   47.580663
  H    -21.045811   25.445697   45.677766
  H    -19.423889   27.216285   45.434622
  H    -20.939254   28.127141   45.205744
  H    -19.207152   28.912522   47.204836
  H    -20.938375   28.863789   47.551073
  H    -20.334457   27.214472   49.210452
  H    -18.788443   26.864300   48.395292
  C    -23.113525   26.890359   47.795936
  H    -22.444729   27.557967   48.346378
  H    -24.014361   27.450581   47.520073
  O    -22.553928   26.465895   46.522044
  C    -23.466357   25.694105   48.685043
  C    -24.106437   26.089021   50.026072
  C    -25.599531   26.281183   49.624075
  C    -25.801593   25.197030   48.541929
  O    -24.449901   24.804815   48.074226
  H    -22.561844   25.095859   48.817195
  H    -24.002486   25.265520   50.736326
  O    -23.496646   27.230065   50.686643
  H    -26.277446   26.166736   50.474307
  H    -25.741163   27.289651   49.212223
  H    -26.388109   25.551993   47.688473
  H    -26.276060   24.296478   48.943761
  H    -23.847878   28.065209   50.316134

 Multiplicity           Mult            ....    1
 Number of Electrons    NEL             ....  102
 Basis Dimension        Dim             ....  149

ORBITAL ENERGIES
----------------

  NO   OCC          E(Eh)            E(eV)
   0   2.0000     -19.150464      -521.1106
   1   2.0000     -19.146278      -520.9967
   2   2.0000     -19.134862      -520.6861
   3   2.0000     -19.130723      -520.5734
   4   2.0000     -10.274681      -279.5883
   5   2.0000     -10.242352      -278.7086
   6   2.0000     -10.229966      -278.3715
   7   2.0000     -10.227019      -278.2913
   8   2.0000     -10.226518      -278.2777
   9   2.0000     -10.219786      -278.0945
  10   2.0000     -10.194875      -277.4167
  11   2.0000     -10.192500      -277.3520
  12   2.0000     -10.185390      -277.1585
  13   2.0000      -1.050740       -28.5921
  14   2.0000      -1.031148       -28.0590
  15   2.0000      -1.011318       -27.5194
  16   2.0000      -0.989453       -26.9244
  17   2.0000      -0.788059       -21.4442
  18   2.0000      -0.780127       -21.2283
  19   2.0000      -0.765913       -20.8416
  20   2.0000      -0.731268       -19.8988
  21   2.0000      -0.678150       -18.4534
  22   2.0000      -0.609613       -16.5884
  23   2.0000      -0.602711       -16.4006
  24   2.0000      -0.598014       -16.2728
  25   2.0000      -0.563431       -15.3317
  26   2.0000      -0.519528       -14.1371
  27   2.0000      -0.515088       -14.0162
  28   2.0000      -0.501273       -13.6403
  29   2.0000      -0.491961       -13.3869
  30   2.0000      -0.463474       -12.6118
  31   2.0000      -0.457380       -12.4459
  32   2.0000      -0.437103       -11.8942
  33   2.0000      -0.430838       -11.7237
  34   2.0000      -0.425180       -11.5697
  35   2.0000      -0.416806       -11.3419
  36   2.0000      -0.410767       -11.1775
  37   2.0000      -0.398555       -10.8452
  38   2.0000      -0.376701       -10.2505
  39   2.0000      -0.374401       -10.1880
  40   2.0000      -0.359512        -9.7828
  41   2.0000      -0.353998        -9.6328
  42   2.0000      -0.345617        -9.4047
  43   2.0000      -0.326418        -8.8823
  44   2.0000      -0.321701        -8.7539
  45   2.0000      -0.314947        -8.5701
  46   2.0000      -0.305001        -8.2995
  47   2.0000      -0.269765        -7.3407
  48   2.0000      -0.259183        -7.0527
  49   2.0000      -0.255092        -6.9414
  50   2.0000      -0.227471        -6.1898
  51   0.0000       0.049824         1.3558
  52   0.0000       0.076041         2.0692
  53   0.0000       0.084722         2.3054
  54   0.0000       0.092652         2.5212
  55   0.0000       0.102451         2.7878

MULLIKEN ATOMIC CHARGES
-----------------------
   0 C :    0.294195
   1 C :   -0.257455
   2 C :   -0.314819
   3 C :   -0.026738
   4 O :   -0.509353
   5 H :    0.166748
   6 H :    0.147654
   7 H :    0.155182
   8 H :    0.147145
   9 H :    0.148718
  10 H :    0.159440
  11 H :    0.150757
  12 C :   -0.027715
  13 H :    0.130425
  14 H :    0.137193
  15 O :   -0.514551
  16 C :    0.091863
  17 C :    0.076053
  18 C :   -0.324526
  19 C :   -0.011837
  20 O :   -0.504136
  21 H :    0.184634
  22 H :    0.169211
  23 O :   -0.604037
  24 H :    0.157602
  25 H :    0.128382
  26 H :    0.146977
  27 H :    0.148374
  28 H :    0.354612
Sum of atomic charges:   -0.0000000

LOEWDIN ATOMIC CHARGES
----------------------
   0 C :    0.178879
   1 C :   -0.224564
   2 C :   -0.223407
   3 C :   -0.038323
   4 O :   -0.320464
   5 H :    0.112759
   6 H :    0.116422
   7 H :    0.122539
   8 H :    0.116813
   9 H :    0.108680
  10 H :    0.107575
  11 H :    0.107147
  12 C :   -0.050097
  13 H :    0.098191
  14 H :    0.104022
  15 O :   -0.317164
  16 C :    0.009574
  17 C :    0.032618
  18 C :   -0.241623
  19 C :   -0.030788
  20 O :   -0.312651
  21 H :    0.127958
  22 H :    0.119586
  23 O :   -0.412723
  24 H :    0.121895
  25 H :    0.101529
  26 H :    0.103752
  27 H :    0.105280
  28 H :    0.276587

  Mayer bond orders larger than 0.100000
B(  0-C ,  1-C ) :   0.9180 B(  0-C ,  4-O ) :   0.8964 B(  0-C ,  5-H ) :   0.9339
B(  0-C , 15-O ) :   0.8788 B(  1-C ,  2-C ) :   0.9529 B(  1-C ,  6-H ) :   0.9349
B(  1-C ,  7-H ) :   0.9376 B(  2-C ,  3-C ) :   0.9487 B(  2-C ,  8-H ) :   0.9448
B(  2-C ,  9-H ) :   0.9421 B(  3-C ,  4-O ) :   0.8344 B(  3-C , 10-H ) :   0.9264
B(  3-C , 11-H ) :   0.9388 B( 12-C , 13-H ) :   0.8950 B( 12-C , 14-H ) :   0.9412
B( 12-C , 15-O ) :   0.8578 B( 12-C , 16-C ) :   0.8850 B( 16-C , 17-C ) :   0.8698
B( 16-C , 20-O ) :   0.8641 B( 16-C , 21-H ) :   0.9185 B( 17-C , 18-C ) :   0.9281
B( 17-C , 22-H ) :   0.9320 B( 17-C , 23-O ) :   0.8870 B( 18-C , 19-C ) :   0.9383
B( 18-C , 24-H ) :   0.9412 B( 18-C , 25-H ) :   0.9411 B( 19-C , 20-O ) :   0.8554
B( 19-C , 26-H ) :   0.9305 B( 19-C , 27-H ) :   0.9373 B( 23-O , 28-H ) :   0.8001

FINAL SINGLE POINT ENERGY      -652.852407711684

DIPOLE MOMENT
-------------
                                X             Y             Z
Electronic contribution:     -0.44356      -4.45221      -0.59059
Nuclear contribution   :      0.22811       5.91244       0.81221
                        -----------------------------------------
Total Dipole Moment    :     -0.21544       1.46023       0.22162
                        -----------------------------------------
Magnitude (a.u.)       :      1.49258
Magnitude (Debye)      :      3.79385

Rotational constants in cm-1:     0.050895     0.015516     0.013589
Rotational constants in MHz :  1525.790171   465.149511   407.373655

                             ****ORCA TERMINATED NORMALLY****
TOTAL RUN TIME: 0 days 0 hours 29 minutes 19 seconds 602 msec
