                         Program Version 4.2.0 -  RELEASE  -
|  1> # Test redundant internal optimization
|  2> #
|  3> ! RKS B3LYP  Opt TightSCF SmallPrint
|  4>
|  5> %basis
|  6>         Basis "6-31G"
|  7> end
|  8>
|  9> %geom
| 10> Constraints
| 11> { D 4  0  15  12  45.0   C } # D for Dihedral angle
| 12> { D 0  15  12  16  195.0   C } # D for Dihedral angle
| 13> { D 0  4  3  2   C } # D for Dihedral angle
| 14> { D 4  3  2  1   C } # D for Dihedral angle
| 15> { D 3  2  1  0   C } # D for Dihedral angle
| 16> { D 2  1  0  4   C } # D for Dihedral angle
| 17> { D 1  0  4  3   C } # D for Dihedral angle
| 18> { D 16  20  19  18   C } # D for Dihedral angle
| 19> { D 20  19  18  17   C } # D for Dihedral angle
| 20> { D 19  18  17  16   C } # D for Dihedral angle
| 21> { D 18  17  16  20   C } # D for Dihedral angle
| 22> { D 17  16  20  19   C } # D for Dihedral angle
| 23> { D 15  12  16  20   C } # D for Dihedral angle
| 24> end
| 25> end
| 26>
| 27>
| 28> #%pal
| 29> #nprocs 8
| 30> #end
| 31>
| 32> * xyz 0 1
| 33> C  -21.048   26.222   46.251
| 34> C  -20.361   27.558   45.944
| 35> C  -20.329   28.222   47.341
| 36> C  -20.110   27.022   48.296
| 37> O  -20.473   25.807   47.535
| 38> H  -20.833   25.428   45.533
| 39> H  -19.344   27.382   45.576
| 40> H  -20.898   28.157   45.201
| 41> H  -19.543   28.978   47.434
| 42> H  -21.289   28.710   47.548
| 43> H  -20.733   27.082   49.195
| 44> H  -19.064   26.913   48.597
| 45> C  -23.065   27.161   47.638
| 46> H  -22.516   26.795   48.514
| 47> H  -22.866   28.236   47.533
| 48> O  -22.586   26.394   46.375
| 49> C  -24.586   26.986   47.906
| 50> C  -24.929   25.529   48.234
| 51> C  -24.499   25.431   49.717
| 52> C  -24.841   26.835   50.275
| 53> O  -24.983   27.730   49.106
| 54> H  -25.147   27.406   47.069
| 55> H  -26.008   25.365   48.132
| 56> O  -24.191   24.509   47.324
| 57> H  -25.014   24.631   50.256
| 58> H  -23.421   25.241   49.784
| 59> H  -24.059   27.227   50.934
| 60> H  -25.795   26.850   50.810
| 61> H  -23.109   24.655   47.410
| 62> *
| 63>
| 64>                          ****END OF INPUT****
 Total Charge           Charge          ....    0
 Multiplicity           Mult            ....    1
 Number of Electrons    NEL             ....  102
FINAL SINGLE POINT ENERGY      -652.818498938098
FINAL SINGLE POINT ENERGY      -652.845381930255
FINAL SINGLE POINT ENERGY      -652.856596191068
FINAL SINGLE POINT ENERGY      -652.859863691382
FINAL SINGLE POINT ENERGY      -652.861412291415
FINAL SINGLE POINT ENERGY      -652.862359716847
FINAL SINGLE POINT ENERGY      -652.862801439215
FINAL SINGLE POINT ENERGY      -652.862926803962
FINAL SINGLE POINT ENERGY      -652.862953089603
                    ***********************HURRAY********************

CARTESIAN COORDINATES (ANGSTROEM)
---------------------------------
  C    -21.126543   26.306148   46.444893
  C    -20.376476   27.533831   45.915412
  C    -20.049114   28.302339   47.226346
  C    -19.790881   27.159343   48.236573
  O    -20.399870   25.940281   47.634435
  H    -21.078481   25.448902   45.772092
  H    -19.459466   27.196436   45.420986
  H    -20.970367   28.114423   45.205485
  H    -19.174674   28.951626   47.118833
  H    -20.890042   28.930738   47.532013
  H    -20.240922   27.333144   49.217803
  H    -18.726594   26.943014   48.363417
  C    -23.082529   27.210960   47.790501
  H    -22.543178   26.906219   48.693558
  H    -22.970307   28.289947   47.644820
  O    -22.561341   26.467645   46.636044
  C    -24.576744   26.889086   47.921356
  C    -24.920213   25.421690   48.228933
  C    -24.626638   25.341271   49.755881
  C    -25.046174   26.735204   50.265756
  O    -25.097484   27.629210   49.069559
  H    -25.104957   27.255628   47.037129
  H    -25.994411   25.279583   48.062822
  O    -24.231697   24.431907   47.445269
  H    -25.181963   24.529944   50.232844
  H    -23.558500   25.149304   49.902900
  H    -24.346681   27.162227   50.991492
  H    -26.050376   26.741467   50.699518
  H    -23.463374   24.860484   47.001329

 Multiplicity           Mult            ....    1
 Number of Electrons    NEL             ....  102
 Basis Dimension        Dim             ....  149

ORBITAL ENERGIES
----------------

  NO   OCC          E(Eh)            E(eV)
   0   2.0000     -19.165668      -521.5243
   1   2.0000     -19.159138      -521.3467
   2   2.0000     -19.140097      -520.8285
   3   2.0000     -19.110254      -520.0165
   4   2.0000     -10.293114      -280.0899
   5   2.0000     -10.241753      -278.6923
   6   2.0000     -10.238877      -278.6140
   7   2.0000     -10.233520      -278.4682
   8   2.0000     -10.227984      -278.3176
   9   2.0000     -10.226105      -278.2665
  10   2.0000     -10.202325      -277.6194
  11   2.0000     -10.199296      -277.5370
  12   2.0000     -10.176626      -276.9201
  13   2.0000      -1.068470       -29.0746
  14   2.0000      -1.025727       -27.9115
  15   2.0000      -1.010066       -27.4853
  16   2.0000      -0.991107       -26.9694
  17   2.0000      -0.799758       -21.7625
  18   2.0000      -0.778929       -21.1957
  19   2.0000      -0.767124       -20.8745
  20   2.0000      -0.738649       -20.0997
  21   2.0000      -0.681607       -18.5475
  22   2.0000      -0.614828       -16.7303
  23   2.0000      -0.602690       -16.4000
  24   2.0000      -0.594846       -16.1866
  25   2.0000      -0.577324       -15.7098
  26   2.0000      -0.526948       -14.3390
  27   2.0000      -0.519640       -14.1401
  28   2.0000      -0.511286       -13.9128
  29   2.0000      -0.486491       -13.2381
  30   2.0000      -0.475990       -12.9524
  31   2.0000      -0.465787       -12.6747
  32   2.0000      -0.443497       -12.0682
  33   2.0000      -0.432735       -11.7753
  34   2.0000      -0.426768       -11.6129
  35   2.0000      -0.420851       -11.4519
  36   2.0000      -0.411867       -11.2075
  37   2.0000      -0.391090       -10.6421
  38   2.0000      -0.386643       -10.5211
  39   2.0000      -0.371443       -10.1075
  40   2.0000      -0.367824       -10.0090
  41   2.0000      -0.360511        -9.8100
  42   2.0000      -0.349063        -9.4985
  43   2.0000      -0.338268        -9.2047
  44   2.0000      -0.332256        -9.0411
  45   2.0000      -0.322439        -8.7740
  46   2.0000      -0.294608        -8.0167
  47   2.0000      -0.276387        -7.5209
  48   2.0000      -0.266282        -7.2459
  49   2.0000      -0.248727        -6.7682
  50   2.0000      -0.239566        -6.5189
  51   0.0000       0.056131         1.5274
  52   0.0000       0.068967         1.8767
  53   0.0000       0.085929         2.3383
  54   0.0000       0.096723         2.6320
  55   0.0000       0.101976         2.7749

MULLIKEN ATOMIC CHARGES
-----------------------
   0 C :    0.299299
   1 C :   -0.267367
   2 C :   -0.316247
   3 C :   -0.018593
   4 O :   -0.505307
   5 H :    0.171518
   6 H :    0.157575
   7 H :    0.159309
   8 H :    0.152246
   9 H :    0.154620
  10 H :    0.147698
  11 H :    0.156606
  12 C :   -0.028189
  13 H :    0.154858
  14 H :    0.157894
  15 O :   -0.554686
  16 C :    0.053334
  17 C :    0.119663
  18 C :   -0.301245
  19 C :   -0.024213
  20 O :   -0.523761
  21 H :    0.160302
  22 H :    0.146987
  23 O :   -0.636083
  24 H :    0.151299
  25 H :    0.149720
  26 H :    0.140403
  27 H :    0.149975
  28 H :    0.392384
Sum of atomic charges:   -0.0000000

LOEWDIN ATOMIC CHARGES
----------------------
   0 C :    0.175899
   1 C :   -0.224071
   2 C :   -0.222867
   3 C :   -0.033174
   4 O :   -0.316693
   5 H :    0.115393
   6 H :    0.122263
   7 H :    0.124423
   8 H :    0.119547
   9 H :    0.112864
  10 H :    0.103639
  11 H :    0.109470
  12 C :   -0.051089
  13 H :    0.105949
  14 H :    0.106897
  15 O :   -0.332099
  16 C :    0.020870
  17 C :    0.042349
  18 C :   -0.237430
  19 C :   -0.033533
  20 O :   -0.325497
  21 H :    0.115737
  22 H :    0.105125
  23 O :   -0.431266
  24 H :    0.121509
  25 H :    0.113509
  26 H :    0.100474
  27 H :    0.106294
  28 H :    0.285508

  Mayer bond orders larger than 0.100000
B(  0-C ,  1-C ) :   0.9243 B(  0-C ,  4-O ) :   0.9185 B(  0-C ,  5-H ) :   0.9338
B(  0-C , 15-O ) :   0.8403 B(  1-C ,  2-C ) :   0.9559 B(  1-C ,  6-H ) :   0.9343
B(  1-C ,  7-H ) :   0.9358 B(  2-C ,  3-C ) :   0.9485 B(  2-C ,  8-H ) :   0.9440
B(  2-C ,  9-H ) :   0.9396 B(  3-C ,  4-O ) :   0.8319 B(  3-C , 10-H ) :   0.9320
B(  3-C , 11-H ) :   0.9391 B( 12-C , 13-H ) :   0.9126 B( 12-C , 14-H ) :   0.9158
B( 12-C , 15-O ) :   0.7866 B( 12-C , 16-C ) :   0.9075 B( 16-C , 17-C ) :   0.9136
B( 16-C , 20-O ) :   0.8563 B( 16-C , 21-H ) :   0.9292 B( 17-C , 18-C ) :   0.9003
B( 17-C , 22-H ) :   0.9301 B( 17-C , 23-O ) :   0.9375 B( 18-C , 19-C ) :   0.9386
B( 18-C , 24-H ) :   0.9444 B( 18-C , 25-H ) :   0.9425 B( 19-C , 20-O ) :   0.8304
B( 19-C , 26-H ) :   0.9345 B( 19-C , 27-H ) :   0.9385 B( 23-O , 28-H ) :   0.7252

FINAL SINGLE POINT ENERGY      -652.862955045080

DIPOLE MOMENT
-------------
                                X             Y             Z
Electronic contribution:     -2.97450      -2.84565      -2.33775
Nuclear contribution   :      4.16401       3.99777       2.51331
                        -----------------------------------------
Total Dipole Moment    :      1.18951       1.15212       0.17557
                        -----------------------------------------
Magnitude (a.u.)       :      1.66527
Magnitude (Debye)      :      4.23279

Rotational constants in cm-1:     0.048453     0.015358     0.014267
Rotational constants in MHz :  1452.591000   460.411283   427.725573

                             ****ORCA TERMINATED NORMALLY****
TOTAL RUN TIME: 0 days 1 hours 7 minutes 29 seconds 54 msec
