                         Program Version 4.2.0 -  RELEASE  -
|  1> # Test redundant internal optimization
|  2> #
|  3> ! RKS B3LYP  Opt TightSCF SmallPrint
|  4>
|  5> %basis
|  6>         Basis "6-31G"
|  7> end
|  8>
|  9> %geom
| 10> Constraints
| 11> { D 4  0  15  12  315.0   C } # D for Dihedral angle
| 12> { D 0  15  12  16  210.0   C } # D for Dihedral angle
| 13> { D 0  4  3  2   C } # D for Dihedral angle
| 14> { D 4  3  2  1   C } # D for Dihedral angle
| 15> { D 3  2  1  0   C } # D for Dihedral angle
| 16> { D 2  1  0  4   C } # D for Dihedral angle
| 17> { D 1  0  4  3   C } # D for Dihedral angle
| 18> { D 16  20  19  18   C } # D for Dihedral angle
| 19> { D 20  19  18  17   C } # D for Dihedral angle
| 20> { D 19  18  17  16   C } # D for Dihedral angle
| 21> { D 18  17  16  20   C } # D for Dihedral angle
| 22> { D 17  16  20  19   C } # D for Dihedral angle
| 23> { D 15  12  16  20   C } # D for Dihedral angle
| 24> end
| 25> end
| 26>
| 27>
| 28> #%pal
| 29> #nprocs 8
| 30> #end
| 31>
| 32> * xyz 0 1
| 33> C  -21.048   26.222   46.251
| 34> C  -20.361   27.558   45.944
| 35> C  -20.329   28.222   47.341
| 36> C  -20.110   27.022   48.296
| 37> O  -20.473   25.807   47.535
| 38> H  -20.833   25.428   45.533
| 39> H  -19.344   27.382   45.576
| 40> H  -20.898   28.157   45.201
| 41> H  -19.543   28.978   47.434
| 42> H  -21.289   28.710   47.548
| 43> H  -20.733   27.082   49.195
| 44> H  -19.064   26.913   48.597
| 45> C  -23.319   25.255   47.135
| 46> H  -22.766   24.316   47.001
| 47> H  -23.363   25.476   48.209
| 48> O  -22.586   26.394   46.375
| 49> C  -24.775   25.040   46.636
| 50> C  -25.504   23.991   47.483
| 51> C  -25.890   24.812   48.736
| 52> C  -26.192   26.217   48.156
| 53> O  -25.564   26.262   46.818
| 54> H  -24.758   24.825   45.566
| 55> H  -26.400   23.640   46.959
| 56> O  -24.621   22.758   47.820
| 57> H  -26.746   24.390   49.273
| 58> H  -25.045   24.855   49.433
| 59> H  -25.779   27.023   48.774
| 60> H  -27.262   26.390   48.017
| 61> H  -23.717   23.084   48.347
| 62> *
| 63>
| 64>                          ****END OF INPUT****
 Total Charge           Charge          ....    0
 Multiplicity           Mult            ....    1
 Number of Electrons    NEL             ....  102
FINAL SINGLE POINT ENERGY      -652.830715408853
FINAL SINGLE POINT ENERGY      -652.855345243246
FINAL SINGLE POINT ENERGY      -652.859813901673
FINAL SINGLE POINT ENERGY      -652.860639723400
FINAL SINGLE POINT ENERGY      -652.860776814544
FINAL SINGLE POINT ENERGY      -652.860799054222
FINAL SINGLE POINT ENERGY      -652.860802599716
                    ***********************HURRAY********************

CARTESIAN COORDINATES (ANGSTROEM)
---------------------------------
  C    -21.097751   26.167284   46.283848
  C    -20.523820   27.542486   45.943609
  C    -20.439586   28.199959   47.337587
  C    -20.078847   27.020714   48.267844
  O    -20.419914   25.786068   47.508474
  H    -20.885070   25.364012   45.570073
  H    -19.529730   27.418489   45.499472
  H    -21.162243   28.090847   45.247845
  H    -19.696766   29.002705   47.380382
  H    -21.415485   28.616219   47.603215
  H    -20.640399   27.025396   49.205981
  H    -19.009029   26.963249   48.489451
  C    -23.172477   25.252278   47.209769
  H    -22.643290   24.299994   47.066352
  H    -23.141075   25.501737   48.278299
  O    -22.523932   26.312763   46.452966
  C    -24.603081   25.104539   46.701139
  C    -25.416758   24.038713   47.455888
  C    -25.903394   24.832765   48.705828
  C    -26.135805   26.249723   48.137569
  O    -25.392192   26.323728   46.854486
  H    -24.563437   24.910052   45.625591
  H    -26.268174   23.733064   46.843925
  O    -24.717774   22.804343   47.744577
  H    -26.802499   24.396169   49.148014
  H    -25.114712   24.831456   49.470480
  H    -25.777463   27.040885   48.803938
  H    -27.189614   26.435390   47.907825
  H    -24.047683   22.943973   48.444571

 Multiplicity           Mult            ....    1
 Number of Electrons    NEL             ....  102
 Basis Dimension        Dim             ....  149

ORBITAL ENERGIES
----------------

  NO   OCC          E(Eh)            E(eV)
   0   2.0000     -19.147959      -521.0424
   1   2.0000     -19.142727      -520.9001
   2   2.0000     -19.139703      -520.8178
   3   2.0000     -19.133695      -520.6543
   4   2.0000     -10.276033      -279.6251
   5   2.0000     -10.243258      -278.7332
   6   2.0000     -10.228167      -278.3226
   7   2.0000     -10.227664      -278.3089
   8   2.0000     -10.226897      -278.2880
   9   2.0000     -10.226342      -278.2729
  10   2.0000     -10.193641      -277.3831
  11   2.0000     -10.184247      -277.1274
  12   2.0000     -10.183023      -277.0942
  13   2.0000      -1.053843       -28.6765
  14   2.0000      -1.031464       -28.0676
  15   2.0000      -1.013020       -27.5657
  16   2.0000      -0.990840       -26.9621
  17   2.0000      -0.788788       -21.4640
  18   2.0000      -0.779929       -21.2229
  19   2.0000      -0.765217       -20.8226
  20   2.0000      -0.729309       -19.8455
  21   2.0000      -0.677183       -18.4271
  22   2.0000      -0.609310       -16.5802
  23   2.0000      -0.599328       -16.3085
  24   2.0000      -0.589579       -16.0432
  25   2.0000      -0.571245       -15.5444
  26   2.0000      -0.530167       -14.4266
  27   2.0000      -0.507688       -13.8149
  28   2.0000      -0.495497       -13.4832
  29   2.0000      -0.492451       -13.4003
  30   2.0000      -0.468972       -12.7614
  31   2.0000      -0.452868       -12.3232
  32   2.0000      -0.446260       -12.1433
  33   2.0000      -0.431550       -11.7431
  34   2.0000      -0.425530       -11.5793
  35   2.0000      -0.409320       -11.1382
  36   2.0000      -0.406754       -11.0683
  37   2.0000      -0.400747       -10.9049
  38   2.0000      -0.376600       -10.2478
  39   2.0000      -0.364892        -9.9292
  40   2.0000      -0.357399        -9.7253
  41   2.0000      -0.353535        -9.6202
  42   2.0000      -0.345616        -9.4047
  43   2.0000      -0.338130        -9.2010
  44   2.0000      -0.322470        -8.7749
  45   2.0000      -0.311817        -8.4850
  46   2.0000      -0.298070        -8.1109
  47   2.0000      -0.269369        -7.3299
  48   2.0000      -0.261837        -7.1249
  49   2.0000      -0.255447        -6.9511
  50   2.0000      -0.237410        -6.4603
  51   0.0000       0.053619         1.4590
  52   0.0000       0.075793         2.0624
  53   0.0000       0.090404         2.4600
  54   0.0000       0.098059         2.6683
  55   0.0000       0.105053         2.8586

MULLIKEN ATOMIC CHARGES
-----------------------
   0 C :    0.285668
   1 C :   -0.261563
   2 C :   -0.300032
   3 C :   -0.009164
   4 O :   -0.517547
   5 H :    0.146037
   6 H :    0.143703
   7 H :    0.165644
   8 H :    0.141653
   9 H :    0.165352
  10 H :    0.141099
  11 H :    0.145363
  12 C :   -0.002910
  13 H :    0.141136
  14 H :    0.127538
  15 O :   -0.516260
  16 C :    0.089782
  17 C :    0.082262
  18 C :   -0.323710
  19 C :   -0.011347
  20 O :   -0.504323
  21 H :    0.160439
  22 H :    0.169017
  23 O :   -0.599343
  24 H :    0.155774
  25 H :    0.135913
  26 H :    0.144110
  27 H :    0.148624
  28 H :    0.357086
Sum of atomic charges:    0.0000000

LOEWDIN ATOMIC CHARGES
----------------------
   0 C :    0.173401
   1 C :   -0.214144
   2 C :   -0.216711
   3 C :   -0.030030
   4 O :   -0.332951
   5 H :    0.096098
   6 H :    0.113555
   7 H :    0.128667
   8 H :    0.113959
   9 H :    0.120721
  10 H :    0.101725
  11 H :    0.103837
  12 C :   -0.048866
  13 H :    0.105083
  14 H :    0.093379
  15 O :   -0.318880
  16 C :    0.018867
  17 C :    0.034201
  18 C :   -0.242330
  19 C :   -0.030545
  20 O :   -0.313911
  21 H :    0.118593
  22 H :    0.119954
  23 O :   -0.406659
  24 H :    0.121946
  25 H :    0.104692
  26 H :    0.102620
  27 H :    0.105274
  28 H :    0.278453

  Mayer bond orders larger than 0.100000
B(  0-C ,  1-C ) :   0.9508 B(  0-C ,  4-O ) :   0.8894 B(  0-C ,  5-H ) :   0.9190
B(  0-C , 15-O ) :   0.8669 B(  1-C ,  2-C ) :   0.9543 B(  1-C ,  6-H ) :   0.9391
B(  1-C ,  7-H ) :   0.9345 B(  2-C ,  3-C ) :   0.9561 B(  2-C ,  8-H ) :   0.9449
B(  2-C ,  9-H ) :   0.9437 B(  3-C ,  4-O ) :   0.8361 B(  3-C , 10-H ) :   0.9360
B(  3-C , 11-H ) :   0.9404 B( 12-C , 13-H ) :   0.9035 B( 12-C , 14-H ) :   0.9252
B( 12-C , 15-O ) :   0.8285 B( 12-C , 16-C ) :   0.9038 B( 16-C , 17-C ) :   0.8737
B( 16-C , 20-O ) :   0.8691 B( 16-C , 21-H ) :   0.9292 B( 17-C , 18-C ) :   0.9224
B( 17-C , 22-H ) :   0.9333 B( 17-C , 23-O ) :   0.8974 B( 18-C , 19-C ) :   0.9373
B( 18-C , 24-H ) :   0.9424 B( 18-C , 25-H ) :   0.9411 B( 19-C , 20-O ) :   0.8514
B( 19-C , 26-H ) :   0.9317 B( 19-C , 27-H ) :   0.9380 B( 23-O , 28-H ) :   0.7974

FINAL SINGLE POINT ENERGY      -652.860803076388

DIPOLE MOMENT
-------------
                                X             Y             Z
Electronic contribution:     -1.49510      -3.16551      -2.82621
Nuclear contribution   :      1.78875       3.61027       3.72567
                        -----------------------------------------
Total Dipole Moment    :      0.29364       0.44476       0.89945
                        -----------------------------------------
Magnitude (a.u.)       :      1.04549
Magnitude (Debye)      :      2.65743

Rotational constants in cm-1:     0.051481     0.013080     0.012174
Rotational constants in MHz :  1543.360005   392.139848   364.959387

                             ****ORCA TERMINATED NORMALLY****
TOTAL RUN TIME: 0 days 0 hours 26 minutes 49 seconds 828 msec
