                         Program Version 4.2.0 -  RELEASE  -
|  1> # Test redundant internal optimization
|  2> #
|  3> ! RKS B3LYP  Opt TightSCF SmallPrint
|  4>
|  5> %basis
|  6>         Basis "6-31G"
|  7> end
|  8>
|  9> %geom
| 10> Constraints
| 11> { D 4  0  15  12  270.0   C } # D for Dihedral angle
| 12> { D 0  15  12  16  210.0   C } # D for Dihedral angle
| 13> { D 0  4  3  2   C } # D for Dihedral angle
| 14> { D 4  3  2  1   C } # D for Dihedral angle
| 15> { D 3  2  1  0   C } # D for Dihedral angle
| 16> { D 2  1  0  4   C } # D for Dihedral angle
| 17> { D 1  0  4  3   C } # D for Dihedral angle
| 18> { D 16  20  19  18   C } # D for Dihedral angle
| 19> { D 20  19  18  17   C } # D for Dihedral angle
| 20> { D 19  18  17  16   C } # D for Dihedral angle
| 21> { D 18  17  16  20   C } # D for Dihedral angle
| 22> { D 17  16  20  19   C } # D for Dihedral angle
| 23> { D 15  12  16  20   C } # D for Dihedral angle
| 24> end
| 25> end
| 26>
| 27>
| 28> #%pal
| 29> #nprocs 8
| 30> #end
| 31>
| 32> * xyz 0 1
| 33> C  -21.048   26.222   46.251
| 34> C  -20.361   27.558   45.944
| 35> C  -20.329   28.222   47.341
| 36> C  -20.110   27.022   48.296
| 37> O  -20.473   25.807   47.535
| 38> H  -20.833   25.428   45.533
| 39> H  -19.344   27.382   45.576
| 40> H  -20.898   28.157   45.201
| 41> H  -19.543   28.978   47.434
| 42> H  -21.289   28.710   47.548
| 43> H  -20.733   27.082   49.195
| 44> H  -19.064   26.913   48.597
| 45> C  -23.420   25.119   46.072
| 46> H  -22.879   24.497   45.348
| 47> H  -23.567   24.530   46.987
| 48> O  -22.586   26.394   46.375
| 49> C  -24.822   25.443   45.487
| 50> C  -25.659   24.171   45.310
| 51> C  -26.150   23.915   46.754
| 52> C  -26.357   25.344   47.314
| 53> O  -25.596   26.255   46.432
| 54> H  -24.703   26.036   44.579
| 55> H  -26.506   24.367   44.642
| 56> O  -24.845   22.982   44.731
| 57> H  -27.066   23.316   46.791
| 58> H  -25.379   23.384   47.326
| 59> H  -25.989   25.450   48.341
| 60> H  -27.404   25.660   47.278
| 61> H  -23.992   22.766   45.383
| 62> *
| 63>
| 64>                          ****END OF INPUT****
 Total Charge           Charge          ....    0
 Multiplicity           Mult            ....    1
 Number of Electrons    NEL             ....  102
FINAL SINGLE POINT ENERGY      -652.829550819820
FINAL SINGLE POINT ENERGY      -652.853967035560
FINAL SINGLE POINT ENERGY      -652.858816294568
FINAL SINGLE POINT ENERGY      -652.859659068636
FINAL SINGLE POINT ENERGY      -652.859810492221
FINAL SINGLE POINT ENERGY      -652.859846977127
FINAL SINGLE POINT ENERGY      -652.859854835385
FINAL SINGLE POINT ENERGY      -652.859856548800
                    ***********************HURRAY********************

CARTESIAN COORDINATES (ANGSTROEM)
---------------------------------
  C    -21.050122   26.149159   46.232171
  C    -20.521438   27.552282   45.931281
  C    -20.527273   28.201412   47.335370
  C    -20.156853   27.023641   48.264523
  O    -20.410418   25.789678   47.480339
  H    -20.783553   25.370962   45.509171
  H    -19.501324   27.477637   45.536822
  H    -21.147909   28.078985   45.209013
  H    -19.822452   29.034361   47.418152
  H    -21.531609   28.570010   47.562239
  H    -20.760186   26.992576   49.175306
  H    -19.096022   27.011423   48.533314
  C    -23.245894   25.039291   46.126230
  H    -22.737900   24.410731   45.379131
  H    -23.327963   24.468154   47.061969
  O    -22.481121   26.248208   46.367059
  C    -24.616071   25.433390   45.581999
  C    -25.547264   24.235995   45.325031
  C    -26.144373   23.983989   46.741979
  C    -26.260768   25.411409   47.319437
  O    -25.374117   26.276420   46.501072
  H    -24.461364   26.038334   44.683685
  H    -26.332381   24.532548   44.626052
  O    -24.922035   23.083657   44.707776
  H    -27.103220   23.460700   46.700343
  H    -25.447770   23.369074   47.327928
  H    -25.952164   25.474301   48.367741
  H    -27.274342   25.813693   47.226414
  H    -24.407092   22.577977   45.369451

 Multiplicity           Mult            ....    1
 Number of Electrons    NEL             ....  102
 Basis Dimension        Dim             ....  149

ORBITAL ENERGIES
----------------

  NO   OCC          E(Eh)            E(eV)
   0   2.0000     -19.151092      -521.1277
   1   2.0000     -19.140257      -520.8329
   2   2.0000     -19.135620      -520.7067
   3   2.0000     -19.133533      -520.6499
   4   2.0000     -10.275098      -279.5996
   5   2.0000     -10.245810      -278.8027
   6   2.0000     -10.230000      -278.3724
   7   2.0000     -10.229852      -278.3684
   8   2.0000     -10.229670      -278.3635
   9   2.0000     -10.219566      -278.0885
  10   2.0000     -10.196222      -277.4533
  11   2.0000     -10.179725      -277.0044
  12   2.0000     -10.178878      -276.9813
  13   2.0000      -1.050290       -28.5798
  14   2.0000      -1.033658       -28.1273
  15   2.0000      -1.015053       -27.6210
  16   2.0000      -0.990778       -26.9604
  17   2.0000      -0.785432       -21.3727
  18   2.0000      -0.780681       -21.2434
  19   2.0000      -0.765495       -20.8302
  20   2.0000      -0.726805       -19.7774
  21   2.0000      -0.678254       -18.4562
  22   2.0000      -0.612021       -16.6539
  23   2.0000      -0.593471       -16.1492
  24   2.0000      -0.587613       -15.9898
  25   2.0000      -0.577087       -15.7033
  26   2.0000      -0.530836       -14.4448
  27   2.0000      -0.510433       -13.8896
  28   2.0000      -0.495403       -13.4806
  29   2.0000      -0.487074       -13.2540
  30   2.0000      -0.466902       -12.7050
  31   2.0000      -0.455259       -12.3882
  32   2.0000      -0.440019       -11.9735
  33   2.0000      -0.437672       -11.9097
  34   2.0000      -0.427603       -11.6357
  35   2.0000      -0.414435       -11.2773
  36   2.0000      -0.404985       -11.0202
  37   2.0000      -0.396072       -10.7777
  38   2.0000      -0.377063       -10.2604
  39   2.0000      -0.366589        -9.9754
  40   2.0000      -0.355480        -9.6731
  41   2.0000      -0.350561        -9.5392
  42   2.0000      -0.342462        -9.3189
  43   2.0000      -0.330096        -8.9824
  44   2.0000      -0.318270        -8.6606
  45   2.0000      -0.315724        -8.5913
  46   2.0000      -0.297630        -8.0989
  47   2.0000      -0.272050        -7.4029
  48   2.0000      -0.264674        -7.2022
  49   2.0000      -0.249449        -6.7878
  50   2.0000      -0.237006        -6.4493
  51   0.0000       0.050486         1.3738
  52   0.0000       0.077559         2.1105
  53   0.0000       0.089567         2.4373
  54   0.0000       0.095874         2.6089
  55   0.0000       0.103525         2.8171

MULLIKEN ATOMIC CHARGES
-----------------------
   0 C :    0.280814
   1 C :   -0.256674
   2 C :   -0.299348
   3 C :   -0.000796
   4 O :   -0.512016
   5 H :    0.137000
   6 H :    0.141799
   7 H :    0.155633
   8 H :    0.137875
   9 H :    0.170237
  10 H :    0.147029
  11 H :    0.139114
  12 C :   -0.006233
  13 H :    0.130742
  14 H :    0.133016
  15 O :   -0.508442
  16 C :    0.097462
  17 C :    0.077028
  18 C :   -0.327511
  19 C :   -0.010049
  20 O :   -0.503942
  21 H :    0.157836
  22 H :    0.169783
  23 O :   -0.599264
  24 H :    0.158778
  25 H :    0.135968
  26 H :    0.148322
  27 H :    0.148766
  28 H :    0.357074
Sum of atomic charges:   -0.0000000

LOEWDIN ATOMIC CHARGES
----------------------
   0 C :    0.171244
   1 C :   -0.216429
   2 C :   -0.216119
   3 C :   -0.027227
   4 O :   -0.330650
   5 H :    0.094588
   6 H :    0.112232
   7 H :    0.123385
   8 H :    0.112047
   9 H :    0.123106
  10 H :    0.105442
  11 H :    0.100660
  12 C :   -0.047351
  13 H :    0.098220
  14 H :    0.094947
  15 O :   -0.312904
  16 C :    0.020345
  17 C :    0.033549
  18 C :   -0.242632
  19 C :   -0.029493
  20 O :   -0.312836
  21 H :    0.117311
  22 H :    0.120081
  23 O :   -0.408110
  24 H :    0.122846
  25 H :    0.104891
  26 H :    0.104793
  27 H :    0.105400
  28 H :    0.278664

  Mayer bond orders larger than 0.100000
B(  0-C ,  1-C ) :   0.9480 B(  0-C ,  4-O ) :   0.9130 B(  0-C ,  5-H ) :   0.9169
B(  0-C , 15-O ) :   0.8659 B(  1-C ,  2-C ) :   0.9585 B(  1-C ,  6-H ) :   0.9401
B(  1-C ,  7-H ) :   0.9365 B(  2-C ,  3-C ) :   0.9550 B(  2-C ,  8-H ) :   0.9454
B(  2-C ,  9-H ) :   0.9425 B(  3-C ,  4-O ) :   0.8390 B(  3-C , 10-H ) :   0.9358
B(  3-C , 11-H ) :   0.9403 B( 12-C , 13-H ) :   0.9028 B( 12-C , 14-H ) :   0.9213
B( 12-C , 15-O ) :   0.8412 B( 12-C , 16-C ) :   0.9047 B( 16-C , 17-C ) :   0.8716
B( 16-C , 20-O ) :   0.8737 B( 16-C , 21-H ) :   0.9300 B( 17-C , 18-C ) :   0.9270
B( 17-C , 22-H ) :   0.9323 B( 17-C , 23-O ) :   0.8968 B( 18-C , 19-C ) :   0.9375
B( 18-C , 24-H ) :   0.9411 B( 18-C , 25-H ) :   0.9396 B( 19-C , 20-O ) :   0.8491
B( 19-C , 26-H ) :   0.9311 B( 19-C , 27-H ) :   0.9379 B( 23-O , 28-H ) :   0.7983

FINAL SINGLE POINT ENERGY      -652.859856781061

DIPOLE MOMENT
-------------
                                X             Y             Z
Electronic contribution:     -1.10561      -1.64671      -1.95086
Nuclear contribution   :      1.08606       1.38131       2.29697
                        -----------------------------------------
Total Dipole Moment    :     -0.01955      -0.26540       0.34611
                        -----------------------------------------
Magnitude (a.u.)       :      0.43659
Magnitude (Debye)      :      1.10973

Rotational constants in cm-1:     0.055556     0.012117     0.011330
Rotational constants in MHz :  1665.512415   363.265843   339.672529

                             ****ORCA TERMINATED NORMALLY****
TOTAL RUN TIME: 0 days 1 hours 38 minutes 49 seconds 22 msec
