                         Program Version 4.2.0 -  RELEASE  -
|  1> # Test redundant internal optimization
|  2> #
|  3> ! RKS B3LYP  Opt TightSCF SmallPrint
|  4>
|  5> %basis
|  6>         Basis "6-31G"
|  7> end
|  8>
|  9> %geom
| 10> Constraints
| 11> { D 4  0  15  12  300.0   C } # D for Dihedral angle
| 12> { D 0  15  12  16  315.0   C } # D for Dihedral angle
| 13> { D 0  4  3  2   C } # D for Dihedral angle
| 14> { D 4  3  2  1   C } # D for Dihedral angle
| 15> { D 3  2  1  0   C } # D for Dihedral angle
| 16> { D 2  1  0  4   C } # D for Dihedral angle
| 17> { D 1  0  4  3   C } # D for Dihedral angle
| 18> { D 16  20  19  18   C } # D for Dihedral angle
| 19> { D 20  19  18  17   C } # D for Dihedral angle
| 20> { D 19  18  17  16   C } # D for Dihedral angle
| 21> { D 18  17  16  20   C } # D for Dihedral angle
| 22> { D 17  16  20  19   C } # D for Dihedral angle
| 23> { D 15  12  16  20   C } # D for Dihedral angle
| 24> end
| 25> end
| 26>
| 27>
| 28> #%pal
| 29> #nprocs 8
| 30> #end
| 31>
| 32> * xyz 0 1
| 33> C  -21.048   26.222   46.251
| 34> C  -20.361   27.558   45.944
| 35> C  -20.329   28.222   47.341
| 36> C  -20.110   27.022   48.296
| 37> O  -20.473   25.807   47.535
| 38> H  -20.833   25.428   45.533
| 39> H  -19.344   27.382   45.576
| 40> H  -20.898   28.157   45.201
| 41> H  -19.543   28.978   47.434
| 42> H  -21.289   28.710   47.548
| 43> H  -20.733   27.082   49.195
| 44> H  -19.064   26.913   48.597
| 45> C  -23.362   25.116   46.798
| 46> H  -23.213   24.941   47.871
| 47> H  -24.437   25.242   46.616
| 48> O  -22.586   26.394   46.375
| 49> C  -22.897   23.849   46.027
| 50> C  -23.759   22.634   46.384
| 51> C  -25.022   22.882   45.525
| 52> C  -24.452   23.535   44.242
| 53> O  -23.099   24.024   44.585
| 54> H  -21.826   23.707   46.185
| 55> O  -23.045   21.326   45.945
| 56> H  -23.981   22.563   47.455
| 57> H  -25.579   21.963   45.314
| 58> H  -25.699   23.572   46.042
| 59> H  -25.060   24.378   43.894
| 60> H  -24.338   22.819   43.423
| 61> H  -22.814   21.375   44.875
| 62> *
| 63>
| 64>                          ****END OF INPUT****
 Total Charge           Charge          ....    0
 Multiplicity           Mult            ....    1
 Number of Electrons    NEL             ....  102
FINAL SINGLE POINT ENERGY      -652.836144926930
FINAL SINGLE POINT ENERGY      -652.859988103428
FINAL SINGLE POINT ENERGY      -652.864655401633
FINAL SINGLE POINT ENERGY      -652.865494817916
FINAL SINGLE POINT ENERGY      -652.865617056758
FINAL SINGLE POINT ENERGY      -652.865632145928
                    ***********************HURRAY********************

CARTESIAN COORDINATES (ANGSTROEM)
---------------------------------
  C    -21.030315   26.177350   46.209151
  C    -20.455543   27.572937   45.962302
  C    -20.437700   28.163585   47.390499
  C    -20.105397   26.939634   48.273768
  O    -20.400933   25.744262   47.442032
  H    -20.788956   25.428415   45.452752
  H    -19.441203   27.478051   45.558607
  H    -21.066192   28.148221   45.263701
  H    -19.704387   28.967802   47.505668
  H    -21.427804   28.558468   47.635076
  H    -20.705110   26.893776   49.186626
  H    -19.045021   26.881285   48.537110
  C    -23.228086   25.156656   46.731415
  H    -23.101361   24.979510   47.808685
  H    -24.263341   25.450068   46.540118
  O    -22.455153   26.331958   46.348127
  C    -22.875157   23.865242   45.991372
  C    -23.774090   22.686954   46.394531
  C    -25.034058   22.935761   45.520679
  C    -24.440004   23.521723   44.214087
  O    -23.072086   23.986484   44.543531
  H    -21.824728   23.608843   46.150811
  O    -23.142913   21.416949   46.075819
  H    -23.990238   22.639303   47.462401
  H    -25.582397   22.004118   45.361301
  H    -25.703707   23.650568   46.011419
  H    -25.018763   24.365678   43.827109
  H    -24.344343   22.771788   43.422325
  H    -22.735015   21.475611   45.185981

 Multiplicity           Mult            ....    1
 Number of Electrons    NEL             ....  102
 Basis Dimension        Dim             ....  149

ORBITAL ENERGIES
----------------

  NO   OCC          E(Eh)            E(eV)
   0   2.0000     -19.143587      -520.9235
   1   2.0000     -19.139924      -520.8238
   2   2.0000     -19.139866      -520.8222
   3   2.0000     -19.137542      -520.7590
   4   2.0000     -10.271613      -279.5048
   5   2.0000     -10.244130      -278.7570
   6   2.0000     -10.234113      -278.4844
   7   2.0000     -10.232617      -278.4437
   8   2.0000     -10.228872      -278.3418
   9   2.0000     -10.222952      -278.1807
  10   2.0000     -10.191410      -277.3224
  11   2.0000     -10.181447      -277.0513
  12   2.0000     -10.180145      -277.0158
  13   2.0000      -1.051458       -28.6116
  14   2.0000      -1.036972       -28.2174
  15   2.0000      -1.007288       -27.4097
  16   2.0000      -0.988749       -26.9052
  17   2.0000      -0.789262       -21.4769
  18   2.0000      -0.780670       -21.2431
  19   2.0000      -0.764557       -20.8046
  20   2.0000      -0.731684       -19.9101
  21   2.0000      -0.672264       -18.2932
  22   2.0000      -0.606280       -16.4977
  23   2.0000      -0.605552       -16.4779
  24   2.0000      -0.594559       -16.1788
  25   2.0000      -0.565792       -15.3960
  26   2.0000      -0.527646       -14.3580
  27   2.0000      -0.510080       -13.8800
  28   2.0000      -0.493552       -13.4302
  29   2.0000      -0.484929       -13.1956
  30   2.0000      -0.474281       -12.9058
  31   2.0000      -0.457611       -12.4522
  32   2.0000      -0.449598       -12.2342
  33   2.0000      -0.439321       -11.9545
  34   2.0000      -0.423482       -11.5235
  35   2.0000      -0.403547       -10.9811
  36   2.0000      -0.400730       -10.9044
  37   2.0000      -0.394459       -10.7338
  38   2.0000      -0.378072       -10.2879
  39   2.0000      -0.366669        -9.9776
  40   2.0000      -0.360680        -9.8146
  41   2.0000      -0.352767        -9.5993
  42   2.0000      -0.343892        -9.3578
  43   2.0000      -0.333253        -9.0683
  44   2.0000      -0.326233        -8.8773
  45   2.0000      -0.309949        -8.4341
  46   2.0000      -0.294937        -8.0256
  47   2.0000      -0.275455        -7.4955
  48   2.0000      -0.267121        -7.2687
  49   2.0000      -0.249409        -6.7868
  50   2.0000      -0.241408        -6.5691
  51   0.0000       0.065367         1.7787
  52   0.0000       0.087789         2.3889
  53   0.0000       0.088654         2.4124
  54   0.0000       0.098183         2.6717
  55   0.0000       0.101817         2.7706

MULLIKEN ATOMIC CHARGES
-----------------------
   0 C :    0.276404
   1 C :   -0.260239
   2 C :   -0.298233
   3 C :   -0.003789
   4 O :   -0.521415
   5 H :    0.165157
   6 H :    0.144155
   7 H :    0.160223
   8 H :    0.139426
   9 H :    0.160803
  10 H :    0.143530
  11 H :    0.142889
  12 C :    0.017549
  13 H :    0.140356
  14 H :    0.145764
  15 O :   -0.520466
  16 C :    0.028740
  17 C :    0.077479
  18 C :   -0.299963
  19 C :   -0.029414
  20 O :   -0.522996
  21 H :    0.183955
  22 O :   -0.600955
  23 H :    0.155454
  24 H :    0.164669
  25 H :    0.145782
  26 H :    0.151724
  27 H :    0.147766
  28 H :    0.365643
Sum of atomic charges:   -0.0000000

LOEWDIN ATOMIC CHARGES
----------------------
   0 C :    0.168556
   1 C :   -0.212262
   2 C :   -0.216393
   3 C :   -0.027889
   4 O :   -0.336880
   5 H :    0.104853
   6 H :    0.113429
   7 H :    0.126091
   8 H :    0.112522
   9 H :    0.118429
  10 H :    0.103190
  11 H :    0.102651
  12 C :   -0.040700
  13 H :    0.102985
  14 H :    0.110864
  15 O :   -0.318380
  16 C :   -0.000723
  17 C :    0.038357
  18 C :   -0.241562
  19 C :   -0.037565
  20 O :   -0.331524
  21 H :    0.123583
  22 O :   -0.413398
  23 H :    0.117366
  24 H :    0.127321
  25 H :    0.113358
  26 H :    0.106817
  27 H :    0.103115
  28 H :    0.283790

  Mayer bond orders larger than 0.100000
B(  0-C ,  1-C ) :   0.9493 B(  0-C ,  4-O ) :   0.8864 B(  0-C ,  5-H ) :   0.9105
B(  0-C , 15-O ) :   0.8643 B(  1-C ,  2-C ) :   0.9548 B(  1-C ,  6-H ) :   0.9411
B(  1-C ,  7-H ) :   0.9359 B(  2-C ,  3-C ) :   0.9559 B(  2-C ,  8-H ) :   0.9454
B(  2-C ,  9-H ) :   0.9445 B(  3-C ,  4-O ) :   0.8369 B(  3-C , 10-H ) :   0.9363
B(  3-C , 11-H ) :   0.9406 B( 12-C , 13-H ) :   0.9101 B( 12-C , 14-H ) :   0.9385
B( 12-C , 15-O ) :   0.8514 B( 12-C , 16-C ) :   0.8873 B( 16-C , 17-C ) :   0.8964
B( 16-C , 20-O ) :   0.8461 B( 16-C , 21-H ) :   0.9139 B( 17-C , 18-C ) :   0.9104
B( 17-C , 22-O ) :   0.8955 B( 17-C , 23-H ) :   0.9323 B( 18-C , 19-C ) :   0.9408
B( 18-C , 24-H ) :   0.9372 B( 18-C , 25-H ) :   0.9343 B( 19-C , 20-O ) :   0.8470
B( 19-C , 26-H ) :   0.9338 B( 19-C , 27-H ) :   0.9375 B( 22-O , 28-H ) :   0.7936

FINAL SINGLE POINT ENERGY      -652.865633608474

DIPOLE MOMENT
-------------
                                X             Y             Z
Electronic contribution:      0.72607      -3.49440      -1.14474
Nuclear contribution   :     -1.17466       4.07972       1.10668
                        -----------------------------------------
Total Dipole Moment    :     -0.44860       0.58533      -0.03806
                        -----------------------------------------
Magnitude (a.u.)       :      0.73844
Magnitude (Debye)      :      1.87697

Rotational constants in cm-1:     0.063575     0.012770     0.011919
Rotational constants in MHz :  1905.923769   382.835547   357.315130

                             ****ORCA TERMINATED NORMALLY****
TOTAL RUN TIME: 0 days 1 hours 54 minutes 34 seconds 989 msec
