                         Program Version 4.2.0 -  RELEASE  -
|  1> # Test redundant internal optimization
|  2> #
|  3> ! RKS B3LYP  Opt TightSCF SmallPrint
|  4>
|  5> %basis
|  6>         Basis "6-31G"
|  7> end
|  8>
|  9> %geom
| 10> Constraints
| 11> { D 4  0  15  12  45.0   C } # D for Dihedral angle
| 12> { D 0  15  12  16  150.0   C } # D for Dihedral angle
| 13> { D 0  4  3  2   C } # D for Dihedral angle
| 14> { D 4  3  2  1   C } # D for Dihedral angle
| 15> { D 3  2  1  0   C } # D for Dihedral angle
| 16> { D 2  1  0  4   C } # D for Dihedral angle
| 17> { D 1  0  4  3   C } # D for Dihedral angle
| 18> { D 16  20  19  18   C } # D for Dihedral angle
| 19> { D 20  19  18  17   C } # D for Dihedral angle
| 20> { D 19  18  17  16   C } # D for Dihedral angle
| 21> { D 18  17  16  20   C } # D for Dihedral angle
| 22> { D 17  16  20  19   C } # D for Dihedral angle
| 23> { D 15  12  16  20   C } # D for Dihedral angle
| 24> end
| 25> end
| 26>
| 27>
| 28> #%pal
| 29> #nprocs 8
| 30> #end
| 31>
| 32> * xyz 0 1
| 33> C  -21.048   26.222   46.251
| 34> C  -20.361   27.558   45.944
| 35> C  -20.329   28.222   47.341
| 36> C  -20.110   27.022   48.296
| 37> O  -20.473   25.807   47.535
| 38> H  -20.833   25.428   45.533
| 39> H  -19.344   27.382   45.576
| 40> H  -20.898   28.157   45.201
| 41> H  -19.543   28.978   47.434
| 42> H  -21.289   28.710   47.548
| 43> H  -20.733   27.082   49.195
| 44> H  -19.064   26.913   48.597
| 45> C  -23.065   27.161   47.638
| 46> H  -23.226   26.448   48.455
| 47> H  -22.305   27.885   47.959
| 48> O  -22.586   26.394   46.375
| 49> C  -24.389   27.940   47.401
| 50> C  -24.770   28.776   48.628
| 51> C  -23.840   30.003   48.472
| 52> C  -23.772   30.200   46.937
| 53> O  -24.218   28.928   46.330
| 54> H  -25.161   27.241   47.073
| 55> O  -26.260   29.203   48.540
| 56> H  -24.617   28.246   49.574
| 57> H  -24.218   30.891   48.990
| 58> H  -22.846   29.776   48.877
| 59> H  -22.758   30.427   46.588
| 60> H  -24.451   30.981   46.585
| 61> H  -26.436   29.737   47.599
| 62> *
| 63>
| 64>                          ****END OF INPUT****
 Total Charge           Charge          ....    0
 Multiplicity           Mult            ....    1
 Number of Electrons    NEL             ....  102
FINAL SINGLE POINT ENERGY      -652.809691259494
FINAL SINGLE POINT ENERGY      -652.837523039089
FINAL SINGLE POINT ENERGY      -652.851852914158
FINAL SINGLE POINT ENERGY      -652.854312064091
FINAL SINGLE POINT ENERGY      -652.854724766696
FINAL SINGLE POINT ENERGY      -652.854787619659
FINAL SINGLE POINT ENERGY      -652.854794436827
                    ***********************HURRAY********************

CARTESIAN COORDINATES (ANGSTROEM)
---------------------------------
  C    -21.208641   26.324947   46.381551
  C    -20.346191   27.510973   45.926489
  C    -19.904573   28.129547   47.283643
  C    -19.741981   26.881430   48.187726
  O    -20.487841   25.786787   47.516896
  H    -21.244508   25.525274   45.639448
  H    -19.481781   27.127972   45.373653
  H    -20.905031   28.202920   45.292201
  H    -18.968134   28.690792   47.201096
  H    -20.664807   28.817391   47.663285
  H    -20.142813   27.019218   49.196829
  H    -18.700159   26.555792   48.260932
  C    -23.090870   27.253552   47.800852
  H    -23.327899   26.503386   48.566873
  H    -22.352590   27.943892   48.219369
  O    -22.605899   26.588538   46.606371
  C    -24.357335   28.010003   47.407211
  C    -25.000466   28.815951   48.545400
  C    -24.160355   30.119796   48.521149
  C    -23.862254   30.317373   47.014478
  O    -24.098208   29.006584   46.362148
  H    -25.065596   27.296842   46.975118
  O    -26.403589   29.075596   48.270790
  H    -24.983832   28.310129   49.511902
  H    -24.722831   30.948039   48.959331
  H    -23.237738   29.988319   49.098080
  H    -22.830995   30.631934   46.824391
  H    -24.536535   31.039575   46.543885
  H    -26.509550   29.295446   47.320901

 Multiplicity           Mult            ....    1
 Number of Electrons    NEL             ....  102
 Basis Dimension        Dim             ....  149

ORBITAL ENERGIES
----------------

  NO   OCC          E(Eh)            E(eV)
   0   2.0000     -19.144436      -520.9466
   1   2.0000     -19.144022      -520.9353
   2   2.0000     -19.140740      -520.8460
   3   2.0000     -19.139216      -520.8045
   4   2.0000     -10.276897      -279.6486
   5   2.0000     -10.245792      -278.8022
   6   2.0000     -10.235084      -278.5108
   7   2.0000     -10.234021      -278.4819
   8   2.0000     -10.233850      -278.4772
   9   2.0000     -10.232553      -278.4419
  10   2.0000     -10.194981      -277.4195
  11   2.0000     -10.193602      -277.3820
  12   2.0000     -10.186384      -277.1856
  13   2.0000      -1.052649       -28.6440
  14   2.0000      -1.038085       -28.2477
  15   2.0000      -1.008762       -27.4498
  16   2.0000      -0.993927       -27.0461
  17   2.0000      -0.790483       -21.5101
  18   2.0000      -0.786937       -21.4137
  19   2.0000      -0.773528       -21.0488
  20   2.0000      -0.734234       -19.9795
  21   2.0000      -0.679046       -18.4778
  22   2.0000      -0.607813       -16.5394
  23   2.0000      -0.605532       -16.4774
  24   2.0000      -0.598417       -16.2837
  25   2.0000      -0.579821       -15.7777
  26   2.0000      -0.528201       -14.3731
  27   2.0000      -0.508832       -13.8460
  28   2.0000      -0.502641       -13.6776
  29   2.0000      -0.492319       -13.3967
  30   2.0000      -0.478198       -13.0124
  31   2.0000      -0.462597       -12.5879
  32   2.0000      -0.455113       -12.3843
  33   2.0000      -0.440333       -11.9821
  34   2.0000      -0.422503       -11.4969
  35   2.0000      -0.417680       -11.3656
  36   2.0000      -0.406038       -11.0489
  37   2.0000      -0.397030       -10.8037
  38   2.0000      -0.380099       -10.3430
  39   2.0000      -0.374924       -10.2022
  40   2.0000      -0.363809        -9.8998
  41   2.0000      -0.360227        -9.8023
  42   2.0000      -0.348700        -9.4886
  43   2.0000      -0.335616        -9.1326
  44   2.0000      -0.320754        -8.7282
  45   2.0000      -0.310759        -8.4562
  46   2.0000      -0.306537        -8.3413
  47   2.0000      -0.273458        -7.4412
  48   2.0000      -0.262537        -7.1440
  49   2.0000      -0.253348        -6.8939
  50   2.0000      -0.243514        -6.6264
  51   0.0000       0.047185         1.2840
  52   0.0000       0.075542         2.0556
  53   0.0000       0.085132         2.3166
  54   0.0000       0.098618         2.6835
  55   0.0000       0.101470         2.7611

MULLIKEN ATOMIC CHARGES
-----------------------
   0 C :    0.299756
   1 C :   -0.265882
   2 C :   -0.322361
   3 C :   -0.014120
   4 O :   -0.508843
   5 H :    0.166529
   6 H :    0.150204
   7 H :    0.166028
   8 H :    0.145529
   9 H :    0.149482
  10 H :    0.141331
  11 H :    0.150578
  12 C :    0.006396
  13 H :    0.145107
  14 H :    0.119206
  15 O :   -0.518621
  16 C :    0.064532
  17 C :    0.078417
  18 C :   -0.297609
  19 C :   -0.029515
  20 O :   -0.512189
  21 H :    0.174367
  22 O :   -0.600888
  23 H :    0.151946
  24 H :    0.164570
  25 H :    0.140101
  26 H :    0.140122
  27 H :    0.149111
  28 H :    0.366716
Sum of atomic charges:   -0.0000000

LOEWDIN ATOMIC CHARGES
----------------------
   0 C :    0.178879
   1 C :   -0.226967
   2 C :   -0.225014
   3 C :   -0.035697
   4 O :   -0.322985
   5 H :    0.113248
   6 H :    0.118487
   7 H :    0.127702
   8 H :    0.115741
   9 H :    0.106367
  10 H :    0.100187
  11 H :    0.106532
  12 C :   -0.037621
  13 H :    0.105617
  14 H :    0.091364
  15 O :   -0.315339
  16 C :    0.016518
  17 C :    0.035855
  18 C :   -0.242408
  19 C :   -0.039495
  20 O :   -0.322675
  21 H :    0.122825
  22 O :   -0.413109
  23 H :    0.115544
  24 H :    0.127706
  25 H :    0.110111
  26 H :    0.100202
  27 H :    0.103938
  28 H :    0.284488

  Mayer bond orders larger than 0.100000
B(  0-C ,  1-C ) :   0.9151 B(  0-C ,  4-O ) :   0.8990 B(  0-C ,  5-H ) :   0.9361
B(  0-C , 15-O ) :   0.8909 B(  1-C ,  2-C ) :   0.9551 B(  1-C ,  6-H ) :   0.9349
B(  1-C ,  7-H ) :   0.9335 B(  2-C ,  3-C ) :   0.9473 B(  2-C ,  8-H ) :   0.9444
B(  2-C ,  9-H ) :   0.9386 B(  3-C ,  4-O ) :   0.8451 B(  3-C , 10-H ) :   0.9332
B(  3-C , 11-H ) :   0.9384 B( 12-C , 13-H ) :   0.9160 B( 12-C , 14-H ) :   0.9074
B( 12-C , 15-O ) :   0.8360 B( 12-C , 16-C ) :   0.9010 B( 16-C , 17-C ) :   0.8996
B( 16-C , 20-O ) :   0.8595 B( 16-C , 21-H ) :   0.9218 B( 17-C , 18-C ) :   0.9097
B( 17-C , 22-O ) :   0.8964 B( 17-C , 23-H ) :   0.9329 B( 18-C , 19-C ) :   0.9392
B( 18-C , 24-H ) :   0.9375 B( 18-C , 25-H ) :   0.9343 B( 19-C , 20-O ) :   0.8546
B( 19-C , 26-H ) :   0.9337 B( 19-C , 27-H ) :   0.9371 B( 22-O , 28-H ) :   0.7929

FINAL SINGLE POINT ENERGY      -652.854794190444

DIPOLE MOMENT
-------------
                                X             Y             Z
Electronic contribution:     -4.72431      -4.51297      -2.14740
Nuclear contribution   :      5.75072       5.69820       2.54484
                        -----------------------------------------
Total Dipole Moment    :      1.02641       1.18523       0.39744
                        -----------------------------------------
Magnitude (a.u.)       :      1.61748
Magnitude (Debye)      :      4.11131

Rotational constants in cm-1:     0.054442     0.014105     0.013520
Rotational constants in MHz :  1632.123557   422.842275   405.313183

                             ****ORCA TERMINATED NORMALLY****
TOTAL RUN TIME: 0 days 1 hours 48 minutes 35 seconds 538 msec
