                         Program Version 4.2.0 -  RELEASE  -
|  1> # Test redundant internal optimization
|  2> #
|  3> ! RKS B3LYP  Opt TightSCF SmallPrint
|  4>
|  5> %basis
|  6>         Basis "6-31G"
|  7> end
|  8>
|  9> %geom
| 10> Constraints
| 11> { D 4  0  15  12  225.0   C } # D for Dihedral angle
| 12> { D 0  15  12  16  60.0   C } # D for Dihedral angle
| 13> { D 0  4  3  2   C } # D for Dihedral angle
| 14> { D 4  3  2  1   C } # D for Dihedral angle
| 15> { D 3  2  1  0   C } # D for Dihedral angle
| 16> { D 2  1  0  4   C } # D for Dihedral angle
| 17> { D 1  0  4  3   C } # D for Dihedral angle
| 18> { D 16  20  19  18   C } # D for Dihedral angle
| 19> { D 20  19  18  17   C } # D for Dihedral angle
| 20> { D 19  18  17  16   C } # D for Dihedral angle
| 21> { D 18  17  16  20   C } # D for Dihedral angle
| 22> { D 17  16  20  19   C } # D for Dihedral angle
| 23> { D 15  12  16  20   C } # D for Dihedral angle
| 24> end
| 25> end
| 26>
| 27>
| 28> #%pal
| 29> #nprocs 8
| 30> #end
| 31>
| 32> * xyz 0 1
| 33> C  -21.048   26.222   46.251
| 34> C  -20.361   27.558   45.944
| 35> C  -20.329   28.222   47.341
| 36> C  -20.110   27.022   48.296
| 37> O  -20.473   25.807   47.535
| 38> H  -20.833   25.428   45.533
| 39> H  -19.344   27.382   45.576
| 40> H  -20.898   28.157   45.201
| 41> H  -19.543   28.978   47.434
| 42> H  -21.289   28.710   47.548
| 43> H  -20.733   27.082   49.195
| 44> H  -19.064   26.913   48.597
| 45> C  -23.415   25.773   45.218
| 46> H  -24.482   25.957   45.398
| 47> H  -23.144   26.235   44.260
| 48> O  -22.586   26.394   46.375
| 49> C  -23.201   24.240   45.081
| 50> C  -23.942   23.681   43.861
| 51> C  -22.988   24.074   42.708
| 52> C  -21.585   23.934   43.350
| 53> O  -21.790   23.942   44.814
| 54> H  -23.457   23.757   46.026
| 55> H  -24.027   22.591   43.938
| 56> O  -25.368   24.273   43.690
| 57> H  -23.107   23.439   41.824
| 58> H  -23.172   25.111   42.403
| 59> H  -20.916   24.758   43.077
| 60> H  -21.102   22.987   43.096
| 61> H  -25.308   25.363   43.609
| 62> *
| 63>
| 64>                          ****END OF INPUT****
 Total Charge           Charge          ....    0
 Multiplicity           Mult            ....    1
 Number of Electrons    NEL             ....  102
FINAL SINGLE POINT ENERGY      -652.824368828048
FINAL SINGLE POINT ENERGY      -652.847998693493
FINAL SINGLE POINT ENERGY      -652.852524688142
FINAL SINGLE POINT ENERGY      -652.854908307045
FINAL SINGLE POINT ENERGY      -652.855126536756
FINAL SINGLE POINT ENERGY      -652.855172719767
FINAL SINGLE POINT ENERGY      -652.855163236854
FINAL SINGLE POINT ENERGY      -652.855159422286
                    ***********************HURRAY********************

CARTESIAN COORDINATES (ANGSTROEM)
---------------------------------
  C    -20.904676   26.243589   46.228294
  C    -20.307074   27.632874   46.010702
  C    -20.446117   28.265377   47.416616
  C    -20.212395   27.063811   48.357814
  O    -20.416790   25.852661   47.524525
  H    -20.620049   25.462694   45.527292
  H    -19.251605   27.536724   45.727843
  H    -20.828893   28.197114   45.232848
  H    -19.732863   29.077166   47.588096
  H    -21.459322   28.658628   47.541049
  H    -20.910942   27.034491   49.198171
  H    -19.187049   27.014789   48.737651
  C    -23.201410   25.804203   45.255749
  H    -24.221774   26.029016   45.579137
  H    -23.018009   26.339356   44.306515
  O    -22.362452   26.362366   46.295979
  C    -23.091174   24.291329   45.034008
  C    -23.991701   23.764933   43.900511
  C    -23.102146   24.017473   42.644054
  C    -21.676088   23.757059   43.176869
  O    -21.750171   23.839804   44.660888
  H    -23.303706   23.795988   45.986303
  H    -24.159862   22.695250   44.039912
  O    -25.318329   24.338230   43.840371
  H    -23.369641   23.364181   41.809927
  H    -23.222538   25.057403   42.313481
  H    -20.944987   24.487277   42.815246
  H    -21.319002   22.752498   42.933933
  H    -25.284235   25.253716   43.495219

 Multiplicity           Mult            ....    1
 Number of Electrons    NEL             ....  102
 Basis Dimension        Dim             ....  149

ORBITAL ENERGIES
----------------

  NO   OCC          E(Eh)            E(eV)
   0   2.0000     -19.154362      -521.2167
   1   2.0000     -19.148862      -521.0670
   2   2.0000     -19.131262      -520.5881
   3   2.0000     -19.126590      -520.4610
   4   2.0000     -10.261332      -279.2250
   5   2.0000     -10.250571      -278.9322
   6   2.0000     -10.238605      -278.6066
   7   2.0000     -10.234050      -278.4827
   8   2.0000     -10.233123      -278.4574
   9   2.0000     -10.214071      -277.9390
  10   2.0000     -10.201639      -277.6007
  11   2.0000     -10.176450      -276.9153
  12   2.0000     -10.176210      -276.9087
  13   2.0000      -1.043655       -28.3993
  14   2.0000      -1.035883       -28.1878
  15   2.0000      -1.022640       -27.8275
  16   2.0000      -0.982643       -26.7391
  17   2.0000      -0.789302       -21.4780
  18   2.0000      -0.777980       -21.1699
  19   2.0000      -0.766507       -20.8577
  20   2.0000      -0.726070       -19.7574
  21   2.0000      -0.680268       -18.5110
  22   2.0000      -0.618483       -16.8298
  23   2.0000      -0.596635       -16.2353
  24   2.0000      -0.587622       -15.9900
  25   2.0000      -0.567318       -15.4375
  26   2.0000      -0.533765       -14.5245
  27   2.0000      -0.509716       -13.8701
  28   2.0000      -0.497262       -13.5312
  29   2.0000      -0.479862       -13.0577
  30   2.0000      -0.468627       -12.7520
  31   2.0000      -0.454783       -12.3753
  32   2.0000      -0.441164       -12.0047
  33   2.0000      -0.437243       -11.8980
  34   2.0000      -0.429661       -11.6917
  35   2.0000      -0.421432       -11.4677
  36   2.0000      -0.405841       -11.0435
  37   2.0000      -0.391256       -10.6466
  38   2.0000      -0.386122       -10.5069
  39   2.0000      -0.366908        -9.9841
  40   2.0000      -0.359165        -9.7734
  41   2.0000      -0.347443        -9.4544
  42   2.0000      -0.342604        -9.3227
  43   2.0000      -0.332744        -9.0544
  44   2.0000      -0.322764        -8.7828
  45   2.0000      -0.304313        -8.2808
  46   2.0000      -0.298003        -8.1091
  47   2.0000      -0.277263        -7.5447
  48   2.0000      -0.262100        -7.1321
  49   2.0000      -0.250740        -6.8230
  50   2.0000      -0.228096        -6.2068
  51   0.0000       0.046029         1.2525
  52   0.0000       0.068635         1.8677
  53   0.0000       0.087482         2.3805
  54   0.0000       0.098073         2.6687
  55   0.0000       0.103622         2.8197

MULLIKEN ATOMIC CHARGES
-----------------------
   0 C :    0.263420
   1 C :   -0.253819
   2 C :   -0.297764
   3 C :    0.000064
   4 O :   -0.500001
   5 H :    0.189228
   6 H :    0.138994
   7 H :    0.134875
   8 H :    0.135415
   9 H :    0.159635
  10 H :    0.148771
  11 H :    0.136550
  12 C :   -0.016394
  13 H :    0.160998
  14 H :    0.103512
  15 O :   -0.525951
  16 C :    0.087104
  17 C :    0.082325
  18 C :   -0.318346
  19 C :   -0.014577
  20 O :   -0.512866
  21 H :    0.172194
  22 H :    0.173411
  23 O :   -0.597039
  24 H :    0.161543
  25 H :    0.132072
  26 H :    0.143832
  27 H :    0.154951
  28 H :    0.357865
Sum of atomic charges:   -0.0000000

LOEWDIN ATOMIC CHARGES
----------------------
   0 C :    0.168507
   1 C :   -0.224461
   2 C :   -0.217315
   3 C :   -0.027693
   4 O :   -0.308085
   5 H :    0.121261
   6 H :    0.110014
   7 H :    0.111789
   8 H :    0.110812
   9 H :    0.117967
  10 H :    0.106235
  11 H :    0.099514
  12 C :   -0.047360
  13 H :    0.121262
  14 H :    0.076634
  15 O :   -0.334387
  16 C :    0.007818
  17 C :    0.036515
  18 C :   -0.240128
  19 C :   -0.031334
  20 O :   -0.317150
  21 H :    0.123096
  22 H :    0.121920
  23 O :   -0.404080
  24 H :    0.124426
  25 H :    0.103865
  26 H :    0.102043
  27 H :    0.109099
  28 H :    0.279216

  Mayer bond orders larger than 0.100000
B(  0-C ,  1-C ) :   0.9357 B(  0-C ,  4-O ) :   0.9281 B(  0-C ,  5-H ) :   0.8931
B(  0-C , 15-O ) :   0.8113 B(  1-C ,  2-C ) :   0.9550 B(  1-C ,  6-H ) :   0.9375
B(  1-C ,  7-H ) :   0.9403 B(  2-C ,  3-C ) :   0.9554 B(  2-C ,  8-H ) :   0.9460
B(  2-C ,  9-H ) :   0.9438 B(  3-C ,  4-O ) :   0.8433 B(  3-C , 10-H ) :   0.9349
B(  3-C , 11-H ) :   0.9401 B( 12-C , 13-H ) :   0.9217 B( 12-C , 14-H ) :   0.9204
B( 12-C , 15-O ) :   0.8784 B( 12-C , 16-C ) :   0.8930 B( 16-C , 17-C ) :   0.8662
B( 16-C , 20-O ) :   0.8454 B( 16-C , 21-H ) :   0.9268 B( 17-C , 18-C ) :   0.9231
B( 17-C , 22-H ) :   0.9316 B( 17-C , 23-O ) :   0.9029 B( 18-C , 19-C ) :   0.9389
B( 18-C , 24-H ) :   0.9417 B( 18-C , 25-H ) :   0.9403 B( 19-C , 20-O ) :   0.8388
B( 19-C , 26-H ) :   0.9317 B( 19-C , 27-H ) :   0.9383 B( 23-O , 28-H ) :   0.7971

FINAL SINGLE POINT ENERGY      -652.855159768752

DIPOLE MOMENT
-------------
                                X             Y             Z
Electronic contribution:     -2.17341      -4.03367       1.97196
Nuclear contribution   :      2.31265       4.82379      -3.41947
                        -----------------------------------------
Total Dipole Moment    :      0.13924       0.79012      -1.44752
                        -----------------------------------------
Magnitude (a.u.)       :      1.65499
Magnitude (Debye)      :      4.20664

Rotational constants in cm-1:     0.059542     0.012975     0.012162
Rotational constants in MHz :  1785.011106   388.990716   364.609958

                             ****ORCA TERMINATED NORMALLY****
TOTAL RUN TIME: 0 days 0 hours 25 minutes 56 seconds 220 msec
