                         Program Version 4.2.0 -  RELEASE  -
|  1> # Test redundant internal optimization
|  2> #
|  3> ! RKS B3LYP  Opt TightSCF SmallPrint
|  4>
|  5> %basis
|  6>         Basis "6-31G"
|  7> end
|  8>
|  9> %geom
| 10> Constraints
| 11> { D 4  0  15  12  120.0   C } # D for Dihedral angle
| 12> { D 0  15  12  16  105.0   C } # D for Dihedral angle
| 13> { D 0  4  3  2   C } # D for Dihedral angle
| 14> { D 4  3  2  1   C } # D for Dihedral angle
| 15> { D 3  2  1  0   C } # D for Dihedral angle
| 16> { D 2  1  0  4   C } # D for Dihedral angle
| 17> { D 1  0  4  3   C } # D for Dihedral angle
| 18> { D 16  20  19  18   C } # D for Dihedral angle
| 19> { D 20  19  18  17   C } # D for Dihedral angle
| 20> { D 19  18  17  16   C } # D for Dihedral angle
| 21> { D 18  17  16  20   C } # D for Dihedral angle
| 22> { D 17  16  20  19   C } # D for Dihedral angle
| 23> { D 15  12  16  20   C } # D for Dihedral angle
| 24> end
| 25> end
| 26>
| 27>
| 28> #%pal
| 29> #nprocs 8
| 30> #end
| 31>
| 32> * xyz 0 1
| 33> C  -21.048   26.222   46.251
| 34> C  -20.361   27.558   45.944
| 35> C  -20.329   28.222   47.341
| 36> C  -20.110   27.022   48.296
| 37> O  -20.473   25.807   47.535
| 38> H  -20.833   25.428   45.533
| 39> H  -19.344   27.382   45.576
| 40> H  -20.898   28.157   45.201
| 41> H  -19.543   28.978   47.434
| 42> H  -21.289   28.710   47.548
| 43> H  -20.733   27.082   49.195
| 44> H  -19.064   26.913   48.597
| 45> C  -23.119   27.818   46.058
| 46> H  -23.843   28.114   46.828
| 47> H  -22.297   28.546   46.062
| 48> O  -22.586   26.394   46.375
| 49> C  -23.818   27.903   44.673
| 50> C  -24.227   29.343   44.343
| 51> C  -22.884   29.952   43.875
| 52> C  -22.197   28.769   43.148
| 53> O  -22.882   27.540   43.603
| 54> H  -24.637   27.181   44.640
| 55> H  -24.960   29.349   43.528
| 56> O  -24.839   30.096   45.556
| 57> H  -23.016   30.822   43.224
| 58> H  -22.292   30.269   44.742
| 59> H  -21.129   28.693   43.386
| 60> H  -22.314   28.821   42.062
| 61> H  -24.123   30.104   46.385
| 62> *
| 63>
| 64>                          ****END OF INPUT****
 Total Charge           Charge          ....    0
 Multiplicity           Mult            ....    1
 Number of Electrons    NEL             ....  102
FINAL SINGLE POINT ENERGY      -652.809476481187
FINAL SINGLE POINT ENERGY      -652.835457562044
FINAL SINGLE POINT ENERGY      -652.846373301017
FINAL SINGLE POINT ENERGY      -652.848168657582
FINAL SINGLE POINT ENERGY      -652.848487223086
FINAL SINGLE POINT ENERGY      -652.848564366686
FINAL SINGLE POINT ENERGY      -652.848574547098
FINAL SINGLE POINT ENERGY      -652.848575765785
                    ***********************HURRAY********************

CARTESIAN COORDINATES (ANGSTROEM)
---------------------------------
  C    -21.110112   26.295638   46.318089
  C    -20.134083   27.442493   46.034156
  C    -19.993998   28.105502   47.433456
  C    -20.078839   26.888046   48.387002
  O    -20.682353   25.791631   47.600271
  H    -21.023910   25.456463   45.627398
  H    -19.179216   27.004880   45.725203
  H    -20.465486   28.118526   45.244459
  H    -19.050976   28.650211   47.542700
  H    -20.809903   28.810368   47.624579
  H    -20.697267   27.077830   49.269091
  H    -19.092400   26.542503   48.710033
  C    -23.092932   27.917608   46.101177
  H    -23.872754   28.068294   46.855538
  H    -22.349809   28.717688   46.204995
  O    -22.525090   26.609127   46.347210
  C    -23.727239   27.936846   44.708292
  C    -24.360283   29.274015   44.284706
  C    -23.123923   30.057635   43.752062
  C    -22.269389   28.948222   43.100895
  O    -22.754056   27.654597   43.652877
  H    -24.446128   27.113308   44.667115
  H    -25.075978   29.096230   43.479643
  O    -25.126345   29.953910   45.307201
  H    -23.404791   30.846397   43.048994
  H    -22.598724   30.527920   44.594033
  H    -21.199935   29.054088   43.312989
  H    -22.407391   28.901339   42.016245
  H    -24.534689   30.333682   45.988593

 Multiplicity           Mult            ....    1
 Number of Electrons    NEL             ....  102
 Basis Dimension        Dim             ....  149

ORBITAL ENERGIES
----------------

  NO   OCC          E(Eh)            E(eV)
   0   2.0000     -19.153820      -521.2020
   1   2.0000     -19.145170      -520.9666
   2   2.0000     -19.134810      -520.6846
   3   2.0000     -19.134330      -520.6716
   4   2.0000     -10.275088      -279.5994
   5   2.0000     -10.249519      -278.9036
   6   2.0000     -10.238251      -278.5970
   7   2.0000     -10.235035      -278.5095
   8   2.0000     -10.231414      -278.4109
   9   2.0000     -10.225485      -278.2496
  10   2.0000     -10.201647      -277.6009
  11   2.0000     -10.194287      -277.4007
  12   2.0000     -10.191495      -277.3247
  13   2.0000      -1.047595       -28.5065
  14   2.0000      -1.037238       -28.2247
  15   2.0000      -1.020656       -27.7735
  16   2.0000      -0.989804       -26.9339
  17   2.0000      -0.788732       -21.4625
  18   2.0000      -0.788096       -21.4452
  19   2.0000      -0.773093       -21.0369
  20   2.0000      -0.733031       -19.9468
  21   2.0000      -0.688154       -18.7256
  22   2.0000      -0.617079       -16.7916
  23   2.0000      -0.604335       -16.4448
  24   2.0000      -0.598758       -16.2930
  25   2.0000      -0.570472       -15.5233
  26   2.0000      -0.532100       -14.4792
  27   2.0000      -0.513787       -13.9808
  28   2.0000      -0.506447       -13.7811
  29   2.0000      -0.492002       -13.3881
  30   2.0000      -0.470747       -12.8097
  31   2.0000      -0.461980       -12.5711
  32   2.0000      -0.450278       -12.2527
  33   2.0000      -0.438623       -11.9355
  34   2.0000      -0.429574       -11.6893
  35   2.0000      -0.423096       -11.5130
  36   2.0000      -0.410008       -11.1569
  37   2.0000      -0.402262       -10.9461
  38   2.0000      -0.384053       -10.4506
  39   2.0000      -0.381061       -10.3692
  40   2.0000      -0.361233        -9.8297
  41   2.0000      -0.359355        -9.7785
  42   2.0000      -0.352090        -9.5809
  43   2.0000      -0.336939        -9.1686
  44   2.0000      -0.319950        -8.7063
  45   2.0000      -0.311276        -8.4703
  46   2.0000      -0.287810        -7.8317
  47   2.0000      -0.274595        -7.4721
  48   2.0000      -0.269259        -7.3269
  49   2.0000      -0.254379        -6.9220
  50   2.0000      -0.237197        -6.4545
  51   0.0000       0.042306         1.1512
  52   0.0000       0.059530         1.6199
  53   0.0000       0.083375         2.2687
  54   0.0000       0.091293         2.4842
  55   0.0000       0.100160         2.7255

MULLIKEN ATOMIC CHARGES
-----------------------
   0 C :    0.327548
   1 C :   -0.310994
   2 C :   -0.310564
   3 C :   -0.000682
   4 O :   -0.495535
   5 H :    0.167125
   6 H :    0.156995
   7 H :    0.157018
   8 H :    0.143872
   9 H :    0.143509
  10 H :    0.146693
  11 H :    0.143679
  12 C :   -0.017011
  13 H :    0.154741
  14 H :    0.108688
  15 O :   -0.522500
  16 C :    0.088399
  17 C :    0.080390
  18 C :   -0.317531
  19 C :   -0.025158
  20 O :   -0.509894
  21 H :    0.172750
  22 H :    0.172919
  23 O :   -0.597381
  24 H :    0.160681
  25 H :    0.128673
  26 H :    0.140573
  27 H :    0.158203
  28 H :    0.354793
Sum of atomic charges:   -0.0000000

LOEWDIN ATOMIC CHARGES
----------------------
   0 C :    0.187448
   1 C :   -0.232802
   2 C :   -0.223300
   3 C :   -0.029800
   4 O :   -0.313626
   5 H :    0.112206
   6 H :    0.124252
   7 H :    0.117394
   8 H :    0.114830
   9 H :    0.104837
  10 H :    0.104403
  11 H :    0.103116
  12 C :   -0.047274
  13 H :    0.113853
  14 H :    0.085632
  15 O :   -0.319698
  16 C :    0.010366
  17 C :    0.034064
  18 C :   -0.241358
  19 C :   -0.035387
  20 O :   -0.319190
  21 H :    0.123061
  22 H :    0.121907
  23 O :   -0.405336
  24 H :    0.124227
  25 H :    0.101886
  26 H :    0.097592
  27 H :    0.109376
  28 H :    0.277320

  Mayer bond orders larger than 0.100000
B(  0-C ,  1-C ) :   0.9319 B(  0-C ,  4-O ) :   0.9099 B(  0-C ,  5-H ) :   0.9305
B(  0-C , 15-O ) :   0.8645 B(  1-C ,  2-C ) :   0.9492 B(  1-C ,  6-H ) :   0.9351
B(  1-C ,  7-H ) :   0.9201 B(  2-C ,  3-C ) :   0.9480 B(  2-C ,  8-H ) :   0.9458
B(  2-C ,  9-H ) :   0.9402 B(  3-C ,  4-O ) :   0.8504 B(  3-C , 10-H ) :   0.9343
B(  3-C , 11-H ) :   0.9393 B( 12-C , 13-H ) :   0.9191 B( 12-C , 14-H ) :   0.9078
B( 12-C , 15-O ) :   0.8639 B( 12-C , 16-C ) :   0.8925 B( 16-C , 17-C ) :   0.8678
B( 16-C , 20-O ) :   0.8637 B( 16-C , 21-H ) :   0.9281 B( 17-C , 18-C ) :   0.9228
B( 17-C , 22-H ) :   0.9310 B( 17-C , 23-O ) :   0.8986 B( 18-C , 19-C ) :   0.9409
B( 18-C , 24-H ) :   0.9407 B( 18-C , 25-H ) :   0.9414 B( 19-C , 20-O ) :   0.8504
B( 19-C , 26-H ) :   0.9235 B( 19-C , 27-H ) :   0.9366 B( 23-O , 28-H ) :   0.7992

FINAL SINGLE POINT ENERGY      -652.848564967777

DIPOLE MOMENT
-------------
                                X             Y             Z
Electronic contribution:     -4.30504      -5.23680      -0.11090
Nuclear contribution   :      5.34013       7.10678      -0.10604
                        -----------------------------------------
Total Dipole Moment    :      1.03509       1.86998      -0.21694
                        -----------------------------------------
Magnitude (a.u.)       :      2.14832
Magnitude (Debye)      :      5.46059

Rotational constants in cm-1:     0.050604     0.014480     0.013857
Rotational constants in MHz :  1517.084481   434.101234   415.416423

                             ****ORCA TERMINATED NORMALLY****
TOTAL RUN TIME: 0 days 0 hours 30 minutes 44 seconds 516 msec
