                         Program Version 4.2.0 -  RELEASE  -
|  1> # Test redundant internal optimization
|  2> #
|  3> ! RKS B3LYP  Opt TightSCF SmallPrint
|  4>
|  5> %basis
|  6>         Basis "6-31G"
|  7> end
|  8>
|  9> %geom
| 10> Constraints
| 11> { D 4  0  15  12  270.0   C } # D for Dihedral angle
| 12> { D 0  15  12  16  285.0   C } # D for Dihedral angle
| 13> { D 0  4  3  2   C } # D for Dihedral angle
| 14> { D 4  3  2  1   C } # D for Dihedral angle
| 15> { D 3  2  1  0   C } # D for Dihedral angle
| 16> { D 2  1  0  4   C } # D for Dihedral angle
| 17> { D 1  0  4  3   C } # D for Dihedral angle
| 18> { D 16  20  19  18   C } # D for Dihedral angle
| 19> { D 20  19  18  17   C } # D for Dihedral angle
| 20> { D 19  18  17  16   C } # D for Dihedral angle
| 21> { D 18  17  16  20   C } # D for Dihedral angle
| 22> { D 17  16  20  19   C } # D for Dihedral angle
| 23> { D 15  12  16  20   C } # D for Dihedral angle
| 24> end
| 25> end
| 26>
| 27>
| 28> #%pal
| 29> #nprocs 8
| 30> #end
| 31>
| 32> * xyz 0 1
| 33> C  -21.048   26.222   46.251
| 34> C  -20.361   27.558   45.944
| 35> C  -20.329   28.222   47.341
| 36> C  -20.110   27.022   48.296
| 37> O  -20.473   25.807   47.535
| 38> H  -20.833   25.428   45.533
| 39> H  -19.344   27.382   45.576
| 40> H  -20.898   28.157   45.201
| 41> H  -19.543   28.978   47.434
| 42> H  -21.289   28.710   47.548
| 43> H  -20.733   27.082   49.195
| 44> H  -19.064   26.913   48.597
| 45> C  -23.420   25.119   46.072
| 46> H  -22.967   24.260   46.584
| 47> H  -24.447   25.235   46.442
| 48> O  -22.586   26.394   46.375
| 49> C  -23.497   24.798   44.554
| 50> C  -24.420   23.605   44.283
| 51> C  -25.817   24.262   44.373
| 52> C  -25.580   25.675   43.782
| 53> O  -24.120   25.909   43.827
| 54> H  -22.485   24.685   44.160
| 55> O  -24.166   23.047   42.856
| 56> H  -24.288   22.788   45.001
| 57> H  -26.585   23.705   43.826
| 58> H  -26.135   24.331   45.420
| 59> H  -26.086   26.460   44.354
| 60> H  -25.886   25.746   42.734
| 61> H  -24.293   23.849   42.120
| 62> *
| 63>
| 64>                          ****END OF INPUT****
 Total Charge           Charge          ....    0
 Multiplicity           Mult            ....    1
 Number of Electrons    NEL             ....  102
FINAL SINGLE POINT ENERGY      -652.834641338380
FINAL SINGLE POINT ENERGY      -652.858240902977
FINAL SINGLE POINT ENERGY      -652.862496430392
FINAL SINGLE POINT ENERGY      -652.863287824545
FINAL SINGLE POINT ENERGY      -652.863403491560
FINAL SINGLE POINT ENERGY      -652.863414508166
                    ***********************HURRAY********************

CARTESIAN COORDINATES (ANGSTROEM)
---------------------------------
  C    -21.072464   26.159555   46.188146
  C    -20.469787   27.537200   45.911830
  C    -20.447598   28.162010   47.325579
  C    -20.143488   26.952564   48.237875
  O    -20.458067   25.745613   47.432837
  H    -20.838826   25.382490   45.456069
  H    -19.453103   27.416635   45.519982
  H    -21.065947   28.105071   45.195157
  H    -19.700337   28.955438   47.424312
  H    -21.431627   28.580468   47.555933
  H    -20.750748   26.938574   49.146485
  H    -19.085837   26.880036   48.509244
  C    -23.332266   25.172795   46.082841
  H    -22.933489   24.299501   46.620629
  H    -24.301419   25.431605   46.516578
  O    -22.498305   26.336853   46.336576
  C    -23.475128   24.842617   44.594962
  C    -24.405169   23.650946   44.322979
  C    -25.803330   24.320916   44.381520
  C    -25.542786   25.724047   43.776341
  O    -24.078733   25.947473   43.843346
  H    -22.491529   24.669075   44.147692
  O    -24.138634   23.073448   43.014843
  H    -24.289727   22.826587   45.028109
  H    -26.533864   23.738930   43.814661
  H    -26.148957   24.391000   45.419054
  H    -26.050009   26.522658   44.325603
  H    -25.831755   25.787296   42.722697
  H    -24.030070   23.797596   42.362120

 Multiplicity           Mult            ....    1
 Number of Electrons    NEL             ....  102
 Basis Dimension        Dim             ....  149

ORBITAL ENERGIES
----------------

  NO   OCC          E(Eh)            E(eV)
   0   2.0000     -19.143563      -520.9228
   1   2.0000     -19.141981      -520.8798
   2   2.0000     -19.140976      -520.8524
   3   2.0000     -19.134100      -520.6653
   4   2.0000     -10.274710      -279.5891
   5   2.0000     -10.246271      -278.8152
   6   2.0000     -10.237018      -278.5634
   7   2.0000     -10.233061      -278.4557
   8   2.0000     -10.231837      -278.4224
   9   2.0000     -10.220291      -278.1082
  10   2.0000     -10.192983      -277.3652
  11   2.0000     -10.180002      -277.0119
  12   2.0000     -10.179304      -276.9930
  13   2.0000      -1.050622       -28.5889
  14   2.0000      -1.038088       -28.2478
  15   2.0000      -1.008641       -27.4465
  16   2.0000      -0.990146       -26.9432
  17   2.0000      -0.789227       -21.4760
  18   2.0000      -0.780617       -21.2417
  19   2.0000      -0.766443       -20.8560
  20   2.0000      -0.730498       -19.8779
  21   2.0000      -0.673711       -18.3326
  22   2.0000      -0.607751       -16.5377
  23   2.0000      -0.604640       -16.4531
  24   2.0000      -0.592679       -16.1276
  25   2.0000      -0.572214       -15.5707
  26   2.0000      -0.529774       -14.4159
  27   2.0000      -0.511928       -13.9303
  28   2.0000      -0.491704       -13.3799
  29   2.0000      -0.489544       -13.3212
  30   2.0000      -0.472986       -12.8706
  31   2.0000      -0.454840       -12.3768
  32   2.0000      -0.453495       -12.3402
  33   2.0000      -0.437493       -11.9048
  34   2.0000      -0.428815       -11.6686
  35   2.0000      -0.409370       -11.1395
  36   2.0000      -0.398232       -10.8364
  37   2.0000      -0.395069       -10.7504
  38   2.0000      -0.375564       -10.2196
  39   2.0000      -0.369126       -10.0444
  40   2.0000      -0.359065        -9.7707
  41   2.0000      -0.351312        -9.5597
  42   2.0000      -0.345256        -9.3949
  43   2.0000      -0.334800        -9.1104
  44   2.0000      -0.321649        -8.7525
  45   2.0000      -0.310018        -8.4360
  46   2.0000      -0.298403        -8.1200
  47   2.0000      -0.275506        -7.4969
  48   2.0000      -0.270636        -7.3644
  49   2.0000      -0.249086        -6.7780
  50   2.0000      -0.239232        -6.5098
  51   0.0000       0.064074         1.7435
  52   0.0000       0.087754         2.3879
  53   0.0000       0.089106         2.4247
  54   0.0000       0.093177         2.5355
  55   0.0000       0.101003         2.7484

MULLIKEN ATOMIC CHARGES
-----------------------
   0 C :    0.278996
   1 C :   -0.256201
   2 C :   -0.299961
   3 C :   -0.000771
   4 O :   -0.512713
   5 H :    0.139960
   6 H :    0.141686
   7 H :    0.163948
   8 H :    0.139137
   9 H :    0.164138
  10 H :    0.146196
  11 H :    0.139860
  12 C :   -0.014173
  13 H :    0.142530
  14 H :    0.151473
  15 O :   -0.503077
  16 C :    0.053806
  17 C :    0.077432
  18 C :   -0.302892
  19 C :   -0.026907
  20 O :   -0.512865
  21 H :    0.161241
  22 O :   -0.600341
  23 H :    0.155364
  24 H :    0.165314
  25 H :    0.146812
  26 H :    0.151321
  27 H :    0.145725
  28 H :    0.364959
Sum of atomic charges:    0.0000000

LOEWDIN ATOMIC CHARGES
----------------------
   0 C :    0.170789
   1 C :   -0.215136
   2 C :   -0.216271
   3 C :   -0.027127
   4 O :   -0.329749
   5 H :    0.095910
   6 H :    0.112192
   7 H :    0.127365
   8 H :    0.112481
   9 H :    0.120017
  10 H :    0.105020
  11 H :    0.101238
  12 C :   -0.043264
  13 H :    0.103834
  14 H :    0.113890
  15 O :   -0.315040
  16 C :    0.003146
  17 C :    0.035439
  18 C :   -0.242273
  19 C :   -0.037230
  20 O :   -0.325620
  21 H :    0.112610
  22 O :   -0.413696
  23 H :    0.117021
  24 H :    0.127785
  25 H :    0.114066
  26 H :    0.106815
  27 H :    0.102440
  28 H :    0.283349

  Mayer bond orders larger than 0.100000
B(  0-C ,  1-C ) :   0.9486 B(  0-C ,  4-O ) :   0.9085 B(  0-C ,  5-H ) :   0.9152
B(  0-C , 15-O ) :   0.8585 B(  1-C ,  2-C ) :   0.9573 B(  1-C ,  6-H ) :   0.9404
B(  1-C ,  7-H ) :   0.9347 B(  2-C ,  3-C ) :   0.9549 B(  2-C ,  8-H ) :   0.9454
B(  2-C ,  9-H ) :   0.9439 B(  3-C ,  4-O ) :   0.8392 B(  3-C , 10-H ) :   0.9358
B(  3-C , 11-H ) :   0.9403 B( 12-C , 13-H ) :   0.9107 B( 12-C , 14-H ) :   0.9400
B( 12-C , 15-O ) :   0.8624 B( 12-C , 16-C ) :   0.8790 B( 16-C , 17-C ) :   0.8970
B( 16-C , 20-O ) :   0.8627 B( 16-C , 21-H ) :   0.9201 B( 17-C , 18-C ) :   0.9126
B( 17-C , 22-O ) :   0.8934 B( 17-C , 23-H ) :   0.9319 B( 18-C , 19-C ) :   0.9411
B( 18-C , 24-H ) :   0.9373 B( 18-C , 25-H ) :   0.9333 B( 19-C , 20-O ) :   0.8483
B( 19-C , 26-H ) :   0.9338 B( 19-C , 27-H ) :   0.9380 B( 22-O , 28-H ) :   0.7940

FINAL SINGLE POINT ENERGY      -652.863417145510

DIPOLE MOMENT
-------------
                                X             Y             Z
Electronic contribution:      0.21876      -2.68000      -1.88512
Nuclear contribution   :     -0.63944       3.13579       1.97916
                        -----------------------------------------
Total Dipole Moment    :     -0.42067       0.45579       0.09404
                        -----------------------------------------
Magnitude (a.u.)       :      0.62734
Magnitude (Debye)      :      1.59457

Rotational constants in cm-1:     0.066625     0.011572     0.011113
Rotational constants in MHz :  1997.359904   346.917581   333.154543

                             ****ORCA TERMINATED NORMALLY****
TOTAL RUN TIME: 0 days 0 hours 22 minutes 44 seconds 358 msec
