                         Program Version 4.2.1 -  RELEASE  -
|  1> # Test redundant internal optimization
|  2> #
|  3> ! RKS B3LYP  Opt TightSCF SmallPrint
|  4>
|  5> %basis
|  6>         Basis "6-31G"
|  7> end
|  8>
|  9> %geom
| 10> Constraints
| 11> { D 4  0  19  14  300.0   C } # D for Dihedral angle
| 12> { D 0  19  14  12  210.0   C } # D for Dihedral angle
| 13> { D 0  4  3  2   C } # D for Dihedral angle
| 14> { D 4  3  2  1   C } # D for Dihedral angle
| 15> { D 3  2  1  0   C } # D for Dihedral angle
| 16> { D 2  1  0  4   C } # D for Dihedral angle
| 17> { D 1  0  4  3   C } # D for Dihedral angle
| 18> { D 14  15  16  17   C } # D for Dihedral angle
| 19> { D 15  16  17  12   C } # D for Dihedral angle
| 20> { D 16  17  12  14   C } # D for Dihedral angle
| 21> { D 17  12  14  15   C } # D for Dihedral angle
| 22> { D 12  14  15  16   C } # D for Dihedral angle
| 23> end
| 24> end
| 25>
| 26>
| 27> #%pal
| 28> #nprocs 8
| 29> #end
| 30>
| 31> * xyz 0 1
| 32> C  -21.048   26.222   46.251
| 33> C  -20.361   27.558   45.944
| 34> C  -20.329   28.222   47.341
| 35> C  -20.110   27.022   48.296
| 36> O  -20.473   25.807   47.535
| 37> H  -20.833   25.428   45.533
| 38> H  -19.344   27.382   45.576
| 39> H  -20.898   28.157   45.201
| 40> H  -19.543   28.978   47.434
| 41> H  -21.289   28.710   47.548
| 42> H  -20.733   27.082   49.195
| 43> H  -19.064   26.913   48.597
| 44> C  -24.585   25.190   46.164
| 45> H  -25.232   24.456   46.670
| 46> C  -23.171   25.189   46.758
| 47> C  -22.549   23.944   46.084
| 48> C  -23.191   23.947   44.675
| 49> O  -24.387   24.815   44.760
| 50> H  -25.077   26.164   46.168
| 51> O  -22.472   26.381   46.366
| 52> H  -23.165   25.128   47.852
| 53> H  -21.456   23.984   46.045
| 54> H  -22.830   23.037   46.634
| 55> H  -23.496   22.947   44.349
| 56> H  -22.532   24.381   43.916
| 57> *
| 58>
| 59>                          ****END OF INPUT****
 Total Charge           Charge          ....    0
 Multiplicity           Mult            ....    1
 Number of Electrons    NEL             ....   86
FINAL SINGLE POINT ENERGY      -538.426794029451
FINAL SINGLE POINT ENERGY      -538.434182275695
FINAL SINGLE POINT ENERGY      -538.435539798800
FINAL SINGLE POINT ENERGY      -538.435862753661
FINAL SINGLE POINT ENERGY      -538.435879252374
FINAL SINGLE POINT ENERGY      -538.435885281138
                    ***********************HURRAY********************

CARTESIAN COORDINATES (ANGSTROEM)
---------------------------------
  C    -20.939052   26.237182   46.218766
  C    -20.420431   27.654649   45.969864
  C    -20.415542   28.243868   47.399045
  C    -20.029832   27.032535   48.278251
  O    -20.284365   25.827169   47.447308
  H    -20.659594   25.498811   45.463683
  H    -19.405591   27.599700   45.559955
  H    -21.057879   28.207176   45.276858
  H    -19.713229   29.075759   47.509392
  H    -21.418339   28.600035   47.650820
  H    -20.621390   26.962787   49.194949
  H    -18.966314   27.015643   48.534914
  C    -24.506085   25.291018   46.096042
  H    -25.248227   24.661006   46.607877
  C    -23.127865   25.136158   46.738437
  C    -22.644866   23.813818   46.118444
  C    -23.231988   23.849925   44.687834
  O    -24.314006   24.857554   44.709128
  H    -24.845128   26.327221   46.074489
  O    -22.365126   26.331143   46.357621
  H    -23.162425   25.084985   47.831966
  H    -21.560930   23.684766   46.149877
  H    -23.083582   22.992333   46.696651
  H    -23.644062   22.882360   44.380111
  H    -22.502154   24.176400   43.939719

 Multiplicity           Mult            ....    1
 Number of Electrons    NEL             ....   86
 Basis Dimension        Dim             ....  127

ORBITAL ENERGIES
----------------

  NO   OCC          E(Eh)            E(eV)
   0   2.0000     -19.141379      -520.8634
   1   2.0000     -19.139740      -520.8188
   2   2.0000     -19.127054      -520.4736
   3   2.0000     -10.277055      -279.6529
   4   2.0000     -10.237785      -278.5843
   5   2.0000     -10.225289      -278.2442
   6   2.0000     -10.221830      -278.1501
   7   2.0000     -10.219350      -278.0827
   8   2.0000     -10.186760      -277.1958
   9   2.0000     -10.183885      -277.1176
  10   2.0000     -10.183380      -277.1039
  11   2.0000      -1.053343       -28.6629
  12   2.0000      -1.012551       -27.5529
  13   2.0000      -0.987375       -26.8678
  14   2.0000      -0.792278       -21.5590
  15   2.0000      -0.774590       -21.0777
  16   2.0000      -0.744755       -20.2658
  17   2.0000      -0.717941       -19.5362
  18   2.0000      -0.613688       -16.6993
  19   2.0000      -0.601524       -16.3683
  20   2.0000      -0.593180       -16.1412
  21   2.0000      -0.563259       -15.3271
  22   2.0000      -0.527122       -14.3437
  23   2.0000      -0.495813       -13.4918
  24   2.0000      -0.488063       -13.2809
  25   2.0000      -0.477114       -12.9829
  26   2.0000      -0.455808       -12.4032
  27   2.0000      -0.439307       -11.9542
  28   2.0000      -0.421757       -11.4766
  29   2.0000      -0.416544       -11.3347
  30   2.0000      -0.403360       -10.9760
  31   2.0000      -0.389641       -10.6027
  32   2.0000      -0.370238       -10.0747
  33   2.0000      -0.362209        -9.8562
  34   2.0000      -0.358868        -9.7653
  35   2.0000      -0.355086        -9.6624
  36   2.0000      -0.342854        -9.3295
  37   2.0000      -0.327788        -8.9196
  38   2.0000      -0.302904        -8.2424
  39   2.0000      -0.293814        -7.9951
  40   2.0000      -0.265769        -7.2319
  41   2.0000      -0.251274        -6.8375
  42   2.0000      -0.234648        -6.3851
  43   0.0000       0.076889         2.0922
  44   0.0000       0.099496         2.7074
  45   0.0000       0.102404         2.7866
  46   0.0000       0.109634         2.9833
  47   0.0000       0.117733         3.2037

MULLIKEN ATOMIC CHARGES
-----------------------
   0 C :    0.290242
   1 C :   -0.260532
   2 C :   -0.296812
   3 C :   -0.005053
   4 O :   -0.520779
   5 H :    0.143258
   6 H :    0.143506
   7 H :    0.162632
   8 H :    0.140174
   9 H :    0.161270
  10 H :    0.144149
  11 H :    0.143100
  12 C :    0.000214
  13 H :    0.123026
  14 C :    0.093222
  15 C :   -0.332196
  16 C :    0.002798
  17 O :   -0.520130
  18 H :    0.167315
  19 O :   -0.525589
  20 H :    0.143797
  21 H :    0.172768
  22 H :    0.148761
  23 H :    0.136121
  24 H :    0.144738
Sum of atomic charges:    0.0000000

LOEWDIN ATOMIC CHARGES
----------------------
   0 C :    0.170845
   1 C :   -0.212684
   2 C :   -0.215682
   3 C :   -0.028248
   4 O :   -0.337083
   5 H :    0.094925
   6 H :    0.113064
   7 H :    0.127129
   8 H :    0.113085
   9 H :    0.118753
  10 H :    0.103496
  11 H :    0.102694
  12 C :   -0.034737
  13 H :    0.090342
  14 C :    0.042405
  15 C :   -0.240689
  16 C :   -0.030501
  17 O :   -0.330284
  18 H :    0.122821
  19 O :   -0.322096
  20 H :    0.104424
  21 H :    0.128313
  22 H :    0.119087
  23 H :    0.098933
  24 H :    0.101689

  Mayer bond orders larger than 0.100000
B(  0-C ,  1-C ) :   0.9488 B(  0-C ,  4-O ) :   0.8893 B(  0-C ,  5-H ) :   0.9151
B(  0-C , 19-O ) :   0.8671 B(  1-C ,  2-C ) :   0.9558 B(  1-C ,  6-H ) :   0.9407
B(  1-C ,  7-H ) :   0.9352 B(  2-C ,  3-C ) :   0.9553 B(  2-C ,  8-H ) :   0.9452
B(  2-C ,  9-H ) :   0.9444 B(  3-C ,  4-O ) :   0.8374 B(  3-C , 10-H ) :   0.9361
B(  3-C , 11-H ) :   0.9404 B( 12-C , 13-H ) :   0.9153 B( 12-C , 14-C ) :   0.9301
B( 12-C , 17-O ) :   0.8679 B( 12-C , 18-H ) :   0.9301 B( 14-C , 15-C ) :   0.9387
B( 14-C , 19-O ) :   0.8246 B( 14-C , 20-H ) :   0.9244 B( 15-C , 16-C ) :   0.9394
B( 15-C , 21-H ) :   0.9263 B( 15-C , 22-H ) :   0.9366 B( 16-C , 17-O ) :   0.8611
B( 16-C , 23-H ) :   0.9330 B( 16-C , 24-H ) :   0.9357

FINAL SINGLE POINT ENERGY      -538.435885523645

DIPOLE MOMENT
-------------
                                X             Y             Z
Electronic contribution:     -1.81941      -0.93171      -1.08207
Nuclear contribution   :      2.38853       0.98687       1.68315
                        -----------------------------------------
Total Dipole Moment    :      0.56912       0.05516       0.60108
                        -----------------------------------------
Magnitude (a.u.)       :      0.82960
Magnitude (Debye)      :      2.10868

Rotational constants in cm-1:     0.085255     0.020938     0.020168
Rotational constants in MHz :  2555.880070   627.717993   604.634625

                             ****ORCA TERMINATED NORMALLY****
TOTAL RUN TIME: 0 days 0 hours 16 minutes 19 seconds 204 msec
