                         Program Version 4.2.0 -  RELEASE  -
|  1> # Test redundant internal optimization
|  2> #
|  3> ! RKS B3LYP  Opt TightSCF SmallPrint
|  4>
|  5> %basis
|  6>         Basis "6-31G"
|  7> end
|  8>
|  9> %geom
| 10> Constraints
| 11> { D 4  0  15  12  180.0   C } # D for Dihedral angle
| 12> { D 0  15  12  16  195.0   C } # D for Dihedral angle
| 13> { D 0  4  3  2   C } # D for Dihedral angle
| 14> { D 4  3  2  1   C } # D for Dihedral angle
| 15> { D 3  2  1  0   C } # D for Dihedral angle
| 16> { D 2  1  0  4   C } # D for Dihedral angle
| 17> { D 1  0  4  3   C } # D for Dihedral angle
| 18> { D 16  20  19  18   C } # D for Dihedral angle
| 19> { D 20  19  18  17   C } # D for Dihedral angle
| 20> { D 19  18  17  16   C } # D for Dihedral angle
| 21> { D 18  17  16  20   C } # D for Dihedral angle
| 22> { D 17  16  20  19   C } # D for Dihedral angle
| 23> { D 15  12  16  20   C } # D for Dihedral angle
| 24> end
| 25> end
| 26>
| 27>
| 28> #%pal
| 29> #nprocs 8
| 30> #end
| 31>
| 32> * xyz 0 1
| 33> C  -21.048   26.222   46.251
| 34> C  -20.361   27.558   45.944
| 35> C  -20.329   28.222   47.341
| 36> C  -20.110   27.022   48.296
| 37> O  -20.473   25.807   47.535
| 38> H  -20.833   25.428   45.533
| 39> H  -19.344   27.382   45.576
| 40> H  -20.898   28.157   45.201
| 41> H  -19.543   28.978   47.434
| 42> H  -21.289   28.710   47.548
| 43> H  -20.733   27.082   49.195
| 44> H  -19.064   26.913   48.597
| 45> C  -23.309   26.834   45.072
| 46> H  -22.737   27.640   44.596
| 47> H  -23.372   25.995   44.367
| 48> O  -22.586   26.394   46.375
| 49> C  -24.753   27.345   45.330
| 50> C  -24.748   28.624   46.174
| 51> C  -24.393   29.696   45.116
| 52> C  -25.099   29.177   43.838
| 53> O  -25.387   27.746   44.069
| 54> H  -25.352   26.532   45.744
| 55> H  -25.747   28.805   46.587
| 56> O  -23.734   28.577   47.349
| 57> H  -24.727   30.699   45.400
| 58> H  -23.306   29.734   44.970
| 59> H  -24.474   29.278   42.944
| 60> H  -26.055   29.675   43.659
| 61> H  -22.727   28.396   46.958
| 62> *
| 63>
| 64>                          ****END OF INPUT****
 Total Charge           Charge          ....    0
 Multiplicity           Mult            ....    1
 Number of Electrons    NEL             ....  102
FINAL SINGLE POINT ENERGY      -652.820360894855
FINAL SINGLE POINT ENERGY      -652.846304791946
FINAL SINGLE POINT ENERGY      -652.854177302901
FINAL SINGLE POINT ENERGY      -652.857976603225
FINAL SINGLE POINT ENERGY      -652.860604673681
FINAL SINGLE POINT ENERGY      -652.862671772762
FINAL SINGLE POINT ENERGY      -652.864025350303
FINAL SINGLE POINT ENERGY      -652.864820122504
FINAL SINGLE POINT ENERGY      -652.864976169381
FINAL SINGLE POINT ENERGY      -652.864997667131
FINAL SINGLE POINT ENERGY      -652.865003270629
                    ***********************HURRAY********************

CARTESIAN COORDINATES (ANGSTROEM)
---------------------------------
  C    -21.087016   26.246685   46.208855
  C    -20.287758   27.507380   45.882477
  C    -20.324740   28.271912   47.231280
  C    -20.271558   27.133921   48.270132
  O    -20.662473   25.899865   47.527597
  H    -20.894208   25.389553   45.556967
  H    -19.265294   27.208580   45.625493
  H    -20.685827   28.093199   45.050120
  H    -19.484903   28.965303   47.335747
  H    -21.253953   28.842090   47.314354
  H    -20.965628   27.270642   49.102962
  H    -19.266361   26.952149   48.659441
  C    -23.211244   26.831052   45.012105
  H    -22.638009   27.597864   44.477176
  H    -23.307195   25.953999   44.360568
  O    -22.542413   26.460772   46.263184
  C    -24.606079   27.363044   45.364478
  C    -24.638869   28.637159   46.223086
  C    -24.371543   29.740956   45.159835
  C    -25.088249   29.199458   43.905034
  O    -25.296737   27.740354   44.134135
  H    -25.188281   26.555178   45.817251
  H    -25.652125   28.756770   46.625596
  O    -23.705471   28.669533   47.325045
  H    -24.752500   30.714998   45.477016
  H    -23.290381   29.836399   45.012342
  H    -24.510366   29.332730   42.985186
  H    -26.080404   29.637075   43.763905
  H    -23.201415   27.819380   47.327634

 Multiplicity           Mult            ....    1
 Number of Electrons    NEL             ....  102
 Basis Dimension        Dim             ....  149

ORBITAL ENERGIES
----------------

  NO   OCC          E(Eh)            E(eV)
   0   2.0000     -19.163146      -521.4557
   1   2.0000     -19.150823      -521.1204
   2   2.0000     -19.144518      -520.9488
   3   2.0000     -19.123013      -520.3636
   4   2.0000     -10.292217      -280.0655
   5   2.0000     -10.240985      -278.6714
   6   2.0000     -10.238500      -278.6037
   7   2.0000     -10.235986      -278.5353
   8   2.0000     -10.231238      -278.4061
   9   2.0000     -10.231118      -278.4029
  10   2.0000     -10.196950      -277.4731
  11   2.0000     -10.189026      -277.2575
  12   2.0000     -10.185198      -277.1533
  13   2.0000      -1.065846       -29.0031
  14   2.0000      -1.030678       -28.0462
  15   2.0000      -1.009418       -27.4677
  16   2.0000      -0.998456       -27.1694
  17   2.0000      -0.793802       -21.6004
  18   2.0000      -0.777260       -21.1503
  19   2.0000      -0.772165       -21.0117
  20   2.0000      -0.738332       -20.0910
  21   2.0000      -0.683319       -18.5941
  22   2.0000      -0.608588       -16.5605
  23   2.0000      -0.602407       -16.3923
  24   2.0000      -0.595200       -16.1962
  25   2.0000      -0.583420       -15.8757
  26   2.0000      -0.532718       -14.4960
  27   2.0000      -0.516978       -14.0677
  28   2.0000      -0.504787       -13.7360
  29   2.0000      -0.495620       -13.4865
  30   2.0000      -0.474088       -12.9006
  31   2.0000      -0.459595       -12.5062
  32   2.0000      -0.450789       -12.2666
  33   2.0000      -0.438933       -11.9440
  34   2.0000      -0.432379       -11.7656
  35   2.0000      -0.416887       -11.3441
  36   2.0000      -0.413249       -11.2451
  37   2.0000      -0.392079       -10.6690
  38   2.0000      -0.383525       -10.4362
  39   2.0000      -0.373370       -10.1599
  40   2.0000      -0.363907        -9.9024
  41   2.0000      -0.362499        -9.8641
  42   2.0000      -0.352354        -9.5880
  43   2.0000      -0.343443        -9.3456
  44   2.0000      -0.326135        -8.8746
  45   2.0000      -0.316623        -8.6158
  46   2.0000      -0.294753        -8.0206
  47   2.0000      -0.273766        -7.4496
  48   2.0000      -0.269019        -7.3204
  49   2.0000      -0.252911        -6.8821
  50   2.0000      -0.249427        -6.7873
  51   0.0000       0.054804         1.4913
  52   0.0000       0.064822         1.7639
  53   0.0000       0.091775         2.4973
  54   0.0000       0.095482         2.5982
  55   0.0000       0.106795         2.9060

MULLIKEN ATOMIC CHARGES
-----------------------
   0 C :    0.317989
   1 C :   -0.286555
   2 C :   -0.321444
   3 C :   -0.015102
   4 O :   -0.500893
   5 H :    0.151334
   6 H :    0.154813
   7 H :    0.145240
   8 H :    0.145085
   9 H :    0.180437
  10 H :    0.162217
  11 H :    0.148498
  12 C :   -0.012919
  13 H :    0.132450
  14 H :    0.159819
  15 O :   -0.549399
  16 C :    0.041603
  17 C :    0.123625
  18 C :   -0.301368
  19 C :   -0.017112
  20 O :   -0.520363
  21 H :    0.168535
  22 H :    0.146101
  23 O :   -0.642550
  24 H :    0.151370
  25 H :    0.144946
  26 H :    0.139916
  27 H :    0.151749
  28 H :    0.401979
Sum of atomic charges:   -0.0000000

LOEWDIN ATOMIC CHARGES
----------------------
   0 C :    0.183726
   1 C :   -0.231161
   2 C :   -0.227204
   3 C :   -0.027552
   4 O :   -0.299875
   5 H :    0.102979
   6 H :    0.120123
   7 H :    0.114000
   8 H :    0.117063
   9 H :    0.126257
  10 H :    0.112377
  11 H :    0.106376
  12 C :   -0.046498
  13 H :    0.093974
  14 H :    0.110817
  15 O :   -0.341573
  16 C :    0.018773
  17 C :    0.042291
  18 C :   -0.233363
  19 C :   -0.031332
  20 O :   -0.321615
  21 H :    0.118594
  22 H :    0.103815
  23 O :   -0.437224
  24 H :    0.121613
  25 H :    0.110154
  26 H :    0.101158
  27 H :    0.107214
  28 H :    0.286095

  Mayer bond orders larger than 0.100000
B(  0-C ,  1-C ) :   0.9304 B(  0-C ,  4-O ) :   0.9513 B(  0-C ,  5-H ) :   0.9230
B(  0-C , 15-O ) :   0.7854 B(  1-C ,  2-C ) :   0.9464 B(  1-C ,  6-H ) :   0.9329
B(  1-C ,  7-H ) :   0.9292 B(  2-C ,  3-C ) :   0.9523 B(  2-C ,  8-H ) :   0.9449
B(  2-C ,  9-H ) :   0.9159 B(  3-C ,  4-O ) :   0.8248 B(  3-C , 10-H ) :   0.9333
B(  3-C , 11-H ) :   0.9398 B( 12-C , 13-H ) :   0.9110 B( 12-C , 14-H ) :   0.9219
B( 12-C , 15-O ) :   0.7952 B( 12-C , 16-C ) :   0.9100 B( 15-O , 28-H ) :   0.1010
B( 16-C , 17-C ) :   0.9160 B( 16-C , 20-O ) :   0.8576 B( 16-C , 21-H ) :   0.9267
B( 17-C , 18-C ) :   0.9078 B( 17-C , 22-H ) :   0.9261 B( 17-C , 23-O ) :   0.9191
B( 18-C , 19-C ) :   0.9399 B( 18-C , 24-H ) :   0.9450 B( 18-C , 25-H ) :   0.9426
B( 19-C , 20-O ) :   0.8339 B( 19-C , 26-H ) :   0.9346 B( 19-C , 27-H ) :   0.9378
B( 23-O , 28-H ) :   0.7056

FINAL SINGLE POINT ENERGY      -652.865005041320

DIPOLE MOMENT
-------------
                                X             Y             Z
Electronic contribution:     -2.89204      -5.15913       1.38248
Nuclear contribution   :      3.75382       5.91045      -2.16169
                        -----------------------------------------
Total Dipole Moment    :      0.86178       0.75132      -0.77921
                        -----------------------------------------
Magnitude (a.u.)       :      1.38359
Magnitude (Debye)      :      3.51680

Rotational constants in cm-1:     0.054373     0.015411     0.014369
Rotational constants in MHz :  1630.068866   462.019716   430.773451

                             ****ORCA TERMINATED NORMALLY****
TOTAL RUN TIME: 0 days 0 hours 35 minutes 12 seconds 788 msec
