                         Program Version 4.2.0 -  RELEASE  -
|  1> # Test redundant internal optimization
|  2> #
|  3> ! RKS B3LYP  Opt TightSCF SmallPrint
|  4>
|  5> %basis
|  6>         Basis "6-31G"
|  7> end
|  8>
|  9> %geom
| 10> Constraints
| 11> { D 4  0  15  12  15.0   C } # D for Dihedral angle
| 12> { D 0  15  12  16  195.0   C } # D for Dihedral angle
| 13> { D 0  4  3  2   C } # D for Dihedral angle
| 14> { D 4  3  2  1   C } # D for Dihedral angle
| 15> { D 3  2  1  0   C } # D for Dihedral angle
| 16> { D 2  1  0  4   C } # D for Dihedral angle
| 17> { D 1  0  4  3   C } # D for Dihedral angle
| 18> { D 16  20  19  18   C } # D for Dihedral angle
| 19> { D 20  19  18  17   C } # D for Dihedral angle
| 20> { D 19  18  17  16   C } # D for Dihedral angle
| 21> { D 18  17  16  20   C } # D for Dihedral angle
| 22> { D 17  16  20  19   C } # D for Dihedral angle
| 23> { D 15  12  16  20   C } # D for Dihedral angle
| 24> end
| 25> end
| 26>
| 27>
| 28> #%pal
| 29> #nprocs 8
| 30> #end
| 31>
| 32> * xyz 0 1
| 33> C  -21.048   26.222   46.251
| 34> C  -20.361   27.558   45.944
| 35> C  -20.329   28.222   47.341
| 36> C  -20.110   27.022   48.296
| 37> O  -20.473   25.807   47.535
| 38> H  -20.833   25.428   45.533
| 39> H  -19.344   27.382   45.576
| 40> H  -20.898   28.157   45.201
| 41> H  -19.543   28.978   47.434
| 42> H  -21.289   28.710   47.548
| 43> H  -20.733   27.082   49.195
| 44> H  -19.064   26.913   48.597
| 45> C  -23.128   26.462   47.829
| 46> H  -22.647   25.681   48.432
| 47> H  -22.895   27.435   48.280
| 48> O  -22.586   26.394   46.375
| 49> C  -24.667   26.261   47.907
| 50> C  -25.405   27.265   47.014
| 51> C  -25.237   26.623   45.616
| 52> C  -25.299   25.104   45.916
| 53> O  -25.040   24.951   47.364
| 54> H  -24.977   26.274   48.953
| 55> H  -26.463   27.309   47.294
| 56> O  -24.817   28.700   47.092
| 57> H  -26.009   26.940   44.907
| 58> H  -24.262   26.893   45.192
| 59> H  -24.551   24.535   45.354
| 60> H  -26.288   24.680   45.719
| 61> H  -23.757   28.679   46.815
| 62> *
| 63>
| 64>                          ****END OF INPUT****
 Total Charge           Charge          ....    0
 Multiplicity           Mult            ....    1
 Number of Electrons    NEL             ....  102
FINAL SINGLE POINT ENERGY      -652.830895300823
FINAL SINGLE POINT ENERGY      -652.853839248968
FINAL SINGLE POINT ENERGY      -652.858877268853
FINAL SINGLE POINT ENERGY      -652.860349623639
FINAL SINGLE POINT ENERGY      -652.860498045075
FINAL SINGLE POINT ENERGY      -652.860519902029
                    ***********************HURRAY********************

CARTESIAN COORDINATES (ANGSTROEM)
---------------------------------
  C    -21.094410   26.232532   46.397498
  C    -20.418433   27.546091   45.998212
  C    -20.227472   28.237893   47.371879
  C    -19.934536   27.052435   48.319014
  O    -20.409060   25.836083   47.601613
  H    -20.966230   25.420614   45.679895
  H    -19.450307   27.325001   45.534278
  H    -21.021763   28.127125   45.296897
  H    -19.413656   28.969349   47.364809
  H    -21.143385   28.761538   47.665770
  H    -20.456063   27.120514   49.277246
  H    -18.865923   26.908078   48.499793
  C    -23.114542   26.456877   47.887551
  H    -22.663732   25.683391   48.515798
  H    -22.928198   27.439347   48.343849
  O    -22.540956   26.381856   46.547008
  C    -24.623051   26.237170   47.825824
  C    -25.402769   27.253674   46.974120
  C    -25.286896   26.634552   45.547008
  C    -25.330560   25.118473   45.833466
  O    -25.012023   24.948293   47.274123
  H    -24.976318   26.244279   48.864599
  H    -26.442274   27.299375   47.305228
  O    -24.914616   28.615047   47.074576
  H    -26.096033   26.964845   44.888857
  H    -24.325332   26.920548   45.115140
  H    -24.599103   24.557792   45.245506
  H    -26.325699   24.690296   45.676995
  H    -24.069662   28.683930   46.583446

 Multiplicity           Mult            ....    1
 Number of Electrons    NEL             ....  102
 Basis Dimension        Dim             ....  149

ORBITAL ENERGIES
----------------

  NO   OCC          E(Eh)            E(eV)
   0   2.0000     -19.156194      -521.2665
   1   2.0000     -19.146474      -521.0021
   2   2.0000     -19.138485      -520.7847
   3   2.0000     -19.129299      -520.5347
   4   2.0000     -10.286067      -279.8981
   5   2.0000     -10.238364      -278.6001
   6   2.0000     -10.233292      -278.4620
   7   2.0000     -10.227087      -278.2932
   8   2.0000     -10.226790      -278.2851
   9   2.0000     -10.217505      -278.0324
  10   2.0000     -10.199571      -277.5444
  11   2.0000     -10.194480      -277.4059
  12   2.0000     -10.175967      -276.9021
  13   2.0000      -1.061296       -28.8793
  14   2.0000      -1.025064       -27.8934
  15   2.0000      -1.007156       -27.4061
  16   2.0000      -0.995754       -27.0958
  17   2.0000      -0.797694       -21.7063
  18   2.0000      -0.773457       -21.0468
  19   2.0000      -0.763761       -20.7830
  20   2.0000      -0.736434       -20.0394
  21   2.0000      -0.675719       -18.3872
  22   2.0000      -0.611454       -16.6385
  23   2.0000      -0.601079       -16.3562
  24   2.0000      -0.598170       -16.2770
  25   2.0000      -0.561684       -15.2842
  26   2.0000      -0.526829       -14.3357
  27   2.0000      -0.515291       -14.0218
  28   2.0000      -0.500963       -13.6319
  29   2.0000      -0.489791       -13.3279
  30   2.0000      -0.470648       -12.8070
  31   2.0000      -0.457642       -12.4531
  32   2.0000      -0.444369       -12.0919
  33   2.0000      -0.427328       -11.6282
  34   2.0000      -0.424949       -11.5635
  35   2.0000      -0.418585       -11.3903
  36   2.0000      -0.399301       -10.8655
  37   2.0000      -0.394773       -10.7423
  38   2.0000      -0.380528       -10.3547
  39   2.0000      -0.374476       -10.1900
  40   2.0000      -0.368435       -10.0256
  41   2.0000      -0.358687        -9.7604
  42   2.0000      -0.348434        -9.4814
  43   2.0000      -0.333567        -9.0768
  44   2.0000      -0.322525        -8.7763
  45   2.0000      -0.310632        -8.4527
  46   2.0000      -0.304438        -8.2842
  47   2.0000      -0.270701        -7.3661
  48   2.0000      -0.261325        -7.1110
  49   2.0000      -0.254592        -6.9278
  50   2.0000      -0.235158        -6.3990
  51   0.0000       0.049131         1.3369
  52   0.0000       0.082411         2.2425
  53   0.0000       0.091826         2.4987
  54   0.0000       0.098556         2.6818
  55   0.0000       0.101949         2.7742

MULLIKEN ATOMIC CHARGES
-----------------------
   0 C :    0.306186
   1 C :   -0.257960
   2 C :   -0.315832
   3 C :   -0.016420
   4 O :   -0.506613
   5 H :    0.164366
   6 H :    0.149843
   7 H :    0.149331
   8 H :    0.152476
   9 H :    0.153345
  10 H :    0.149369
  11 H :    0.154763
  12 C :   -0.019540
  13 H :    0.175766
  14 H :    0.124888
  15 O :   -0.553957
  16 C :    0.091412
  17 C :    0.084808
  18 C :   -0.309704
  19 C :    0.000820
  20 O :   -0.519970
  21 H :    0.147070
  22 H :    0.158891
  23 O :   -0.608972
  24 H :    0.141776
  25 H :    0.160557
  26 H :    0.147581
  27 H :    0.136795
  28 H :    0.358924
Sum of atomic charges:   -0.0000000

LOEWDIN ATOMIC CHARGES
----------------------
   0 C :    0.182786
   1 C :   -0.223772
   2 C :   -0.221481
   3 C :   -0.032452
   4 O :   -0.312399
   5 H :    0.111148
   6 H :    0.116975
   7 H :    0.119165
   8 H :    0.119755
   9 H :    0.111613
  10 H :    0.105227
  11 H :    0.109445
  12 C :   -0.049546
  13 H :    0.119784
  14 H :    0.090686
  15 O :   -0.348111
  16 C :    0.020643
  17 C :    0.036760
  18 C :   -0.242537
  19 C :   -0.023648
  20 O :   -0.321170
  21 H :    0.113329
  22 H :    0.114938
  23 O :   -0.413515
  24 H :    0.113665
  25 H :    0.119821
  26 H :    0.105737
  27 H :    0.098976
  28 H :    0.278178

  Mayer bond orders larger than 0.100000
B(  0-C ,  1-C ) :   0.9251 B(  0-C ,  4-O ) :   0.9186 B(  0-C ,  5-H ) :   0.9326
B(  0-C , 15-O ) :   0.8372 B(  1-C ,  2-C ) :   0.9516 B(  1-C ,  6-H ) :   0.9338
B(  1-C ,  7-H ) :   0.9379 B(  2-C ,  3-C ) :   0.9519 B(  2-C ,  8-H ) :   0.9441
B(  2-C ,  9-H ) :   0.9428 B(  3-C ,  4-O ) :   0.8288 B(  3-C , 10-H ) :   0.9322
B(  3-C , 11-H ) :   0.9398 B( 12-C , 13-H ) :   0.9132 B( 12-C , 14-H ) :   0.8978
B( 12-C , 15-O ) :   0.8204 B( 12-C , 16-C ) :   0.9127 B( 16-C , 17-C ) :   0.8853
B( 16-C , 20-O ) :   0.8835 B( 16-C , 21-H ) :   0.9297 B( 17-C , 18-C ) :   0.9346
B( 17-C , 22-H ) :   0.9367 B( 17-C , 23-O ) :   0.8971 B( 18-C , 19-C ) :   0.9451
B( 18-C , 24-H ) :   0.9414 B( 18-C , 25-H ) :   0.9266 B( 19-C , 20-O ) :   0.8391
B( 19-C , 26-H ) :   0.9325 B( 19-C , 27-H ) :   0.9382 B( 23-O , 28-H ) :   0.7937

FINAL SINGLE POINT ENERGY      -652.860520982339

DIPOLE MOMENT
-------------
                                X             Y             Z
Electronic contribution:     -2.29331      -3.37012       1.19428
Nuclear contribution   :      3.25243       4.19606      -1.65329
                        -----------------------------------------
Total Dipole Moment    :      0.95912       0.82594      -0.45901
                        -----------------------------------------
Magnitude (a.u.)       :      1.34639
Magnitude (Debye)      :      3.42226

Rotational constants in cm-1:     0.048920     0.015987     0.014840
Rotational constants in MHz :  1466.588935   479.284977   444.889465

                             ****ORCA TERMINATED NORMALLY****
TOTAL RUN TIME: 0 days 0 hours 17 minutes 57 seconds 151 msec
