                         Program Version 4.2.0 -  RELEASE  -
|  1> # Test redundant internal optimization
|  2> #
|  3> ! RKS B3LYP  Opt TightSCF SmallPrint
|  4>
|  5> %basis
|  6>         Basis "6-31G"
|  7> end
|  8>
|  9> %geom
| 10> Constraints
| 11> { D 4  0  15  12  330.0   C } # D for Dihedral angle
| 12> { D 0  15  12  16  210.0   C } # D for Dihedral angle
| 13> { D 0  4  3  2   C } # D for Dihedral angle
| 14> { D 4  3  2  1   C } # D for Dihedral angle
| 15> { D 3  2  1  0   C } # D for Dihedral angle
| 16> { D 2  1  0  4   C } # D for Dihedral angle
| 17> { D 1  0  4  3   C } # D for Dihedral angle
| 18> { D 16  20  19  18   C } # D for Dihedral angle
| 19> { D 20  19  18  17   C } # D for Dihedral angle
| 20> { D 19  18  17  16   C } # D for Dihedral angle
| 21> { D 18  17  16  20   C } # D for Dihedral angle
| 22> { D 17  16  20  19   C } # D for Dihedral angle
| 23> { D 15  12  16  20   C } # D for Dihedral angle
| 24> end
| 25> end
| 26>
| 27>
| 28> #%pal
| 29> #nprocs 8
| 30> #end
| 31>
| 32> * xyz 0 1
| 33> C  -21.048   26.222   46.251
| 34> C  -20.361   27.558   45.944
| 35> C  -20.329   28.222   47.341
| 36> C  -20.110   27.022   48.296
| 37> O  -20.473   25.807   47.535
| 38> H  -20.833   25.428   45.533
| 39> H  -19.344   27.382   45.576
| 40> H  -20.898   28.157   45.201
| 41> H  -19.543   28.978   47.434
| 42> H  -21.289   28.710   47.548
| 43> H  -20.733   27.082   49.195
| 44> H  -19.064   26.913   48.597
| 45> C  -23.271   25.476   47.424
| 46> H  -22.699   24.544   47.517
| 47> H  -23.292   25.965   48.407
| 48> O  -22.586   26.394   46.375
| 49> C  -24.734   25.115   47.043
| 50> C  -25.415   24.307   48.153
| 51> C  -25.788   25.415   49.165
| 52> C  -26.139   26.619   48.255
| 53> O  -25.548   26.330   46.930
| 54> H  -24.740   24.633   46.063
| 55> H  -26.315   23.818   47.764
| 56> O  -24.493   23.217   48.766
| 57> H  -26.619   25.131   49.819
| 58> H  -24.926   25.650   49.801
| 59> H  -25.730   27.563   48.632
| 60> H  -27.217   26.732   48.109
| 61> H  -23.584   23.682   49.163
| 62> *
| 63>
| 64>                          ****END OF INPUT****
 Total Charge           Charge          ....    0
 Multiplicity           Mult            ....    1
 Number of Electrons    NEL             ....  102
FINAL SINGLE POINT ENERGY      -652.829335438300
FINAL SINGLE POINT ENERGY      -652.853080916295
FINAL SINGLE POINT ENERGY      -652.857448225850
FINAL SINGLE POINT ENERGY      -652.858164498120
FINAL SINGLE POINT ENERGY      -652.858288109002
FINAL SINGLE POINT ENERGY      -652.858321863137
FINAL SINGLE POINT ENERGY      -652.858327535786
FINAL SINGLE POINT ENERGY      -652.858329245896
                    ***********************HURRAY********************

CARTESIAN COORDINATES (ANGSTROEM)
---------------------------------
  C    -21.095224   26.180522   46.302671
  C    -20.522693   27.551359   45.944058
  C    -20.395937   28.210909   47.333831
  C    -20.016830   27.031893   48.256395
  O    -20.387168   25.797544   47.507372
  H    -20.902518   25.379575   45.581887
  H    -19.541996   27.421590   45.472231
  H    -21.177948   28.101859   45.265847
  H    -19.647568   29.009310   47.354452
  H    -21.361011   28.635758   47.625471
  H    -20.552282   27.039654   49.209880
  H    -18.941880   26.966973   48.448522
  C    -23.135085   25.479844   47.513566
  H    -22.590628   24.532661   47.610469
  H    -23.095451   25.999659   48.480609
  O    -22.526456   26.320954   46.493605
  C    -24.573124   25.189195   47.094578
  C    -25.353468   24.339949   48.112839
  C    -25.831493   25.418013   49.131548
  C    -26.099717   26.641640   48.227797
  O    -25.381757   26.397022   46.951675
  H    -24.550989   24.728079   46.103335
  H    -26.210844   23.879740   47.617533
  O    -24.628967   23.226608   48.689049
  H    -26.715436   25.096020   49.688503
  H    -25.030455   25.620236   49.854809
  H    -25.743636   27.580405   48.663812
  H    -27.160637   26.749586   47.982308
  H    -23.949801   23.545445   49.318347

 Multiplicity           Mult            ....    1
 Number of Electrons    NEL             ....  102
 Basis Dimension        Dim             ....  149

ORBITAL ENERGIES
----------------

  NO   OCC          E(Eh)            E(eV)
   0   2.0000     -19.147414      -521.0276
   1   2.0000     -19.146531      -521.0036
   2   2.0000     -19.137092      -520.7468
   3   2.0000     -19.132824      -520.6306
   4   2.0000     -10.276497      -279.6377
   5   2.0000     -10.242402      -278.7099
   6   2.0000     -10.229974      -278.3717
   7   2.0000     -10.227517      -278.3049
   8   2.0000     -10.226539      -278.2783
   9   2.0000     -10.225499      -278.2500
  10   2.0000     -10.193095      -277.3682
  11   2.0000     -10.186803      -277.1970
  12   2.0000     -10.183573      -277.1091
  13   2.0000      -1.053602       -28.6700
  14   2.0000      -1.030832       -28.0504
  15   2.0000      -1.012452       -27.5502
  16   2.0000      -0.989931       -26.9374
  17   2.0000      -0.789910       -21.4945
  18   2.0000      -0.779527       -21.2120
  19   2.0000      -0.765522       -20.8309
  20   2.0000      -0.730658       -19.8822
  21   2.0000      -0.676745       -18.4152
  22   2.0000      -0.608708       -16.5638
  23   2.0000      -0.601303       -16.3623
  24   2.0000      -0.590585       -16.0706
  25   2.0000      -0.569431       -15.4950
  26   2.0000      -0.528975       -14.3941
  27   2.0000      -0.506845       -13.7919
  28   2.0000      -0.496187       -13.5019
  29   2.0000      -0.494578       -13.4582
  30   2.0000      -0.469550       -12.7771
  31   2.0000      -0.451790       -12.2938
  32   2.0000      -0.448777       -12.2118
  33   2.0000      -0.429332       -11.6827
  34   2.0000      -0.424895       -11.5620
  35   2.0000      -0.410537       -11.1713
  36   2.0000      -0.407801       -11.0968
  37   2.0000      -0.400094       -10.8871
  38   2.0000      -0.376025       -10.2321
  39   2.0000      -0.365732        -9.9521
  40   2.0000      -0.358728        -9.7615
  41   2.0000      -0.352858        -9.6018
  42   2.0000      -0.347506        -9.4561
  43   2.0000      -0.339384        -9.2351
  44   2.0000      -0.322825        -8.7845
  45   2.0000      -0.311190        -8.4679
  46   2.0000      -0.299833        -8.1589
  47   2.0000      -0.268720        -7.3122
  48   2.0000      -0.261152        -7.1063
  49   2.0000      -0.253875        -6.9083
  50   2.0000      -0.236287        -6.4297
  51   0.0000       0.052625         1.4320
  52   0.0000       0.073056         1.9880
  53   0.0000       0.089773         2.4429
  54   0.0000       0.097321         2.6482
  55   0.0000       0.105726         2.8769

MULLIKEN ATOMIC CHARGES
-----------------------
   0 C :    0.290593
   1 C :   -0.258943
   2 C :   -0.302030
   3 C :   -0.012572
   4 O :   -0.515723
   5 H :    0.149840
   6 H :    0.143209
   7 H :    0.167091
   8 H :    0.143754
   9 H :    0.161973
  10 H :    0.139654
  11 H :    0.148385
  12 C :   -0.004298
  13 H :    0.151900
  14 H :    0.116946
  15 O :   -0.522683
  16 C :    0.092382
  17 C :    0.083311
  18 C :   -0.321792
  19 C :   -0.007055
  20 O :   -0.506102
  21 H :    0.160280
  22 H :    0.167308
  23 O :   -0.599653
  24 H :    0.155927
  25 H :    0.132855
  26 H :    0.139912
  27 H :    0.148505
  28 H :    0.357029
Sum of atomic charges:   -0.0000000

LOEWDIN ATOMIC CHARGES
----------------------
   0 C :    0.177257
   1 C :   -0.215222
   2 C :   -0.217423
   3 C :   -0.031146
   4 O :   -0.328046
   5 H :    0.098845
   6 H :    0.113160
   7 H :    0.129344
   8 H :    0.115279
   9 H :    0.118968
  10 H :    0.100507
  11 H :    0.105435
  12 C :   -0.048890
  13 H :    0.109828
  14 H :    0.088021
  15 O :   -0.325508
  16 C :    0.019620
  17 C :    0.034611
  18 C :   -0.241739
  19 C :   -0.029731
  20 O :   -0.314255
  21 H :    0.118627
  22 H :    0.119507
  23 O :   -0.407156
  24 H :    0.121693
  25 H :    0.103525
  26 H :    0.101117
  27 H :    0.105287
  28 H :    0.278487

  Mayer bond orders larger than 0.100000
B(  0-C ,  1-C ) :   0.9457 B(  0-C ,  4-O ) :   0.8948 B(  0-C ,  5-H ) :   0.9221
B(  0-C , 15-O ) :   0.8575 B(  1-C ,  2-C ) :   0.9531 B(  1-C ,  6-H ) :   0.9378
B(  1-C ,  7-H ) :   0.9343 B(  2-C ,  3-C ) :   0.9559 B(  2-C ,  8-H ) :   0.9447
B(  2-C ,  9-H ) :   0.9444 B(  3-C ,  4-O ) :   0.8341 B(  3-C , 10-H ) :   0.9352
B(  3-C , 11-H ) :   0.9402 B( 12-C , 13-H ) :   0.9023 B( 12-C , 14-H ) :   0.9242
B( 12-C , 15-O ) :   0.8314 B( 12-C , 16-C ) :   0.9054 B( 16-C , 17-C ) :   0.8724
B( 16-C , 20-O ) :   0.8662 B( 16-C , 21-H ) :   0.9299 B( 17-C , 18-C ) :   0.9221
B( 17-C , 22-H ) :   0.9340 B( 17-C , 23-O ) :   0.8983 B( 18-C , 19-C ) :   0.9384
B( 18-C , 24-H ) :   0.9422 B( 18-C , 25-H ) :   0.9416 B( 19-C , 20-O ) :   0.8523
B( 19-C , 26-H ) :   0.9326 B( 19-C , 27-H ) :   0.9378 B( 23-O , 28-H ) :   0.7971

FINAL SINGLE POINT ENERGY      -652.858329612770

DIPOLE MOMENT
-------------
                                X             Y             Z
Electronic contribution:     -1.52334      -3.84152      -2.77580
Nuclear contribution   :      1.90210       4.56946       3.72066
                        -----------------------------------------
Total Dipole Moment    :      0.37877       0.72793       0.94486
                        -----------------------------------------
Magnitude (a.u.)       :      1.25145
Magnitude (Debye)      :      3.18093

Rotational constants in cm-1:     0.050238     0.013421     0.012421
Rotational constants in MHz :  1506.089660   402.336959   372.383435

                             ****ORCA TERMINATED NORMALLY****
TOTAL RUN TIME: 0 days 0 hours 26 minutes 1 seconds 702 msec
