                         Program Version 4.2.0 -  RELEASE  -
|  1> # Test redundant internal optimization
|  2> #
|  3> ! RKS B3LYP  Opt TightSCF SmallPrint
|  4>
|  5> %basis
|  6>         Basis "6-31G"
|  7> end
|  8>
|  9> %geom
| 10> Constraints
| 11> { D 4  0  15  12  180.0   C } # D for Dihedral angle
| 12> { D 0  15  12  16  180.0   C } # D for Dihedral angle
| 13> { D 0  4  3  2   C } # D for Dihedral angle
| 14> { D 4  3  2  1   C } # D for Dihedral angle
| 15> { D 3  2  1  0   C } # D for Dihedral angle
| 16> { D 2  1  0  4   C } # D for Dihedral angle
| 17> { D 1  0  4  3   C } # D for Dihedral angle
| 18> { D 16  20  19  18   C } # D for Dihedral angle
| 19> { D 20  19  18  17   C } # D for Dihedral angle
| 20> { D 19  18  17  16   C } # D for Dihedral angle
| 21> { D 18  17  16  20   C } # D for Dihedral angle
| 22> { D 17  16  20  19   C } # D for Dihedral angle
| 23> { D 15  12  16  20   C } # D for Dihedral angle
| 24> end
| 25> end
| 26>
| 27>
| 28> #%pal
| 29> #nprocs 8
| 30> #end
| 31>
| 32> * xyz 0 1
| 33> C  -21.048   26.222   46.251
| 34> C  -20.361   27.558   45.944
| 35> C  -20.329   28.222   47.341
| 36> C  -20.110   27.022   48.296
| 37> O  -20.473   25.807   47.535
| 38> H  -20.833   25.428   45.533
| 39> H  -19.344   27.382   45.576
| 40> H  -20.898   28.157   45.201
| 41> H  -19.543   28.978   47.434
| 42> H  -21.289   28.710   47.548
| 43> H  -20.733   27.082   49.195
| 44> H  -19.064   26.913   48.597
| 45> C  -23.309   26.834   45.072
| 46> H  -22.903   27.797   44.741
| 47> H  -23.142   26.099   44.274
| 48> O  -22.586   26.394   46.375
| 49> C  -24.843   26.988   45.260
| 50> C  -25.537   27.309   43.931
| 51> C  -25.603   25.913   43.267
| 52> C  -25.830   24.963   44.469
| 53> O  -25.439   25.716   45.680
| 54> H  -25.036   27.711   46.056
| 55> O  -26.965   27.860   44.194
| 56> H  -24.990   28.041   43.326
| 57> H  -26.398   25.836   42.518
| 58> H  -24.652   25.687   42.770
| 59> H  -25.225   24.051   44.403
| 60> H  -26.881   24.683   44.588
| 61> H  -27.531   27.142   44.798
| 62> *
| 63>
| 64>                          ****END OF INPUT****
 Total Charge           Charge          ....    0
 Multiplicity           Mult            ....    1
 Number of Electrons    NEL             ....  102
FINAL SINGLE POINT ENERGY      -652.828014293242
FINAL SINGLE POINT ENERGY      -652.851582736637
FINAL SINGLE POINT ENERGY      -652.855788060437
FINAL SINGLE POINT ENERGY      -652.856515773243
FINAL SINGLE POINT ENERGY      -652.856604674679
FINAL SINGLE POINT ENERGY      -652.856616545943
                    ***********************HURRAY********************

CARTESIAN COORDINATES (ANGSTROEM)
---------------------------------
  C    -21.078657   26.242688   46.159448
  C    -20.348549   27.564289   45.925933
  C    -20.460627   28.245530   47.313898
  C    -20.362863   27.051336   48.285494
  O    -20.661430   25.845383   47.470721
  H    -20.818749   25.435447   45.465531
  H    -19.301596   27.350571   45.680551
  H    -20.765330   28.170989   45.117806
  H    -19.674194   28.987441   47.481084
  H    -21.431162   28.741854   47.407487
  H    -21.081868   27.102003   49.106646
  H    -19.355917   26.913116   48.690197
  C    -23.169259   26.800817   44.970682
  H    -22.806469   27.781989   44.628700
  H    -22.957806   26.065928   44.177308
  O    -22.528800   26.398412   46.204180
  C    -24.669077   26.903143   45.237559
  C    -25.496807   27.287165   44.002331
  C    -25.677212   25.913642   43.303595
  C    -25.798092   24.930329   44.494592
  O    -25.251777   25.636022   45.678964
  H    -24.824476   27.611484   46.057156
  O    -26.772811   27.861483   44.396276
  H    -25.026141   28.038099   43.365563
  H    -26.562134   25.921339   42.662000
  H    -24.803194   25.685027   42.682921
  H    -25.235201   24.005175   44.340752
  H    -26.836886   24.673132   44.722329
  H    -27.137914   27.341167   45.143295

 Multiplicity           Mult            ....    1
 Number of Electrons    NEL             ....  102
 Basis Dimension        Dim             ....  149

ORBITAL ENERGIES
----------------

  NO   OCC          E(Eh)            E(eV)
   0   2.0000     -19.140178      -520.8307
   1   2.0000     -19.140131      -520.8295
   2   2.0000     -19.140024      -520.8265
   3   2.0000     -19.139130      -520.8022
   4   2.0000     -10.279602      -279.7222
   5   2.0000     -10.245046      -278.7819
   6   2.0000     -10.235873      -278.5323
   7   2.0000     -10.235691      -278.5273
   8   2.0000     -10.229560      -278.3605
   9   2.0000     -10.224186      -278.2143
  10   2.0000     -10.191210      -277.3169
  11   2.0000     -10.189433      -277.2686
  12   2.0000     -10.187945      -277.2281
  13   2.0000      -1.054178       -28.6856
  14   2.0000      -1.036976       -28.2175
  15   2.0000      -1.007261       -27.4090
  16   2.0000      -0.993594       -27.0371
  17   2.0000      -0.788506       -21.4563
  18   2.0000      -0.784859       -21.3571
  19   2.0000      -0.769321       -20.9343
  20   2.0000      -0.731816       -19.9137
  21   2.0000      -0.677179       -18.4270
  22   2.0000      -0.605472       -16.4757
  23   2.0000      -0.602720       -16.4008
  24   2.0000      -0.591229       -16.0882
  25   2.0000      -0.583238       -15.8707
  26   2.0000      -0.526048       -14.3145
  27   2.0000      -0.512903       -13.9568
  28   2.0000      -0.496315       -13.5054
  29   2.0000      -0.493203       -13.4207
  30   2.0000      -0.475899       -12.9499
  31   2.0000      -0.461953       -12.5704
  32   2.0000      -0.453634       -12.3440
  33   2.0000      -0.445016       -12.1095
  34   2.0000      -0.425453       -11.5772
  35   2.0000      -0.411841       -11.2068
  36   2.0000      -0.400091       -10.8870
  37   2.0000      -0.394508       -10.7351
  38   2.0000      -0.376083       -10.2337
  39   2.0000      -0.373059       -10.1515
  40   2.0000      -0.362812        -9.8726
  41   2.0000      -0.358659        -9.7596
  42   2.0000      -0.353526        -9.6199
  43   2.0000      -0.334051        -9.0900
  44   2.0000      -0.313220        -8.5232
  45   2.0000      -0.306717        -8.3462
  46   2.0000      -0.301559        -8.2059
  47   2.0000      -0.272633        -7.4187
  48   2.0000      -0.258328        -7.0295
  49   2.0000      -0.253318        -6.8931
  50   2.0000      -0.244322        -6.6483
  51   0.0000       0.063739         1.7344
  52   0.0000       0.079117         2.1529
  53   0.0000       0.086294         2.3482
  54   0.0000       0.096594         2.6285
  55   0.0000       0.105269         2.8645

MULLIKEN ATOMIC CHARGES
-----------------------
   0 C :    0.312052
   1 C :   -0.287796
   2 C :   -0.296495
   3 C :   -0.000523
   4 O :   -0.499802
   5 H :    0.139295
   6 H :    0.149497
   7 H :    0.141035
   8 H :    0.142902
   9 H :    0.157456
  10 H :    0.157572
  11 H :    0.141750
  12 C :    0.002620
  13 H :    0.118398
  14 H :    0.123176
  15 O :   -0.499602
  16 C :    0.069763
  17 C :    0.070343
  18 C :   -0.294726
  19 C :   -0.029473
  20 O :   -0.504000
  21 H :    0.169250
  22 O :   -0.601743
  23 H :    0.149775
  24 H :    0.164295
  25 H :    0.141033
  26 H :    0.150597
  27 H :    0.146218
  28 H :    0.367130
Sum of atomic charges:   -0.0000000

LOEWDIN ATOMIC CHARGES
----------------------
   0 C :    0.181556
   1 C :   -0.234324
   2 C :   -0.216536
   3 C :   -0.024679
   4 O :   -0.300101
   5 H :    0.095966
   6 H :    0.116777
   7 H :    0.111635
   8 H :    0.114676
   9 H :    0.116281
  10 H :    0.111185
  11 H :    0.102498
  12 C :   -0.044090
  13 H :    0.088794
  14 H :    0.089859
  15 O :   -0.320441
  16 C :    0.019322
  17 C :    0.034369
  18 C :   -0.241902
  19 C :   -0.037970
  20 O :   -0.315839
  21 H :    0.120911
  22 O :   -0.414223
  23 H :    0.113789
  24 H :    0.127133
  25 H :    0.111247
  26 H :    0.106615
  27 H :    0.102855
  28 H :    0.284636

  Mayer bond orders larger than 0.100000
B(  0-C ,  1-C ) :   0.9265 B(  0-C ,  4-O ) :   0.9410 B(  0-C ,  5-H ) :   0.9202
B(  0-C , 15-O ) :   0.8326 B(  1-C ,  2-C ) :   0.9514 B(  1-C ,  6-H ) :   0.9338
B(  1-C ,  7-H ) :   0.9311 B(  2-C ,  3-C ) :   0.9555 B(  2-C ,  8-H ) :   0.9451
B(  2-C ,  9-H ) :   0.9452 B(  3-C ,  4-O ) :   0.8352 B(  3-C , 10-H ) :   0.9339
B(  3-C , 11-H ) :   0.9397 B( 12-C , 13-H ) :   0.9002 B( 12-C , 14-H ) :   0.9134
B( 12-C , 15-O ) :   0.8510 B( 12-C , 16-C ) :   0.9000 B( 16-C , 17-C ) :   0.8997
B( 16-C , 20-O ) :   0.8720 B( 16-C , 21-H ) :   0.9233 B( 17-C , 18-C ) :   0.9111
B( 17-C , 22-O ) :   0.8953 B( 17-C , 23-H ) :   0.9329 B( 18-C , 19-C ) :   0.9405
B( 18-C , 24-H ) :   0.9372 B( 18-C , 25-H ) :   0.9341 B( 19-C , 20-O ) :   0.8523
B( 19-C , 26-H ) :   0.9335 B( 19-C , 27-H ) :   0.9378 B( 22-O , 28-H ) :   0.7924

FINAL SINGLE POINT ENERGY      -652.856619499471

DIPOLE MOMENT
-------------
                                X             Y             Z
Electronic contribution:     -2.94684      -2.43798       2.48612
Nuclear contribution   :      3.59847       2.97670      -3.49164
                        -----------------------------------------
Total Dipole Moment    :      0.65164       0.53872      -1.00552
                        -----------------------------------------
Magnitude (a.u.)       :      1.31374
Magnitude (Debye)      :      3.33927

Rotational constants in cm-1:     0.063656     0.011466     0.010937
Rotational constants in MHz :  1908.345641   343.737182   327.884531

                             ****ORCA TERMINATED NORMALLY****
TOTAL RUN TIME: 0 days 0 hours 22 minutes 12 seconds 229 msec
