                         Program Version 4.2.0 -  RELEASE  -
|  1> # Test redundant internal optimization
|  2> #
|  3> ! RKS B3LYP  Opt TightSCF SmallPrint
|  4>
|  5> %basis
|  6>         Basis "6-31G"
|  7> end
|  8>
|  9> %geom
| 10> Constraints
| 11> { D 4  0  15  12  225.0   C } # D for Dihedral angle
| 12> { D 0  15  12  16  45.0   C } # D for Dihedral angle
| 13> { D 0  4  3  2   C } # D for Dihedral angle
| 14> { D 4  3  2  1   C } # D for Dihedral angle
| 15> { D 3  2  1  0   C } # D for Dihedral angle
| 16> { D 2  1  0  4   C } # D for Dihedral angle
| 17> { D 1  0  4  3   C } # D for Dihedral angle
| 18> { D 16  20  19  18   C } # D for Dihedral angle
| 19> { D 20  19  18  17   C } # D for Dihedral angle
| 20> { D 19  18  17  16   C } # D for Dihedral angle
| 21> { D 18  17  16  20   C } # D for Dihedral angle
| 22> { D 17  16  20  19   C } # D for Dihedral angle
| 23> { D 15  12  16  20   C } # D for Dihedral angle
| 24> end
| 25> end
| 26>
| 27>
| 28> #%pal
| 29> #nprocs 8
| 30> #end
| 31>
| 32> * xyz 0 1
| 33> C  -21.048   26.222   46.251
| 34> C  -20.361   27.558   45.944
| 35> C  -20.329   28.222   47.341
| 36> C  -20.110   27.022   48.296
| 37> O  -20.473   25.807   47.535
| 38> H  -20.833   25.428   45.533
| 39> H  -19.344   27.382   45.576
| 40> H  -20.898   28.157   45.201
| 41> H  -19.543   28.978   47.434
| 42> H  -21.289   28.710   47.548
| 43> H  -20.733   27.082   49.195
| 44> H  -19.064   26.913   48.597
| 45> C  -23.415   25.773   45.218
| 46> H  -24.469   25.716   45.518
| 47> H  -23.349   26.399   44.319
| 48> O  -22.586   26.394   46.375
| 49> C  -22.938   24.344   44.836
| 50> C  -23.700   23.810   43.619
| 51> C  -22.977   24.529   42.455
| 52> C  -21.507   24.593   42.940
| 53> O  -21.537   24.371   44.402
| 54> H  -22.988   23.703   45.718
| 55> O  -23.518   22.271   43.509
| 56> H  -24.773   24.029   43.652
| 57> H  -23.079   24.002   41.501
| 58> H  -23.385   25.539   42.326
| 59> H  -21.039   25.562   42.734
| 60> H  -20.889   23.801   42.507
| 61> H  -22.450   22.028   43.474
| 62> *
| 63>
| 64>                          ****END OF INPUT****
 Total Charge           Charge          ....    0
 Multiplicity           Mult            ....    1
 Number of Electrons    NEL             ....  102
FINAL SINGLE POINT ENERGY      -652.823952013715
FINAL SINGLE POINT ENERGY      -652.845310949240
FINAL SINGLE POINT ENERGY      -652.855241597678
FINAL SINGLE POINT ENERGY      -652.857387477197
FINAL SINGLE POINT ENERGY      -652.857793543819
FINAL SINGLE POINT ENERGY      -652.857845364684
FINAL SINGLE POINT ENERGY      -652.857851632335
                    ***********************HURRAY********************

CARTESIAN COORDINATES (ANGSTROEM)
---------------------------------
  C    -20.836690   26.245760   46.241886
  C    -20.278669   27.655001   46.046237
  C    -20.479691   28.277400   47.449609
  C    -20.234338   27.079718   48.393357
  O    -20.374213   25.866193   47.551381
  H    -20.504078   25.486667   45.539563
  H    -19.212873   27.594414   45.794270
  H    -20.795974   28.204251   45.254926
  H    -19.797906   29.110529   47.644496
  H    -21.508131   28.637327   47.545671
  H    -20.955721   27.024620   49.213140
  H    -19.219465   27.063194   48.803240
  C    -23.139417   25.753053   45.239894
  H    -24.138493   25.728251   45.687120
  H    -23.173919   26.445385   44.381701
  O    -22.298426   26.318918   46.276428
  C    -22.800463   24.343793   44.739385
  C    -23.735185   23.849167   43.624132
  C    -23.077649   24.471714   42.361535
  C    -21.564019   24.413092   42.689362
  O    -21.455427   24.231275   44.159744
  H    -22.812628   23.654930   45.590696
  O    -23.754416   22.398377   43.562089
  H    -24.776169   24.146683   43.757225
  H    -23.342958   23.900396   41.468978
  H    -23.416787   25.504410   42.225729
  H    -21.031950   25.325702   42.403736
  H    -21.064740   23.558028   42.223641
  H    -22.843604   22.056752   43.684827

 Multiplicity           Mult            ....    1
 Number of Electrons    NEL             ....  102
 Basis Dimension        Dim             ....  149

ORBITAL ENERGIES
----------------

  NO   OCC          E(Eh)            E(eV)
   0   2.0000     -19.155852      -521.2572
   1   2.0000     -19.144919      -520.9597
   2   2.0000     -19.130813      -520.5759
   3   2.0000     -19.126763      -520.4657
   4   2.0000     -10.260738      -279.2089
   5   2.0000     -10.251022      -278.9445
   6   2.0000     -10.241310      -278.6802
   7   2.0000     -10.240927      -278.6698
   8   2.0000     -10.236021      -278.5363
   9   2.0000     -10.214334      -277.9462
  10   2.0000     -10.197701      -277.4936
  11   2.0000     -10.176201      -276.9085
  12   2.0000     -10.175535      -276.8904
  13   2.0000      -1.048298       -28.5257
  14   2.0000      -1.036553       -28.2060
  15   2.0000      -1.014639       -27.6097
  16   2.0000      -0.981950       -26.7202
  17   2.0000      -0.792806       -21.5734
  18   2.0000      -0.777766       -21.1641
  19   2.0000      -0.768869       -20.9220
  20   2.0000      -0.726828       -19.7780
  21   2.0000      -0.675395       -18.3784
  22   2.0000      -0.612685       -16.6720
  23   2.0000      -0.604123       -16.4390
  24   2.0000      -0.587826       -15.9956
  25   2.0000      -0.570165       -15.5150
  26   2.0000      -0.532626       -14.4935
  27   2.0000      -0.507986       -13.8230
  28   2.0000      -0.495529       -13.4840
  29   2.0000      -0.484313       -13.1788
  30   2.0000      -0.475948       -12.9512
  31   2.0000      -0.456982       -12.4351
  32   2.0000      -0.446990       -12.1632
  33   2.0000      -0.440047       -11.9743
  34   2.0000      -0.427106       -11.6222
  35   2.0000      -0.408753       -11.1227
  36   2.0000      -0.402413       -10.9502
  37   2.0000      -0.392773       -10.6879
  38   2.0000      -0.381814       -10.3897
  39   2.0000      -0.369226       -10.0472
  40   2.0000      -0.364904        -9.9295
  41   2.0000      -0.347349        -9.4519
  42   2.0000      -0.343386        -9.3440
  43   2.0000      -0.335127        -9.1193
  44   2.0000      -0.323294        -8.7973
  45   2.0000      -0.303751        -8.2655
  46   2.0000      -0.297275        -8.0893
  47   2.0000      -0.278999        -7.5919
  48   2.0000      -0.260804        -7.0969
  49   2.0000      -0.251603        -6.8465
  50   2.0000      -0.230713        -6.2780
  51   0.0000       0.057522         1.5653
  52   0.0000       0.080687         2.1956
  53   0.0000       0.086542         2.3549
  54   0.0000       0.095333         2.5941
  55   0.0000       0.103403         2.8137

MULLIKEN ATOMIC CHARGES
-----------------------
   0 C :    0.252587
   1 C :   -0.252803
   2 C :   -0.296762
   3 C :   -0.000134
   4 O :   -0.502203
   5 H :    0.202137
   6 H :    0.139364
   7 H :    0.134825
   8 H :    0.134732
   9 H :    0.159269
  10 H :    0.147993
  11 H :    0.136549
  12 C :    0.010629
  13 H :    0.155134
  14 H :    0.116964
  15 O :   -0.531728
  16 C :    0.042800
  17 C :    0.081774
  18 C :   -0.291370
  19 C :   -0.032562
  20 O :   -0.523062
  21 H :    0.177602
  22 O :   -0.600399
  23 H :    0.156890
  24 H :    0.165603
  25 H :    0.145350
  26 H :    0.149549
  27 H :    0.153652
  28 H :    0.367621
Sum of atomic charges:   -0.0000000

LOEWDIN ATOMIC CHARGES
----------------------
   0 C :    0.165952
   1 C :   -0.223043
   2 C :   -0.217237
   3 C :   -0.027914
   4 O :   -0.311773
   5 H :    0.125607
   6 H :    0.110223
   7 H :    0.111938
   8 H :    0.110567
   9 H :    0.117761
  10 H :    0.105689
  11 H :    0.099395
  12 C :   -0.037126
  13 H :    0.118753
  14 H :    0.084897
  15 O :   -0.338396
  16 C :    0.002333
  17 C :    0.039329
  18 C :   -0.239538
  19 C :   -0.038432
  20 O :   -0.327834
  21 H :    0.123061
  22 O :   -0.411620
  23 H :    0.118096
  24 H :    0.128625
  25 H :    0.113740
  26 H :    0.105653
  27 H :    0.106165
  28 H :    0.285130

  Mayer bond orders larger than 0.100000
B(  0-C ,  1-C ) :   0.9378 B(  0-C ,  4-O ) :   0.9229 B(  0-C ,  5-H ) :   0.8854
B(  0-C , 15-O ) :   0.8109 B(  1-C ,  2-C ) :   0.9554 B(  1-C ,  6-H ) :   0.9378
B(  1-C ,  7-H ) :   0.9409 B(  2-C ,  3-C ) :   0.9555 B(  2-C ,  8-H ) :   0.9462
B(  2-C ,  9-H ) :   0.9439 B(  3-C ,  4-O ) :   0.8427 B(  3-C , 10-H ) :   0.9351
B(  3-C , 11-H ) :   0.9401 B( 12-C , 13-H ) :   0.9269 B( 12-C , 14-H ) :   0.9187
B( 12-C , 15-O ) :   0.8742 B( 12-C , 16-C ) :   0.8932 B( 16-C , 17-C ) :   0.8961
B( 16-C , 20-O ) :   0.8365 B( 16-C , 21-H ) :   0.9198 B( 17-C , 18-C ) :   0.9105
B( 17-C , 22-O ) :   0.8955 B( 17-C , 23-H ) :   0.9332 B( 18-C , 19-C ) :   0.9404
B( 18-C , 24-H ) :   0.9372 B( 18-C , 25-H ) :   0.9328 B( 19-C , 20-O ) :   0.8347
B( 19-C , 26-H ) :   0.9349 B( 19-C , 27-H ) :   0.9377 B( 22-O , 28-H ) :   0.7932

FINAL SINGLE POINT ENERGY      -652.857852311381

DIPOLE MOMENT
-------------
                                X             Y             Z
Electronic contribution:     -0.92639      -5.32452       1.53264
Nuclear contribution   :      0.98776       6.20956      -2.63381
                        -----------------------------------------
Total Dipole Moment    :      0.06137       0.88504      -1.10117
                        -----------------------------------------
Magnitude (a.u.)       :      1.41408
Magnitude (Debye)      :      3.59432

Rotational constants in cm-1:     0.066628     0.012337     0.011983
Rotational constants in MHz :  1997.464356   369.851625   359.242764

                             ****ORCA TERMINATED NORMALLY****
TOTAL RUN TIME: 0 days 0 hours 23 minutes 41 seconds 245 msec
