                         Program Version 4.2.0 -  RELEASE  -
|  1> # Test redundant internal optimization
|  2> #
|  3> ! RKS B3LYP  Opt TightSCF SmallPrint
|  4>
|  5> %basis
|  6>         Basis "6-31G"
|  7> end
|  8>
|  9> %geom
| 10> Constraints
| 11> { D 4  0  15  12  120.0   C } # D for Dihedral angle
| 12> { D 0  15  12  16  45.0   C } # D for Dihedral angle
| 13> { D 0  4  3  2   C } # D for Dihedral angle
| 14> { D 4  3  2  1   C } # D for Dihedral angle
| 15> { D 3  2  1  0   C } # D for Dihedral angle
| 16> { D 2  1  0  4   C } # D for Dihedral angle
| 17> { D 1  0  4  3   C } # D for Dihedral angle
| 18> { D 16  20  19  18   C } # D for Dihedral angle
| 19> { D 20  19  18  17   C } # D for Dihedral angle
| 20> { D 19  18  17  16   C } # D for Dihedral angle
| 21> { D 18  17  16  20   C } # D for Dihedral angle
| 22> { D 17  16  20  19   C } # D for Dihedral angle
| 23> { D 15  12  16  20   C } # D for Dihedral angle
| 24> end
| 25> end
| 26>
| 27>
| 28> #%pal
| 29> #nprocs 8
| 30> #end
| 31>
| 32> * xyz 0 1
| 33> C  -21.048   26.222   46.251
| 34> C  -20.361   27.558   45.944
| 35> C  -20.329   28.222   47.341
| 36> C  -20.110   27.022   48.296
| 37> O  -20.473   25.807   47.535
| 38> H  -20.833   25.428   45.533
| 39> H  -19.344   27.382   45.576
| 40> H  -20.898   28.157   45.201
| 41> H  -19.543   28.978   47.434
| 42> H  -21.289   28.710   47.548
| 43> H  -20.733   27.082   49.195
| 44> H  -19.064   26.913   48.597
| 45> C  -23.119   27.818   46.058
| 46> H  -24.206   27.775   45.919
| 47> H  -22.906   28.502   46.890
| 48> O  -22.586   26.394   46.375
| 49> C  -22.487   28.424   44.774
| 50> C  -22.878   27.620   43.529
| 51> C  -24.309   28.142   43.256
| 52> C  -24.224   29.633   43.670
| 53> O  -23.024   29.765   44.522
| 54> H  -21.411   28.533   44.923
| 55> H  -22.210   27.870   42.696
| 56> O  -22.828   26.084   43.753
| 57> H  -24.615   28.015   42.213
| 58> H  -25.030   27.606   43.884
| 59> H  -25.103   29.962   44.234
| 60> H  -24.086   30.297   42.812
| 61> H  -23.490   25.812   44.583
| 62> *
| 63>
| 64>                          ****END OF INPUT****
 Total Charge           Charge          ....    0
 Multiplicity           Mult            ....    1
 Number of Electrons    NEL             ....  102
FINAL SINGLE POINT ENERGY      -652.682050425418
FINAL SINGLE POINT ENERGY      -652.749876504035
FINAL SINGLE POINT ENERGY      -652.790119126255
FINAL SINGLE POINT ENERGY      -652.814168210975
FINAL SINGLE POINT ENERGY      -652.828338493089
FINAL SINGLE POINT ENERGY      -652.836788369315
FINAL SINGLE POINT ENERGY      -652.841831458040
FINAL SINGLE POINT ENERGY      -652.844692306185
FINAL SINGLE POINT ENERGY      -652.846073126032
FINAL SINGLE POINT ENERGY      -652.846440189905
FINAL SINGLE POINT ENERGY      -652.846751034295
FINAL SINGLE POINT ENERGY      -652.846774853122
FINAL SINGLE POINT ENERGY      -652.846812265157
FINAL SINGLE POINT ENERGY      -652.846855152099
FINAL SINGLE POINT ENERGY      -652.846900970817
FINAL SINGLE POINT ENERGY      -652.846936305408
FINAL SINGLE POINT ENERGY      -652.846958804493
FINAL SINGLE POINT ENERGY      -652.846966942366
FINAL SINGLE POINT ENERGY      -652.846975307673
                    ***********************HURRAY********************

CARTESIAN COORDINATES (ANGSTROEM)
---------------------------------
  C    -21.117212   26.251932   46.414200
  C    -20.029403   27.265283   46.051835
  C    -19.910655   28.097169   47.358033
  C    -20.157827   27.034036   48.453031
  O    -20.812332   25.893653   47.771960
  H    -21.081341   25.330915   45.833597
  H    -19.106598   26.695217   45.890351
  H    -20.213428   27.844240   45.151626
  H    -18.933804   28.578845   47.457159
  H    -20.675194   28.882685   47.388480
  H    -20.809485   27.387021   49.256892
  H    -19.227906   26.653087   48.884951
  C    -23.161521   27.923683   45.974818
  H    -24.216127   27.650393   45.882094
  H    -23.082533   28.647265   46.796780
  O    -22.529211   26.656891   46.366291
  C    -22.678804   28.625810   44.696228
  C    -22.932209   27.826966   43.406413
  C    -24.445955   28.092858   43.166103
  C    -24.633289   29.544220   43.656752
  O    -23.453239   29.854746   44.521209
  H    -21.647152   28.958398   44.788604
  H    -22.339545   28.237082   42.585178
  O    -22.568202   26.429704   43.485515
  H    -24.719181   27.963492   42.115517
  H    -25.038143   27.382200   43.753146
  H    -25.545928   29.689887   44.242267
  H    -24.618144   30.269591   42.838462
  H    -22.852630   26.065728   44.354507

 Multiplicity           Mult            ....    1
 Number of Electrons    NEL             ....  102
 Basis Dimension        Dim             ....  149

ORBITAL ENERGIES
----------------

  NO   OCC          E(Eh)            E(eV)
   0   2.0000     -19.148075      -521.0456
   1   2.0000     -19.146996      -521.0163
   2   2.0000     -19.141751      -520.8735
   3   2.0000     -19.136662      -520.7351
   4   2.0000     -10.286988      -279.9232
   5   2.0000     -10.242921      -278.7240
   6   2.0000     -10.240055      -278.6461
   7   2.0000     -10.239597      -278.6336
   8   2.0000     -10.234469      -278.4941
   9   2.0000     -10.229607      -278.3618
  10   2.0000     -10.196043      -277.4484
  11   2.0000     -10.195454      -277.4324
  12   2.0000     -10.190778      -277.3052
  13   2.0000      -1.052848       -28.6494
  14   2.0000      -1.033500       -28.1230
  15   2.0000      -1.012434       -27.5497
  16   2.0000      -0.992069       -26.9956
  17   2.0000      -0.793227       -21.5848
  18   2.0000      -0.782380       -21.2896
  19   2.0000      -0.773567       -21.0498
  20   2.0000      -0.741180       -20.1685
  21   2.0000      -0.686128       -18.6705
  22   2.0000      -0.610468       -16.6117
  23   2.0000      -0.607903       -16.5419
  24   2.0000      -0.605419       -16.4743
  25   2.0000      -0.574545       -15.6342
  26   2.0000      -0.537226       -14.6187
  27   2.0000      -0.511206       -13.9106
  28   2.0000      -0.504305       -13.7228
  29   2.0000      -0.490287       -13.3414
  30   2.0000      -0.472931       -12.8691
  31   2.0000      -0.460437       -12.5291
  32   2.0000      -0.445848       -12.1321
  33   2.0000      -0.441518       -12.0143
  34   2.0000      -0.429242       -11.6803
  35   2.0000      -0.418609       -11.3909
  36   2.0000      -0.411652       -11.2016
  37   2.0000      -0.405243       -11.0272
  38   2.0000      -0.388668       -10.5762
  39   2.0000      -0.376470       -10.2443
  40   2.0000      -0.365091        -9.9346
  41   2.0000      -0.357228        -9.7207
  42   2.0000      -0.354933        -9.6582
  43   2.0000      -0.341424        -9.2906
  44   2.0000      -0.316863        -8.6223
  45   2.0000      -0.310444        -8.4476
  46   2.0000      -0.299380        -8.1465
  47   2.0000      -0.275817        -7.5054
  48   2.0000      -0.264449        -7.1960
  49   2.0000      -0.257493        -7.0067
  50   2.0000      -0.242922        -6.6102
  51   0.0000       0.052831         1.4376
  52   0.0000       0.066244         1.8026
  53   0.0000       0.081888         2.2283
  54   0.0000       0.093628         2.5478
  55   0.0000       0.100323         2.7299

MULLIKEN ATOMIC CHARGES
-----------------------
   0 C :    0.317961
   1 C :   -0.294189
   2 C :   -0.314062
   3 C :   -0.005255
   4 O :   -0.493947
   5 H :    0.164976
   6 H :    0.158558
   7 H :    0.154945
   8 H :    0.148002
   9 H :    0.154330
  10 H :    0.151639
  11 H :    0.147805
  12 C :   -0.025983
  13 H :    0.163019
  14 H :    0.155534
  15 O :   -0.557225
  16 C :    0.047773
  17 C :    0.104273
  18 C :   -0.311712
  19 C :   -0.020806
  20 O :   -0.522060
  21 H :    0.159090
  22 H :    0.158147
  23 O :   -0.622347
  24 H :    0.154742
  25 H :    0.147786
  26 H :    0.145141
  27 H :    0.154485
  28 H :    0.379379
Sum of atomic charges:    0.0000000

LOEWDIN ATOMIC CHARGES
----------------------
   0 C :    0.185486
   1 C :   -0.229843
   2 C :   -0.221323
   3 C :   -0.029419
   4 O :   -0.306617
   5 H :    0.110850
   6 H :    0.124561
   7 H :    0.118579
   8 H :    0.118090
   9 H :    0.111713
  10 H :    0.107294
  11 H :    0.105197
  12 C :   -0.047765
  13 H :    0.115356
  14 H :    0.107238
  15 O :   -0.350896
  16 C :    0.001353
  17 C :    0.037750
  18 C :   -0.239507
  19 C :   -0.032369
  20 O :   -0.321776
  21 H :    0.111236
  22 H :    0.113949
  23 O :   -0.420866
  24 H :    0.123317
  25 H :    0.112286
  26 H :    0.103912
  27 H :    0.108564
  28 H :    0.283651

  Mayer bond orders larger than 0.100000
B(  0-C ,  1-C ) :   0.9305 B(  0-C ,  4-O ) :   0.9245 B(  0-C ,  5-H ) :   0.9287
B(  0-C , 15-O ) :   0.8257 B(  1-C ,  2-C ) :   0.9509 B(  1-C ,  6-H ) :   0.9300
B(  1-C ,  7-H ) :   0.9176 B(  2-C ,  3-C ) :   0.9491 B(  2-C ,  8-H ) :   0.9454
B(  2-C ,  9-H ) :   0.9414 B(  3-C ,  4-O ) :   0.8406 B(  3-C , 10-H ) :   0.9342
B(  3-C , 11-H ) :   0.9385 B( 12-C , 13-H ) :   0.9339 B( 12-C , 14-H ) :   0.9199
B( 12-C , 15-O ) :   0.8145 B( 12-C , 16-C ) :   0.8797 B( 16-C , 17-C ) :   0.8985
B( 16-C , 20-O ) :   0.8347 B( 16-C , 21-H ) :   0.9194 B( 17-C , 18-C ) :   0.9076
B( 17-C , 22-H ) :   0.9348 B( 17-C , 23-O ) :   0.9203 B( 18-C , 19-C ) :   0.9413
B( 18-C , 24-H ) :   0.9435 B( 18-C , 25-H ) :   0.9419 B( 19-C , 20-O ) :   0.8336
B( 19-C , 26-H ) :   0.9334 B( 19-C , 27-H ) :   0.9375 B( 23-O , 28-H ) :   0.7469

FINAL SINGLE POINT ENERGY      -652.846976821455

DIPOLE MOMENT
-------------
                                X             Y             Z
Electronic contribution:     -0.80247      -2.91247       0.36295
Nuclear contribution   :      0.94491       3.78160      -0.54251
                        -----------------------------------------
Total Dipole Moment    :      0.14245       0.86914      -0.17956
                        -----------------------------------------
Magnitude (a.u.)       :      0.89885
Magnitude (Debye)      :      2.28469

Rotational constants in cm-1:     0.056416     0.014897     0.013736
Rotational constants in MHz :  1691.303344   446.614939   411.806157

                             ****ORCA TERMINATED NORMALLY****
TOTAL RUN TIME: 0 days 2 hours 12 minutes 2 seconds 677 msec
