                         Program Version 4.2.0 -  RELEASE  -
|  1> # Test redundant internal optimization
|  2> #
|  3> ! RKS B3LYP  Opt TightSCF SmallPrint
|  4>
|  5> %basis
|  6>         Basis "6-31G"
|  7> end
|  8>
|  9> %geom
| 10> Constraints
| 11> { D 4  0  15  12  285.0   C } # D for Dihedral angle
| 12> { D 0  15  12  16  45.0   C } # D for Dihedral angle
| 13> { D 0  4  3  2   C } # D for Dihedral angle
| 14> { D 4  3  2  1   C } # D for Dihedral angle
| 15> { D 3  2  1  0   C } # D for Dihedral angle
| 16> { D 2  1  0  4   C } # D for Dihedral angle
| 17> { D 1  0  4  3   C } # D for Dihedral angle
| 18> { D 16  20  19  18   C } # D for Dihedral angle
| 19> { D 20  19  18  17   C } # D for Dihedral angle
| 20> { D 19  18  17  16   C } # D for Dihedral angle
| 21> { D 18  17  16  20   C } # D for Dihedral angle
| 22> { D 17  16  20  19   C } # D for Dihedral angle
| 23> { D 15  12  16  20   C } # D for Dihedral angle
| 24> end
| 25> end
| 26>
| 27>
| 28> #%pal
| 29> #nprocs 8
| 30> #end
| 31>
| 32> * xyz 0 1
| 33> C  -21.048   26.222   46.251
| 34> C  -20.361   27.558   45.944
| 35> C  -20.329   28.222   47.341
| 36> C  -20.110   27.022   48.296
| 37> O  -20.473   25.807   47.535
| 38> H  -20.833   25.428   45.533
| 39> H  -19.344   27.382   45.576
| 40> H  -20.898   28.157   45.201
| 41> H  -19.543   28.978   47.434
| 42> H  -21.289   28.710   47.548
| 43> H  -20.733   27.082   49.195
| 44> H  -19.064   26.913   48.597
| 45> C  -23.396   25.070   46.435
| 46> H  -24.416   25.285   46.778
| 47> H  -23.458   24.612   45.440
| 48> O  -22.586   26.394   46.375
| 49> C  -22.767   24.025   47.398
| 50> C  -22.796   24.517   48.849
| 51> C  -24.263   24.230   49.248
| 52> C  -24.587   22.923   48.482
| 53> O  -23.570   22.797   47.416
| 54> H  -21.775   23.753   47.032
| 55> H  -22.106   23.924   49.461
| 56> O  -22.414   26.015   48.994
| 57> H  -24.396   24.124   50.330
| 58> H  -24.911   25.047   48.910
| 59> H  -25.583   22.939   48.028
| 60> H  -24.502   22.036   49.116
| 61> H  -23.092   26.627   48.389
| 62> *
| 63>
| 64>                          ****END OF INPUT****
 Total Charge           Charge          ....    0
 Multiplicity           Mult            ....    1
 Number of Electrons    NEL             ....  102
FINAL SINGLE POINT ENERGY      -652.821391839266
FINAL SINGLE POINT ENERGY      -652.848052563884
FINAL SINGLE POINT ENERGY      -652.857129767342
FINAL SINGLE POINT ENERGY      -652.859742977454
FINAL SINGLE POINT ENERGY      -652.860694190562
FINAL SINGLE POINT ENERGY      -652.861062972871
FINAL SINGLE POINT ENERGY      -652.861165557079
FINAL SINGLE POINT ENERGY      -652.861188207613
FINAL SINGLE POINT ENERGY      -652.861190999779
                    ***********************HURRAY********************

CARTESIAN COORDINATES (ANGSTROEM)
---------------------------------
  C    -21.022225   26.200258   46.303804
  C    -20.493633   27.584029   45.927278
  C    -20.405905   28.281085   47.307997
  C    -19.996402   27.128791   48.253616
  O    -20.322155   25.874424   47.509525
  H    -20.779750   25.406865   45.588769
  H    -19.498829   27.475628   45.480934
  H    -21.148132   28.099135   45.221579
  H    -19.681674   29.101257   47.318920
  H    -21.384191   28.688229   47.583198
  H    -20.539163   27.103375   49.197749
  H    -18.918993   27.097259   48.438592
  C    -23.253540   25.040481   46.475631
  H    -24.261918   25.362782   46.743099
  H    -23.295417   24.587633   45.475965
  O    -22.487027   26.304972   46.381896
  C    -22.735028   23.975759   47.460802
  C    -22.840557   24.438064   48.932233
  C    -24.374430   24.250603   49.227331
  C    -24.709724   22.991055   48.398356
  O    -23.621425   22.819156   47.401960
  H    -21.735765   23.631057   47.194765
  H    -22.236446   23.792983   49.573729
  O    -22.474305   25.802530   49.245842
  H    -24.565505   24.126563   50.295672
  H    -24.910940   25.139637   48.883160
  H    -25.663113   23.061475   47.864728
  H    -24.718270   22.082097   49.007761
  H    -22.568537   26.351818   48.437109

 Multiplicity           Mult            ....    1
 Number of Electrons    NEL             ....  102
 Basis Dimension        Dim             ....  149

ORBITAL ENERGIES
----------------

  NO   OCC          E(Eh)            E(eV)
   0   2.0000     -19.161010      -521.3976
   1   2.0000     -19.148325      -521.0524
   2   2.0000     -19.140797      -520.8476
   3   2.0000     -19.122277      -520.3436
   4   2.0000     -10.285156      -279.8733
   5   2.0000     -10.234754      -278.5018
   6   2.0000     -10.234307      -278.4897
   7   2.0000     -10.232124      -278.4303
   8   2.0000     -10.226103      -278.2664
   9   2.0000     -10.222557      -278.1699
  10   2.0000     -10.188548      -277.2445
  11   2.0000     -10.188412      -277.2408
  12   2.0000     -10.180670      -277.0301
  13   2.0000      -1.058456       -28.8021
  14   2.0000      -1.026931       -27.9442
  15   2.0000      -1.002856       -27.2891
  16   2.0000      -0.999858       -27.2075
  17   2.0000      -0.791160       -21.5285
  18   2.0000      -0.768542       -20.9131
  19   2.0000      -0.763009       -20.7625
  20   2.0000      -0.735831       -20.0230
  21   2.0000      -0.675636       -18.3850
  22   2.0000      -0.603695       -16.4274
  23   2.0000      -0.600829       -16.3494
  24   2.0000      -0.596023       -16.2186
  25   2.0000      -0.573262       -15.5993
  26   2.0000      -0.526788       -14.3346
  27   2.0000      -0.515958       -14.0399
  28   2.0000      -0.493147       -13.4192
  29   2.0000      -0.487342       -13.2612
  30   2.0000      -0.463130       -12.6024
  31   2.0000      -0.454678       -12.3724
  32   2.0000      -0.442230       -12.0337
  33   2.0000      -0.434984       -11.8365
  34   2.0000      -0.423785       -11.5318
  35   2.0000      -0.410085       -11.1590
  36   2.0000      -0.402427       -10.9506
  37   2.0000      -0.390492       -10.6258
  38   2.0000      -0.380187       -10.3454
  39   2.0000      -0.367936       -10.0121
  40   2.0000      -0.358918        -9.7666
  41   2.0000      -0.352960        -9.6045
  42   2.0000      -0.349934        -9.5222
  43   2.0000      -0.343367        -9.3435
  44   2.0000      -0.331478        -9.0200
  45   2.0000      -0.309488        -8.4216
  46   2.0000      -0.298052        -8.1104
  47   2.0000      -0.274269        -7.4632
  48   2.0000      -0.267180        -7.2703
  49   2.0000      -0.245886        -6.6909
  50   2.0000      -0.240155        -6.5350
  51   0.0000       0.058554         1.5933
  52   0.0000       0.084431         2.2975
  53   0.0000       0.095451         2.5973
  54   0.0000       0.103226         2.8089
  55   0.0000       0.106575         2.9000

MULLIKEN ATOMIC CHARGES
-----------------------
   0 C :    0.278066
   1 C :   -0.261520
   2 C :   -0.307075
   3 C :   -0.033754
   4 O :   -0.507518
   5 H :    0.150122
   6 H :    0.150320
   7 H :    0.159745
   8 H :    0.146281
   9 H :    0.156437
  10 H :    0.186596
  11 H :    0.145582
  12 C :   -0.047383
  13 H :    0.159046
  14 H :    0.156696
  15 O :   -0.534073
  16 C :    0.058679
  17 C :    0.117435
  18 C :   -0.304557
  19 C :   -0.019349
  20 O :   -0.522646
  21 H :    0.173442
  22 H :    0.156191
  23 O :   -0.622046
  24 H :    0.153594
  25 H :    0.143781
  26 H :    0.140432
  27 H :    0.148732
  28 H :    0.378743
Sum of atomic charges:   -0.0000000

LOEWDIN ATOMIC CHARGES
----------------------
   0 C :    0.164368
   1 C :   -0.213673
   2 C :   -0.218072
   3 C :   -0.038210
   4 O :   -0.316762
   5 H :    0.098500
   6 H :    0.116735
   7 H :    0.124730
   8 H :    0.116523
   9 H :    0.114991
  10 H :    0.123202
  11 H :    0.105038
  12 C :   -0.056626
  13 H :    0.114388
  14 H :    0.108809
  15 O :   -0.338740
  16 C :    0.010351
  17 C :    0.042909
  18 C :   -0.237495
  19 C :   -0.034998
  20 O :   -0.320515
  21 H :    0.122131
  22 H :    0.113785
  23 O :   -0.416346
  24 H :    0.122493
  25 H :    0.109689
  26 H :    0.100650
  27 H :    0.105817
  28 H :    0.276327

  Mayer bond orders larger than 0.100000
B(  0-C ,  1-C ) :   0.9443 B(  0-C ,  4-O ) :   0.9265 B(  0-C ,  5-H ) :   0.9222
B(  0-C , 15-O ) :   0.8245 B(  1-C ,  2-C ) :   0.9556 B(  1-C ,  6-H ) :   0.9399
B(  1-C ,  7-H ) :   0.9366 B(  2-C ,  3-C ) :   0.9533 B(  2-C ,  8-H ) :   0.9449
B(  2-C ,  9-H ) :   0.9457 B(  3-C ,  4-O ) :   0.8126 B(  3-C , 10-H ) :   0.9126
B(  3-C , 11-H ) :   0.9412 B( 12-C , 13-H ) :   0.9364 B( 12-C , 14-H ) :   0.9275
B( 12-C , 15-O ) :   0.8134 B( 12-C , 16-C ) :   0.8824 B( 16-C , 17-C ) :   0.9047
B( 16-C , 20-O ) :   0.8373 B( 16-C , 21-H ) :   0.9245 B( 17-C , 18-C ) :   0.9047
B( 17-C , 22-H ) :   0.9334 B( 17-C , 23-O ) :   0.9061 B( 18-C , 19-C ) :   0.9392
B( 18-C , 24-H ) :   0.9445 B( 18-C , 25-H ) :   0.9432 B( 19-C , 20-O ) :   0.8291
B( 19-C , 26-H ) :   0.9342 B( 19-C , 27-H ) :   0.9395 B( 23-O , 28-H ) :   0.7361

FINAL SINGLE POINT ENERGY      -652.861192019033

DIPOLE MOMENT
-------------
                                X             Y             Z
Electronic contribution:      0.40942      -3.18896      -0.83833
Nuclear contribution   :     -0.44285       3.80770       0.53748
                        -----------------------------------------
Total Dipole Moment    :     -0.03343       0.61874      -0.30085
                        -----------------------------------------
Magnitude (a.u.)       :      0.68882
Magnitude (Debye)      :      1.75083

Rotational constants in cm-1:     0.059211     0.016499     0.014821
Rotational constants in MHz :  1775.099485   494.627527   444.307924

                             ****ORCA TERMINATED NORMALLY****
TOTAL RUN TIME: 0 days 0 hours 47 minutes 28 seconds 727 msec
