                         Program Version 4.2.0 -  RELEASE  -
|  1> # Test redundant internal optimization
|  2> #
|  3> ! RKS B3LYP  Opt TightSCF SmallPrint
|  4>
|  5> %basis
|  6>         Basis "6-31G"
|  7> end
|  8>
|  9> %geom
| 10> Constraints
| 11> { D 4  0  15  12  255.0   C } # D for Dihedral angle
| 12> { D 0  15  12  16  105.0   C } # D for Dihedral angle
| 13> { D 0  4  3  2   C } # D for Dihedral angle
| 14> { D 4  3  2  1   C } # D for Dihedral angle
| 15> { D 3  2  1  0   C } # D for Dihedral angle
| 16> { D 2  1  0  4   C } # D for Dihedral angle
| 17> { D 1  0  4  3   C } # D for Dihedral angle
| 18> { D 16  20  19  18   C } # D for Dihedral angle
| 19> { D 20  19  18  17   C } # D for Dihedral angle
| 20> { D 19  18  17  16   C } # D for Dihedral angle
| 21> { D 18  17  16  20   C } # D for Dihedral angle
| 22> { D 17  16  20  19   C } # D for Dihedral angle
| 23> { D 15  12  16  20   C } # D for Dihedral angle
| 24> end
| 25> end
| 26>
| 27>
| 28> #%pal
| 29> #nprocs 8
| 30> #end
| 31>
| 32> * xyz 0 1
| 33> C  -21.048   26.222   46.251
| 34> C  -20.361   27.558   45.944
| 35> C  -20.329   28.222   47.341
| 36> C  -20.110   27.022   48.296
| 37> O  -20.473   25.807   47.535
| 38> H  -20.833   25.428   45.533
| 39> H  -19.344   27.382   45.576
| 40> H  -20.898   28.157   45.201
| 41> H  -19.543   28.978   47.434
| 42> H  -21.289   28.710   47.548
| 43> H  -20.733   27.082   49.195
| 44> H  -19.064   26.913   48.597
| 45> C  -23.431   25.260   45.734
| 46> H  -24.247   25.703   45.149
| 47> H  -22.813   24.656   45.056
| 48> O  -22.586   26.394   46.375
| 49> C  -24.050   24.302   46.789
| 50> C  -25.064   25.032   47.677
| 51> C  -26.310   25.075   46.759
| 52> C  -26.227   23.732   45.991
| 53> O  -24.836   23.253   46.130
| 54> H  -23.246   23.804   47.335
| 55> O  -25.352   24.196   48.954
| 56> H  -24.728   26.028   47.985
| 57> H  -27.245   25.180   47.319
| 58> H  -26.237   25.922   46.067
| 59> H  -26.465   23.842   44.928
| 60> H  -26.877   22.965   46.421
| 61> H  -25.691   23.193   48.670
| 62> *
| 63>
| 64>                          ****END OF INPUT****
 Total Charge           Charge          ....    0
 Multiplicity           Mult            ....    1
 Number of Electrons    NEL             ....  102
FINAL SINGLE POINT ENERGY      -652.839582378228
FINAL SINGLE POINT ENERGY      -652.862186822286
FINAL SINGLE POINT ENERGY      -652.865716363219
FINAL SINGLE POINT ENERGY      -652.866340100780
FINAL SINGLE POINT ENERGY      -652.866430413495
FINAL SINGLE POINT ENERGY      -652.866443899565
FINAL SINGLE POINT ENERGY      -652.866446679794
                    ***********************HURRAY********************

CARTESIAN COORDINATES (ANGSTROEM)
---------------------------------
  C    -21.083580   26.120218   46.218262
  C    -20.464499   27.495319   45.966724
  C    -20.540159   28.141136   47.371182
  C    -20.298427   26.942552   48.316107
  O    -20.557234   25.727326   47.503184
  H    -20.809085   25.335883   45.506714
  H    -19.422317   27.371451   45.649701
  H    -21.005187   28.056357   45.201939
  H    -19.802602   28.937064   47.510445
  H    -21.538252   28.560902   47.528211
  H    -20.966828   26.934471   49.180539
  H    -19.261805   26.874444   48.659356
  C    -23.339933   25.234005   45.651118
  H    -24.101994   25.740373   45.048576
  H    -22.740781   24.599765   44.984999
  O    -22.522808   26.272319   46.261804
  C    -23.978585   24.361785   46.734359
  C    -24.947235   25.101078   47.667825
  C    -26.233400   25.154397   46.804061
  C    -26.198458   23.811749   46.031700
  O    -24.800472   23.318391   46.109375
  H    -23.193043   23.860303   47.307128
  O    -25.157237   24.353385   48.897693
  H    -24.579653   26.079490   47.971745
  H    -27.118264   25.258826   47.436625
  H    -26.198432   26.009773   46.120282
  H    -26.480785   23.916154   44.979650
  H    -26.834825   23.047487   46.489210
  H    -25.254120   23.401596   48.681487

 Multiplicity           Mult            ....    1
 Number of Electrons    NEL             ....  102
 Basis Dimension        Dim             ....  149

ORBITAL ENERGIES
----------------

  NO   OCC          E(Eh)            E(eV)
   0   2.0000     -19.146669      -521.0074
   1   2.0000     -19.142743      -520.9005
   2   2.0000     -19.138456      -520.7839
   3   2.0000     -19.131588      -520.5970
   4   2.0000     -10.281252      -279.7671
   5   2.0000     -10.233130      -278.4576
   6   2.0000     -10.232782      -278.4482
   7   2.0000     -10.230178      -278.3773
   8   2.0000     -10.228281      -278.3257
   9   2.0000     -10.223440      -278.1939
  10   2.0000     -10.185570      -277.1634
  11   2.0000     -10.185121      -277.1512
  12   2.0000     -10.184821      -277.1431
  13   2.0000      -1.053835       -28.6763
  14   2.0000      -1.033126       -28.1128
  15   2.0000      -1.001466       -27.2513
  16   2.0000      -0.996209       -27.1082
  17   2.0000      -0.788609       -21.4591
  18   2.0000      -0.776212       -21.1218
  19   2.0000      -0.764824       -20.8119
  20   2.0000      -0.729671       -19.8553
  21   2.0000      -0.673989       -18.3402
  22   2.0000      -0.601454       -16.3664
  23   2.0000      -0.598459       -16.2849
  24   2.0000      -0.594801       -16.1854
  25   2.0000      -0.579892       -15.7797
  26   2.0000      -0.519759       -14.1433
  27   2.0000      -0.518941       -14.1211
  28   2.0000      -0.494450       -13.4547
  29   2.0000      -0.487248       -13.2587
  30   2.0000      -0.466992       -12.7075
  31   2.0000      -0.457660       -12.4536
  32   2.0000      -0.448254       -12.1976
  33   2.0000      -0.440029       -11.9738
  34   2.0000      -0.424026       -11.5383
  35   2.0000      -0.412447       -11.2232
  36   2.0000      -0.398793       -10.8517
  37   2.0000      -0.390069       -10.6143
  38   2.0000      -0.372892       -10.1469
  39   2.0000      -0.365134        -9.9358
  40   2.0000      -0.356777        -9.7084
  41   2.0000      -0.352958        -9.6045
  42   2.0000      -0.349171        -9.5014
  43   2.0000      -0.329747        -8.9729
  44   2.0000      -0.321837        -8.7576
  45   2.0000      -0.309753        -8.4288
  46   2.0000      -0.300391        -8.1741
  47   2.0000      -0.279475        -7.6049
  48   2.0000      -0.263311        -7.1651
  49   2.0000      -0.252961        -6.8834
  50   2.0000      -0.238190        -6.4815
  51   0.0000       0.065989         1.7956
  52   0.0000       0.077300         2.1034
  53   0.0000       0.097279         2.6471
  54   0.0000       0.100759         2.7418
  55   0.0000       0.106705         2.9036

MULLIKEN ATOMIC CHARGES
-----------------------
   0 C :    0.282831
   1 C :   -0.253053
   2 C :   -0.300716
   3 C :   -0.002868
   4 O :   -0.504196
   5 H :    0.143401
   6 H :    0.144241
   7 H :    0.149521
   8 H :    0.141412
   9 H :    0.162386
  10 H :    0.154447
  11 H :    0.141673
  12 C :   -0.021618
  13 H :    0.142121
  14 H :    0.143170
  15 O :   -0.521518
  16 C :    0.061546
  17 C :    0.094687
  18 C :   -0.297349
  19 C :   -0.034548
  20 O :   -0.527840
  21 H :    0.174719
  22 O :   -0.603298
  23 H :    0.170478
  24 H :    0.160555
  25 H :    0.143735
  26 H :    0.145705
  27 H :    0.148220
  28 H :    0.362154
Sum of atomic charges:   -0.0000000

LOEWDIN ATOMIC CHARGES
----------------------
   0 C :    0.174040
   1 C :   -0.218395
   2 C :   -0.216356
   3 C :   -0.027094
   4 O :   -0.322355
   5 H :    0.099216
   6 H :    0.113349
   7 H :    0.120216
   8 H :    0.113792
   9 H :    0.119029
  10 H :    0.109081
  11 H :    0.102404
  12 C :   -0.037031
  13 H :    0.103519
  14 H :    0.104974
  15 O :   -0.330974
  16 C :    0.007907
  17 C :    0.039345
  18 C :   -0.241398
  19 C :   -0.039681
  20 O :   -0.333158
  21 H :    0.122134
  22 O :   -0.414620
  23 H :    0.125397
  24 H :    0.126272
  25 H :    0.112751
  26 H :    0.103349
  27 H :    0.103045
  28 H :    0.281243

  Mayer bond orders larger than 0.100000
B(  0-C ,  1-C ) :   0.9462 B(  0-C ,  4-O ) :   0.9274 B(  0-C ,  5-H ) :   0.9173
B(  0-C , 15-O ) :   0.8440 B(  1-C ,  2-C ) :   0.9577 B(  1-C ,  6-H ) :   0.9381
B(  1-C ,  7-H ) :   0.9381 B(  2-C ,  3-C ) :   0.9541 B(  2-C ,  8-H ) :   0.9453
B(  2-C ,  9-H ) :   0.9440 B(  3-C ,  4-O ) :   0.8358 B(  3-C , 10-H ) :   0.9344
B(  3-C , 11-H ) :   0.9401 B( 12-C , 13-H ) :   0.9367 B( 12-C , 14-H ) :   0.9198
B( 12-C , 15-O ) :   0.8391 B( 12-C , 16-C ) :   0.8852 B( 16-C , 17-C ) :   0.9164
B( 16-C , 20-O ) :   0.8369 B( 16-C , 21-H ) :   0.9234 B( 17-C , 18-C ) :   0.9095
B( 17-C , 22-O ) :   0.8909 B( 17-C , 23-H ) :   0.9254 B( 18-C , 19-C ) :   0.9429
B( 18-C , 24-H ) :   0.9385 B( 18-C , 25-H ) :   0.9354 B( 19-C , 20-O ) :   0.8439
B( 19-C , 26-H ) :   0.9352 B( 19-C , 27-H ) :   0.9376 B( 22-O , 28-H ) :   0.7962

FINAL SINGLE POINT ENERGY      -652.866446953335

DIPOLE MOMENT
-------------
                                X             Y             Z
Electronic contribution:     -0.30428      -4.53904       1.18315
Nuclear contribution   :      0.27345       5.32727      -2.03458
                        -----------------------------------------
Total Dipole Moment    :     -0.03083       0.78823      -0.85143
                        -----------------------------------------
Magnitude (a.u.)       :      1.16069
Magnitude (Debye)      :      2.95024

Rotational constants in cm-1:     0.056272     0.012932     0.012073
Rotational constants in MHz :  1686.992702   387.690550   361.934472

                             ****ORCA TERMINATED NORMALLY****
TOTAL RUN TIME: 0 days 0 hours 45 minutes 0 seconds 19 msec
