                         Program Version 4.2.0 -  RELEASE  -
|  1> # Test redundant internal optimization
|  2> #
|  3> ! RKS B3LYP  Opt TightSCF SmallPrint
|  4>
|  5> %basis
|  6>         Basis "6-31G"
|  7> end
|  8>
|  9> %geom
| 10> Constraints
| 11> { D 4  0  15  12  30.0   C } # D for Dihedral angle
| 12> { D 0  15  12  16  225.0   C } # D for Dihedral angle
| 13> { D 0  4  3  2   C } # D for Dihedral angle
| 14> { D 4  3  2  1   C } # D for Dihedral angle
| 15> { D 3  2  1  0   C } # D for Dihedral angle
| 16> { D 2  1  0  4   C } # D for Dihedral angle
| 17> { D 1  0  4  3   C } # D for Dihedral angle
| 18> { D 16  20  19  18   C } # D for Dihedral angle
| 19> { D 20  19  18  17   C } # D for Dihedral angle
| 20> { D 19  18  17  16   C } # D for Dihedral angle
| 21> { D 18  17  16  20   C } # D for Dihedral angle
| 22> { D 17  16  20  19   C } # D for Dihedral angle
| 23> { D 15  12  16  20   C } # D for Dihedral angle
| 24> end
| 25> end
| 26>
| 27>
| 28> #%pal
| 29> #nprocs 8
| 30> #end
| 31>
| 32> * xyz 0 1
| 33> C  -21.048   26.222   46.251
| 34> C  -20.361   27.558   45.944
| 35> C  -20.329   28.222   47.341
| 36> C  -20.110   27.022   48.296
| 37> O  -20.473   25.807   47.535
| 38> H  -20.833   25.428   45.533
| 39> H  -19.344   27.382   45.576
| 40> H  -20.898   28.157   45.201
| 41> H  -19.543   28.978   47.434
| 42> H  -21.289   28.710   47.548
| 43> H  -20.733   27.082   49.195
| 44> H  -19.064   26.913   48.597
| 45> C  -23.091   26.824   47.779
| 46> H  -22.287   26.683   48.512
| 47> H  -23.372   27.885   47.778
| 48> O  -22.586   26.394   46.375
| 49> C  -24.328   26.009   48.248
| 50> C  -23.979   24.529   48.442
| 51> C  -23.277   24.551   49.821
| 52> C  -24.053   25.649   50.592
| 53> O  -24.762   26.455   49.576
| 54> H  -25.158   26.191   47.563
| 55> O  -25.277   23.678   48.500
| 56> H  -23.340   24.129   47.647
| 57> H  -23.310   23.582   50.329
| 58> H  -22.224   24.832   49.703
| 59> H  -23.391   26.302   51.170
| 60> H  -24.810   25.232   51.261
| 61> H  -25.933   24.060   49.291
| 62> *
| 63>
| 64>                          ****END OF INPUT****
 Total Charge           Charge          ....    0
 Multiplicity           Mult            ....    1
 Number of Electrons    NEL             ....  102
FINAL SINGLE POINT ENERGY      -652.829732821858
FINAL SINGLE POINT ENERGY      -652.853558535873
FINAL SINGLE POINT ENERGY      -652.858616250655
FINAL SINGLE POINT ENERGY      -652.861299123237
FINAL SINGLE POINT ENERGY      -652.861543243051
FINAL SINGLE POINT ENERGY      -652.861591874298
FINAL SINGLE POINT ENERGY      -652.861598183264
                    ***********************HURRAY********************

CARTESIAN COORDINATES (ANGSTROEM)
---------------------------------
  C    -21.154960   26.272052   46.424740
  C    -20.456265   27.535821   45.910681
  C    -20.152418   28.292940   47.231081
  C    -19.843975   27.147135   48.223501
  O    -20.406582   25.912729   47.608766
  H    -21.080755   25.425545   45.740378
  H    -19.528979   27.249832   45.401688
  H    -21.084615   28.100820   45.218970
  H    -19.312938   28.987987   47.134894
  H    -21.028071   28.867840   47.550480
  H    -20.292802   27.293309   49.210248
  H    -18.770886   26.971606   48.342978
  C    -23.116132   26.861086   47.910049
  H    -22.355676   26.783595   48.691124
  H    -23.453760   27.901372   47.841401
  O    -22.584236   26.422520   46.626581
  C    -24.304020   25.963769   48.261910
  C    -23.960181   24.481216   48.464260
  C    -23.378661   24.489852   49.900586
  C    -24.223988   25.569272   50.619899
  O    -24.855083   26.390609   49.554607
  H    -25.095224   26.081331   47.516354
  O    -25.156449   23.657952   48.366997
  H    -23.272741   24.094507   47.715074
  H    -23.470622   23.502611   50.360913
  H    -22.316773   24.756332   49.868616
  H    -23.626017   26.221749   51.264084
  H    -25.035336   25.140234   51.216199
  H    -25.884856   24.090379   48.860939

 Multiplicity           Mult            ....    1
 Number of Electrons    NEL             ....  102
 Basis Dimension        Dim             ....  149

ORBITAL ENERGIES
----------------

  NO   OCC          E(Eh)            E(eV)
   0   2.0000     -19.156841      -521.2841
   1   2.0000     -19.144863      -520.9582
   2   2.0000     -19.141995      -520.8802
   3   2.0000     -19.129596      -520.5428
   4   2.0000     -10.284365      -279.8518
   5   2.0000     -10.239297      -278.6254
   6   2.0000     -10.229915      -278.3701
   7   2.0000     -10.229786      -278.3666
   8   2.0000     -10.228678      -278.3365
   9   2.0000     -10.227735      -278.3108
  10   2.0000     -10.197932      -277.4998
  11   2.0000     -10.191215      -277.3171
  12   2.0000     -10.181518      -277.0532
  13   2.0000      -1.060023       -28.8447
  14   2.0000      -1.031808       -28.0769
  15   2.0000      -1.000962       -27.2375
  16   2.0000      -0.997684       -27.1484
  17   2.0000      -0.795261       -21.6401
  18   2.0000      -0.777765       -21.1641
  19   2.0000      -0.767438       -20.8831
  20   2.0000      -0.735243       -20.0070
  21   2.0000      -0.675530       -18.3821
  22   2.0000      -0.609842       -16.5946
  23   2.0000      -0.599424       -16.3112
  24   2.0000      -0.595903       -16.2153
  25   2.0000      -0.576402       -15.6847
  26   2.0000      -0.523258       -14.2386
  27   2.0000      -0.514140       -13.9905
  28   2.0000      -0.506427       -13.7806
  29   2.0000      -0.487450       -13.2642
  30   2.0000      -0.474589       -12.9142
  31   2.0000      -0.460309       -12.5257
  32   2.0000      -0.451948       -12.2981
  33   2.0000      -0.435224       -11.8430
  34   2.0000      -0.421834       -11.4787
  35   2.0000      -0.414242       -11.2721
  36   2.0000      -0.408117       -11.1054
  37   2.0000      -0.387691       -10.5496
  38   2.0000      -0.382154       -10.3989
  39   2.0000      -0.366792        -9.9809
  40   2.0000      -0.362602        -9.8669
  41   2.0000      -0.356796        -9.7089
  42   2.0000      -0.354781        -9.6541
  43   2.0000      -0.331275        -9.0145
  44   2.0000      -0.325620        -8.8606
  45   2.0000      -0.314647        -8.5620
  46   2.0000      -0.302133        -8.2214
  47   2.0000      -0.274372        -7.4660
  48   2.0000      -0.265205        -7.2166
  49   2.0000      -0.257423        -7.0048
  50   2.0000      -0.239514        -6.5175
  51   0.0000       0.063558         1.7295
  52   0.0000       0.068324         1.8592
  53   0.0000       0.091337         2.4854
  54   0.0000       0.094800         2.5796
  55   0.0000       0.102768         2.7965

MULLIKEN ATOMIC CHARGES
-----------------------
   0 C :    0.297707
   1 C :   -0.259725
   2 C :   -0.312472
   3 C :   -0.025046
   4 O :   -0.512724
   5 H :    0.165581
   6 H :    0.149123
   7 H :    0.159953
   8 H :    0.150572
   9 H :    0.156046
  10 H :    0.143995
  11 H :    0.154698
  12 C :   -0.013507
  13 H :    0.144456
  14 H :    0.146676
  15 O :   -0.533193
  16 C :    0.057955
  17 C :    0.094852
  18 C :   -0.311808
  19 C :   -0.029375
  20 O :   -0.529520
  21 H :    0.166571
  22 O :   -0.604402
  23 H :    0.174026
  24 H :    0.160230
  25 H :    0.161938
  26 H :    0.140903
  27 H :    0.145824
  28 H :    0.360666
Sum of atomic charges:    0.0000000

LOEWDIN ATOMIC CHARGES
----------------------
   0 C :    0.179430
   1 C :   -0.225140
   2 C :   -0.222179
   3 C :   -0.036057
   4 O :   -0.322285
   5 H :    0.111867
   6 H :    0.117034
   7 H :    0.125003
   8 H :    0.119157
   9 H :    0.114090
  10 H :    0.100183
  11 H :    0.108281
  12 C :   -0.042911
  13 H :    0.103436
  14 H :    0.104612
  15 O :   -0.332091
  16 C :    0.015712
  17 C :    0.039942
  18 C :   -0.245299
  19 C :   -0.038763
  20 O :   -0.333285
  21 H :    0.117975
  22 O :   -0.415691
  23 H :    0.126783
  24 H :    0.125751
  25 H :    0.120815
  26 H :    0.101119
  27 H :    0.102313
  28 H :    0.280199

  Mayer bond orders larger than 0.100000
B(  0-C ,  1-C ) :   0.9188 B(  0-C ,  4-O ) :   0.9036 B(  0-C ,  5-H ) :   0.9334
B(  0-C , 15-O ) :   0.8697 B(  1-C ,  2-C ) :   0.9541 B(  1-C ,  6-H ) :   0.9346
B(  1-C ,  7-H ) :   0.9366 B(  2-C ,  3-C ) :   0.9508 B(  2-C ,  8-H ) :   0.9443
B(  2-C ,  9-H ) :   0.9431 B(  3-C ,  4-O ) :   0.8323 B(  3-C , 10-H ) :   0.9297
B(  3-C , 11-H ) :   0.9395 B( 12-C , 13-H ) :   0.9099 B( 12-C , 14-H ) :   0.9231
B( 12-C , 15-O ) :   0.8258 B( 12-C , 16-C ) :   0.8984 B( 16-C , 17-C ) :   0.9124
B( 16-C , 20-O ) :   0.8417 B( 16-C , 21-H ) :   0.9266 B( 17-C , 18-C ) :   0.9140
B( 17-C , 22-O ) :   0.8863 B( 17-C , 23-H ) :   0.9245 B( 18-C , 19-C ) :   0.9394
B( 18-C , 24-H ) :   0.9381 B( 18-C , 25-H ) :   0.9286 B( 19-C , 20-O ) :   0.8440
B( 19-C , 26-H ) :   0.9364 B( 19-C , 27-H ) :   0.9384 B( 22-O , 28-H ) :   0.7969

FINAL SINGLE POINT ENERGY      -652.861599446164

DIPOLE MOMENT
-------------
                                X             Y             Z
Electronic contribution:     -4.58147      -3.19838      -1.82307
Nuclear contribution   :      5.72953       4.22297       2.26445
                        -----------------------------------------
Total Dipole Moment    :      1.14806       1.02459       0.44138
                        -----------------------------------------
Magnitude (a.u.)       :      1.60083
Magnitude (Debye)      :      4.06898

Rotational constants in cm-1:     0.052484     0.014618     0.014023
Rotational constants in MHz :  1573.437287   438.248234   420.403785

                             ****ORCA TERMINATED NORMALLY****
TOTAL RUN TIME: 0 days 1 hours 31 minutes 29 seconds 256 msec
