                         Program Version 4.2.1 -  RELEASE  -
|  1> # Test redundant internal optimization
|  2> #
|  3> ! RKS B3LYP  Opt TightSCF SmallPrint
|  4>
|  5> %basis
|  6>         Basis "6-31G"
|  7> end
|  8>
|  9> %geom
| 10> Constraints
| 11> { D 4  0  19  14  195.0   C } # D for Dihedral angle
| 12> { D 0  19  14  12  255.0   C } # D for Dihedral angle
| 13> { D 0  4  3  2   C } # D for Dihedral angle
| 14> { D 4  3  2  1   C } # D for Dihedral angle
| 15> { D 3  2  1  0   C } # D for Dihedral angle
| 16> { D 2  1  0  4   C } # D for Dihedral angle
| 17> { D 1  0  4  3   C } # D for Dihedral angle
| 18> { D 14  15  16  17   C } # D for Dihedral angle
| 19> { D 15  16  17  12   C } # D for Dihedral angle
| 20> { D 16  17  12  14   C } # D for Dihedral angle
| 21> { D 17  12  14  15   C } # D for Dihedral angle
| 22> { D 12  14  15  16   C } # D for Dihedral angle
| 23> end
| 24> end
| 25>
| 26>
| 27> #%pal
| 28> #nprocs 8
| 29> #end
| 30>
| 31> * xyz 0 1
| 32> C  -21.048   26.222   46.251
| 33> C  -20.361   27.558   45.944
| 34> C  -20.329   28.222   47.341
| 35> C  -20.110   27.022   48.296
| 36> O  -20.473   25.807   47.535
| 37> H  -20.833   25.428   45.533
| 38> H  -19.344   27.382   45.576
| 39> H  -20.898   28.157   45.201
| 40> H  -19.543   28.978   47.434
| 41> H  -21.289   28.710   47.548
| 42> H  -20.733   27.082   49.195
| 43> H  -19.064   26.913   48.597
| 44> C  -23.587   27.896   44.822
| 45> H  -24.354   27.940   44.033
| 46> C  -23.163   26.451   45.109
| 47> C  -22.196   26.169   43.936
| 48> C  -21.501   27.535   43.716
| 49> O  -22.353   28.551   44.372
| 50> H  -23.940   28.447   45.695
| 51> O  -22.472   26.381   46.366
| 52> H  -24.008   25.754   45.140
| 53> H  -21.482   25.369   44.157
| 54> H  -22.761   25.875   43.043
| 55> H  -21.395   27.788   42.655
| 56> H  -20.516   27.585   44.191
| 57> *
| 58>
| 59>                          ****END OF INPUT****
 Total Charge           Charge          ....    0
 Multiplicity           Mult            ....    1
 Number of Electrons    NEL             ....   86
FINAL SINGLE POINT ENERGY      -538.340321759431
FINAL SINGLE POINT ENERGY      -538.419282202712
FINAL SINGLE POINT ENERGY      -538.423112481527
FINAL SINGLE POINT ENERGY      -538.424210835167
FINAL SINGLE POINT ENERGY      -538.424635159362
FINAL SINGLE POINT ENERGY      -538.424824851513
FINAL SINGLE POINT ENERGY      -538.424863646543
FINAL SINGLE POINT ENERGY      -538.424873040330
                    ***********************HURRAY********************

CARTESIAN COORDINATES (ANGSTROEM)
---------------------------------
  C    -20.784094   26.248777   46.323988
  C    -20.084486   27.600194   46.174961
  C    -20.308530   28.236895   47.572047
  C    -20.233370   27.017097   48.513511
  O    -20.437975   25.826518   47.650508
  H    -20.458194   25.463746   45.636989
  H    -19.015902   27.438361   45.987131
  H    -20.506384   28.220945   45.383936
  H    -19.559445   28.997727   47.809567
  H    -21.298657   28.698877   47.610992
  H    -21.004616   27.019094   49.288410
  H    -19.250503   26.897722   48.979860
  C    -23.507149   27.921187   44.814168
  H    -24.446309   27.918053   44.243216
  C    -23.019586   26.491658   45.068058
  C    -22.387407   26.137761   43.709189
  C    -21.773213   27.476164   43.229417
  O    -22.431187   28.545859   44.022169
  H    -23.626069   28.498450   45.730828
  O    -22.236542   26.387669   46.295876
  H    -23.874704   25.833458   45.263531
  H    -21.659876   25.323060   43.759535
  H    -23.191888   25.817902   43.038499
  H    -21.959332   27.663497   42.166157
  H    -20.697586   27.541328   43.413459

 Multiplicity           Mult            ....    1
 Number of Electrons    NEL             ....   86
 Basis Dimension        Dim             ....  127

ORBITAL ENERGIES
----------------

  NO   OCC          E(Eh)            E(eV)
   0   2.0000     -19.141613      -520.8698
   1   2.0000     -19.135024      -520.6905
   2   2.0000     -19.134976      -520.6892
   3   2.0000     -10.277059      -279.6530
   4   2.0000     -10.244149      -278.7575
   5   2.0000     -10.232347      -278.4363
   6   2.0000     -10.225590      -278.2524
   7   2.0000     -10.219301      -278.0813
   8   2.0000     -10.199002      -277.5289
   9   2.0000     -10.179189      -276.9898
  10   2.0000     -10.175195      -276.8811
  11   2.0000      -1.048035       -28.5185
  12   2.0000      -1.020000       -27.7556
  13   2.0000      -0.985361       -26.8130
  14   2.0000      -0.790620       -21.5139
  15   2.0000      -0.776938       -21.1416
  16   2.0000      -0.749545       -20.3962
  17   2.0000      -0.719463       -19.5776
  18   2.0000      -0.619571       -16.8594
  19   2.0000      -0.608036       -16.5455
  20   2.0000      -0.592769       -16.1301
  21   2.0000      -0.563378       -15.3303
  22   2.0000      -0.520474       -14.1628
  23   2.0000      -0.507034       -13.7971
  24   2.0000      -0.485024       -13.1982
  25   2.0000      -0.482682       -13.1344
  26   2.0000      -0.453832       -12.3494
  27   2.0000      -0.442360       -12.0372
  28   2.0000      -0.431089       -11.7305
  29   2.0000      -0.419524       -11.4158
  30   2.0000      -0.401090       -10.9142
  31   2.0000      -0.389122       -10.5885
  32   2.0000      -0.378448       -10.2981
  33   2.0000      -0.372876       -10.1465
  34   2.0000      -0.364604        -9.9214
  35   2.0000      -0.348544        -9.4844
  36   2.0000      -0.341572        -9.2946
  37   2.0000      -0.317259        -8.6331
  38   2.0000      -0.306334        -8.3358
  39   2.0000      -0.295056        -8.0289
  40   2.0000      -0.257689        -7.0121
  41   2.0000      -0.253737        -6.9045
  42   2.0000      -0.238075        -6.4783
  43   0.0000       0.072032         1.9601
  44   0.0000       0.085420         2.3244
  45   0.0000       0.100222         2.7272
  46   0.0000       0.104262         2.8371
  47   0.0000       0.108632         2.9560

MULLIKEN ATOMIC CHARGES
-----------------------
   0 C :    0.298592
   1 C :   -0.290096
   2 C :   -0.302266
   3 C :   -0.000833
   4 O :   -0.503386
   5 H :    0.137152
   6 H :    0.136200
   7 H :    0.183740
   8 H :    0.140262
   9 H :    0.160863
  10 H :    0.152005
  11 H :    0.139548
  12 C :   -0.012007
  13 H :    0.129303
  14 C :    0.092675
  15 C :   -0.329945
  16 C :   -0.018186
  17 O :   -0.520389
  18 H :    0.168421
  19 O :   -0.521388
  20 H :    0.150523
  21 H :    0.157958
  22 H :    0.158615
  23 H :    0.146681
  24 H :    0.145959
Sum of atomic charges:   -0.0000000

LOEWDIN ATOMIC CHARGES
----------------------
   0 C :    0.183899
   1 C :   -0.241343
   2 C :   -0.215656
   3 C :   -0.026194
   4 O :   -0.304908
   5 H :    0.094453
   6 H :    0.110029
   7 H :    0.131850
   8 H :    0.113885
   9 H :    0.117402
  10 H :    0.107818
  11 H :    0.101073
  12 C :   -0.045595
  13 H :    0.094997
  14 C :    0.042613
  15 C :   -0.239621
  16 C :   -0.038980
  17 O :   -0.335386
  18 H :    0.122086
  19 O :   -0.333518
  20 H :    0.110303
  21 H :    0.122406
  22 H :    0.123673
  23 H :    0.103466
  24 H :    0.101250

  Mayer bond orders larger than 0.100000
B(  0-C ,  1-C ) :   0.9329 B(  0-C ,  4-O ) :   0.9380 B(  0-C ,  5-H ) :   0.9186
B(  0-C , 19-O ) :   0.8228 B(  1-C ,  2-C ) :   0.9495 B(  1-C ,  6-H ) :   0.9336
B(  1-C ,  7-H ) :   0.9048 B(  2-C ,  3-C ) :   0.9544 B(  2-C ,  8-H ) :   0.9450
B(  2-C ,  9-H ) :   0.9436 B(  3-C ,  4-O ) :   0.8328 B(  3-C , 10-H ) :   0.9355
B(  3-C , 11-H ) :   0.9401 B( 12-C , 13-H ) :   0.9142 B( 12-C , 14-C ) :   0.9118
B( 12-C , 17-O ) :   0.8519 B( 12-C , 18-H ) :   0.9320 B( 14-C , 15-C ) :   0.9333
B( 14-C , 19-O ) :   0.8786 B( 14-C , 20-H ) :   0.9318 B( 15-C , 16-C ) :   0.9421
B( 15-C , 21-H ) :   0.9332 B( 15-C , 22-H ) :   0.9356 B( 16-C , 17-O ) :   0.8521
B( 16-C , 23-H ) :   0.9359 B( 16-C , 24-H ) :   0.9285

FINAL SINGLE POINT ENERGY      -538.424874893354

DIPOLE MOMENT
-------------
                                X             Y             Z
Electronic contribution:     -1.26896      -1.98471       1.49589
Nuclear contribution   :      1.28108       2.03226      -2.22096
                        -----------------------------------------
Total Dipole Moment    :      0.01212       0.04755      -0.72507
                        -----------------------------------------
Magnitude (a.u.)       :      0.72673
Magnitude (Debye)      :      1.84720

Rotational constants in cm-1:     0.072891     0.024493     0.022938
Rotational constants in MHz :  2185.227441   734.279679   687.651335

                             ****ORCA TERMINATED NORMALLY****
TOTAL RUN TIME: 0 days 0 hours 10 minutes 1 seconds 648 msec
