                         Program Version 4.2.0 -  RELEASE  -
|  1> # Test redundant internal optimization
|  2> #
|  3> ! RKS B3LYP  Opt TightSCF SmallPrint
|  4>
|  5> %basis
|  6>         Basis "6-31G"
|  7> end
|  8>
|  9> %geom
| 10> Constraints
| 11> { D 4  0  15  12  150.0   C } # D for Dihedral angle
| 12> { D 0  15  12  16  30.0   C } # D for Dihedral angle
| 13> { D 0  4  3  2   C } # D for Dihedral angle
| 14> { D 4  3  2  1   C } # D for Dihedral angle
| 15> { D 3  2  1  0   C } # D for Dihedral angle
| 16> { D 2  1  0  4   C } # D for Dihedral angle
| 17> { D 1  0  4  3   C } # D for Dihedral angle
| 18> { D 16  20  19  18   C } # D for Dihedral angle
| 19> { D 20  19  18  17   C } # D for Dihedral angle
| 20> { D 19  18  17  16   C } # D for Dihedral angle
| 21> { D 18  17  16  20   C } # D for Dihedral angle
| 22> { D 17  16  20  19   C } # D for Dihedral angle
| 23> { D 15  12  16  20   C } # D for Dihedral angle
| 24> end
| 25> end
| 26>
| 27>
| 28> #%pal
| 29> #nprocs 8
| 30> #end
| 31>
| 32> * xyz 0 1
| 33> C  -21.048   26.222   46.251
| 34> C  -20.361   27.558   45.944
| 35> C  -20.329   28.222   47.341
| 36> C  -20.110   27.022   48.296
| 37> O  -20.473   25.807   47.535
| 38> H  -20.833   25.428   45.533
| 39> H  -19.344   27.382   45.576
| 40> H  -20.898   28.157   45.201
| 41> H  -19.543   28.978   47.434
| 42> H  -21.289   28.710   47.548
| 43> H  -20.733   27.082   49.195
| 44> H  -19.064   26.913   48.597
| 45> C  -23.210   27.459   45.431
| 46> H  -24.240   27.170   45.191
| 47> H  -23.234   28.440   45.923
| 48> O  -22.586   26.394   46.375
| 49> C  -22.423   27.616   44.101
| 50> C  -22.482   26.333   43.264
| 51> C  -23.887   26.439   42.626
| 52> C  -24.052   27.961   42.389
| 53> O  -23.054   28.631   43.250
| 54> H  -21.413   27.967   44.321
| 55> H  -21.704   26.352   42.492
| 56> O  -22.300   25.044   44.111
| 57> H  -23.978   25.861   41.701
| 58> H  -24.647   26.072   43.326
| 59> H  -25.052   28.321   42.653
| 60> H  -23.833   28.249   41.357
| 61> H  -23.069   25.004   44.891
| 62> *
| 63>
| 64>                          ****END OF INPUT****
 Total Charge           Charge          ....    0
 Multiplicity           Mult            ....    1
 Number of Electrons    NEL             ....  102
FINAL SINGLE POINT ENERGY      -652.776269020039
FINAL SINGLE POINT ENERGY      -652.826417655855
FINAL SINGLE POINT ENERGY      -652.844457984771
FINAL SINGLE POINT ENERGY      -652.846732717328
FINAL SINGLE POINT ENERGY      -652.847020480475
FINAL SINGLE POINT ENERGY      -652.847109936053
FINAL SINGLE POINT ENERGY      -652.847118166570
FINAL SINGLE POINT ENERGY      -652.847120174890
                    ***********************HURRAY********************

CARTESIAN COORDINATES (ANGSTROEM)
---------------------------------
  C    -20.986850   26.214287   46.372109
  C    -20.012418   27.362338   46.104407
  C    -20.137557   28.208772   47.402253
  C    -20.351075   27.124562   48.480471
  O    -20.775825   25.907650   47.754036
  H    -20.806070   25.310888   45.792940
  H    -19.006103   26.933270   46.027787
  H    -20.195864   27.935349   45.199133
  H    -19.248185   28.817375   47.589910
  H    -21.002611   28.877347   47.339500
  H    -21.124291   27.386114   49.207373
  H    -19.428640   26.867469   49.010137
  C    -23.088326   27.478862   45.340437
  H    -24.104489   27.080733   45.265676
  H    -23.158787   28.467733   45.811676
  O    -22.419368   26.559466   46.269779
  C    -22.509327   27.698669   43.929994
  C    -22.531314   26.444649   43.036219
  C    -24.025056   26.396429   42.592358
  C    -24.394883   27.889196   42.463066
  O    -23.365202   28.652287   43.225981
  H    -21.526820   28.164784   43.962219
  H    -21.877161   26.584566   42.173162
  O    -22.069348   25.226807   43.666334
  H    -24.153199   25.844361   41.657905
  H    -24.618728   25.892516   43.363736
  H    -25.382441   28.127908   42.868978
  H    -24.343725   28.244100   41.429681
  H    -22.545337   25.095512   44.515740

 Multiplicity           Mult            ....    1
 Number of Electrons    NEL             ....  102
 Basis Dimension        Dim             ....  149

ORBITAL ENERGIES
----------------

  NO   OCC          E(Eh)            E(eV)
   0   2.0000     -19.148951      -521.0695
   1   2.0000     -19.145350      -520.9715
   2   2.0000     -19.140289      -520.8338
   3   2.0000     -19.139688      -520.8174
   4   2.0000     -10.281591      -279.7763
   5   2.0000     -10.246030      -278.8086
   6   2.0000     -10.240662      -278.6626
   7   2.0000     -10.236736      -278.5557
   8   2.0000     -10.235598      -278.5248
   9   2.0000     -10.225836      -278.2592
  10   2.0000     -10.193934      -277.3910
  11   2.0000     -10.190684      -277.3026
  12   2.0000     -10.190458      -277.2965
  13   2.0000      -1.051082       -28.6014
  14   2.0000      -1.036358       -28.2007
  15   2.0000      -1.018145       -27.7051
  16   2.0000      -0.986715       -26.8499
  17   2.0000      -0.788207       -21.4482
  18   2.0000      -0.783620       -21.3234
  19   2.0000      -0.771454       -20.9923
  20   2.0000      -0.738535       -20.0966
  21   2.0000      -0.684199       -18.6180
  22   2.0000      -0.612610       -16.6700
  23   2.0000      -0.607081       -16.5195
  24   2.0000      -0.602478       -16.3943
  25   2.0000      -0.571130       -15.5412
  26   2.0000      -0.536567       -14.6007
  27   2.0000      -0.512761       -13.9529
  28   2.0000      -0.500835       -13.6284
  29   2.0000      -0.488889       -13.3034
  30   2.0000      -0.470726       -12.8091
  31   2.0000      -0.459470       -12.5028
  32   2.0000      -0.444706       -12.1011
  33   2.0000      -0.441458       -12.0127
  34   2.0000      -0.431173       -11.7328
  35   2.0000      -0.416214       -11.3258
  36   2.0000      -0.412189       -11.2162
  37   2.0000      -0.404881       -11.0174
  38   2.0000      -0.385218       -10.4823
  39   2.0000      -0.375306       -10.2126
  40   2.0000      -0.362548        -9.8654
  41   2.0000      -0.356914        -9.7121
  42   2.0000      -0.353923        -9.6307
  43   2.0000      -0.342129        -9.3098
  44   2.0000      -0.314998        -8.5715
  45   2.0000      -0.314051        -8.5457
  46   2.0000      -0.299300        -8.1444
  47   2.0000      -0.269045        -7.3211
  48   2.0000      -0.264610        -7.2004
  49   2.0000      -0.255641        -6.9563
  50   2.0000      -0.243988        -6.6393
  51   0.0000       0.053351         1.4518
  52   0.0000       0.067217         1.8291
  53   0.0000       0.079795         2.1713
  54   0.0000       0.096792         2.6339
  55   0.0000       0.101737         2.7684

MULLIKEN ATOMIC CHARGES
-----------------------
   0 C :    0.306931
   1 C :   -0.291494
   2 C :   -0.303146
   3 C :   -0.001014
   4 O :   -0.495345
   5 H :    0.164797
   6 H :    0.154375
   7 H :    0.143654
   8 H :    0.144478
   9 H :    0.155720
  10 H :    0.152913
  11 H :    0.145577
  12 C :   -0.019291
  13 H :    0.153458
  14 H :    0.153428
  15 O :   -0.552564
  16 C :    0.041988
  17 C :    0.100066
  18 C :   -0.317124
  19 C :   -0.014841
  20 O :   -0.520373
  21 H :    0.163914
  22 H :    0.162759
  23 O :   -0.609085
  24 H :    0.158377
  25 H :    0.147578
  26 H :    0.146249
  27 H :    0.151746
  28 H :    0.376267
Sum of atomic charges:   -0.0000000

LOEWDIN ATOMIC CHARGES
----------------------
   0 C :    0.183534
   1 C :   -0.230139
   2 C :   -0.217692
   3 C :   -0.027119
   4 O :   -0.300450
   5 H :    0.108619
   6 H :    0.121037
   7 H :    0.113196
   8 H :    0.115832
   9 H :    0.113807
  10 H :    0.108620
  11 H :    0.103936
  12 C :   -0.050671
  13 H :    0.111013
  14 H :    0.107310
  15 O :   -0.358329
  16 C :    0.002438
  17 C :    0.036073
  18 C :   -0.239956
  19 C :   -0.030652
  20 O :   -0.320317
  21 H :    0.111035
  22 H :    0.116893
  23 O :   -0.410891
  24 H :    0.124469
  25 H :    0.111455
  26 H :    0.104240
  27 H :    0.107475
  28 H :    0.285234

  Mayer bond orders larger than 0.100000
B(  0-C ,  1-C ) :   0.9347 B(  0-C ,  4-O ) :   0.9281 B(  0-C ,  5-H ) :   0.9107
B(  0-C , 15-O ) :   0.8082 B(  1-C ,  2-C ) :   0.9491 B(  1-C ,  6-H ) :   0.9328
B(  1-C ,  7-H ) :   0.9184 B(  2-C ,  3-C ) :   0.9540 B(  2-C ,  8-H ) :   0.9451
B(  2-C ,  9-H ) :   0.9452 B(  3-C ,  4-O ) :   0.8348 B(  3-C , 10-H ) :   0.9347
B(  3-C , 11-H ) :   0.9392 B( 12-C , 13-H ) :   0.9325 B( 12-C , 14-H ) :   0.9203
B( 12-C , 15-O ) :   0.8274 B( 12-C , 16-C ) :   0.8837 B( 16-C , 17-C ) :   0.8910
B( 16-C , 20-O ) :   0.8359 B( 16-C , 21-H ) :   0.9144 B( 17-C , 18-C ) :   0.9142
B( 17-C , 22-H ) :   0.9338 B( 17-C , 23-O ) :   0.9128 B( 18-C , 19-C ) :   0.9373
B( 18-C , 24-H ) :   0.9427 B( 18-C , 25-H ) :   0.9413 B( 19-C , 20-O ) :   0.8322
B( 19-C , 26-H ) :   0.9336 B( 19-C , 27-H ) :   0.9387 B( 23-O , 28-H ) :   0.7630

FINAL SINGLE POINT ENERGY      -652.847120401715

DIPOLE MOMENT
-------------
                                X             Y             Z
Electronic contribution:     -0.44719      -2.72917       0.37675
Nuclear contribution   :      0.38476       3.45855      -0.81132
                        -----------------------------------------
Total Dipole Moment    :     -0.06243       0.72937      -0.43457
                        -----------------------------------------
Magnitude (a.u.)       :      0.85132
Magnitude (Debye)      :      2.16387

Rotational constants in cm-1:     0.059451     0.014453     0.013286
Rotational constants in MHz :  1782.297167   433.301658   398.317931

                             ****ORCA TERMINATED NORMALLY****
TOTAL RUN TIME: 0 days 0 hours 51 minutes 0 seconds 748 msec
