                         Program Version 4.2.0 -  RELEASE  -
|  1> # Test redundant internal optimization
|  2> #
|  3> ! RKS B3LYP  Opt TightSCF SmallPrint
|  4>
|  5> %basis
|  6>         Basis "6-31G"
|  7> end
|  8>
|  9> %geom
| 10> Constraints
| 11> { D 4  0  15  12  165.0   C } # D for Dihedral angle
| 12> { D 0  15  12  16  180.0   C } # D for Dihedral angle
| 13> { D 0  4  3  2   C } # D for Dihedral angle
| 14> { D 4  3  2  1   C } # D for Dihedral angle
| 15> { D 3  2  1  0   C } # D for Dihedral angle
| 16> { D 2  1  0  4   C } # D for Dihedral angle
| 17> { D 1  0  4  3   C } # D for Dihedral angle
| 18> { D 16  20  19  18   C } # D for Dihedral angle
| 19> { D 20  19  18  17   C } # D for Dihedral angle
| 20> { D 19  18  17  16   C } # D for Dihedral angle
| 21> { D 18  17  16  20   C } # D for Dihedral angle
| 22> { D 17  16  20  19   C } # D for Dihedral angle
| 23> { D 15  12  16  20   C } # D for Dihedral angle
| 24> end
| 25> end
| 26>
| 27>
| 28> #%pal
| 29> #nprocs 8
| 30> #end
| 31>
| 32> * xyz 0 1
| 33> C  -21.048   26.222   46.251
| 34> C  -20.361   27.558   45.944
| 35> C  -20.329   28.222   47.341
| 36> C  -20.110   27.022   48.296
| 37> O  -20.473   25.807   47.535
| 38> H  -20.833   25.428   45.533
| 39> H  -19.344   27.382   45.576
| 40> H  -20.898   28.157   45.201
| 41> H  -19.543   28.978   47.434
| 42> H  -21.289   28.710   47.548
| 43> H  -20.733   27.082   49.195
| 44> H  -19.064   26.913   48.597
| 45> C  -23.260   27.170   45.210
| 46> H  -22.827   28.177   45.148
| 47> H  -23.081   26.660   44.255
| 48> O  -22.586   26.394   46.375
| 49> C  -24.797   27.309   45.391
| 50> C  -25.138   28.160   46.620
| 51> C  -24.916   29.593   46.080
| 52> C  -25.376   29.488   44.604
| 53> O  -25.380   28.048   44.267
| 54> H  -25.248   26.316   45.390
| 55> O  -26.624   27.948   47.019
| 56> H  -24.512   27.932   47.489
| 57> H  -25.477   30.349   46.639
| 58> H  -23.853   29.856   46.136
| 59> H  -24.706   30.015   43.917
| 60> H  -26.395   29.856   44.457
| 61> H  -27.271   28.171   46.162
| 62> *
| 63>
| 64>                          ****END OF INPUT****
 Total Charge           Charge          ....    0
 Multiplicity           Mult            ....    1
 Number of Electrons    NEL             ....  102
FINAL SINGLE POINT ENERGY      -652.831476762282
FINAL SINGLE POINT ENERGY      -652.854833900940
FINAL SINGLE POINT ENERGY      -652.858958133659
FINAL SINGLE POINT ENERGY      -652.859640950151
FINAL SINGLE POINT ENERGY      -652.859752103670
FINAL SINGLE POINT ENERGY      -652.859767756598
                    ***********************HURRAY********************

CARTESIAN COORDINATES (ANGSTROEM)
---------------------------------
  C    -21.148464   26.256636   46.201551
  C    -20.298089   27.493879   45.917213
  C    -20.356897   28.245498   47.271966
  C    -20.376380   27.092494   48.296924
  O    -20.778562   25.883354   47.534567
  H    -20.951118   25.399020   45.551323
  H    -19.274742   27.165157   45.702896
  H    -20.636449   28.096811   45.071379
  H    -19.505032   28.917082   47.414105
  H    -21.275336   28.838109   47.335667
  H    -21.091353   27.246820   49.108725
  H    -19.388854   26.882136   48.717637
  C    -23.184740   27.225381   45.106129
  H    -22.745863   28.223891   44.981989
  H    -23.052653   26.675593   44.163955
  O    -22.587132   26.515934   46.223616
  C    -24.677610   27.343876   45.410949
  C    -25.024338   28.164481   46.661659
  C    -24.905208   29.614260   46.127222
  C    -25.409962   29.496293   44.667106
  O    -25.342278   28.056102   44.313680
  H    -25.118704   26.345277   45.466980
  O    -26.375667   27.871628   47.112959
  H    -24.373574   27.946437   47.506205
  H    -25.505560   30.298912   46.730875
  H    -23.862548   29.950142   46.163271
  H    -24.802148   30.065802   43.957245
  H    -26.453966   29.805417   44.557549
  H    -26.968772   27.806577   46.334659

 Multiplicity           Mult            ....    1
 Number of Electrons    NEL             ....  102
 Basis Dimension        Dim             ....  149

ORBITAL ENERGIES
----------------

  NO   OCC          E(Eh)            E(eV)
   0   2.0000     -19.146056      -520.9907
   1   2.0000     -19.145248      -520.9687
   2   2.0000     -19.143634      -520.9248
   3   2.0000     -19.134564      -520.6780
   4   2.0000     -10.284115      -279.8450
   5   2.0000     -10.235836      -278.5313
   6   2.0000     -10.234481      -278.4944
   7   2.0000     -10.233914      -278.4790
   8   2.0000     -10.233470      -278.4669
   9   2.0000     -10.229392      -278.3559
  10   2.0000     -10.194710      -277.4122
  11   2.0000     -10.194569      -277.4083
  12   2.0000     -10.189382      -277.2672
  13   2.0000      -1.057193       -28.7677
  14   2.0000      -1.036938       -28.2165
  15   2.0000      -1.004417       -27.3316
  16   2.0000      -0.997760       -27.1504
  17   2.0000      -0.793038       -21.5797
  18   2.0000      -0.781645       -21.2696
  19   2.0000      -0.770550       -20.9677
  20   2.0000      -0.734344       -19.9825
  21   2.0000      -0.679275       -18.4840
  22   2.0000      -0.607516       -16.5313
  23   2.0000      -0.604899       -16.4601
  24   2.0000      -0.594136       -16.1673
  25   2.0000      -0.579633       -15.7726
  26   2.0000      -0.526650       -14.3309
  27   2.0000      -0.515806       -14.0358
  28   2.0000      -0.503682       -13.7059
  29   2.0000      -0.495005       -13.4698
  30   2.0000      -0.475606       -12.9419
  31   2.0000      -0.456893       -12.4327
  32   2.0000      -0.452514       -12.3135
  33   2.0000      -0.446636       -12.1536
  34   2.0000      -0.427733       -11.6392
  35   2.0000      -0.415216       -11.2986
  36   2.0000      -0.405489       -11.0339
  37   2.0000      -0.393104       -10.6969
  38   2.0000      -0.382578       -10.4105
  39   2.0000      -0.369580       -10.0568
  40   2.0000      -0.365827        -9.9547
  41   2.0000      -0.360326        -9.8050
  42   2.0000      -0.356345        -9.6966
  43   2.0000      -0.334126        -9.0920
  44   2.0000      -0.318152        -8.6574
  45   2.0000      -0.308562        -8.3964
  46   2.0000      -0.301118        -8.1938
  47   2.0000      -0.271947        -7.4001
  48   2.0000      -0.263740        -7.1767
  49   2.0000      -0.256868        -6.9897
  50   2.0000      -0.248046        -6.7497
  51   0.0000       0.055127         1.5001
  52   0.0000       0.066261         1.8030
  53   0.0000       0.092008         2.5037
  54   0.0000       0.099130         2.6975
  55   0.0000       0.101233         2.7547

MULLIKEN ATOMIC CHARGES
-----------------------
   0 C :    0.320437
   1 C :   -0.295716
   2 C :   -0.299494
   3 C :   -0.001393
   4 O :   -0.498021
   5 H :    0.147719
   6 H :    0.153667
   7 H :    0.145232
   8 H :    0.145594
   9 H :    0.152151
  10 H :    0.155709
  11 H :    0.145292
  12 C :   -0.005092
  13 H :    0.122882
  14 H :    0.143381
  15 O :   -0.523182
  16 C :    0.050993
  17 C :    0.093498
  18 C :   -0.303227
  19 C :   -0.030574
  20 O :   -0.527466
  21 H :    0.173460
  22 O :   -0.601755
  23 H :    0.176571
  24 H :    0.164501
  25 H :    0.139350
  26 H :    0.145538
  27 H :    0.147346
  28 H :    0.362598
Sum of atomic charges:   -0.0000000

LOEWDIN ATOMIC CHARGES
----------------------
   0 C :    0.184871
   1 C :   -0.234304
   2 C :   -0.217041
   3 C :   -0.025514
   4 O :   -0.301021
   5 H :    0.100324
   6 H :    0.119886
   7 H :    0.114370
   8 H :    0.116036
   9 H :    0.111556
  10 H :    0.110031
  11 H :    0.104398
  12 C :   -0.042318
  13 H :    0.087330
  14 H :    0.101960
  15 O :   -0.337523
  16 C :    0.018890
  17 C :    0.039425
  18 C :   -0.242869
  19 C :   -0.038677
  20 O :   -0.330904
  21 H :    0.121918
  22 O :   -0.413433
  23 H :    0.127484
  24 H :    0.127648
  25 H :    0.109535
  26 H :    0.103107
  27 H :    0.103363
  28 H :    0.281472

  Mayer bond orders larger than 0.100000
B(  0-C ,  1-C ) :   0.9281 B(  0-C ,  4-O ) :   0.9399 B(  0-C ,  5-H ) :   0.9227
B(  0-C , 15-O ) :   0.8259 B(  1-C ,  2-C ) :   0.9501 B(  1-C ,  6-H ) :   0.9338
B(  1-C ,  7-H ) :   0.9285 B(  2-C ,  3-C ) :   0.9543 B(  2-C ,  8-H ) :   0.9451
B(  2-C ,  9-H ) :   0.9446 B(  3-C ,  4-O ) :   0.8356 B(  3-C , 10-H ) :   0.9341
B(  3-C , 11-H ) :   0.9393 B( 12-C , 13-H ) :   0.9084 B( 12-C , 14-H ) :   0.9157
B( 12-C , 15-O ) :   0.8327 B( 12-C , 16-C ) :   0.9055 B( 16-C , 17-C ) :   0.9142
B( 16-C , 20-O ) :   0.8429 B( 16-C , 21-H ) :   0.9233 B( 17-C , 18-C ) :   0.9095
B( 17-C , 22-O ) :   0.8909 B( 17-C , 23-H ) :   0.9230 B( 18-C , 19-C ) :   0.9427
B( 18-C , 24-H ) :   0.9374 B( 18-C , 25-H ) :   0.9345 B( 19-C , 20-O ) :   0.8433
B( 19-C , 26-H ) :   0.9353 B( 19-C , 27-H ) :   0.9383 B( 22-O , 28-H ) :   0.7957

FINAL SINGLE POINT ENERGY      -652.859770125737

DIPOLE MOMENT
-------------
                                X             Y             Z
Electronic contribution:     -3.92794      -5.69139       0.08147
Nuclear contribution   :      4.91483       7.10300      -0.72677
                        -----------------------------------------
Total Dipole Moment    :      0.98688       1.41162      -0.64530
                        -----------------------------------------
Magnitude (a.u.)       :      1.83930
Magnitude (Debye)      :      4.67512

Rotational constants in cm-1:     0.050877     0.013497     0.013170
Rotational constants in MHz :  1525.243172   404.638146   394.816573

                             ****ORCA TERMINATED NORMALLY****
TOTAL RUN TIME: 0 days 1 hours 4 minutes 4 seconds 344 msec
