                         Program Version 4.2.0 -  RELEASE  -
|  1> # Test redundant internal optimization
|  2> #
|  3> ! RKS B3LYP  Opt TightSCF SmallPrint
|  4>
|  5> %basis
|  6>         Basis "6-31G"
|  7> end
|  8>
|  9> %geom
| 10> Constraints
| 11> { D 4  0  15  12  75.0   C } # D for Dihedral angle
| 12> { D 0  15  12  16  105.0   C } # D for Dihedral angle
| 13> { D 0  4  3  2   C } # D for Dihedral angle
| 14> { D 4  3  2  1   C } # D for Dihedral angle
| 15> { D 3  2  1  0   C } # D for Dihedral angle
| 16> { D 2  1  0  4   C } # D for Dihedral angle
| 17> { D 1  0  4  3   C } # D for Dihedral angle
| 18> { D 16  20  19  18   C } # D for Dihedral angle
| 19> { D 20  19  18  17   C } # D for Dihedral angle
| 20> { D 19  18  17  16   C } # D for Dihedral angle
| 21> { D 18  17  16  20   C } # D for Dihedral angle
| 22> { D 17  16  20  19   C } # D for Dihedral angle
| 23> { D 15  12  16  20   C } # D for Dihedral angle
| 24> end
| 25> end
| 26>
| 27>
| 28> #%pal
| 29> #nprocs 8
| 30> #end
| 31>
| 32> * xyz 0 1
| 33> C  -21.048   26.222   46.251
| 34> C  -20.361   27.558   45.944
| 35> C  -20.329   28.222   47.341
| 36> C  -20.110   27.022   48.296
| 37> O  -20.473   25.807   47.535
| 38> H  -20.833   25.428   45.533
| 39> H  -19.344   27.382   45.576
| 40> H  -20.898   28.157   45.201
| 41> H  -19.543   28.978   47.434
| 42> H  -21.289   28.710   47.548
| 43> H  -20.733   27.082   49.195
| 44> H  -19.064   26.913   48.597
| 45> C  -23.049   27.675   47.122
| 46> H  -23.840   27.411   47.836
| 47> H  -22.215   28.116   47.682
| 48> O  -22.586   26.394   46.375
| 49> C  -23.602   28.764   46.161
| 50> C  -23.940   30.053   46.917
| 51> C  -22.542   30.693   47.087
| 52> C  -21.813   30.299   45.778
| 53> O  -22.571   29.169   45.199
| 54> H  -24.430   28.346   45.585
| 55> O  -24.855   30.957   46.046
| 56> H  -24.443   29.872   47.873
| 57> H  -22.586   31.778   47.230
| 58> H  -22.034   30.262   47.958
| 59> H  -20.778   29.985   45.953
| 60> H  -21.819   31.105   45.038
| 61> H  -24.370   31.153   45.083
| 62> *
| 63>
| 64>                          ****END OF INPUT****
 Total Charge           Charge          ....    0
 Multiplicity           Mult            ....    1
 Number of Electrons    NEL             ....  102
FINAL SINGLE POINT ENERGY      -652.773268533926
FINAL SINGLE POINT ENERGY      -652.825888673284
FINAL SINGLE POINT ENERGY      -652.847749417223
FINAL SINGLE POINT ENERGY      -652.852886307053
FINAL SINGLE POINT ENERGY      -652.853796864977
FINAL SINGLE POINT ENERGY      -652.854052575074
FINAL SINGLE POINT ENERGY      -652.854103872182
FINAL SINGLE POINT ENERGY      -652.854120970082
FINAL SINGLE POINT ENERGY      -652.854123323403
FINAL SINGLE POINT ENERGY      -652.854122651152
                    ***********************HURRAY********************

CARTESIAN COORDINATES (ANGSTROEM)
---------------------------------
  C    -21.175220   26.279648   46.369305
  C    -20.148420   27.342358   45.952837
  C    -19.773617   27.984966   47.319029
  C    -19.837170   26.774899   48.286950
  O    -20.628191   25.732800   47.594706
  H    -21.219303   25.442233   45.671684
  H    -19.281900   26.830891   45.521047
  H    -20.560574   28.050204   45.232889
  H    -18.778606   28.441813   47.306924
  H    -20.488714   28.761922   47.600357
  H    -20.313949   27.010580   49.244028
  H    -18.847945   26.349561   48.480767
  C    -23.118293   27.787567   47.136913
  H    -24.010359   27.427728   47.662343
  H    -22.428263   28.184452   47.891320
  O    -22.571496   26.628910   46.455886
  C    -23.558684   28.867453   46.142787
  C    -24.161560   30.124719   46.787462
  C    -22.891939   30.966951   47.083606
  C    -21.962873   30.634518   45.890057
  O    -22.485240   29.380722   45.285785
  H    -24.276287   28.402545   45.458302
  O    -25.057275   30.807869   45.869540
  H    -24.760081   29.922759   47.676945
  H    -23.140517   32.028714   47.149990
  H    -22.445528   30.655479   48.034836
  H    -20.921460   30.482003   46.186307
  H    -21.993281   31.401060   45.108978
  H    -24.661256   30.807674   44.972417

 Multiplicity           Mult            ....    1
 Number of Electrons    NEL             ....  102
 Basis Dimension        Dim             ....  149

ORBITAL ENERGIES
----------------

  NO   OCC          E(Eh)            E(eV)
   0   2.0000     -19.154822      -521.2292
   1   2.0000     -19.145107      -520.9649
   2   2.0000     -19.139556      -520.8138
   3   2.0000     -19.136467      -520.7297
   4   2.0000     -10.273816      -279.5647
   5   2.0000     -10.250359      -278.9264
   6   2.0000     -10.240552      -278.6596
   7   2.0000     -10.239557      -278.6325
   8   2.0000     -10.237682      -278.5815
   9   2.0000     -10.226934      -278.2890
  10   2.0000     -10.198401      -277.5126
  11   2.0000     -10.191773      -277.3323
  12   2.0000     -10.179978      -277.0113
  13   2.0000      -1.049632       -28.5619
  14   2.0000      -1.041882       -28.3511
  15   2.0000      -1.014035       -27.5933
  16   2.0000      -0.992234       -27.0001
  17   2.0000      -0.793182       -21.5836
  18   2.0000      -0.784136       -21.3374
  19   2.0000      -0.776477       -21.1290
  20   2.0000      -0.734031       -19.9740
  21   2.0000      -0.682665       -18.5763
  22   2.0000      -0.613006       -16.6808
  23   2.0000      -0.605719       -16.4825
  24   2.0000      -0.600862       -16.3503
  25   2.0000      -0.575524       -15.6608
  26   2.0000      -0.528554       -14.3827
  27   2.0000      -0.515800       -14.0356
  28   2.0000      -0.504759       -13.7352
  29   2.0000      -0.485874       -13.2213
  30   2.0000      -0.478769       -13.0280
  31   2.0000      -0.463010       -12.5991
  32   2.0000      -0.453907       -12.3514
  33   2.0000      -0.443439       -12.0666
  34   2.0000      -0.426871       -11.6158
  35   2.0000      -0.417906       -11.3718
  36   2.0000      -0.409453       -11.1418
  37   2.0000      -0.399729       -10.8772
  38   2.0000      -0.381290       -10.3754
  39   2.0000      -0.377636       -10.2760
  40   2.0000      -0.367069        -9.9885
  41   2.0000      -0.357015        -9.7149
  42   2.0000      -0.346780        -9.4364
  43   2.0000      -0.337658        -9.1881
  44   2.0000      -0.317031        -8.6268
  45   2.0000      -0.311200        -8.4682
  46   2.0000      -0.296864        -8.0781
  47   2.0000      -0.278734        -7.5847
  48   2.0000      -0.271969        -7.4006
  49   2.0000      -0.257261        -7.0004
  50   2.0000      -0.241353        -6.5676
  51   0.0000       0.049892         1.3576
  52   0.0000       0.072638         1.9766
  53   0.0000       0.083236         2.2650
  54   0.0000       0.092039         2.5045
  55   0.0000       0.098878         2.6906

MULLIKEN ATOMIC CHARGES
-----------------------
   0 C :    0.306501
   1 C :   -0.291235
   2 C :   -0.321233
   3 C :   -0.009404
   4 O :   -0.503998
   5 H :    0.166840
   6 H :    0.147438
   7 H :    0.190052
   8 H :    0.141325
   9 H :    0.138649
  10 H :    0.138947
  11 H :    0.146303
  12 C :   -0.010605
  13 H :    0.155128
  14 H :    0.124485
  15 O :   -0.519951
  16 C :    0.070573
  17 C :    0.072965
  18 C :   -0.289377
  19 C :   -0.041669
  20 O :   -0.518271
  21 H :    0.174249
  22 O :   -0.599994
  23 H :    0.155729
  24 H :    0.167723
  25 H :    0.138893
  26 H :    0.149935
  27 H :    0.153002
  28 H :    0.367002
Sum of atomic charges:   -0.0000000

LOEWDIN ATOMIC CHARGES
----------------------
   0 C :    0.180412
   1 C :   -0.235576
   2 C :   -0.225489
   3 C :   -0.034934
   4 O :   -0.322607
   5 H :    0.114329
   6 H :    0.118074
   7 H :    0.136822
   8 H :    0.113937
   9 H :    0.100966
  10 H :    0.098985
  11 H :    0.104054
  12 C :   -0.039679
  13 H :    0.116435
  14 H :    0.093208
  15 O :   -0.316197
  16 C :    0.007930
  17 C :    0.035492
  18 C :   -0.238461
  19 C :   -0.042898
  20 O :   -0.324513
  21 H :    0.121747
  22 O :   -0.412412
  23 H :    0.117412
  24 H :    0.129335
  25 H :    0.110125
  26 H :    0.103500
  27 H :    0.105414
  28 H :    0.284589

  Mayer bond orders larger than 0.100000
B(  0-C ,  1-C ) :   0.9220 B(  0-C ,  4-O ) :   0.9000 B(  0-C ,  5-H ) :   0.9361
B(  0-C , 15-O ) :   0.8929 B(  1-C ,  2-C ) :   0.9576 B(  1-C ,  6-H ) :   0.9329
B(  1-C ,  7-H ) :   0.9085 B(  2-C ,  3-C ) :   0.9433 B(  2-C ,  8-H ) :   0.9458
B(  2-C ,  9-H ) :   0.9353 B(  3-C ,  4-O ) :   0.8525 B(  3-C , 10-H ) :   0.9344
B(  3-C , 11-H ) :   0.9385 B( 12-C , 13-H ) :   0.9246 B( 12-C , 14-H ) :   0.9160
B( 12-C , 15-O ) :   0.8518 B( 12-C , 16-C ) :   0.8901 B( 16-C , 17-C ) :   0.8932
B( 16-C , 20-O ) :   0.8519 B( 16-C , 21-H ) :   0.9230 B( 17-C , 18-C ) :   0.9093
B( 17-C , 22-O ) :   0.8956 B( 17-C , 23-H ) :   0.9331 B( 18-C , 19-C ) :   0.9416
B( 18-C , 24-H ) :   0.9366 B( 18-C , 25-H ) :   0.9346 B( 19-C , 20-O ) :   0.8422
B( 19-C , 26-H ) :   0.9255 B( 19-C , 27-H ) :   0.9368 B( 22-O , 28-H ) :   0.7936

FINAL SINGLE POINT ENERGY      -652.854121327949

DIPOLE MOMENT
-------------
                                X             Y             Z
Electronic contribution:     -4.55485      -3.91518      -2.70094
Nuclear contribution   :      5.47258       5.18362       3.08927
                        -----------------------------------------
Total Dipole Moment    :      0.91772       1.26844       0.38833
                        -----------------------------------------
Magnitude (a.u.)       :      1.61306
Magnitude (Debye)      :      4.10006

Rotational constants in cm-1:     0.054304     0.015644     0.014385
Rotational constants in MHz :  1628.004377   469.000631   431.264492

                             ****ORCA TERMINATED NORMALLY****
TOTAL RUN TIME: 0 days 0 hours 34 minutes 21 seconds 836 msec
