                         Program Version 4.2.0 -  RELEASE  -
|  1> # Test redundant internal optimization
|  2> #
|  3> ! RKS B3LYP  Opt TightSCF SmallPrint
|  4>
|  5> %basis
|  6>         Basis "6-31G"
|  7> end
|  8>
|  9> %geom
| 10> Constraints
| 11> { D 4  0  15  12  270.0   C } # D for Dihedral angle
| 12> { D 0  15  12  16  240.0   C } # D for Dihedral angle
| 13> { D 0  4  3  2   C } # D for Dihedral angle
| 14> { D 4  3  2  1   C } # D for Dihedral angle
| 15> { D 3  2  1  0   C } # D for Dihedral angle
| 16> { D 2  1  0  4   C } # D for Dihedral angle
| 17> { D 1  0  4  3   C } # D for Dihedral angle
| 18> { D 16  20  19  18   C } # D for Dihedral angle
| 19> { D 20  19  18  17   C } # D for Dihedral angle
| 20> { D 19  18  17  16   C } # D for Dihedral angle
| 21> { D 18  17  16  20   C } # D for Dihedral angle
| 22> { D 17  16  20  19   C } # D for Dihedral angle
| 23> { D 15  12  16  20   C } # D for Dihedral angle
| 24> end
| 25> end
| 26>
| 27>
| 28> #%pal
| 29> #nprocs 8
| 30> #end
| 31>
| 32> * xyz 0 1
| 33> C  -21.048   26.222   46.251
| 34> C  -20.361   27.558   45.944
| 35> C  -20.329   28.222   47.341
| 36> C  -20.110   27.022   48.296
| 37> O  -20.473   25.807   47.535
| 38> H  -20.833   25.428   45.533
| 39> H  -19.344   27.382   45.576
| 40> H  -20.898   28.157   45.201
| 41> H  -19.543   28.978   47.434
| 42> H  -21.289   28.710   47.548
| 43> H  -20.733   27.082   49.195
| 44> H  -19.064   26.913   48.597
| 45> C  -23.420   25.119   46.072
| 46> H  -22.741   24.293   45.824
| 47> H  -24.008   24.827   46.952
| 48> O  -22.586   26.394   46.375
| 49> C  -24.406   25.313   44.887
| 50> C  -23.656   25.559   43.573
| 51> C  -23.228   24.123   43.184
| 52> C  -24.417   23.258   43.672
| 53> O  -25.165   24.082   44.645
| 54> H  -25.129   26.089   45.147
| 55> O  -24.622   26.151   42.511
| 56> H  -22.805   26.240   43.683
| 57> H  -23.044   24.012   42.111
| 58> H  -22.307   23.849   43.712
| 59> H  -24.090   22.334   44.160
| 60> H  -25.109   23.005   42.864
| 61> H  -25.483   25.484   42.383
| 62> *
| 63>
| 64>                          ****END OF INPUT****
 Total Charge           Charge          ....    0
 Multiplicity           Mult            ....    1
 Number of Electrons    NEL             ....  102
FINAL SINGLE POINT ENERGY      -652.837971666146
FINAL SINGLE POINT ENERGY      -652.860938233042
FINAL SINGLE POINT ENERGY      -652.864877041029
FINAL SINGLE POINT ENERGY      -652.865555951984
FINAL SINGLE POINT ENERGY      -652.865635107067
FINAL SINGLE POINT ENERGY      -652.865646116068
FINAL SINGLE POINT ENERGY      -652.865647258489
                    ***********************HURRAY********************

CARTESIAN COORDINATES (ANGSTROEM)
---------------------------------
  C    -21.059883   26.126942   46.236800
  C    -20.463279   27.494634   45.903387
  C    -20.481762   28.194592   47.283000
  C    -20.189109   27.036807   48.263507
  O    -20.473489   25.787515   47.513347
  H    -20.803049   25.311403   45.553111
  H    -19.435736   27.362340   45.545372
  H    -21.040653   28.024582   45.143267
  H    -19.744235   28.999509   47.356966
  H    -21.474821   28.614507   47.466922
  H    -20.818702   27.061793   49.156367
  H    -19.137997   26.988637   48.563484
  C    -23.322623   25.106982   46.105141
  H    -22.694675   24.221996   45.936436
  H    -23.920203   24.926170   47.003228
  O    -22.491723   26.284597   46.325411
  C    -24.257147   25.344564   44.915180
  C    -23.564396   25.562408   43.561697
  C    -23.221847   24.106408   43.147043
  C    -24.422369   23.294046   43.694636
  O    -25.083055   24.149747   44.710268
  H    -24.933822   26.173610   45.139528
  O    -24.468236   26.192347   42.612352
  H    -22.698842   26.220211   43.619478
  H    -23.114418   24.029793   42.062174
  H    -22.280937   23.786970   43.608061
  H    -24.120798   22.353154   44.164261
  H    -25.168435   23.075651   42.924122
  H    -25.354759   25.781084   42.691451

 Multiplicity           Mult            ....    1
 Number of Electrons    NEL             ....  102
 Basis Dimension        Dim             ....  149

ORBITAL ENERGIES
----------------

  NO   OCC          E(Eh)            E(eV)
   0   2.0000     -19.147372      -521.0265
   1   2.0000     -19.147198      -521.0217
   2   2.0000     -19.139053      -520.8001
   3   2.0000     -19.138671      -520.7897
   4   2.0000     -10.282805      -279.8093
   5   2.0000     -10.241071      -278.6737
   6   2.0000     -10.234544      -278.4961
   7   2.0000     -10.233894      -278.4784
   8   2.0000     -10.231882      -278.4237
   9   2.0000     -10.224466      -278.2219
  10   2.0000     -10.191981      -277.3379
  11   2.0000     -10.186309      -277.1836
  12   2.0000     -10.184927      -277.1459
  13   2.0000      -1.055054       -28.7095
  14   2.0000      -1.038888       -28.2696
  15   2.0000      -1.007620       -27.4187
  16   2.0000      -0.996520       -27.1167
  17   2.0000      -0.789846       -21.4928
  18   2.0000      -0.780976       -21.2514
  19   2.0000      -0.768559       -20.9136
  20   2.0000      -0.732008       -19.9189
  21   2.0000      -0.676303       -18.4031
  22   2.0000      -0.606451       -16.5024
  23   2.0000      -0.598964       -16.2986
  24   2.0000      -0.593546       -16.1512
  25   2.0000      -0.586815       -15.9680
  26   2.0000      -0.524220       -14.2648
  27   2.0000      -0.521088       -14.1795
  28   2.0000      -0.498349       -13.5608
  29   2.0000      -0.490597       -13.3498
  30   2.0000      -0.471492       -12.8299
  31   2.0000      -0.459243       -12.4966
  32   2.0000      -0.447089       -12.1659
  33   2.0000      -0.439892       -11.9701
  34   2.0000      -0.428070       -11.6484
  35   2.0000      -0.416084       -11.3222
  36   2.0000      -0.402959       -10.9651
  37   2.0000      -0.395666       -10.7666
  38   2.0000      -0.377287       -10.2665
  39   2.0000      -0.371560       -10.1107
  40   2.0000      -0.357010        -9.7147
  41   2.0000      -0.354285        -9.6406
  42   2.0000      -0.349926        -9.5220
  43   2.0000      -0.335507        -9.1296
  44   2.0000      -0.324859        -8.8399
  45   2.0000      -0.309158        -8.4126
  46   2.0000      -0.303904        -8.2696
  47   2.0000      -0.276243        -7.5170
  48   2.0000      -0.271073        -7.3763
  49   2.0000      -0.257156        -6.9976
  50   2.0000      -0.241803        -6.5798
  51   0.0000       0.061686         1.6786
  52   0.0000       0.064406         1.7526
  53   0.0000       0.091856         2.4995
  54   0.0000       0.094849         2.5810
  55   0.0000       0.102904         2.8002

MULLIKEN ATOMIC CHARGES
-----------------------
   0 C :    0.283939
   1 C :   -0.261726
   2 C :   -0.299328
   3 C :   -0.001513
   4 O :   -0.508991
   5 H :    0.136488
   6 H :    0.144851
   7 H :    0.157740
   8 H :    0.141534
   9 H :    0.165457
  10 H :    0.149865
  11 H :    0.141480
  12 C :   -0.007972
  13 H :    0.132173
  14 H :    0.164407
  15 O :   -0.522681
  16 C :    0.062378
  17 C :    0.086131
  18 C :   -0.300476
  19 C :   -0.032111
  20 O :   -0.526133
  21 H :    0.167626
  22 O :   -0.603017
  23 H :    0.161099
  24 H :    0.165469
  25 H :    0.138777
  26 H :    0.149836
  27 H :    0.149620
  28 H :    0.365078
Sum of atomic charges:   -0.0000000

LOEWDIN ATOMIC CHARGES
----------------------
   0 C :    0.171084
   1 C :   -0.217600
   2 C :   -0.215606
   3 C :   -0.026765
   4 O :   -0.326654
   5 H :    0.093204
   6 H :    0.113878
   7 H :    0.122599
   8 H :    0.113771
   9 H :    0.120691
  10 H :    0.107012
  11 H :    0.102200
  12 C :   -0.035212
  13 H :    0.098767
  14 H :    0.117308
  15 O :   -0.329083
  16 C :    0.011601
  17 C :    0.035905
  18 C :   -0.242486
  19 C :   -0.038600
  20 O :   -0.330193
  21 H :    0.119045
  22 O :   -0.414215
  23 H :    0.118810
  24 H :    0.127977
  25 H :    0.109966
  26 H :    0.105539
  27 H :    0.104018
  28 H :    0.283041

  Mayer bond orders larger than 0.100000
B(  0-C ,  1-C ) :   0.9463 B(  0-C ,  4-O ) :   0.9206 B(  0-C ,  5-H ) :   0.9178
B(  0-C , 15-O ) :   0.8522 B(  1-C ,  2-C ) :   0.9575 B(  1-C ,  6-H ) :   0.9392
B(  1-C ,  7-H ) :   0.9351 B(  2-C ,  3-C ) :   0.9546 B(  2-C ,  8-H ) :   0.9451
B(  2-C ,  9-H ) :   0.9438 B(  3-C ,  4-O ) :   0.8370 B(  3-C , 10-H ) :   0.9353
B(  3-C , 11-H ) :   0.9402 B( 12-C , 13-H ) :   0.9240 B( 12-C , 14-H ) :   0.9286
B( 12-C , 15-O ) :   0.8262 B( 12-C , 16-C ) :   0.8937 B( 16-C , 17-C ) :   0.9118
B( 16-C , 20-O ) :   0.8395 B( 16-C , 21-H ) :   0.9251 B( 17-C , 18-C ) :   0.9114
B( 17-C , 22-O ) :   0.8942 B( 17-C , 23-H ) :   0.9262 B( 18-C , 19-C ) :   0.9424
B( 18-C , 24-H ) :   0.9374 B( 18-C , 25-H ) :   0.9343 B( 19-C , 20-O ) :   0.8425
B( 19-C , 26-H ) :   0.9348 B( 19-C , 27-H ) :   0.9373 B( 22-O , 28-H ) :   0.7944

FINAL SINGLE POINT ENERGY      -652.865647202272

DIPOLE MOMENT
-------------
                                X             Y             Z
Electronic contribution:     -3.90845      -1.16827       0.11843
Nuclear contribution   :      4.52048       1.04282      -0.33484
                        -----------------------------------------
Total Dipole Moment    :      0.61203      -0.12544      -0.21641
                        -----------------------------------------
Magnitude (a.u.)       :      0.66118
Magnitude (Debye)      :      1.68057

Rotational constants in cm-1:     0.059091     0.012603     0.011775
Rotational constants in MHz :  1771.516856   377.819353   352.995516

                             ****ORCA TERMINATED NORMALLY****
TOTAL RUN TIME: 0 days 0 hours 23 minutes 8 seconds 114 msec
