                         Program Version 4.2.0 -  RELEASE  -
|  1> # Test redundant internal optimization
|  2> #
|  3> ! RKS B3LYP  Opt TightSCF SmallPrint
|  4>
|  5> %basis
|  6>         Basis "6-31G"
|  7> end
|  8>
|  9> %geom
| 10> Constraints
| 11> { D 4  0  15  12  285.0   C } # D for Dihedral angle
| 12> { D 0  15  12  16  105.0   C } # D for Dihedral angle
| 13> { D 0  4  3  2   C } # D for Dihedral angle
| 14> { D 4  3  2  1   C } # D for Dihedral angle
| 15> { D 3  2  1  0   C } # D for Dihedral angle
| 16> { D 2  1  0  4   C } # D for Dihedral angle
| 17> { D 1  0  4  3   C } # D for Dihedral angle
| 18> { D 16  20  19  18   C } # D for Dihedral angle
| 19> { D 20  19  18  17   C } # D for Dihedral angle
| 20> { D 19  18  17  16   C } # D for Dihedral angle
| 21> { D 18  17  16  20   C } # D for Dihedral angle
| 22> { D 17  16  20  19   C } # D for Dihedral angle
| 23> { D 15  12  16  20   C } # D for Dihedral angle
| 24> end
| 25> end
| 26>
| 27>
| 28> #%pal
| 29> #nprocs 8
| 30> #end
| 31>
| 32> * xyz 0 1
| 33> C  -21.048   26.222   46.251
| 34> C  -20.361   27.558   45.944
| 35> C  -20.329   28.222   47.341
| 36> C  -20.110   27.022   48.296
| 37> O  -20.473   25.807   47.535
| 38> H  -20.833   25.428   45.533
| 39> H  -19.344   27.382   45.576
| 40> H  -20.898   28.157   45.201
| 41> H  -19.543   28.978   47.434
| 42> H  -21.289   28.710   47.548
| 43> H  -20.733   27.082   49.195
| 44> H  -19.064   26.913   48.597
| 45> C  -23.396   25.070   46.435
| 46> H  -24.260   25.144   45.764
| 47> H  -22.777   24.226   46.106
| 48> O  -22.586   26.394   46.375
| 49> C  -23.913   24.747   47.864
| 50> C  -24.925   25.796   48.340
| 51> C  -26.211   25.347   47.606
| 52> C  -26.090   23.802   47.598
| 53> O  -24.669   23.490   47.864
| 54> H  -23.060   24.607   48.531
| 55> O  -25.110   25.698   49.879
| 56> H  -24.631   26.822   48.093
| 57> H  -27.124   25.691   48.100
| 58> H  -26.216   25.739   46.582
| 59> H  -26.380   23.363   46.638
| 60> H  -26.677   23.333   48.393
| 61> H  -25.406   24.678   50.151
| 62> *
| 63>
| 64>                          ****END OF INPUT****
 Total Charge           Charge          ....    0
 Multiplicity           Mult            ....    1
 Number of Electrons    NEL             ....  102
FINAL SINGLE POINT ENERGY      -652.842599227515
FINAL SINGLE POINT ENERGY      -652.866052705777
FINAL SINGLE POINT ENERGY      -652.869647791194
FINAL SINGLE POINT ENERGY      -652.870313531035
FINAL SINGLE POINT ENERGY      -652.870408003663
FINAL SINGLE POINT ENERGY      -652.870419991986
FINAL SINGLE POINT ENERGY      -652.870422602879
                    ***********************HURRAY********************

CARTESIAN COORDINATES (ANGSTROEM)
---------------------------------
  C    -21.100687   26.124832   46.264281
  C    -20.508355   27.510671   46.004466
  C    -20.557794   28.144339   47.413845
  C    -20.274621   26.946863   48.348563
  O    -20.535203   25.727631   47.537166
  H    -20.828634   25.341028   45.550518
  H    -19.474891   27.400375   45.657320
  H    -21.078575   28.067630   45.258521
  H    -19.827630   28.949567   47.539521
  H    -21.556326   28.550596   47.599166
  H    -20.920934   26.927896   49.229186
  H    -19.228927   26.891796   48.664868
  C    -23.305888   25.028470   46.363659
  H    -24.125849   25.146591   45.647213
  H    -22.691580   24.173995   46.056207
  O    -22.533817   26.268200   46.327158
  C    -23.834567   24.787947   47.778367
  C    -24.806700   25.858491   48.294453
  C    -26.133642   25.427480   47.620537
  C    -26.041974   23.881080   47.614771
  O    -24.610814   23.543016   47.819055
  H    -22.985418   24.664395   48.456159
  O    -24.898434   25.819084   49.746195
  H    -24.496889   26.871557   48.043225
  H    -26.992426   25.801733   48.183166
  H    -26.190163   25.827855   46.602514
  H    -26.381827   23.437477   46.673741
  H    -26.601303   23.423522   48.436998
  H    -24.932132   24.883885   50.039161

 Multiplicity           Mult            ....    1
 Number of Electrons    NEL             ....  102
 Basis Dimension        Dim             ....  149

ORBITAL ENERGIES
----------------

  NO   OCC          E(Eh)            E(eV)
   0   2.0000     -19.148500      -521.0572
   1   2.0000     -19.141572      -520.8687
   2   2.0000     -19.140744      -520.8461
   3   2.0000     -19.132865      -520.6317
   4   2.0000     -10.280679      -279.7515
   5   2.0000     -10.233277      -278.4616
   6   2.0000     -10.230003      -278.3725
   7   2.0000     -10.229253      -278.3521
   8   2.0000     -10.226708      -278.2829
   9   2.0000     -10.224225      -278.2153
  10   2.0000     -10.185953      -277.1739
  11   2.0000     -10.185313      -277.1564
  12   2.0000     -10.184966      -277.1470
  13   2.0000      -1.055943       -28.7337
  14   2.0000      -1.032584       -28.0980
  15   2.0000      -1.001621       -27.2555
  16   2.0000      -0.995645       -27.0929
  17   2.0000      -0.790152       -21.5011
  18   2.0000      -0.776277       -21.1236
  19   2.0000      -0.763956       -20.7883
  20   2.0000      -0.729034       -19.8380
  21   2.0000      -0.672976       -18.3126
  22   2.0000      -0.601187       -16.3591
  23   2.0000      -0.598156       -16.2767
  24   2.0000      -0.593858       -16.1597
  25   2.0000      -0.579991       -15.7823
  26   2.0000      -0.520328       -14.1588
  27   2.0000      -0.516164       -14.0455
  28   2.0000      -0.494155       -13.4466
  29   2.0000      -0.486942       -13.2504
  30   2.0000      -0.468551       -12.7499
  31   2.0000      -0.457686       -12.4543
  32   2.0000      -0.448288       -12.1985
  33   2.0000      -0.437624       -11.9084
  34   2.0000      -0.421478       -11.4690
  35   2.0000      -0.411669       -11.2021
  36   2.0000      -0.400468       -10.8973
  37   2.0000      -0.390141       -10.6163
  38   2.0000      -0.372916       -10.1476
  39   2.0000      -0.364733        -9.9249
  40   2.0000      -0.357224        -9.7206
  41   2.0000      -0.354482        -9.6459
  42   2.0000      -0.347410        -9.4535
  43   2.0000      -0.329337        -8.9617
  44   2.0000      -0.327948        -8.9239
  45   2.0000      -0.306065        -8.3284
  46   2.0000      -0.299703        -8.1553
  47   2.0000      -0.281881        -7.6704
  48   2.0000      -0.264805        -7.2057
  49   2.0000      -0.254393        -6.9224
  50   2.0000      -0.239264        -6.5107
  51   0.0000       0.066371         1.8060
  52   0.0000       0.079638         2.1671
  53   0.0000       0.096436         2.6242
  54   0.0000       0.101225         2.7545
  55   0.0000       0.106113         2.8875

MULLIKEN ATOMIC CHARGES
-----------------------
   0 C :    0.281264
   1 C :   -0.260176
   2 C :   -0.299210
   3 C :   -0.008765
   4 O :   -0.510780
   5 H :    0.145547
   6 H :    0.146371
   7 H :    0.155958
   8 H :    0.141915
   9 H :    0.163163
  10 H :    0.156825
  11 H :    0.143321
  12 C :   -0.022991
  13 H :    0.141793
  14 H :    0.151459
  15 O :   -0.519562
  16 C :    0.055973
  17 C :    0.093796
  18 C :   -0.299357
  19 C :   -0.029194
  20 O :   -0.526407
  21 H :    0.178904
  22 O :   -0.606597
  23 H :    0.168210
  24 H :    0.160047
  25 H :    0.144955
  26 H :    0.143934
  27 H :    0.146332
  28 H :    0.363272
Sum of atomic charges:   -0.0000000

LOEWDIN ATOMIC CHARGES
----------------------
   0 C :    0.171534
   1 C :   -0.215225
   2 C :   -0.215567
   3 C :   -0.029317
   4 O :   -0.331515
   5 H :    0.097703
   6 H :    0.114884
   7 H :    0.123797
   8 H :    0.113924
   9 H :    0.119102
  10 H :    0.109620
  11 H :    0.103305
  12 C :   -0.039854
  13 H :    0.103939
  14 H :    0.110645
  15 O :   -0.327347
  16 C :    0.007226
  17 C :    0.037921
  18 C :   -0.241722
  19 C :   -0.038354
  20 O :   -0.331663
  21 H :    0.124064
  22 O :   -0.417045
  23 H :    0.123429
  24 H :    0.126015
  25 H :    0.113514
  26 H :    0.102766
  27 H :    0.102340
  28 H :    0.281878

  Mayer bond orders larger than 0.100000
B(  0-C ,  1-C ) :   0.9500 B(  0-C ,  4-O ) :   0.9075 B(  0-C ,  5-H ) :   0.9192
B(  0-C , 15-O ) :   0.8612 B(  1-C ,  2-C ) :   0.9567 B(  1-C ,  6-H ) :   0.9399
B(  1-C ,  7-H ) :   0.9364 B(  2-C ,  3-C ) :   0.9550 B(  2-C ,  8-H ) :   0.9453
B(  2-C ,  9-H ) :   0.9440 B(  3-C ,  4-O ) :   0.8336 B(  3-C , 10-H ) :   0.9335
B(  3-C , 11-H ) :   0.9405 B( 12-C , 13-H ) :   0.9375 B( 12-C , 14-H ) :   0.9194
B( 12-C , 15-O ) :   0.8306 B( 12-C , 16-C ) :   0.8895 B( 16-C , 17-C ) :   0.9141
B( 16-C , 20-O ) :   0.8376 B( 16-C , 21-H ) :   0.9180 B( 17-C , 18-C ) :   0.9113
B( 17-C , 22-O ) :   0.8897 B( 17-C , 23-H ) :   0.9262 B( 18-C , 19-C ) :   0.9405
B( 18-C , 24-H ) :   0.9384 B( 18-C , 25-H ) :   0.9350 B( 19-C , 20-O ) :   0.8445
B( 19-C , 26-H ) :   0.9360 B( 19-C , 27-H ) :   0.9382 B( 22-O , 28-H ) :   0.7958

FINAL SINGLE POINT ENERGY      -652.870422742157

DIPOLE MOMENT
-------------
                                X             Y             Z
Electronic contribution:     -0.10724      -3.49610       1.36839
Nuclear contribution   :      0.04430       3.93261      -2.10771
                        -----------------------------------------
Total Dipole Moment    :     -0.06294       0.43650      -0.73932
                        -----------------------------------------
Magnitude (a.u.)       :      0.86087
Magnitude (Debye)      :      2.18815

Rotational constants in cm-1:     0.053599     0.014086     0.013158
Rotational constants in MHz :  1606.848979   422.285583   394.452788

                             ****ORCA TERMINATED NORMALLY****
TOTAL RUN TIME: 0 days 0 hours 26 minutes 34 seconds 650 msec
