                         Program Version 4.2.0 -  RELEASE  -
|  1> # Test redundant internal optimization
|  2> #
|  3> ! RKS B3LYP  Opt TightSCF SmallPrint
|  4>
|  5> %basis
|  6>         Basis "6-31G"
|  7> end
|  8>
|  9> %geom
| 10> Constraints
| 11> { D 4  0  15  12  345.0   C } # D for Dihedral angle
| 12> { D 0  15  12  16  75.0   C } # D for Dihedral angle
| 13> { D 0  4  3  2   C } # D for Dihedral angle
| 14> { D 4  3  2  1   C } # D for Dihedral angle
| 15> { D 3  2  1  0   C } # D for Dihedral angle
| 16> { D 2  1  0  4   C } # D for Dihedral angle
| 17> { D 1  0  4  3   C } # D for Dihedral angle
| 18> { D 16  20  19  18   C } # D for Dihedral angle
| 19> { D 20  19  18  17   C } # D for Dihedral angle
| 20> { D 19  18  17  16   C } # D for Dihedral angle
| 21> { D 18  17  16  20   C } # D for Dihedral angle
| 22> { D 17  16  20  19   C } # D for Dihedral angle
| 23> { D 15  12  16  20   C } # D for Dihedral angle
| 24> end
| 25> end
| 26>
| 27>
| 28> #%pal
| 29> #nprocs 8
| 30> #end
| 31>
| 32> * xyz 0 1
| 33> C  -21.048   26.222   46.251
| 34> C  -20.361   27.558   45.944
| 35> C  -20.329   28.222   47.341
| 36> C  -20.110   27.022   48.296
| 37> O  -20.473   25.807   47.535
| 38> H  -20.833   25.428   45.533
| 39> H  -19.344   27.382   45.576
| 40> H  -20.898   28.157   45.201
| 41> H  -19.543   28.978   47.434
| 42> H  -21.289   28.710   47.548
| 43> H  -20.733   27.082   49.195
| 44> H  -19.064   26.913   48.597
| 45> C  -23.221   25.764   47.645
| 46> H  -24.307   25.692   47.509
| 47> H  -22.828   24.753   47.810
| 48> O  -22.586   26.394   46.375
| 49> C  -22.943   26.594   48.930
| 50> C  -23.608   27.973   48.856
| 51> C  -25.076   27.633   49.207
| 52> C  -24.934   26.491   50.244
| 53> O  -23.564   25.956   50.095
| 54> H  -21.868   26.619   49.113
| 55> O  -22.993   28.918   49.924
| 56> H  -23.505   28.449   47.875
| 57> H  -25.627   28.491   49.603
| 58> H  -25.604   27.279   48.313
| 59> H  -25.654   25.683   50.080
| 60> H  -25.031   26.848   51.273
| 61> H  -23.086   28.462   50.917
| 62> *
| 63>
| 64>                          ****END OF INPUT****
 Total Charge           Charge          ....    0
 Multiplicity           Mult            ....    1
 Number of Electrons    NEL             ....  102
FINAL SINGLE POINT ENERGY      -652.814166789651
FINAL SINGLE POINT ENERGY      -652.839528035890
FINAL SINGLE POINT ENERGY      -652.856841641054
FINAL SINGLE POINT ENERGY      -652.859546157277
FINAL SINGLE POINT ENERGY      -652.859947911093
FINAL SINGLE POINT ENERGY      -652.860011892835
FINAL SINGLE POINT ENERGY      -652.860019449293
                    ***********************HURRAY********************

CARTESIAN COORDINATES (ANGSTROEM)
---------------------------------
  C    -21.062539   26.221911   46.396939
  C    -20.474534   27.554410   45.925967
  C    -20.202533   28.273152   47.270614
  C    -19.786270   27.120494   48.210464
  O    -20.268089   25.868201   47.548821
  H    -20.891236   25.403563   45.688806
  H    -19.541236   27.354633   45.388306
  H    -21.156958   28.101270   45.271766
  H    -19.420714   29.034612   47.187389
  H    -21.108407   28.764393   47.637813
  H    -20.215753   27.201301   49.210505
  H    -18.701082   27.013398   48.297486
  C    -23.198348   25.736611   47.716500
  H    -24.243402   25.693380   47.396435
  H    -22.857330   24.713607   47.916025
  O    -22.507484   26.298525   46.561691
  C    -23.054935   26.540438   49.008353
  C    -23.640876   27.958465   48.966703
  C    -25.147548   27.680490   49.191344
  C    -25.146948   26.477298   50.168227
  O    -23.793105   25.872188   50.088092
  H    -22.014204   26.542743   49.323765
  O    -23.061303   28.795853   50.006580
  H    -23.437959   28.474296   48.028930
  H    -25.649446   28.561382   49.600193
  H    -25.628241   27.424801   48.241127
  H    -25.892848   25.719210   49.909974
  H    -25.303077   26.779521   51.208558
  H    -23.053595   28.299853   50.852629

 Multiplicity           Mult            ....    1
 Number of Electrons    NEL             ....  102
 Basis Dimension        Dim             ....  149

ORBITAL ENERGIES
----------------

  NO   OCC          E(Eh)            E(eV)
   0   2.0000     -19.151115      -521.1283
   1   2.0000     -19.145212      -520.9677
   2   2.0000     -19.141980      -520.8798
   3   2.0000     -19.141587      -520.8691
   4   2.0000     -10.278652      -279.6963
   5   2.0000     -10.239258      -278.6244
   6   2.0000     -10.232567      -278.4423
   7   2.0000     -10.229634      -278.3625
   8   2.0000     -10.229357      -278.3549
   9   2.0000     -10.228781      -278.3393
  10   2.0000     -10.189915      -277.2817
  11   2.0000     -10.187586      -277.2183
  12   2.0000     -10.186112      -277.1782
  13   2.0000      -1.051655       -28.6170
  14   2.0000      -1.036964       -28.2172
  15   2.0000      -1.007923       -27.4270
  16   2.0000      -0.994816       -27.0703
  17   2.0000      -0.790003       -21.4971
  18   2.0000      -0.781609       -21.2687
  19   2.0000      -0.768685       -20.9170
  20   2.0000      -0.732647       -19.9363
  21   2.0000      -0.675843       -18.3906
  22   2.0000      -0.607456       -16.5297
  23   2.0000      -0.603697       -16.4274
  24   2.0000      -0.599227       -16.3058
  25   2.0000      -0.571417       -15.5491
  26   2.0000      -0.526535       -14.3277
  27   2.0000      -0.510092       -13.8803
  28   2.0000      -0.495633       -13.4869
  29   2.0000      -0.488635       -13.2964
  30   2.0000      -0.477454       -12.9922
  31   2.0000      -0.462099       -12.5743
  32   2.0000      -0.451468       -12.2851
  33   2.0000      -0.434078       -11.8119
  34   2.0000      -0.417857       -11.3705
  35   2.0000      -0.412624       -11.2281
  36   2.0000      -0.405611       -11.0372
  37   2.0000      -0.395944       -10.7742
  38   2.0000      -0.375069       -10.2062
  39   2.0000      -0.367743       -10.0068
  40   2.0000      -0.361064        -9.8250
  41   2.0000      -0.358611        -9.7583
  42   2.0000      -0.347719        -9.4619
  43   2.0000      -0.332910        -9.0589
  44   2.0000      -0.330277        -8.9873
  45   2.0000      -0.311092        -8.4652
  46   2.0000      -0.305809        -8.3215
  47   2.0000      -0.272859        -7.4249
  48   2.0000      -0.267094        -7.2680
  49   2.0000      -0.261050        -7.1035
  50   2.0000      -0.238541        -6.4910
  51   0.0000       0.059824         1.6279
  52   0.0000       0.079410         2.1609
  53   0.0000       0.089456         2.4342
  54   0.0000       0.093275         2.5381
  55   0.0000       0.103750         2.8232

MULLIKEN ATOMIC CHARGES
-----------------------
   0 C :    0.312533
   1 C :   -0.266449
   2 C :   -0.314728
   3 C :   -0.027123
   4 O :   -0.515188
   5 H :    0.153396
   6 H :    0.148694
   7 H :    0.159201
   8 H :    0.147987
   9 H :    0.172892
  10 H :    0.150117
  11 H :    0.152620
  12 C :   -0.005482
  13 H :    0.145925
  14 H :    0.157820
  15 O :   -0.544020
  16 C :    0.039657
  17 C :    0.089023
  18 C :   -0.304227
  19 C :   -0.031575
  20 O :   -0.525872
  21 H :    0.177908
  22 O :   -0.612298
  23 H :    0.167353
  24 H :    0.162138
  25 H :    0.151533
  26 H :    0.148730
  27 H :    0.145574
  28 H :    0.363861
Sum of atomic charges:   -0.0000000

LOEWDIN ATOMIC CHARGES
----------------------
   0 C :    0.180881
   1 C :   -0.218006
   2 C :   -0.220247
   3 C :   -0.035034
   4 O :   -0.322524
   5 H :    0.098993
   6 H :    0.116227
   7 H :    0.125390
   8 H :    0.118120
   9 H :    0.121112
  10 H :    0.103184
  11 H :    0.107226
  12 C :   -0.034803
  13 H :    0.109456
  14 H :    0.112296
  15 O :   -0.343026
  16 C :    0.000909
  17 C :    0.033128
  18 C :   -0.240664
  19 C :   -0.039293
  20 O :   -0.328082
  21 H :    0.119617
  22 O :   -0.418739
  23 H :    0.120132
  24 H :    0.126638
  25 H :    0.117073
  26 H :    0.105002
  27 H :    0.102200
  28 H :    0.282835

  Mayer bond orders larger than 0.100000
B(  0-C ,  1-C ) :   0.9334 B(  0-C ,  4-O ) :   0.9091 B(  0-C ,  5-H ) :   0.9299
B(  0-C , 15-O ) :   0.8434 B(  1-C ,  2-C ) :   0.9545 B(  1-C ,  6-H ) :   0.9367
B(  1-C ,  7-H ) :   0.9364 B(  2-C ,  3-C ) :   0.9548 B(  2-C ,  8-H ) :   0.9442
B(  2-C ,  9-H ) :   0.9340 B(  3-C ,  4-O ) :   0.8272 B(  3-C , 10-H ) :   0.9184
B(  3-C , 11-H ) :   0.9406 B( 12-C , 13-H ) :   0.9402 B( 12-C , 14-H ) :   0.9188
B( 12-C , 15-O ) :   0.8359 B( 12-C , 16-C ) :   0.8824 B( 16-C , 17-C ) :   0.9070
B( 16-C , 20-O ) :   0.8319 B( 16-C , 21-H ) :   0.9109 B( 17-C , 18-C ) :   0.9147
B( 17-C , 22-O ) :   0.8778 B( 17-C , 23-H ) :   0.9223 B( 18-C , 19-C ) :   0.9417
B( 18-C , 24-H ) :   0.9373 B( 18-C , 25-H ) :   0.9334 B( 19-C , 20-O ) :   0.8467
B( 19-C , 26-H ) :   0.9347 B( 19-C , 27-H ) :   0.9377 B( 22-O , 28-H ) :   0.7965

FINAL SINGLE POINT ENERGY      -652.860022368655

DIPOLE MOMENT
-------------
                                X             Y             Z
Electronic contribution:      0.20969      -3.10450       0.79998
Nuclear contribution   :     -0.46541       3.57640      -0.90509
                        -----------------------------------------
Total Dipole Moment    :     -0.25572       0.47190      -0.10511
                        -----------------------------------------
Magnitude (a.u.)       :      0.54693
Magnitude (Debye)      :      1.39018

Rotational constants in cm-1:     0.047681     0.017077     0.015579
Rotational constants in MHz :  1429.432450   511.954347   467.039809

                             ****ORCA TERMINATED NORMALLY****
TOTAL RUN TIME: 0 days 1 hours 59 minutes 50 seconds 540 msec
