                         Program Version 4.2.0 -  RELEASE  -
|  1> # Test redundant internal optimization
|  2> #
|  3> ! RKS B3LYP  Opt TightSCF SmallPrint
|  4>
|  5> %basis
|  6>         Basis "6-31G"
|  7> end
|  8>
|  9> %geom
| 10> Constraints
| 11> { D 4  0  15  12  195.0   C } # D for Dihedral angle
| 12> { D 0  15  12  16  345.0   C } # D for Dihedral angle
| 13> { D 0  4  3  2   C } # D for Dihedral angle
| 14> { D 4  3  2  1   C } # D for Dihedral angle
| 15> { D 3  2  1  0   C } # D for Dihedral angle
| 16> { D 2  1  0  4   C } # D for Dihedral angle
| 17> { D 1  0  4  3   C } # D for Dihedral angle
| 18> { D 16  20  19  18   C } # D for Dihedral angle
| 19> { D 20  19  18  17   C } # D for Dihedral angle
| 20> { D 19  18  17  16   C } # D for Dihedral angle
| 21> { D 18  17  16  20   C } # D for Dihedral angle
| 22> { D 17  16  20  19   C } # D for Dihedral angle
| 23> { D 15  12  16  20   C } # D for Dihedral angle
| 24> end
| 25> end
| 26>
| 27>
| 28> #%pal
| 29> #nprocs 8
| 30> #end
| 31>
| 32> * xyz 0 1
| 33> C  -21.048   26.222   46.251
| 34> C  -20.361   27.558   45.944
| 35> C  -20.329   28.222   47.341
| 36> C  -20.110   27.022   48.296
| 37> O  -20.473   25.807   47.535
| 38> H  -20.833   25.428   45.533
| 39> H  -19.344   27.382   45.576
| 40> H  -20.898   28.157   45.201
| 41> H  -19.543   28.978   47.434
| 42> H  -21.289   28.710   47.548
| 43> H  -20.733   27.082   49.195
| 44> H  -19.064   26.913   48.597
| 45> C  -23.353   26.472   45.026
| 46> H  -23.881   25.526   44.855
| 47> H  -24.096   27.279   45.053
| 48> O  -22.586   26.394   46.375
| 49> C  -22.414   26.734   43.816
| 50> C  -21.446   25.565   43.599
| 51> C  -22.350   24.541   42.873
| 52> C  -23.268   25.436   42.003
| 53> O  -23.188   26.798   42.572
| 54> H  -21.930   27.705   43.942
| 55> O  -20.273   26.009   42.682
| 56> H  -21.025   25.175   44.532
| 57> H  -21.781   23.821   42.276
| 58> H  -22.941   23.976   43.605
| 59> H  -24.311   25.103   42.015
| 60> H  -22.929   25.498   40.966
| 61> H  -20.671   26.403   41.740
| 62> *
| 63>
| 64>                          ****END OF INPUT****
 Total Charge           Charge          ....    0
 Multiplicity           Mult            ....    1
 Number of Electrons    NEL             ....  102
FINAL SINGLE POINT ENERGY      -652.780377911370
FINAL SINGLE POINT ENERGY      -652.825336814431
FINAL SINGLE POINT ENERGY      -652.844603338715
FINAL SINGLE POINT ENERGY      -652.847617452987
FINAL SINGLE POINT ENERGY      -652.848105939555
FINAL SINGLE POINT ENERGY      -652.848212159918
FINAL SINGLE POINT ENERGY      -652.848219567818
FINAL SINGLE POINT ENERGY      -652.848222649656
                    ***********************HURRAY********************

CARTESIAN COORDINATES (ANGSTROEM)
---------------------------------
  C    -20.880402   26.233299   46.390200
  C    -20.080497   27.517892   46.178663
  C    -20.340212   28.279597   47.501959
  C    -20.406527   27.143279   48.543536
  O    -20.643839   25.898440   47.766825
  H    -20.550192   25.369242   45.810215
  H    -19.017874   27.267378   46.073792
  H    -20.387810   28.082431   45.295107
  H    -19.555658   29.008303   47.725988
  H    -21.297972   28.804504   47.444017
  H    -21.220109   27.265369   49.263030
  H    -19.463564   27.000738   49.080521
  C    -23.045679   26.506280   44.995975
  H    -23.648919   25.589644   44.940942
  H    -23.737996   27.346893   45.095108
  O    -22.309414   26.449634   46.259089
  C    -22.330633   26.675973   43.637864
  C    -21.382589   25.561193   43.161319
  C    -22.386967   24.475125   42.678755
  C    -23.546588   25.317370   42.088466
  O    -23.401458   26.685804   42.634724
  H    -21.833325   27.647854   43.573786
  O    -20.545479   26.047095   42.075457
  H    -20.685415   25.193529   43.908091
  H    -21.918057   23.817462   41.942670
  H    -22.723201   23.866376   43.524383
  H    -24.532853   24.929979   42.359820
  H    -23.492519   25.399649   40.998029
  H    -21.102255   26.535667   41.432669

 Multiplicity           Mult            ....    1
 Number of Electrons    NEL             ....  102
 Basis Dimension        Dim             ....  149

ORBITAL ENERGIES
----------------

  NO   OCC          E(Eh)            E(eV)
   0   2.0000     -19.154573      -521.2224
   1   2.0000     -19.146271      -520.9965
   2   2.0000     -19.138446      -520.7836
   3   2.0000     -19.136227      -520.7232
   4   2.0000     -10.281399      -279.7711
   5   2.0000     -10.249959      -278.9156
   6   2.0000     -10.245121      -278.7839
   7   2.0000     -10.239391      -278.6280
   8   2.0000     -10.234032      -278.4822
   9   2.0000     -10.223139      -278.1858
  10   2.0000     -10.196634      -277.4645
  11   2.0000     -10.186260      -277.1822
  12   2.0000     -10.185300      -277.1561
  13   2.0000      -1.051061       -28.6008
  14   2.0000      -1.046084       -28.4654
  15   2.0000      -1.015309       -27.6280
  16   2.0000      -0.988114       -26.8880
  17   2.0000      -0.786692       -21.4070
  18   2.0000      -0.785079       -21.3631
  19   2.0000      -0.772617       -21.0240
  20   2.0000      -0.737914       -20.0797
  21   2.0000      -0.680341       -18.5130
  22   2.0000      -0.612849       -16.6765
  23   2.0000      -0.606810       -16.5121
  24   2.0000      -0.597950       -16.2710
  25   2.0000      -0.580113       -15.7857
  26   2.0000      -0.530673       -14.4403
  27   2.0000      -0.516028       -14.0418
  28   2.0000      -0.503183       -13.6923
  29   2.0000      -0.483439       -13.1550
  30   2.0000      -0.480264       -13.0686
  31   2.0000      -0.462354       -12.5813
  32   2.0000      -0.446180       -12.1412
  33   2.0000      -0.442105       -12.0303
  34   2.0000      -0.428970       -11.6729
  35   2.0000      -0.419893       -11.4259
  36   2.0000      -0.402479       -10.9520
  37   2.0000      -0.400766       -10.9054
  38   2.0000      -0.380038       -10.3414
  39   2.0000      -0.377489       -10.2720
  40   2.0000      -0.363195        -9.8830
  41   2.0000      -0.357171        -9.7191
  42   2.0000      -0.353503        -9.6193
  43   2.0000      -0.339072        -9.2266
  44   2.0000      -0.317539        -8.6407
  45   2.0000      -0.312813        -8.5121
  46   2.0000      -0.303415        -8.2563
  47   2.0000      -0.279285        -7.5997
  48   2.0000      -0.258994        -7.0476
  49   2.0000      -0.254075        -6.9137
  50   2.0000      -0.244484        -6.6528
  51   0.0000       0.057294         1.5591
  52   0.0000       0.069125         1.8810
  53   0.0000       0.081263         2.2113
  54   0.0000       0.089620         2.4387
  55   0.0000       0.096043         2.6135

MULLIKEN ATOMIC CHARGES
-----------------------
   0 C :    0.297125
   1 C :   -0.271934
   2 C :   -0.298733
   3 C :   -0.001984
   4 O :   -0.503361
   5 H :    0.142076
   6 H :    0.148434
   7 H :    0.145912
   8 H :    0.142204
   9 H :    0.160789
  10 H :    0.154206
  11 H :    0.142390
  12 C :    0.006838
  13 H :    0.137123
  14 H :    0.166943
  15 O :   -0.528484
  16 C :    0.027233
  17 C :    0.078017
  18 C :   -0.300962
  19 C :   -0.030257
  20 O :   -0.524535
  21 H :    0.162496
  22 O :   -0.601695
  23 H :    0.161646
  24 H :    0.166361
  25 H :    0.155630
  26 H :    0.150701
  27 H :    0.150671
  28 H :    0.365150
Sum of atomic charges:    0.0000000

LOEWDIN ATOMIC CHARGES
----------------------
   0 C :    0.181607
   1 C :   -0.229907
   2 C :   -0.216192
   3 C :   -0.025538
   4 O :   -0.303821
   5 H :    0.092913
   6 H :    0.116259
   7 H :    0.113545
   8 H :    0.114517
   9 H :    0.118226
  10 H :    0.109302
  11 H :    0.102286
  12 C :   -0.040381
  13 H :    0.099830
  14 H :    0.120476
  15 O :   -0.342026
  16 C :    0.003127
  17 C :    0.032475
  18 C :   -0.240820
  19 C :   -0.038758
  20 O :   -0.324092
  21 H :    0.111699
  22 O :   -0.413493
  23 H :    0.116781
  24 H :    0.128501
  25 H :    0.119085
  26 H :    0.106780
  27 H :    0.104214
  28 H :    0.283404

  Mayer bond orders larger than 0.100000
B(  0-C ,  1-C ) :   0.9284 B(  0-C ,  4-O ) :   0.9293 B(  0-C ,  5-H ) :   0.9062
B(  0-C , 15-O ) :   0.8330 B(  1-C ,  2-C ) :   0.9512 B(  1-C ,  6-H ) :   0.9328
B(  1-C ,  7-H ) :   0.9319 B(  2-C ,  3-C ) :   0.9546 B(  2-C ,  8-H ) :   0.9446
B(  2-C ,  9-H ) :   0.9443 B(  3-C ,  4-O ) :   0.8351 B(  3-C , 10-H ) :   0.9349
B(  3-C , 11-H ) :   0.9394 B( 12-C , 13-H ) :   0.9256 B( 12-C , 14-H ) :   0.9248
B( 12-C , 15-O ) :   0.8425 B( 12-C , 16-C ) :   0.8841 B( 16-C , 17-C ) :   0.9009
B( 16-C , 20-O ) :   0.8226 B( 16-C , 21-H ) :   0.9198 B( 17-C , 18-C ) :   0.9122
B( 17-C , 22-O ) :   0.8894 B( 17-C , 23-H ) :   0.9168 B( 18-C , 19-C ) :   0.9404
B( 18-C , 24-H ) :   0.9371 B( 18-C , 25-H ) :   0.9323 B( 19-C , 20-O ) :   0.8372
B( 19-C , 26-H ) :   0.9353 B( 19-C , 27-H ) :   0.9368 B( 22-O , 28-H ) :   0.7935

FINAL SINGLE POINT ENERGY      -652.848223258304

DIPOLE MOMENT
-------------
                                X             Y             Z
Electronic contribution:     -1.01377      -0.96500      -0.64799
Nuclear contribution   :      1.00408       1.17307       0.11685
                        -----------------------------------------
Total Dipole Moment    :     -0.00969       0.20807      -0.53114
                        -----------------------------------------
Magnitude (a.u.)       :      0.57053
Magnitude (Debye)      :      1.45017

Rotational constants in cm-1:     0.057991     0.013353     0.012757
Rotational constants in MHz :  1738.521501   400.325338   382.457931

                             ****ORCA TERMINATED NORMALLY****
TOTAL RUN TIME: 0 days 1 hours 34 minutes 13 seconds 716 msec
