                         Program Version 4.2.0 -  RELEASE  -
|  1> # Test redundant internal optimization
|  2> #
|  3> ! RKS B3LYP  Opt TightSCF SmallPrint
|  4>
|  5> %basis
|  6>         Basis "6-31G"
|  7> end
|  8>
|  9> %geom
| 10> Constraints
| 11> { D 4  0  15  12  90.0   C } # D for Dihedral angle
| 12> { D 0  15  12  16  135.0   C } # D for Dihedral angle
| 13> { D 0  4  3  2   C } # D for Dihedral angle
| 14> { D 4  3  2  1   C } # D for Dihedral angle
| 15> { D 3  2  1  0   C } # D for Dihedral angle
| 16> { D 2  1  0  4   C } # D for Dihedral angle
| 17> { D 1  0  4  3   C } # D for Dihedral angle
| 18> { D 16  20  19  18   C } # D for Dihedral angle
| 19> { D 20  19  18  17   C } # D for Dihedral angle
| 20> { D 19  18  17  16   C } # D for Dihedral angle
| 21> { D 18  17  16  20   C } # D for Dihedral angle
| 22> { D 17  16  20  19   C } # D for Dihedral angle
| 23> { D 15  12  16  20   C } # D for Dihedral angle
| 24> end
| 25> end
| 26>
| 27>
| 28> #%pal
| 29> #nprocs 8
| 30> #end
| 31>
| 32> * xyz 0 1
| 33> C  -21.048   26.222   46.251
| 34> C  -20.361   27.558   45.944
| 35> C  -20.329   28.222   47.341
| 36> C  -20.110   27.022   48.296
| 37> O  -20.473   25.807   47.535
| 38> H  -20.833   25.428   45.533
| 39> H  -19.344   27.382   45.576
| 40> H  -20.898   28.157   45.201
| 41> H  -19.543   28.978   47.434
| 42> H  -21.289   28.710   47.548
| 43> H  -20.733   27.082   49.195
| 44> H  -19.064   26.913   48.597
| 45> C  -23.061   27.816   46.783
| 46> H  -23.369   27.806   47.836
| 47> H  -22.244   28.540   46.672
| 48> O  -22.586   26.394   46.375
| 49> C  -24.257   28.318   45.928
| 50> C  -24.624   29.764   46.279
| 51> C  -23.541   30.557   45.509
| 52> C  -23.334   29.715   44.226
| 53> O  -23.886   28.373   44.510
| 54> H  -25.083   27.608   46.016
| 55> O  -26.040   30.102   45.738
| 56> H  -24.610   29.962   47.356
| 57> H  -23.845   31.586   45.288
| 58> H  -22.616   30.600   46.097
| 59> H  -22.277   29.617   43.955
| 60> H  -23.884   30.115   43.370
| 61> H  -26.077   29.911   44.659
| 62> *
| 63>
| 64>                          ****END OF INPUT****
 Total Charge           Charge          ....    0
 Multiplicity           Mult            ....    1
 Number of Electrons    NEL             ....  102
FINAL SINGLE POINT ENERGY      -652.799324084950
FINAL SINGLE POINT ENERGY      -652.832013159358
FINAL SINGLE POINT ENERGY      -652.848766576143
FINAL SINGLE POINT ENERGY      -652.851829557624
FINAL SINGLE POINT ENERGY      -652.852318415161
FINAL SINGLE POINT ENERGY      -652.852391924334
FINAL SINGLE POINT ENERGY      -652.852399711303
FINAL SINGLE POINT ENERGY      -652.852398956705
                    ***********************HURRAY********************

CARTESIAN COORDINATES (ANGSTROEM)
---------------------------------
  C    -21.217911   26.360007   46.374357
  C    -20.209359   27.455137   45.994078
  C    -19.866270   28.080591   47.379868
  C    -19.915898   26.846727   48.319457
  O    -20.673221   25.803575   47.594599
  H    -21.234220   25.528904   45.668278
  H    -19.325700   26.976690   45.561128
  H    -20.610806   28.168431   45.269035
  H    -18.879027   28.553788   47.386174
  H    -20.594952   28.839069   47.675956
  H    -20.410872   27.053727   49.273485
  H    -18.920570   26.438595   48.518347
  C    -23.128954   27.995378   46.858562
  H    -23.545347   27.915891   47.871627
  H    -22.351272   28.764774   46.861746
  O    -22.611739   26.705420   46.448107
  C    -24.226946   28.383322   45.868280
  C    -24.870040   29.754532   46.123799
  C    -23.851189   30.709876   45.447690
  C    -23.360143   29.893067   44.227078
  O    -23.709979   28.476479   44.498793
  H    -24.977825   27.587808   45.854680
  O    -26.180656   29.838572   45.502569
  H    -25.035491   29.977620   47.179105
  H    -24.332352   31.649894   45.167242
  H    -23.029132   30.936904   46.136034
  H    -22.279662   29.971783   44.070644
  H    -23.866378   30.179020   43.300393
  H    -26.143089   29.419420   44.616890

 Multiplicity           Mult            ....    1
 Number of Electrons    NEL             ....  102
 Basis Dimension        Dim             ....  149

ORBITAL ENERGIES
----------------

  NO   OCC          E(Eh)            E(eV)
   0   2.0000     -19.145689      -520.9807
   1   2.0000     -19.141272      -520.8605
   2   2.0000     -19.140373      -520.8360
   3   2.0000     -19.137316      -520.7528
   4   2.0000     -10.277081      -279.6536
   5   2.0000     -10.246797      -278.8295
   6   2.0000     -10.236452      -278.5480
   7   2.0000     -10.235366      -278.5185
   8   2.0000     -10.235338      -278.5177
   9   2.0000     -10.228344      -278.3274
  10   2.0000     -10.195791      -277.4416
  11   2.0000     -10.194670      -277.4111
  12   2.0000     -10.192657      -277.3563
  13   2.0000      -1.050211       -28.5777
  14   2.0000      -1.038523       -28.2596
  15   2.0000      -1.009698       -27.4753
  16   2.0000      -0.994268       -27.0554
  17   2.0000      -0.790117       -21.5002
  18   2.0000      -0.788416       -21.4539
  19   2.0000      -0.774297       -21.0697
  20   2.0000      -0.733902       -19.9705
  21   2.0000      -0.682782       -18.5794
  22   2.0000      -0.608926       -16.5697
  23   2.0000      -0.605230       -16.4691
  24   2.0000      -0.601272       -16.3614
  25   2.0000      -0.578035       -15.7291
  26   2.0000      -0.529285       -14.4026
  27   2.0000      -0.507759       -13.8168
  28   2.0000      -0.506051       -13.7703
  29   2.0000      -0.491548       -13.3757
  30   2.0000      -0.481191       -13.0939
  31   2.0000      -0.462401       -12.5826
  32   2.0000      -0.456110       -12.4114
  33   2.0000      -0.435546       -11.8518
  34   2.0000      -0.433396       -11.7933
  35   2.0000      -0.414739       -11.2856
  36   2.0000      -0.405687       -11.0393
  37   2.0000      -0.397971       -10.8293
  38   2.0000      -0.384504       -10.4629
  39   2.0000      -0.376113       -10.2346
  40   2.0000      -0.364194        -9.9102
  41   2.0000      -0.361544        -9.8381
  42   2.0000      -0.353584        -9.6215
  43   2.0000      -0.334092        -9.0911
  44   2.0000      -0.314410        -8.5555
  45   2.0000      -0.310417        -8.4469
  46   2.0000      -0.294882        -8.0241
  47   2.0000      -0.274273        -7.4633
  48   2.0000      -0.265742        -7.2312
  49   2.0000      -0.257078        -6.9954
  50   2.0000      -0.243331        -6.6214
  51   0.0000       0.051188         1.3929
  52   0.0000       0.075297         2.0489
  53   0.0000       0.080637         2.1943
  54   0.0000       0.098784         2.6880
  55   0.0000       0.100838         2.7439

MULLIKEN ATOMIC CHARGES
-----------------------
   0 C :    0.312647
   1 C :   -0.296735
   2 C :   -0.316912
   3 C :   -0.005818
   4 O :   -0.500792
   5 H :    0.170307
   6 H :    0.159019
   7 H :    0.156899
   8 H :    0.145039
   9 H :    0.144251
  10 H :    0.143562
  11 H :    0.146889
  12 C :   -0.001981
  13 H :    0.139703
  14 H :    0.124957
  15 O :   -0.514570
  16 C :    0.067744
  17 C :    0.074918
  18 C :   -0.296848
  19 C :   -0.031219
  20 O :   -0.512148
  21 H :    0.175448
  22 O :   -0.600379
  23 H :    0.152426
  24 H :    0.165292
  25 H :    0.140530
  26 H :    0.142386
  27 H :    0.148137
  28 H :    0.367249
Sum of atomic charges:   -0.0000000

LOEWDIN ATOMIC CHARGES
----------------------
   0 C :    0.179378
   1 C :   -0.231593
   2 C :   -0.225224
   3 C :   -0.032602
   4 O :   -0.320915
   5 H :    0.115212
   6 H :    0.124947
   7 H :    0.119711
   8 H :    0.115194
   9 H :    0.104797
  10 H :    0.102198
  11 H :    0.104165
  12 C :   -0.041275
  13 H :    0.104629
  14 H :    0.094047
  15 O :   -0.310428
  16 C :    0.014535
  17 C :    0.034508
  18 C :   -0.242278
  19 C :   -0.039793
  20 O :   -0.322988
  21 H :    0.123338
  22 O :   -0.412662
  23 H :    0.115588
  24 H :    0.128027
  25 H :    0.110405
  26 H :    0.100538
  27 H :    0.103838
  28 H :    0.284703

  Mayer bond orders larger than 0.100000
B(  0-C ,  1-C ) :   0.9239 B(  0-C ,  4-O ) :   0.8984 B(  0-C ,  5-H ) :   0.9346
B(  0-C , 15-O ) :   0.8991 B(  1-C ,  2-C ) :   0.9525 B(  1-C ,  6-H ) :   0.9350
B(  1-C ,  7-H ) :   0.9295 B(  2-C ,  3-C ) :   0.9452 B(  2-C ,  8-H ) :   0.9456
B(  2-C ,  9-H ) :   0.9383 B(  3-C ,  4-O ) :   0.8527 B(  3-C , 10-H ) :   0.9342
B(  3-C , 11-H ) :   0.9389 B( 12-C , 13-H ) :   0.9193 B( 12-C , 14-H ) :   0.9044
B( 12-C , 15-O ) :   0.8465 B( 12-C , 16-C ) :   0.8944 B( 16-C , 17-C ) :   0.8975
B( 16-C , 20-O ) :   0.8612 B( 16-C , 21-H ) :   0.9223 B( 17-C , 18-C ) :   0.9091
B( 17-C , 22-O ) :   0.8964 B( 17-C , 23-H ) :   0.9328 B( 18-C , 19-C ) :   0.9401
B( 18-C , 24-H ) :   0.9370 B( 18-C , 25-H ) :   0.9344 B( 19-C , 20-O ) :   0.8549
B( 19-C , 26-H ) :   0.9321 B( 19-C , 27-H ) :   0.9380 B( 22-O , 28-H ) :   0.7928

FINAL SINGLE POINT ENERGY      -652.852396809555

DIPOLE MOMENT
-------------
                                X             Y             Z
Electronic contribution:     -4.95246      -5.20761      -1.21088
Nuclear contribution   :      6.06575       6.68610       1.23257
                        -----------------------------------------
Total Dipole Moment    :      1.11329       1.47849       0.02169
                        -----------------------------------------
Magnitude (a.u.)       :      1.85090
Magnitude (Debye)      :      4.70460

Rotational constants in cm-1:     0.058919     0.013201     0.012720
Rotational constants in MHz :  1766.356084   395.769494   381.344669

                             ****ORCA TERMINATED NORMALLY****
TOTAL RUN TIME: 0 days 0 hours 52 minutes 36 seconds 282 msec
