                         Program Version 4.2.0 -  RELEASE  -
|  1> # Test redundant internal optimization
|  2> #
|  3> ! RKS B3LYP  Opt TightSCF SmallPrint
|  4>
|  5> %basis
|  6>         Basis "6-31G"
|  7> end
|  8>
|  9> %geom
| 10> Constraints
| 11> { D 4  0  15  12  240.0   C } # D for Dihedral angle
| 12> { D 0  15  12  16  60.0   C } # D for Dihedral angle
| 13> { D 0  4  3  2   C } # D for Dihedral angle
| 14> { D 4  3  2  1   C } # D for Dihedral angle
| 15> { D 3  2  1  0   C } # D for Dihedral angle
| 16> { D 2  1  0  4   C } # D for Dihedral angle
| 17> { D 1  0  4  3   C } # D for Dihedral angle
| 18> { D 16  20  19  18   C } # D for Dihedral angle
| 19> { D 20  19  18  17   C } # D for Dihedral angle
| 20> { D 19  18  17  16   C } # D for Dihedral angle
| 21> { D 18  17  16  20   C } # D for Dihedral angle
| 22> { D 17  16  20  19   C } # D for Dihedral angle
| 23> { D 15  12  16  20   C } # D for Dihedral angle
| 24> end
| 25> end
| 26>
| 27>
| 28> #%pal
| 29> #nprocs 8
| 30> #end
| 31>
| 32> * xyz 0 1
| 33> C  -21.048   26.222   46.251
| 34> C  -20.361   27.558   45.944
| 35> C  -20.329   28.222   47.341
| 36> C  -20.110   27.022   48.296
| 37> O  -20.473   25.807   47.535
| 38> H  -20.833   25.428   45.533
| 39> H  -19.344   27.382   45.576
| 40> H  -20.898   28.157   45.201
| 41> H  -19.543   28.978   47.434
| 42> H  -21.289   28.710   47.548
| 43> H  -20.733   27.082   49.195
| 44> H  -19.064   26.913   48.597
| 45> C  -23.430   25.483   45.442
| 46> H  -24.495   25.689   45.602
| 47> H  -23.195   25.688   44.390
| 48> O  -22.586   26.394   46.375
| 49> C  -23.182   23.970   45.696
| 50> C  -23.940   23.104   44.683
| 51> C  -23.026   23.203   43.439
| 52> C  -21.604   23.258   44.050
| 53> O  -21.771   23.637   45.470
| 54> H  -23.401   23.741   46.740
| 55> O  -24.020   21.638   45.190
| 56> H  -24.959   23.459   44.492
| 57> H  -23.153   22.361   42.751
| 58> H  -23.244   24.124   42.884
| 59> H  -20.962   23.995   43.555
| 60> H  -21.105   22.285   44.033
| 61> H  -23.010   21.262   45.388
| 62> *
| 63>
| 64>                          ****END OF INPUT****
 Total Charge           Charge          ....    0
 Multiplicity           Mult            ....    1
 Number of Electrons    NEL             ....  102
FINAL SINGLE POINT ENERGY      -652.829978607568
FINAL SINGLE POINT ENERGY      -652.853233030468
FINAL SINGLE POINT ENERGY      -652.857480867883
FINAL SINGLE POINT ENERGY      -652.859190914103
FINAL SINGLE POINT ENERGY      -652.859369964220
FINAL SINGLE POINT ENERGY      -652.859398106949
                    ***********************HURRAY********************

CARTESIAN COORDINATES (ANGSTROEM)
---------------------------------
  C    -20.904104   26.236040   46.211383
  C    -20.367585   27.650902   45.995560
  C    -20.486090   28.258150   47.414581
  C    -20.176186   27.053535   48.330006
  O    -20.359356   25.846344   47.488000
  H    -20.602544   25.477519   45.493160
  H    -19.318444   27.598299   45.680075
  H    -20.936500   28.201763   45.242649
  H    -19.799363   29.094479   47.575834
  H    -21.508888   28.611036   47.576306
  H    -20.845831   26.987062   49.191560
  H    -19.138400   27.040411   48.677561
  C    -23.203871   25.487343   45.465660
  H    -24.222568   25.758878   45.759713
  H    -23.070485   25.770506   44.408303
  O    -22.358103   26.314913   46.301240
  C    -23.032292   23.972786   45.625360
  C    -23.934378   23.141325   44.699119
  C    -23.102013   23.114284   43.389667
  C    -21.640926   23.062667   43.901798
  O    -21.674110   23.506367   45.319255
  H    -23.200872   23.713468   46.675385
  O    -24.141559   21.806213   45.233682
  H    -24.934310   23.556623   44.565138
  H    -23.371137   22.249560   42.778203
  H    -23.286727   24.022188   42.803957
  H    -20.970612   23.718337   43.336975
  H    -21.225465   22.050610   43.893393
  H    -23.295280   21.470392   45.597479

 Multiplicity           Mult            ....    1
 Number of Electrons    NEL             ....  102
 Basis Dimension        Dim             ....  149

ORBITAL ENERGIES
----------------

  NO   OCC          E(Eh)            E(eV)
   0   2.0000     -19.150182      -521.1029
   1   2.0000     -19.142138      -520.8841
   2   2.0000     -19.133603      -520.6518
   3   2.0000     -19.126605      -520.4614
   4   2.0000     -10.264581      -279.3134
   5   2.0000     -10.247688      -278.8538
   6   2.0000     -10.237199      -278.5684
   7   2.0000     -10.236676      -278.5541
   8   2.0000     -10.235368      -278.5185
   9   2.0000     -10.214618      -277.9539
  10   2.0000     -10.195179      -277.4249
  11   2.0000     -10.176620      -276.9199
  12   2.0000     -10.176277      -276.9106
  13   2.0000      -1.045905       -28.4605
  14   2.0000      -1.036695       -28.2099
  15   2.0000      -1.010783       -27.5048
  16   2.0000      -0.984379       -26.7863
  17   2.0000      -0.789932       -21.4952
  18   2.0000      -0.778175       -21.1752
  19   2.0000      -0.766832       -20.8666
  20   2.0000      -0.726469       -19.7682
  21   2.0000      -0.674442       -18.3525
  22   2.0000      -0.609066       -16.5735
  23   2.0000      -0.600447       -16.3390
  24   2.0000      -0.588409       -16.0114
  25   2.0000      -0.573240       -15.5987
  26   2.0000      -0.528589       -14.3836
  27   2.0000      -0.507743       -13.8164
  28   2.0000      -0.496269       -13.5042
  29   2.0000      -0.482819       -13.1382
  30   2.0000      -0.473873       -12.8947
  31   2.0000      -0.456723       -12.4281
  32   2.0000      -0.446635       -12.1536
  33   2.0000      -0.439226       -11.9519
  34   2.0000      -0.424609       -11.5542
  35   2.0000      -0.409410       -11.1406
  36   2.0000      -0.399392       -10.8680
  37   2.0000      -0.390662       -10.6305
  38   2.0000      -0.378533       -10.3004
  39   2.0000      -0.366530        -9.9738
  40   2.0000      -0.364601        -9.9213
  41   2.0000      -0.347761        -9.4631
  42   2.0000      -0.342354        -9.3159
  43   2.0000      -0.334820        -9.1109
  44   2.0000      -0.317113        -8.6291
  45   2.0000      -0.305830        -8.3221
  46   2.0000      -0.295341        -8.0366
  47   2.0000      -0.276109        -7.5133
  48   2.0000      -0.264163        -7.1883
  49   2.0000      -0.251387        -6.8406
  50   2.0000      -0.230442        -6.2706
  51   0.0000       0.058958         1.6043
  52   0.0000       0.082432         2.2431
  53   0.0000       0.088871         2.4183
  54   0.0000       0.097871         2.6632
  55   0.0000       0.106199         2.8898

MULLIKEN ATOMIC CHARGES
-----------------------
   0 C :    0.278162
   1 C :   -0.251089
   2 C :   -0.297654
   3 C :   -0.000109
   4 O :   -0.500429
   5 H :    0.172522
   6 H :    0.138837
   7 H :    0.139354
   8 H :    0.135365
   9 H :    0.160161
  10 H :    0.146823
  11 H :    0.136919
  12 C :   -0.002269
  13 H :    0.153383
  14 H :    0.117438
  15 O :   -0.528015
  16 C :    0.059420
  17 C :    0.079564
  18 C :   -0.294592
  19 C :   -0.036196
  20 O :   -0.513273
  21 H :    0.176793
  22 O :   -0.601818
  23 H :    0.154129
  24 H :    0.167287
  25 H :    0.142836
  26 H :    0.145970
  27 H :    0.152723
  28 H :    0.367758
Sum of atomic charges:   -0.0000000

LOEWDIN ATOMIC CHARGES
----------------------
   0 C :    0.172074
   1 C :   -0.221474
   2 C :   -0.216786
   3 C :   -0.027997
   4 O :   -0.311592
   5 H :    0.114766
   6 H :    0.109995
   7 H :    0.114783
   8 H :    0.110756
   9 H :    0.118202
  10 H :    0.105163
  11 H :    0.099634
  12 C :   -0.037695
  13 H :    0.118387
  14 H :    0.085550
  15 O :   -0.334026
  16 C :    0.004310
  17 C :    0.037067
  18 C :   -0.241171
  19 C :   -0.040649
  20 O :   -0.322306
  21 H :    0.123735
  22 O :   -0.412833
  23 H :    0.116743
  24 H :    0.128839
  25 H :    0.112325
  26 H :    0.103054
  27 H :    0.106053
  28 H :    0.285095

  Mayer bond orders larger than 0.100000
B(  0-C ,  1-C ) :   0.9389 B(  0-C ,  4-O ) :   0.9253 B(  0-C ,  5-H ) :   0.9048
B(  0-C , 15-O ) :   0.8172 B(  1-C ,  2-C ) :   0.9563 B(  1-C ,  6-H ) :   0.9389
B(  1-C ,  7-H ) :   0.9396 B(  2-C ,  3-C ) :   0.9544 B(  2-C ,  8-H ) :   0.9462
B(  2-C ,  9-H ) :   0.9439 B(  3-C ,  4-O ) :   0.8445 B(  3-C , 10-H ) :   0.9351
B(  3-C , 11-H ) :   0.9400 B( 12-C , 13-H ) :   0.9305 B( 12-C , 14-H ) :   0.9223
B( 12-C , 15-O ) :   0.8744 B( 12-C , 16-C ) :   0.8875 B( 16-C , 17-C ) :   0.8942
B( 16-C , 20-O ) :   0.8474 B( 16-C , 21-H ) :   0.9214 B( 17-C , 18-C ) :   0.9117
B( 17-C , 22-O ) :   0.8924 B( 17-C , 23-H ) :   0.9333 B( 18-C , 19-C ) :   0.9410
B( 18-C , 24-H ) :   0.9365 B( 18-C , 25-H ) :   0.9327 B( 19-C , 20-O ) :   0.8438
B( 19-C , 26-H ) :   0.9335 B( 19-C , 27-H ) :   0.9378 B( 22-O , 28-H ) :   0.7933

FINAL SINGLE POINT ENERGY      -652.859400283165

DIPOLE MOMENT
-------------
                                X             Y             Z
Electronic contribution:     -1.37035      -4.28829       2.27396
Nuclear contribution   :      1.51534       4.89838      -3.36320
                        -----------------------------------------
Total Dipole Moment    :      0.14499       0.61008      -1.08924
                        -----------------------------------------
Magnitude (a.u.)       :      1.25685
Magnitude (Debye)      :      3.19465

Rotational constants in cm-1:     0.065662     0.012448     0.012373
Rotational constants in MHz :  1968.508370   373.196007   370.934082

                             ****ORCA TERMINATED NORMALLY****
TOTAL RUN TIME: 0 days 0 hours 31 minutes 17 seconds 745 msec
