                         Program Version 4.2.0 -  RELEASE  -
|  1> # Test redundant internal optimization
|  2> #
|  3> ! RKS B3LYP  Opt TightSCF SmallPrint
|  4>
|  5> %basis
|  6>         Basis "6-31G"
|  7> end
|  8>
|  9> %geom
| 10> Constraints
| 11> { D 4  0  15  12  210.0   C } # D for Dihedral angle
| 12> { D 0  15  12  16  240.0   C } # D for Dihedral angle
| 13> { D 0  4  3  2   C } # D for Dihedral angle
| 14> { D 4  3  2  1   C } # D for Dihedral angle
| 15> { D 3  2  1  0   C } # D for Dihedral angle
| 16> { D 2  1  0  4   C } # D for Dihedral angle
| 17> { D 1  0  4  3   C } # D for Dihedral angle
| 18> { D 16  20  19  18   C } # D for Dihedral angle
| 19> { D 20  19  18  17   C } # D for Dihedral angle
| 20> { D 19  18  17  16   C } # D for Dihedral angle
| 21> { D 18  17  16  20   C } # D for Dihedral angle
| 22> { D 17  16  20  19   C } # D for Dihedral angle
| 23> { D 15  12  16  20   C } # D for Dihedral angle
| 24> end
| 25> end
| 26>
| 27>
| 28> #%pal
| 29> #nprocs 8
| 30> #end
| 31>
| 32> * xyz 0 1
| 33> C  -21.048   26.222   46.251
| 34> C  -20.361   27.558   45.944
| 35> C  -20.329   28.222   47.341
| 36> C  -20.110   27.022   48.296
| 37> O  -20.473   25.807   47.535
| 38> H  -20.833   25.428   45.533
| 39> H  -19.344   27.382   45.576
| 40> H  -20.898   28.157   45.201
| 41> H  -19.543   28.978   47.434
| 42> H  -21.289   28.710   47.548
| 43> H  -20.733   27.082   49.195
| 44> H  -19.064   26.913   48.597
| 45> C  -23.389   26.110   45.076
| 46> H  -22.695   25.820   44.277
| 47> H  -24.095   25.285   45.234
| 48> O  -22.586   26.394   46.375
| 49> C  -24.203   27.342   44.592
| 50> C  -25.134   27.862   45.693
| 51> C  -24.153   28.666   46.580
| 52> C  -23.159   29.263   45.553
| 53> O  -23.308   28.470   44.313
| 54> H  -24.705   27.094   43.656
| 55> H  -25.894   28.523   45.262
| 56> O  -25.855   26.727   46.469
| 57> H  -24.652   29.437   47.175
| 58> H  -23.634   27.992   47.273
| 59> H  -22.119   29.206   45.893
| 60> H  -23.393   30.301   45.301
| 61> H  -25.113   26.053   46.910
| 62> *
| 63>
| 64>                          ****END OF INPUT****
 Total Charge           Charge          ....    0
 Multiplicity           Mult            ....    1
 Number of Electrons    NEL             ....  102
FINAL SINGLE POINT ENERGY      -652.827073068299
FINAL SINGLE POINT ENERGY      -652.850409602095
FINAL SINGLE POINT ENERGY      -652.857356470456
FINAL SINGLE POINT ENERGY      -652.860628630345
FINAL SINGLE POINT ENERGY      -652.860977869789
FINAL SINGLE POINT ENERGY      -652.861026466833
FINAL SINGLE POINT ENERGY      -652.861030973057
                    ***********************HURRAY********************

CARTESIAN COORDINATES (ANGSTROEM)
---------------------------------
  C    -21.015518   26.177220   46.207893
  C    -20.296658   27.497157   45.940057
  C    -20.251744   28.130676   47.350992
  C    -20.067755   26.905209   48.271873
  O    -20.467886   25.729386   47.454936
  H    -20.823190   25.392412   45.469220
  H    -19.282547   27.283393   45.581997
  H    -20.811257   28.105765   45.193140
  H    -19.442217   28.858773   47.459471
  H    -21.196746   28.635217   47.571356
  H    -20.693381   26.936883   49.167146
  H    -19.025831   26.743302   48.562675
  C    -23.249082   26.118522   45.141891
  H    -22.586439   25.819781   44.319418
  H    -23.942987   25.291445   45.337287
  O    -22.461258   26.340085   46.352318
  C    -24.071736   27.320282   44.684598
  C    -25.141728   27.801234   45.680269
  C    -24.334058   28.804280   46.558915
  C    -23.359119   29.437823   45.545591
  O    -23.317152   28.526906   44.367392
  H    -24.543047   27.010720   43.742598
  H    -25.948229   28.306368   45.145098
  O    -25.789638   26.743091   46.421984
  H    -24.977519   29.541820   47.046430
  H    -23.790552   28.237831   47.320429
  H    -22.348347   29.559893   45.937795
  H    -23.714481   30.404461   45.175666
  H    -25.161899   26.366065   47.074567

 Multiplicity           Mult            ....    1
 Number of Electrons    NEL             ....  102
 Basis Dimension        Dim             ....  149

ORBITAL ENERGIES
----------------

  NO   OCC          E(Eh)            E(eV)
   0   2.0000     -19.147125      -521.0197
   1   2.0000     -19.144015      -520.9351
   2   2.0000     -19.143787      -520.9289
   3   2.0000     -19.141401      -520.8640
   4   2.0000     -10.283012      -279.8150
   5   2.0000     -10.239445      -278.6295
   6   2.0000     -10.233862      -278.4776
   7   2.0000     -10.233535      -278.4686
   8   2.0000     -10.228956      -278.3441
   9   2.0000     -10.228618      -278.3349
  10   2.0000     -10.190324      -277.2928
  11   2.0000     -10.185070      -277.1498
  12   2.0000     -10.184983      -277.1475
  13   2.0000      -1.055689       -28.7268
  14   2.0000      -1.031408       -28.0660
  15   2.0000      -1.013615       -27.5819
  16   2.0000      -0.997285       -27.1375
  17   2.0000      -0.789367       -21.4798
  18   2.0000      -0.776967       -21.1423
  19   2.0000      -0.770051       -20.9542
  20   2.0000      -0.734782       -19.9944
  21   2.0000      -0.682286       -18.5660
  22   2.0000      -0.607115       -16.5205
  23   2.0000      -0.603730       -16.4283
  24   2.0000      -0.596328       -16.2269
  25   2.0000      -0.576494       -15.6872
  26   2.0000      -0.527658       -14.3583
  27   2.0000      -0.509228       -13.8568
  28   2.0000      -0.498512       -13.5652
  29   2.0000      -0.491860       -13.3842
  30   2.0000      -0.473646       -12.8886
  31   2.0000      -0.463809       -12.6209
  32   2.0000      -0.441374       -12.0104
  33   2.0000      -0.439555       -11.9609
  34   2.0000      -0.427320       -11.6280
  35   2.0000      -0.417435       -11.3590
  36   2.0000      -0.406510       -11.0617
  37   2.0000      -0.394329       -10.7302
  38   2.0000      -0.381675       -10.3859
  39   2.0000      -0.373710       -10.1692
  40   2.0000      -0.359927        -9.7941
  41   2.0000      -0.355791        -9.6816
  42   2.0000      -0.352173        -9.5831
  43   2.0000      -0.330752        -9.0002
  44   2.0000      -0.317322        -8.6348
  45   2.0000      -0.315012        -8.5719
  46   2.0000      -0.308444        -8.3932
  47   2.0000      -0.271577        -7.3900
  48   2.0000      -0.266187        -7.2433
  49   2.0000      -0.259844        -7.0707
  50   2.0000      -0.239652        -6.5213
  51   0.0000       0.065747         1.7891
  52   0.0000       0.072457         1.9717
  53   0.0000       0.086898         2.3646
  54   0.0000       0.094808         2.5799
  55   0.0000       0.100285         2.7289

MULLIKEN ATOMIC CHARGES
-----------------------
   0 C :    0.299315
   1 C :   -0.277535
   2 C :   -0.309397
   3 C :   -0.003373
   4 O :   -0.503716
   5 H :    0.142658
   6 H :    0.144252
   7 H :    0.174571
   8 H :    0.144990
   9 H :    0.155852
  10 H :    0.150714
  11 H :    0.144419
  12 C :   -0.042440
  13 H :    0.142110
  14 H :    0.155776
  15 O :   -0.529131
  16 C :    0.103291
  17 C :    0.094650
  18 C :   -0.314804
  19 C :   -0.011889
  20 O :   -0.525866
  21 H :    0.147822
  22 H :    0.160412
  23 O :   -0.608046
  24 H :    0.147249
  25 H :    0.164103
  26 H :    0.139517
  27 H :    0.144490
  28 H :    0.370005
Sum of atomic charges:   -0.0000000

LOEWDIN ATOMIC CHARGES
----------------------
   0 C :    0.182838
   1 C :   -0.231858
   2 C :   -0.218711
   3 C :   -0.025735
   4 O :   -0.305689
   5 H :    0.097818
   6 H :    0.114974
   7 H :    0.128650
   8 H :    0.115926
   9 H :    0.111623
  10 H :    0.107245
  11 H :    0.103654
  12 C :   -0.050179
  13 H :    0.104875
  14 H :    0.112662
  15 O :   -0.349429
  16 C :    0.011988
  17 C :    0.038527
  18 C :   -0.241185
  19 C :   -0.027535
  20 O :   -0.326211
  21 H :    0.114500
  22 H :    0.115656
  23 O :   -0.409524
  24 H :    0.117352
  25 H :    0.119398
  26 H :    0.099426
  27 H :    0.102518
  28 H :    0.286425

  Mayer bond orders larger than 0.100000
B(  0-C ,  1-C ) :   0.9316 B(  0-C ,  4-O ) :   0.9390 B(  0-C ,  5-H ) :   0.9192
B(  0-C , 15-O ) :   0.8236 B(  1-C ,  2-C ) :   0.9544 B(  1-C ,  6-H ) :   0.9324
B(  1-C ,  7-H ) :   0.9178 B(  2-C ,  3-C ) :   0.9506 B(  2-C ,  8-H ) :   0.9450
B(  2-C ,  9-H ) :   0.9359 B(  3-C ,  4-O ) :   0.8366 B(  3-C , 10-H ) :   0.9351
B(  3-C , 11-H ) :   0.9392 B( 12-C , 13-H ) :   0.9220 B( 12-C , 14-H ) :   0.9119
B( 12-C , 15-O ) :   0.8496 B( 12-C , 16-C ) :   0.8996 B( 16-C , 17-C ) :   0.8873
B( 16-C , 20-O ) :   0.8697 B( 16-C , 21-H ) :   0.9232 B( 17-C , 18-C ) :   0.9295
B( 17-C , 22-H ) :   0.9368 B( 17-C , 23-O ) :   0.9050 B( 18-C , 19-C ) :   0.9477
B( 18-C , 24-H ) :   0.9409 B( 18-C , 25-H ) :   0.9265 B( 19-C , 20-O ) :   0.8359
B( 19-C , 26-H ) :   0.9198 B( 19-C , 27-H ) :   0.9386 B( 23-O , 28-H ) :   0.7895

FINAL SINGLE POINT ENERGY      -652.861029899697

DIPOLE MOMENT
-------------
                                X             Y             Z
Electronic contribution:     -2.70909      -4.06983      -1.33473
Nuclear contribution   :      3.35996       4.84146       1.43480
                        -----------------------------------------
Total Dipole Moment    :      0.65087       0.77163       0.10007
                        -----------------------------------------
Magnitude (a.u.)       :      1.01443
Magnitude (Debye)      :      2.57847

Rotational constants in cm-1:     0.044780     0.017455     0.016118
Rotational constants in MHz :  1342.470615   523.296661   483.200356

                             ****ORCA TERMINATED NORMALLY****
TOTAL RUN TIME: 0 days 0 hours 38 minutes 7 seconds 627 msec
