                         Program Version 4.2.0 -  RELEASE  -
|  1> # Test redundant internal optimization
|  2> #
|  3> ! RKS B3LYP  Opt TightSCF SmallPrint
|  4>
|  5> %basis
|  6>         Basis "6-31G"
|  7> end
|  8>
|  9> %geom
| 10> Constraints
| 11> { D 4  0  15  12  300.0   C } # D for Dihedral angle
| 12> { D 0  15  12  16  240.0   C } # D for Dihedral angle
| 13> { D 0  4  3  2   C } # D for Dihedral angle
| 14> { D 4  3  2  1   C } # D for Dihedral angle
| 15> { D 3  2  1  0   C } # D for Dihedral angle
| 16> { D 2  1  0  4   C } # D for Dihedral angle
| 17> { D 1  0  4  3   C } # D for Dihedral angle
| 18> { D 16  20  19  18   C } # D for Dihedral angle
| 19> { D 20  19  18  17   C } # D for Dihedral angle
| 20> { D 19  18  17  16   C } # D for Dihedral angle
| 21> { D 18  17  16  20   C } # D for Dihedral angle
| 22> { D 17  16  20  19   C } # D for Dihedral angle
| 23> { D 15  12  16  20   C } # D for Dihedral angle
| 24> end
| 25> end
| 26>
| 27>
| 28> #%pal
| 29> #nprocs 8
| 30> #end
| 31>
| 32> * xyz 0 1
| 33> C  -21.048   26.222   46.251
| 34> C  -20.361   27.558   45.944
| 35> C  -20.329   28.222   47.341
| 36> C  -20.110   27.022   48.296
| 37> O  -20.473   25.807   47.535
| 38> H  -20.833   25.428   45.533
| 39> H  -19.344   27.382   45.576
| 40> H  -20.898   28.157   45.201
| 41> H  -19.543   28.978   47.434
| 42> H  -21.289   28.710   47.548
| 43> H  -20.733   27.082   49.195
| 44> H  -19.064   26.913   48.597
| 45> C  -23.362   25.116   46.798
| 46> H  -22.651   24.294   46.946
| 47> H  -23.893   25.285   47.743
| 48> O  -22.586   26.394   46.375
| 49> C  -24.409   24.672   45.740
| 50> C  -25.387   25.807   45.413
| 51> C  -24.548   26.674   44.444
| 52> C  -23.718   25.625   43.662
| 53> O  -23.754   24.380   44.461
| 54> H  -24.885   23.748   46.073
| 55> O  -26.641   25.239   44.695
| 56> H  -25.717   26.359   46.299
| 57> H  -25.165   27.293   43.785
| 58> H  -23.889   27.342   45.011
| 59> H  -22.677   25.933   43.522
| 60> H  -24.153   25.393   42.685
| 61> H  -26.334   24.681   43.803
| 62> *
| 63>
| 64>                          ****END OF INPUT****
 Total Charge           Charge          ....    0
 Multiplicity           Mult            ....    1
 Number of Electrons    NEL             ....  102
FINAL SINGLE POINT ENERGY      -652.840370344734
FINAL SINGLE POINT ENERGY      -652.863990516796
FINAL SINGLE POINT ENERGY      -652.868225501604
FINAL SINGLE POINT ENERGY      -652.869512476478
FINAL SINGLE POINT ENERGY      -652.869643462646
FINAL SINGLE POINT ENERGY      -652.869658919596
FINAL SINGLE POINT ENERGY      -652.869660067947
                    ***********************HURRAY********************

CARTESIAN COORDINATES (ANGSTROEM)
---------------------------------
  C    -21.058607   26.162437   46.274019
  C    -20.407919   27.514291   45.983103
  C    -20.382427   28.160758   47.386158
  C    -20.129459   26.959140   48.323334
  O    -20.474978   25.748597   47.530970
  H    -20.855090   25.356494   45.563794
  H    -19.393173   27.349164   45.604136
  H    -20.970156   28.097141   45.250252
  H    -19.609915   28.930103   47.481316
  H    -21.353950   28.617020   47.597165
  H    -20.746554   26.979277   49.225162
  H    -19.078461   26.854405   48.607733
  C    -23.262114   25.209128   46.788531
  H    -22.586554   24.367308   46.968874
  H    -23.763899   25.450329   47.733720
  O    -22.486370   26.379450   46.377498
  C    -24.294472   24.809607   45.737668
  C    -25.364624   25.848073   45.368108
  C    -24.620298   26.705376   44.311398
  C    -23.739946   25.665775   43.574386
  O    -23.659603   24.477701   44.458595
  H    -24.781891   23.892654   46.092150
  O    -26.545605   25.196220   44.820708
  H    -25.725471   26.427700   46.218250
  H    -25.330541   27.208435   43.649181
  H    -23.999235   27.445518   44.818154
  H    -22.728429   26.034136   43.383481
  H    -24.178816   25.331991   42.628301
  H    -26.265442   24.537774   44.149854

 Multiplicity           Mult            ....    1
 Number of Electrons    NEL             ....  102
 Basis Dimension        Dim             ....  149

ORBITAL ENERGIES
----------------

  NO   OCC          E(Eh)            E(eV)
   0   2.0000     -19.147732      -521.0363
   1   2.0000     -19.143769      -520.9284
   2   2.0000     -19.139438      -520.8106
   3   2.0000     -19.133779      -520.6566
   4   2.0000     -10.279891      -279.7301
   5   2.0000     -10.235649      -278.5262
   6   2.0000     -10.231522      -278.4139
   7   2.0000     -10.228396      -278.3288
   8   2.0000     -10.228126      -278.3215
   9   2.0000     -10.224894      -278.2335
  10   2.0000     -10.188685      -277.2482
  11   2.0000     -10.188111      -277.2326
  12   2.0000     -10.176669      -276.9212
  13   2.0000      -1.057266       -28.7697
  14   2.0000      -1.031909       -28.0797
  15   2.0000      -1.002948       -27.2916
  16   2.0000      -0.993127       -27.0244
  17   2.0000      -0.792393       -21.5621
  18   2.0000      -0.774728       -21.0814
  19   2.0000      -0.764055       -20.7910
  20   2.0000      -0.732075       -19.9208
  21   2.0000      -0.672676       -18.3045
  22   2.0000      -0.602846       -16.4043
  23   2.0000      -0.597378       -16.2555
  24   2.0000      -0.596616       -16.2347
  25   2.0000      -0.574008       -15.6195
  26   2.0000      -0.525114       -14.2891
  27   2.0000      -0.507058       -13.7978
  28   2.0000      -0.494114       -13.4455
  29   2.0000      -0.490849       -13.3567
  30   2.0000      -0.467178       -12.7126
  31   2.0000      -0.462223       -12.5777
  32   2.0000      -0.447088       -12.1659
  33   2.0000      -0.438675       -11.9370
  34   2.0000      -0.419393       -11.4123
  35   2.0000      -0.410698       -11.1757
  36   2.0000      -0.399903       -10.8819
  37   2.0000      -0.388450       -10.5703
  38   2.0000      -0.377323       -10.2675
  39   2.0000      -0.362527        -9.8649
  40   2.0000      -0.361761        -9.8440
  41   2.0000      -0.357526        -9.7288
  42   2.0000      -0.347379        -9.4527
  43   2.0000      -0.336762        -9.1637
  44   2.0000      -0.323683        -8.8079
  45   2.0000      -0.305169        -8.3041
  46   2.0000      -0.297274        -8.0892
  47   2.0000      -0.277209        -7.5432
  48   2.0000      -0.264087        -7.1862
  49   2.0000      -0.257898        -7.0178
  50   2.0000      -0.240278        -6.5383
  51   0.0000       0.065650         1.7864
  52   0.0000       0.085141         2.3168
  53   0.0000       0.096871         2.6360
  54   0.0000       0.105321         2.8659
  55   0.0000       0.108183         2.9438

MULLIKEN ATOMIC CHARGES
-----------------------
   0 C :    0.282763
   1 C :   -0.265204
   2 C :   -0.299348
   3 C :   -0.004927
   4 O :   -0.513013
   5 H :    0.162429
   6 H :    0.148055
   7 H :    0.154000
   8 H :    0.142793
   9 H :    0.161124
  10 H :    0.147081
  11 H :    0.145030
  12 C :   -0.009465
  13 H :    0.167732
  14 H :    0.138532
  15 O :   -0.530362
  16 C :    0.070704
  17 C :    0.079812
  18 C :   -0.283524
  19 C :   -0.023079
  20 O :   -0.530948
  21 H :    0.152712
  22 O :   -0.604172
  23 H :    0.151511
  24 H :    0.148217
  25 H :    0.170107
  26 H :    0.141595
  27 H :    0.137675
  28 H :    0.362171
Sum of atomic charges:   -0.0000000

LOEWDIN ATOMIC CHARGES
----------------------
   0 C :    0.171543
   1 C :   -0.214971
   2 C :   -0.216230
   3 C :   -0.027950
   4 O :   -0.328440
   5 H :    0.105006
   6 H :    0.115816
   7 H :    0.121672
   8 H :    0.114207
   9 H :    0.118508
  10 H :    0.105404
  11 H :    0.104080
  12 C :   -0.038566
  13 H :    0.119681
  14 H :    0.106033
  15 O :   -0.334066
  16 C :    0.009260
  17 C :    0.039191
  18 C :   -0.241016
  19 C :   -0.034624
  20 O :   -0.334526
  21 H :    0.114591
  22 O :   -0.417717
  23 H :    0.116144
  24 H :    0.118568
  25 H :    0.127864
  26 H :    0.101939
  27 H :    0.097038
  28 H :    0.281562

  Mayer bond orders larger than 0.100000
B(  0-C ,  1-C ) :   0.9500 B(  0-C ,  4-O ) :   0.8996 B(  0-C ,  5-H ) :   0.9163
B(  0-C , 15-O ) :   0.8482 B(  1-C ,  2-C ) :   0.9544 B(  1-C ,  6-H ) :   0.9396
B(  1-C ,  7-H ) :   0.9366 B(  2-C ,  3-C ) :   0.9562 B(  2-C ,  8-H ) :   0.9451
B(  2-C ,  9-H ) :   0.9445 B(  3-C ,  4-O ) :   0.8350 B(  3-C , 10-H ) :   0.9358
B(  3-C , 11-H ) :   0.9405 B( 12-C , 13-H ) :   0.9157 B( 12-C , 14-H ) :   0.9246
B( 12-C , 15-O ) :   0.8400 B( 12-C , 16-C ) :   0.8976 B( 16-C , 17-C ) :   0.9118
B( 16-C , 20-O ) :   0.8619 B( 16-C , 21-H ) :   0.9200 B( 17-C , 18-C ) :   0.9220
B( 17-C , 22-O ) :   0.8893 B( 17-C , 23-H ) :   0.9354 B( 18-C , 19-C ) :   0.9473
B( 18-C , 24-H ) :   0.9372 B( 18-C , 25-H ) :   0.9202 B( 19-C , 20-O ) :   0.8408
B( 19-C , 26-H ) :   0.9347 B( 19-C , 27-H ) :   0.9372 B( 22-O , 28-H ) :   0.7963

FINAL SINGLE POINT ENERGY      -652.869658810410

DIPOLE MOMENT
-------------
                                X             Y             Z
Electronic contribution:     -2.83074      -4.90528      -0.37029
Nuclear contribution   :      3.56744       5.76377       0.39011
                        -----------------------------------------
Total Dipole Moment    :      0.73670       0.85850       0.01982
                        -----------------------------------------
Magnitude (a.u.)       :      1.13143
Magnitude (Debye)      :      2.87587

Rotational constants in cm-1:     0.061847     0.013526     0.013048
Rotational constants in MHz :  1854.120593   405.493930   391.165644

                             ****ORCA TERMINATED NORMALLY****
TOTAL RUN TIME: 0 days 1 hours 45 minutes 41 seconds 199 msec
