                         Program Version 4.2.0 -  RELEASE  -
|  1> # Test redundant internal optimization
|  2> #
|  3> ! RKS B3LYP  Opt TightSCF SmallPrint
|  4>
|  5> %basis
|  6>         Basis "6-31G"
|  7> end
|  8>
|  9> %geom
| 10> Constraints
| 11> { D 4  0  15  12  180.0   C } # D for Dihedral angle
| 12> { D 0  15  12  16  180.0   C } # D for Dihedral angle
| 13> { D 0  4  3  2   C } # D for Dihedral angle
| 14> { D 4  3  2  1   C } # D for Dihedral angle
| 15> { D 3  2  1  0   C } # D for Dihedral angle
| 16> { D 2  1  0  4   C } # D for Dihedral angle
| 17> { D 1  0  4  3   C } # D for Dihedral angle
| 18> { D 16  20  19  18   C } # D for Dihedral angle
| 19> { D 20  19  18  17   C } # D for Dihedral angle
| 20> { D 19  18  17  16   C } # D for Dihedral angle
| 21> { D 18  17  16  20   C } # D for Dihedral angle
| 22> { D 17  16  20  19   C } # D for Dihedral angle
| 23> { D 15  12  16  20   C } # D for Dihedral angle
| 24> end
| 25> end
| 26>
| 27>
| 28> #%pal
| 29> #nprocs 8
| 30> #end
| 31>
| 32> * xyz 0 1
| 33> C  -21.048   26.222   46.251
| 34> C  -20.361   27.558   45.944
| 35> C  -20.329   28.222   47.341
| 36> C  -20.110   27.022   48.296
| 37> O  -20.473   25.807   47.535
| 38> H  -20.833   25.428   45.533
| 39> H  -19.344   27.382   45.576
| 40> H  -20.898   28.157   45.201
| 41> H  -19.543   28.978   47.434
| 42> H  -21.289   28.710   47.548
| 43> H  -20.733   27.082   49.195
| 44> H  -19.064   26.913   48.597
| 45> C  -23.309   26.834   45.072
| 46> H  -22.903   27.797   44.741
| 47> H  -23.142   26.099   44.274
| 48> O  -22.586   26.394   46.375
| 49> C  -24.843   26.988   45.260
| 50> C  -25.537   27.309   43.931
| 51> C  -25.603   25.913   43.267
| 52> C  -25.830   24.963   44.469
| 53> O  -25.439   25.716   45.680
| 54> H  -25.036   27.711   46.056
| 55> H  -26.544   27.698   44.116
| 56> O  -24.762   28.347   43.074
| 57> H  -26.398   25.836   42.518
| 58> H  -24.652   25.687   42.770
| 59> H  -25.225   24.051   44.403
| 60> H  -26.881   24.683   44.588
| 61> H  -23.750   27.980   42.874
| 62> *
| 63>
| 64>                          ****END OF INPUT****
 Total Charge           Charge          ....    0
 Multiplicity           Mult            ....    1
 Number of Electrons    NEL             ....  102
FINAL SINGLE POINT ENERGY      -652.823017799488
FINAL SINGLE POINT ENERGY      -652.847037953082
FINAL SINGLE POINT ENERGY      -652.851794135166
FINAL SINGLE POINT ENERGY      -652.852601164671
FINAL SINGLE POINT ENERGY      -652.852773102081
FINAL SINGLE POINT ENERGY      -652.852812688232
FINAL SINGLE POINT ENERGY      -652.852820522688
FINAL SINGLE POINT ENERGY      -652.852822407596
                    ***********************HURRAY********************

CARTESIAN COORDINATES (ANGSTROEM)
---------------------------------
  C    -21.048100   26.235648   46.182554
  C    -20.309174   27.551910   45.946414
  C    -20.411027   28.233695   47.334923
  C    -20.318390   27.038834   48.306017
  O    -20.628893   25.834980   47.492222
  H    -20.795853   25.426618   45.487544
  H    -19.264581   27.331024   45.697146
  H    -20.725765   28.161933   45.140797
  H    -19.618644   28.969993   47.498926
  H    -21.377614   28.736945   47.431734
  H    -21.034009   27.094446   49.129736
  H    -19.310974   26.892807   48.706871
  C    -23.130921   26.809439   44.996040
  H    -22.764802   27.788162   44.655729
  H    -22.920531   26.068461   44.205803
  O    -22.496421   26.401963   46.231204
  C    -24.630828   26.925445   45.257575
  C    -25.446314   27.317468   44.013803
  C    -25.648527   25.939207   43.316340
  C    -25.792009   24.971726   44.512045
  O    -25.238562   25.675527   45.696974
  H    -24.771585   27.628675   46.083659
  H    -26.406801   27.731877   44.327191
  O    -24.854751   28.345435   43.180144
  H    -26.518948   25.933546   42.654608
  H    -24.761615   25.701701   42.712776
  H    -25.249092   24.032623   44.369494
  H    -26.837970   24.743193   44.735727
  H    -24.152300   27.963716   42.615002

 Multiplicity           Mult            ....    1
 Number of Electrons    NEL             ....  102
 Basis Dimension        Dim             ....  149

ORBITAL ENERGIES
----------------

  NO   OCC          E(Eh)            E(eV)
   0   2.0000     -19.152579      -521.1682
   1   2.0000     -19.138077      -520.7735
   2   2.0000     -19.137487      -520.7575
   3   2.0000     -19.135354      -520.6994
   4   2.0000     -10.277751      -279.6718
   5   2.0000     -10.246654      -278.8256
   6   2.0000     -10.231742      -278.4198
   7   2.0000     -10.230910      -278.3972
   8   2.0000     -10.229411      -278.3564
   9   2.0000     -10.222565      -278.1701
  10   2.0000     -10.197599      -277.4908
  11   2.0000     -10.187628      -277.2194
  12   2.0000     -10.186056      -277.1767
  13   2.0000      -1.052176       -28.6312
  14   2.0000      -1.035098       -28.1664
  15   2.0000      -1.015961       -27.6457
  16   2.0000      -0.992066       -26.9955
  17   2.0000      -0.785892       -21.3852
  18   2.0000      -0.783539       -21.3212
  19   2.0000      -0.768566       -20.9137
  20   2.0000      -0.730129       -19.8678
  21   2.0000      -0.682046       -18.5594
  22   2.0000      -0.612925       -16.6785
  23   2.0000      -0.600581       -16.3427
  24   2.0000      -0.588472       -16.0131
  25   2.0000      -0.576187       -15.6788
  26   2.0000      -0.528008       -14.3678
  27   2.0000      -0.511024       -13.9057
  28   2.0000      -0.502026       -13.6608
  29   2.0000      -0.492268       -13.3953
  30   2.0000      -0.466708       -12.6998
  31   2.0000      -0.459999       -12.5172
  32   2.0000      -0.450348       -12.2546
  33   2.0000      -0.433906       -11.8072
  34   2.0000      -0.430844       -11.7239
  35   2.0000      -0.417939       -11.3727
  36   2.0000      -0.406789       -11.0693
  37   2.0000      -0.397272       -10.8103
  38   2.0000      -0.378899       -10.3104
  39   2.0000      -0.372836       -10.1454
  40   2.0000      -0.358358        -9.7514
  41   2.0000      -0.355779        -9.6812
  42   2.0000      -0.351129        -9.5547
  43   2.0000      -0.331769        -9.0279
  44   2.0000      -0.317127        -8.6295
  45   2.0000      -0.309800        -8.4301
  46   2.0000      -0.300150        -8.1675
  47   2.0000      -0.272877        -7.4254
  48   2.0000      -0.256336        -6.9753
  49   2.0000      -0.250690        -6.8216
  50   2.0000      -0.240876        -6.5546
  51   0.0000       0.047729         1.2988
  52   0.0000       0.073967         2.0128
  53   0.0000       0.086481         2.3533
  54   0.0000       0.089796         2.4435
  55   0.0000       0.106257         2.8914

MULLIKEN ATOMIC CHARGES
-----------------------
   0 C :    0.312034
   1 C :   -0.287620
   2 C :   -0.296393
   3 C :   -0.000509
   4 O :   -0.500337
   5 H :    0.137175
   6 H :    0.147977
   7 H :    0.141211
   8 H :    0.142244
   9 H :    0.159205
  10 H :    0.157571
  11 H :    0.140956
  12 C :   -0.012294
  13 H :    0.127830
  14 H :    0.111209
  15 O :   -0.499151
  16 C :    0.097265
  17 C :    0.080592
  18 C :   -0.327876
  19 C :   -0.009219
  20 O :   -0.498684
  21 H :    0.165075
  22 H :    0.168827
  23 O :   -0.599685
  24 H :    0.159453
  25 H :    0.131936
  26 H :    0.147408
  27 H :    0.149227
  28 H :    0.354573
Sum of atomic charges:   -0.0000000

LOEWDIN ATOMIC CHARGES
----------------------
   0 C :    0.180964
   1 C :   -0.234475
   2 C :   -0.216411
   3 C :   -0.024671
   4 O :   -0.300535
   5 H :    0.094829
   6 H :    0.115957
   7 H :    0.111851
   8 H :    0.114382
   9 H :    0.117162
  10 H :    0.111196
  11 H :    0.102095
  12 C :   -0.053582
  13 H :    0.092830
  14 H :    0.082886
  15 O :   -0.318181
  16 C :    0.023876
  17 C :    0.034518
  18 C :   -0.242680
  19 C :   -0.029366
  20 O :   -0.308226
  21 H :    0.120507
  22 H :    0.119923
  23 O :   -0.408491
  24 H :    0.122924
  25 H :    0.102737
  26 H :    0.104777
  27 H :    0.106215
  28 H :    0.276986

  Mayer bond orders larger than 0.100000
B(  0-C ,  1-C ) :   0.9260 B(  0-C ,  4-O ) :   0.9406 B(  0-C ,  5-H ) :   0.9202
B(  0-C , 15-O ) :   0.8355 B(  1-C ,  2-C ) :   0.9517 B(  1-C ,  6-H ) :   0.9341
B(  1-C ,  7-H ) :   0.9308 B(  2-C ,  3-C ) :   0.9556 B(  2-C ,  8-H ) :   0.9452
B(  2-C ,  9-H ) :   0.9448 B(  3-C ,  4-O ) :   0.8353 B(  3-C , 10-H ) :   0.9339
B(  3-C , 11-H ) :   0.9398 B( 12-C , 13-H ) :   0.8913 B( 12-C , 14-H ) :   0.9136
B( 12-C , 15-O ) :   0.8535 B( 12-C , 16-C ) :   0.9058 B( 16-C , 17-C ) :   0.8736
B( 16-C , 20-O ) :   0.8771 B( 16-C , 21-H ) :   0.9291 B( 17-C , 18-C ) :   0.9259
B( 17-C , 22-H ) :   0.9331 B( 17-C , 23-O ) :   0.8927 B( 18-C , 19-C ) :   0.9397
B( 18-C , 24-H ) :   0.9415 B( 18-C , 25-H ) :   0.9398 B( 19-C , 20-O ) :   0.8530
B( 19-C , 26-H ) :   0.9308 B( 19-C , 27-H ) :   0.9376 B( 23-O , 28-H ) :   0.7994

FINAL SINGLE POINT ENERGY      -652.852822646283

DIPOLE MOMENT
-------------
                                X             Y             Z
Electronic contribution:     -2.10344      -2.11882       1.96178
Nuclear contribution   :      2.56512       2.56806      -3.29627
                        -----------------------------------------
Total Dipole Moment    :      0.46168       0.44924      -1.33449
                        -----------------------------------------
Magnitude (a.u.)       :      1.48184
Magnitude (Debye)      :      3.76653

Rotational constants in cm-1:     0.056229     0.012516     0.011231
Rotational constants in MHz :  1685.704842   375.220984   336.709492

                             ****ORCA TERMINATED NORMALLY****
TOTAL RUN TIME: 0 days 0 hours 33 minutes 18 seconds 891 msec
