                         Program Version 4.2.0 -  RELEASE  -
|  1> # Test redundant internal optimization
|  2> #
|  3> ! RKS B3LYP  Opt TightSCF SmallPrint
|  4>
|  5> %basis
|  6>         Basis "6-31G"
|  7> end
|  8>
|  9> %geom
| 10> Constraints
| 11> { D 4  0  15  12  75.0   C } # D for Dihedral angle
| 12> { D 0  15  12  16  255.0   C } # D for Dihedral angle
| 13> { D 0  4  3  2   C } # D for Dihedral angle
| 14> { D 4  3  2  1   C } # D for Dihedral angle
| 15> { D 3  2  1  0   C } # D for Dihedral angle
| 16> { D 2  1  0  4   C } # D for Dihedral angle
| 17> { D 1  0  4  3   C } # D for Dihedral angle
| 18> { D 16  20  19  18   C } # D for Dihedral angle
| 19> { D 20  19  18  17   C } # D for Dihedral angle
| 20> { D 19  18  17  16   C } # D for Dihedral angle
| 21> { D 18  17  16  20   C } # D for Dihedral angle
| 22> { D 17  16  20  19   C } # D for Dihedral angle
| 23> { D 15  12  16  20   C } # D for Dihedral angle
| 24> end
| 25> end
| 26>
| 27>
| 28> #%pal
| 29> #nprocs 8
| 30> #end
| 31>
| 32> * xyz 0 1
| 33> C  -21.048   26.222   46.251
| 34> C  -20.361   27.558   45.944
| 35> C  -20.329   28.222   47.341
| 36> C  -20.110   27.022   48.296
| 37> O  -20.473   25.807   47.535
| 38> H  -20.833   25.428   45.533
| 39> H  -19.344   27.382   45.576
| 40> H  -20.898   28.157   45.201
| 41> H  -19.543   28.978   47.434
| 42> H  -21.289   28.710   47.548
| 43> H  -20.733   27.082   49.195
| 44> H  -19.064   26.913   48.597
| 45> C  -23.049   27.675   47.122
| 46> H  -22.208   28.376   47.194
| 47> H  -23.861   28.168   46.572
| 48> O  -22.586   26.394   46.375
| 49> C  -23.563   27.380   48.558
| 50> C  -24.118   28.645   49.222
| 51> C  -25.520   28.748   48.575
| 52> C  -25.944   27.267   48.416
| 53> O  -24.707   26.463   48.515
| 54> H  -22.774   26.881   49.125
| 55> H  -24.202   28.497   50.304
| 56> O  -23.243   29.902   48.966
| 57> H  -26.227   29.322   49.184
| 58> H  -25.448   29.237   47.596
| 59> H  -26.424   27.070   47.450
| 60> H  -26.610   26.935   49.217
| 61> H  -23.146   30.071   47.888
| 62> *
| 63>
| 64>                          ****END OF INPUT****
 Total Charge           Charge          ....    0
 Multiplicity           Mult            ....    1
 Number of Electrons    NEL             ....  102
FINAL SINGLE POINT ENERGY      -652.775479732066
FINAL SINGLE POINT ENERGY      -652.819842940357
FINAL SINGLE POINT ENERGY      -652.840885100142
FINAL SINGLE POINT ENERGY      -652.846064147494
FINAL SINGLE POINT ENERGY      -652.846960565355
FINAL SINGLE POINT ENERGY      -652.847288453144
FINAL SINGLE POINT ENERGY      -652.847351794535
FINAL SINGLE POINT ENERGY      -652.847368006076
FINAL SINGLE POINT ENERGY      -652.847369893036
                    ***********************HURRAY********************

CARTESIAN COORDINATES (ANGSTROEM)
---------------------------------
  C    -21.152623   26.339647   46.406798
  C    -20.204565   27.435836   45.889597
  C    -19.807794   28.175171   47.206520
  C    -19.762404   27.013461   48.234352
  O    -20.521677   25.893525   47.632107
  H    -21.164428   25.461394   45.759200
  H    -19.329520   26.954547   45.442314
  H    -20.670626   28.085357   45.143546
  H    -18.834821   28.670302   47.120990
  H    -20.535409   28.939477   47.486125
  H    -20.212760   27.276507   49.196469
  H    -18.744293   26.652138   48.405417
  C    -23.105371   27.804712   47.147057
  H    -22.366925   28.600984   47.261913
  H    -23.890797   28.159287   46.468561
  O    -22.561517   26.617355   46.506525
  C    -23.698102   27.457127   48.514860
  C    -24.337935   28.655630   49.234912
  C    -25.753479   28.700068   48.585444
  C    -26.071305   27.204607   48.362543
  O    -24.778835   26.480145   48.429787
  H    -22.918679   26.979534   49.115409
  H    -24.413636   28.440488   50.303297
  O    -23.582271   29.893555   49.153926
  H    -26.488270   29.203220   49.219943
  H    -25.701111   29.242257   47.631242
  H    -26.542335   27.009758   47.393597
  H    -26.709420   26.795602   49.151868
  H    -23.794089   30.370308   48.325681

 Multiplicity           Mult            ....    1
 Number of Electrons    NEL             ....  102
 Basis Dimension        Dim             ....  149

ORBITAL ENERGIES
----------------

  NO   OCC          E(Eh)            E(eV)
   0   2.0000     -19.153294      -521.1876
   1   2.0000     -19.138295      -520.7795
   2   2.0000     -19.136529      -520.7314
   3   2.0000     -19.134015      -520.6630
   4   2.0000     -10.274104      -279.5726
   5   2.0000     -10.246346      -278.8172
   6   2.0000     -10.229466      -278.3579
   7   2.0000     -10.229012      -278.3456
   8   2.0000     -10.226751      -278.2840
   9   2.0000     -10.225570      -278.2519
  10   2.0000     -10.198460      -277.5142
  11   2.0000     -10.191659      -277.3291
  12   2.0000     -10.190275      -277.2915
  13   2.0000      -1.046419       -28.4745
  14   2.0000      -1.034125       -28.1400
  15   2.0000      -1.014591       -27.6084
  16   2.0000      -0.991379       -26.9768
  17   2.0000      -0.785659       -21.3789
  18   2.0000      -0.783813       -21.3286
  19   2.0000      -0.769960       -20.9517
  20   2.0000      -0.730904       -19.8889
  21   2.0000      -0.683268       -18.5927
  22   2.0000      -0.613067       -16.6824
  23   2.0000      -0.603303       -16.4167
  24   2.0000      -0.598056       -16.2739
  25   2.0000      -0.565674       -15.3928
  26   2.0000      -0.521732       -14.1971
  27   2.0000      -0.515269       -14.0212
  28   2.0000      -0.503199       -13.6927
  29   2.0000      -0.493490       -13.4285
  30   2.0000      -0.464754       -12.6466
  31   2.0000      -0.455638       -12.3985
  32   2.0000      -0.440226       -11.9791
  33   2.0000      -0.432830       -11.7779
  34   2.0000      -0.428955       -11.6724
  35   2.0000      -0.420129       -11.4323
  36   2.0000      -0.414693       -11.2844
  37   2.0000      -0.400685       -10.9032
  38   2.0000      -0.379834       -10.3358
  39   2.0000      -0.378306       -10.2942
  40   2.0000      -0.359676        -9.7873
  41   2.0000      -0.356794        -9.7089
  42   2.0000      -0.342213        -9.3121
  43   2.0000      -0.328083        -8.9276
  44   2.0000      -0.318846        -8.6762
  45   2.0000      -0.310624        -8.4525
  46   2.0000      -0.294567        -8.0156
  47   2.0000      -0.272958        -7.4276
  48   2.0000      -0.265582        -7.2268
  49   2.0000      -0.251604        -6.8465
  50   2.0000      -0.233074        -6.3423
  51   0.0000       0.047177         1.2837
  52   0.0000       0.074021         2.0142
  53   0.0000       0.081781         2.2254
  54   0.0000       0.088813         2.4167
  55   0.0000       0.099250         2.7007

MULLIKEN ATOMIC CHARGES
-----------------------
   0 C :    0.299465
   1 C :   -0.281586
   2 C :   -0.319923
   3 C :   -0.009812
   4 O :   -0.501879
   5 H :    0.167288
   6 H :    0.157457
   7 H :    0.145391
   8 H :    0.143837
   9 H :    0.158965
  10 H :    0.145751
  11 H :    0.147149
  12 C :   -0.032617
  13 H :    0.128664
  14 H :    0.137778
  15 O :   -0.503405
  16 C :    0.097823
  17 C :    0.077830
  18 C :   -0.333679
  19 C :   -0.008764
  20 O :   -0.498984
  21 H :    0.171780
  22 H :    0.170611
  23 O :   -0.604612
  24 H :    0.159041
  25 H :    0.132669
  26 H :    0.146269
  27 H :    0.150978
  28 H :    0.356516
Sum of atomic charges:   -0.0000000

LOEWDIN ATOMIC CHARGES
----------------------
   0 C :    0.173611
   1 C :   -0.230231
   2 C :   -0.225184
   3 C :   -0.034086
   4 O :   -0.321866
   5 H :    0.113754
   6 H :    0.123343
   7 H :    0.116614
   8 H :    0.114789
   9 H :    0.110014
  10 H :    0.102507
  11 H :    0.104496
  12 C :   -0.054495
  13 H :    0.099454
  14 H :    0.102379
  15 O :   -0.303800
  16 C :    0.015886
  17 C :    0.031493
  18 C :   -0.243264
  19 C :   -0.029623
  20 O :   -0.308895
  21 H :    0.122089
  22 H :    0.119981
  23 O :   -0.413381
  24 H :    0.122598
  25 H :    0.103166
  26 H :    0.104032
  27 H :    0.106540
  28 H :    0.278080

  Mayer bond orders larger than 0.100000
B(  0-C ,  1-C ) :   0.9164 B(  0-C ,  4-O ) :   0.8944 B(  0-C ,  5-H ) :   0.9366
B(  0-C , 15-O ) :   0.9167 B(  1-C ,  2-C ) :   0.9543 B(  1-C ,  6-H ) :   0.9352
B(  1-C ,  7-H ) :   0.9374 B(  2-C ,  3-C ) :   0.9456 B(  2-C ,  8-H ) :   0.9448
B(  2-C ,  9-H ) :   0.9339 B(  3-C ,  4-O ) :   0.8500 B(  3-C , 10-H ) :   0.9315
B(  3-C , 11-H ) :   0.9394 B( 12-C , 13-H ) :   0.8907 B( 12-C , 14-H ) :   0.9378
B( 12-C , 15-O ) :   0.8564 B( 12-C , 16-C ) :   0.8916 B( 16-C , 17-C ) :   0.8682
B( 16-C , 20-O ) :   0.8725 B( 16-C , 21-H ) :   0.9268 B( 17-C , 18-C ) :   0.9307
B( 17-C , 22-H ) :   0.9305 B( 17-C , 23-O ) :   0.8884 B( 18-C , 19-C ) :   0.9375
B( 18-C , 24-H ) :   0.9408 B( 18-C , 25-H ) :   0.9393 B( 19-C , 20-O ) :   0.8537
B( 19-C , 26-H ) :   0.9311 B( 19-C , 27-H ) :   0.9373 B( 23-O , 28-H ) :   0.7996

FINAL SINGLE POINT ENERGY      -652.847369016327

DIPOLE MOMENT
-------------
                                X             Y             Z
Electronic contribution:     -1.27935      -4.37259       0.75148
Nuclear contribution   :      1.18200       6.04146      -1.24569
                        -----------------------------------------
Total Dipole Moment    :     -0.09735       1.66888      -0.49421
                        -----------------------------------------
Magnitude (a.u.)       :      1.74323
Magnitude (Debye)      :      4.43095

Rotational constants in cm-1:     0.048838     0.015238     0.013563
Rotational constants in MHz :  1464.112895   456.825288   406.612349

                             ****ORCA TERMINATED NORMALLY****
TOTAL RUN TIME: 0 days 0 hours 31 minutes 10 seconds 313 msec
