                         Program Version 4.2.0 -  RELEASE  -
|  1> # Test redundant internal optimization
|  2> #
|  3> ! RKS B3LYP  Opt TightSCF SmallPrint
|  4>
|  5> %basis
|  6>         Basis "6-31G"
|  7> end
|  8>
|  9> %geom
| 10> Constraints
| 11> { D 4  0  15  12  195.0   C } # D for Dihedral angle
| 12> { D 0  15  12  16  135.0   C } # D for Dihedral angle
| 13> { D 0  4  3  2   C } # D for Dihedral angle
| 14> { D 4  3  2  1   C } # D for Dihedral angle
| 15> { D 3  2  1  0   C } # D for Dihedral angle
| 16> { D 2  1  0  4   C } # D for Dihedral angle
| 17> { D 1  0  4  3   C } # D for Dihedral angle
| 18> { D 16  20  19  18   C } # D for Dihedral angle
| 19> { D 20  19  18  17   C } # D for Dihedral angle
| 20> { D 19  18  17  16   C } # D for Dihedral angle
| 21> { D 18  17  16  20   C } # D for Dihedral angle
| 22> { D 17  16  20  19   C } # D for Dihedral angle
| 23> { D 15  12  16  20   C } # D for Dihedral angle
| 24> end
| 25> end
| 26>
| 27>
| 28> #%pal
| 29> #nprocs 8
| 30> #end
| 31>
| 32> * xyz 0 1
| 33> C  -21.048   26.222   46.251
| 34> C  -20.361   27.558   45.944
| 35> C  -20.329   28.222   47.341
| 36> C  -20.110   27.022   48.296
| 37> O  -20.473   25.807   47.535
| 38> H  -20.833   25.428   45.533
| 39> H  -19.344   27.382   45.576
| 40> H  -20.898   28.157   45.201
| 41> H  -19.543   28.978   47.434
| 42> H  -21.289   28.710   47.548
| 43> H  -20.733   27.082   49.195
| 44> H  -19.064   26.913   48.597
| 45> C  -23.353   26.472   45.026
| 46> H  -23.644   27.513   44.835
| 47> H  -22.712   26.138   44.200
| 48> O  -22.586   26.394   46.375
| 49> C  -24.635   25.595   45.013
| 50> C  -25.302   25.605   43.633
| 51> C  -24.421   24.601   42.852
| 52> C  -24.047   23.551   43.928
| 53> O  -24.296   24.187   45.240
| 54> H  -25.288   25.903   45.833
| 55> H  -26.332   25.239   43.709
| 56> O  -25.332   27.014   42.980
| 57> H  -24.941   24.156   41.997
| 58> H  -23.523   25.103   42.473
| 59> H  -22.996   23.248   43.870
| 60> H  -24.677   22.658   43.877
| 61> H  -24.311   27.402   42.892
| 62> *
| 63>
| 64>                          ****END OF INPUT****
 Total Charge           Charge          ....    0
 Multiplicity           Mult            ....    1
 Number of Electrons    NEL             ....  102
FINAL SINGLE POINT ENERGY      -652.823994740141
FINAL SINGLE POINT ENERGY      -652.847792676635
FINAL SINGLE POINT ENERGY      -652.851973760347
FINAL SINGLE POINT ENERGY      -652.852751962526
FINAL SINGLE POINT ENERGY      -652.852899963322
FINAL SINGLE POINT ENERGY      -652.852926300776
FINAL SINGLE POINT ENERGY      -652.852931944907
FINAL SINGLE POINT ENERGY      -652.852932918568
                    ***********************HURRAY********************

CARTESIAN COORDINATES (ANGSTROEM)
---------------------------------
  C    -21.046129   26.243401   46.171950
  C    -20.328624   27.574814   45.961180
  C    -20.396933   28.204832   47.374158
  C    -20.263477   26.979086   48.301407
  O    -20.585436   25.800240   47.453637
  H    -20.810243   25.459265   45.444344
  H    -19.288935   27.384996   45.667957
  H    -20.794291   28.198689   45.192301
  H    -19.609927   28.945840   47.542566
  H    -21.367457   28.689905   47.515002
  H    -20.955966   26.998099   49.146132
  H    -19.243701   26.830177   48.668443
  C    -23.181758   26.533388   44.977528
  H    -23.473141   27.578128   44.805204
  H    -22.518642   26.218445   44.155672
  O    -22.488454   26.417360   46.247118
  C    -24.430078   25.651905   45.021717
  C    -25.250118   25.642878   43.720601
  C    -24.486488   24.584628   42.869290
  C    -24.026891   23.561528   43.930685
  O    -24.109876   24.246662   45.247071
  H    -25.028087   25.960631   45.883876
  H    -26.264130   25.299160   43.935146
  O    -25.429998   26.931662   43.083939
  H    -25.119475   24.142495   42.094963
  H    -23.630126   25.060301   42.372119
  H    -23.001615   23.212428   43.772798
  H    -24.688601   22.692104   43.981574
  H    -24.602403   27.216953   42.645624

 Multiplicity           Mult            ....    1
 Number of Electrons    NEL             ....  102
 Basis Dimension        Dim             ....  149

ORBITAL ENERGIES
----------------

  NO   OCC          E(Eh)            E(eV)
   0   2.0000     -19.151594      -521.1414
   1   2.0000     -19.137154      -520.7484
   2   2.0000     -19.136357      -520.7268
   3   2.0000     -19.136282      -520.7247
   4   2.0000     -10.277245      -279.6581
   5   2.0000     -10.246064      -278.8096
   6   2.0000     -10.233322      -278.4628
   7   2.0000     -10.230286      -278.3802
   8   2.0000     -10.229386      -278.3557
   9   2.0000     -10.222098      -278.1574
  10   2.0000     -10.197287      -277.4823
  11   2.0000     -10.185940      -277.1735
  12   2.0000     -10.184938      -277.1462
  13   2.0000      -1.051171       -28.6038
  14   2.0000      -1.034369       -28.1466
  15   2.0000      -1.015928       -27.6448
  16   2.0000      -0.991324       -26.9753
  17   2.0000      -0.785560       -21.3762
  18   2.0000      -0.783009       -21.3068
  19   2.0000      -0.767494       -20.8846
  20   2.0000      -0.729525       -19.8514
  21   2.0000      -0.681972       -18.5574
  22   2.0000      -0.612359       -16.6631
  23   2.0000      -0.599435       -16.3115
  24   2.0000      -0.589454       -16.0399
  25   2.0000      -0.577383       -15.7114
  26   2.0000      -0.529711       -14.4142
  27   2.0000      -0.508566       -13.8388
  28   2.0000      -0.501692       -13.6517
  29   2.0000      -0.489487       -13.3196
  30   2.0000      -0.468237       -12.7414
  31   2.0000      -0.459510       -12.5039
  32   2.0000      -0.448460       -12.2032
  33   2.0000      -0.436244       -11.8708
  34   2.0000      -0.429524       -11.6879
  35   2.0000      -0.414553       -11.2805
  36   2.0000      -0.408873       -11.1260
  37   2.0000      -0.394845       -10.7443
  38   2.0000      -0.380478       -10.3533
  39   2.0000      -0.370459       -10.0807
  40   2.0000      -0.360307        -9.8045
  41   2.0000      -0.354201        -9.6383
  42   2.0000      -0.349682        -9.5153
  43   2.0000      -0.331939        -9.0325
  44   2.0000      -0.314801        -8.5662
  45   2.0000      -0.310381        -8.4459
  46   2.0000      -0.303103        -8.2479
  47   2.0000      -0.271825        -7.3967
  48   2.0000      -0.258664        -7.0386
  49   2.0000      -0.251403        -6.8410
  50   2.0000      -0.236416        -6.4332
  51   0.0000       0.047802         1.3007
  52   0.0000       0.069316         1.8862
  53   0.0000       0.087704         2.3866
  54   0.0000       0.092156         2.5077
  55   0.0000       0.108063         2.9405

MULLIKEN ATOMIC CHARGES
-----------------------
   0 C :    0.302463
   1 C :   -0.271333
   2 C :   -0.298557
   3 C :   -0.000883
   4 O :   -0.499354
   5 H :    0.138943
   6 H :    0.143126
   7 H :    0.138124
   8 H :    0.141148
   9 H :    0.160711
  10 H :    0.156786
  11 H :    0.140377
  12 C :   -0.022143
  13 H :    0.137626
  14 H :    0.108969
  15 O :   -0.498432
  16 C :    0.103123
  17 C :    0.077417
  18 C :   -0.321404
  19 C :   -0.013309
  20 O :   -0.500384
  21 H :    0.169045
  22 H :    0.171821
  23 O :   -0.599639
  24 H :    0.158687
  25 H :    0.128037
  26 H :    0.142283
  27 H :    0.152684
  28 H :    0.354067
Sum of atomic charges:   -0.0000000

LOEWDIN ATOMIC CHARGES
----------------------
   0 C :    0.182148
   1 C :   -0.232421
   2 C :   -0.216944
   3 C :   -0.024612
   4 O :   -0.299831
   5 H :    0.095981
   6 H :    0.112947
   7 H :    0.111444
   8 H :    0.113859
   9 H :    0.118469
  10 H :    0.110741
  11 H :    0.101773
  12 C :   -0.051894
  13 H :    0.100450
  14 H :    0.085044
  15 O :   -0.323267
  16 C :    0.019561
  17 C :    0.033294
  18 C :   -0.241845
  19 C :   -0.031270
  20 O :   -0.310166
  21 H :    0.122499
  22 H :    0.121314
  23 O :   -0.407538
  24 H :    0.122991
  25 H :    0.101338
  26 H :    0.101878
  27 H :    0.107577
  28 H :    0.276481

  Mayer bond orders larger than 0.100000
B(  0-C ,  1-C ) :   0.9254 B(  0-C ,  4-O ) :   0.9422 B(  0-C ,  5-H ) :   0.9185
B(  0-C , 15-O ) :   0.8350 B(  1-C ,  2-C ) :   0.9535 B(  1-C ,  6-H ) :   0.9342
B(  1-C ,  7-H ) :   0.9372 B(  2-C ,  3-C ) :   0.9557 B(  2-C ,  8-H ) :   0.9452
B(  2-C ,  9-H ) :   0.9441 B(  3-C ,  4-O ) :   0.8362 B(  3-C , 10-H ) :   0.9340
B(  3-C , 11-H ) :   0.9398 B( 12-C , 13-H ) :   0.9089 B( 12-C , 14-H ) :   0.9157
B( 12-C , 15-O ) :   0.8547 B( 12-C , 16-C ) :   0.8997 B( 16-C , 17-C ) :   0.8723
B( 16-C , 20-O ) :   0.8714 B( 16-C , 21-H ) :   0.9288 B( 17-C , 18-C ) :   0.9236
B( 17-C , 22-H ) :   0.9314 B( 17-C , 23-O ) :   0.8938 B( 18-C , 19-C ) :   0.9380
B( 18-C , 24-H ) :   0.9416 B( 18-C , 25-H ) :   0.9416 B( 19-C , 20-O ) :   0.8536
B( 19-C , 26-H ) :   0.9318 B( 19-C , 27-H ) :   0.9372 B( 23-O , 28-H ) :   0.7994

FINAL SINGLE POINT ENERGY      -652.852933111690

DIPOLE MOMENT
-------------
                                X             Y             Z
Electronic contribution:     -3.08852      -2.50578       2.03787
Nuclear contribution   :      3.84484       3.15936      -3.35217
                        -----------------------------------------
Total Dipole Moment    :      0.75631       0.65358      -1.31430
                        -----------------------------------------
Magnitude (a.u.)       :      1.65123
Magnitude (Debye)      :      4.19709

Rotational constants in cm-1:     0.057720     0.012458     0.011285
Rotational constants in MHz :  1730.390609   373.468344   338.303465

                             ****ORCA TERMINATED NORMALLY****
TOTAL RUN TIME: 0 days 0 hours 58 minutes 37 seconds 125 msec
