                         Program Version 4.2.0 -  RELEASE  -
|  1> # Test redundant internal optimization
|  2> #
|  3> ! RKS B3LYP  Opt TightSCF SmallPrint
|  4>
|  5> %basis
|  6>         Basis "6-31G"
|  7> end
|  8>
|  9> %geom
| 10> Constraints
| 11> { D 4  0  15  12  210.0   C } # D for Dihedral angle
| 12> { D 0  15  12  16  135.0   C } # D for Dihedral angle
| 13> { D 0  4  3  2   C } # D for Dihedral angle
| 14> { D 4  3  2  1   C } # D for Dihedral angle
| 15> { D 3  2  1  0   C } # D for Dihedral angle
| 16> { D 2  1  0  4   C } # D for Dihedral angle
| 17> { D 1  0  4  3   C } # D for Dihedral angle
| 18> { D 16  20  19  18   C } # D for Dihedral angle
| 19> { D 20  19  18  17   C } # D for Dihedral angle
| 20> { D 19  18  17  16   C } # D for Dihedral angle
| 21> { D 18  17  16  20   C } # D for Dihedral angle
| 22> { D 17  16  20  19   C } # D for Dihedral angle
| 23> { D 15  12  16  20   C } # D for Dihedral angle
| 24> end
| 25> end
| 26>
| 27>
| 28> #%pal
| 29> #nprocs 8
| 30> #end
| 31>
| 32> * xyz 0 1
| 33> C  -21.048   26.222   46.251
| 34> C  -20.361   27.558   45.944
| 35> C  -20.329   28.222   47.341
| 36> C  -20.110   27.022   48.296
| 37> O  -20.473   25.807   47.535
| 38> H  -20.833   25.428   45.533
| 39> H  -19.344   27.382   45.576
| 40> H  -20.898   28.157   45.201
| 41> H  -19.543   28.978   47.434
| 42> H  -21.289   28.710   47.548
| 43> H  -20.733   27.082   49.195
| 44> H  -19.064   26.913   48.597
| 45> C  -23.389   26.110   45.076
| 46> H  -23.711   27.062   44.634
| 47> H  -22.762   25.587   44.343
| 48> O  -22.586   26.394   46.375
| 49> C  -24.650   25.238   45.328
| 50> C  -25.352   24.882   44.013
| 51> C  -24.468   23.726   43.488
| 52> C  -24.040   22.994   44.785
| 53> O  -24.270   23.940   45.897
| 54> H  -25.288   25.735   46.061
| 55> O  -26.795   24.383   44.297
| 56> H  -25.409   25.724   43.314
| 57> H  -24.999   23.067   42.793
| 58> H  -23.592   24.129   42.966
| 59> H  -22.984   22.704   44.774
| 60> H  -24.649   22.107   44.984
| 61> H  -26.762   23.539   44.995
| 62> *
| 63>
| 64>                          ****END OF INPUT****
 Total Charge           Charge          ....    0
 Multiplicity           Mult            ....    1
 Number of Electrons    NEL             ....  102
FINAL SINGLE POINT ENERGY      -652.829982285753
FINAL SINGLE POINT ENERGY      -652.852950853316
FINAL SINGLE POINT ENERGY      -652.856673308542
FINAL SINGLE POINT ENERGY      -652.857388980342
FINAL SINGLE POINT ENERGY      -652.857472171946
FINAL SINGLE POINT ENERGY      -652.857481294625
FINAL SINGLE POINT ENERGY      -652.857484051113
                    ***********************HURRAY********************

CARTESIAN COORDINATES (ANGSTROEM)
---------------------------------
  C    -21.057960   26.215626   46.154616
  C    -20.388358   27.572131   45.945401
  C    -20.472948   28.194075   47.360530
  C    -20.292791   26.970615   48.283817
  O    -20.576347   25.783615   47.434452
  H    -20.795101   25.441868   45.424861
  H    -19.343522   27.422520   45.647001
  H    -20.884874   28.176601   45.181051
  H    -19.713012   28.962623   47.529352
  H    -21.460291   28.642563   47.505907
  H    -20.982042   26.963299   49.131424
  H    -19.266923   26.857353   48.646864
  C    -23.242419   26.121262   44.995453
  H    -23.577427   27.079363   44.572745
  H    -22.597841   25.628298   44.251058
  O    -22.502988   26.354189   46.218971
  C    -24.453530   25.244916   45.311128
  C    -25.311274   24.882779   44.090334
  C    -24.532931   23.675235   43.503622
  C    -23.992002   22.961511   44.767527
  O    -24.062759   23.949975   45.871377
  H    -25.049489   25.742915   46.082058
  O    -26.655351   24.507032   44.497368
  H    -25.442503   25.699474   43.378048
  H    -25.196225   23.044862   42.906024
  H    -23.717129   24.023097   42.859260
  H    -22.957127   22.624439   44.656188
  H    -24.606400   22.104987   45.061441
  H    -26.599435   23.954778   45.306120

 Multiplicity           Mult            ....    1
 Number of Electrons    NEL             ....  102
 Basis Dimension        Dim             ....  149

ORBITAL ENERGIES
----------------

  NO   OCC          E(Eh)            E(eV)
   0   2.0000     -19.139906      -520.8233
   1   2.0000     -19.138706      -520.7907
   2   2.0000     -19.137941      -520.7699
   3   2.0000     -19.136622      -520.7340
   4   2.0000     -10.278251      -279.6854
   5   2.0000     -10.244001      -278.7534
   6   2.0000     -10.236110      -278.5387
   7   2.0000     -10.233125      -278.4575
   8   2.0000     -10.229825      -278.3677
   9   2.0000     -10.221703      -278.1467
  10   2.0000     -10.191017      -277.3117
  11   2.0000     -10.184619      -277.1376
  12   2.0000     -10.184091      -277.1232
  13   2.0000      -1.051503       -28.6128
  14   2.0000      -1.035769       -28.1847
  15   2.0000      -1.006232       -27.3810
  16   2.0000      -0.992141       -26.9975
  17   2.0000      -0.787483       -21.4285
  18   2.0000      -0.781925       -21.2773
  19   2.0000      -0.767670       -20.8894
  20   2.0000      -0.729671       -19.8554
  21   2.0000      -0.675423       -18.3792
  22   2.0000      -0.604303       -16.4439
  23   2.0000      -0.598629       -16.2895
  24   2.0000      -0.590673       -16.0730
  25   2.0000      -0.585456       -15.9311
  26   2.0000      -0.526378       -14.3235
  27   2.0000      -0.509797       -13.8723
  28   2.0000      -0.495442       -13.4817
  29   2.0000      -0.487908       -13.2767
  30   2.0000      -0.475626       -12.9424
  31   2.0000      -0.459308       -12.4984
  32   2.0000      -0.452704       -12.3187
  33   2.0000      -0.444442       -12.0939
  34   2.0000      -0.422922       -11.5083
  35   2.0000      -0.410898       -11.1811
  36   2.0000      -0.396953       -10.8016
  37   2.0000      -0.394026       -10.7220
  38   2.0000      -0.373743       -10.1701
  39   2.0000      -0.370956       -10.0942
  40   2.0000      -0.360646        -9.8137
  41   2.0000      -0.355329        -9.6690
  42   2.0000      -0.349917        -9.5217
  43   2.0000      -0.333300        -9.0695
  44   2.0000      -0.310149        -8.4396
  45   2.0000      -0.306781        -8.3479
  46   2.0000      -0.304300        -8.2804
  47   2.0000      -0.271427        -7.3859
  48   2.0000      -0.261824        -7.1246
  49   2.0000      -0.249924        -6.8008
  50   2.0000      -0.239501        -6.5171
  51   0.0000       0.062968         1.7134
  52   0.0000       0.083426         2.2701
  53   0.0000       0.085017         2.3134
  54   0.0000       0.098215         2.6726
  55   0.0000       0.108677         2.9573

MULLIKEN ATOMIC CHARGES
-----------------------
   0 C :    0.299030
   1 C :   -0.263179
   2 C :   -0.299781
   3 C :   -0.001145
   4 O :   -0.497724
   5 H :    0.135793
   6 H :    0.141874
   7 H :    0.140577
   8 H :    0.140802
   9 H :    0.161491
  10 H :    0.156232
  11 H :    0.139947
  12 C :   -0.006214
  13 H :    0.131473
  14 H :    0.119888
  15 O :   -0.502845
  16 C :    0.076212
  17 C :    0.072592
  18 C :   -0.297546
  19 C :   -0.029457
  20 O :   -0.505926
  21 H :    0.171717
  22 O :   -0.602010
  23 H :    0.150201
  24 H :    0.164912
  25 H :    0.139781
  26 H :    0.147599
  27 H :    0.148623
  28 H :    0.367081
Sum of atomic charges:   -0.0000000

LOEWDIN ATOMIC CHARGES
----------------------
   0 C :    0.181761
   1 C :   -0.229211
   2 C :   -0.216993
   3 C :   -0.025180
   4 O :   -0.302390
   5 H :    0.094892
   6 H :    0.112163
   7 H :    0.113560
   8 H :    0.113722
   9 H :    0.118895
  10 H :    0.110338
  11 H :    0.101482
  12 C :   -0.040178
  13 H :    0.097540
  14 H :    0.091157
  15 O :   -0.324532
  16 C :    0.014846
  17 C :    0.033598
  18 C :   -0.242869
  19 C :   -0.038364
  20 O :   -0.317533
  21 H :    0.121846
  22 O :   -0.414076
  23 H :    0.114372
  24 H :    0.127618
  25 H :    0.110380
  26 H :    0.104919
  27 H :    0.103673
  28 H :    0.284565

  Mayer bond orders larger than 0.100000
B(  0-C ,  1-C ) :   0.9306 B(  0-C ,  4-O ) :   0.9418 B(  0-C ,  5-H ) :   0.9179
B(  0-C , 15-O ) :   0.8340 B(  1-C ,  2-C ) :   0.9555 B(  1-C ,  6-H ) :   0.9345
B(  1-C ,  7-H ) :   0.9389 B(  2-C ,  3-C ) :   0.9548 B(  2-C ,  8-H ) :   0.9452
B(  2-C ,  9-H ) :   0.9438 B(  3-C ,  4-O ) :   0.8371 B(  3-C , 10-H ) :   0.9340
B(  3-C , 11-H ) :   0.9397 B( 12-C , 13-H ) :   0.9158 B( 12-C , 14-H ) :   0.9158
B( 12-C , 15-O ) :   0.8540 B( 12-C , 16-C ) :   0.8919 B( 16-C , 17-C ) :   0.8987
B( 16-C , 20-O ) :   0.8692 B( 16-C , 21-H ) :   0.9237 B( 17-C , 18-C ) :   0.9115
B( 17-C , 22-O ) :   0.8932 B( 17-C , 23-H ) :   0.9321 B( 18-C , 19-C ) :   0.9408
B( 18-C , 24-H ) :   0.9371 B( 18-C , 25-H ) :   0.9338 B( 19-C , 20-O ) :   0.8521
B( 19-C , 26-H ) :   0.9339 B( 19-C , 27-H ) :   0.9378 B( 22-O , 28-H ) :   0.7927

FINAL SINGLE POINT ENERGY      -652.857484112059

DIPOLE MOMENT
-------------
                                X             Y             Z
Electronic contribution:     -3.38497      -2.72708       2.34829
Nuclear contribution   :      4.12739       3.27703      -3.31830
                        -----------------------------------------
Total Dipole Moment    :      0.74241       0.54996      -0.97002
                        -----------------------------------------
Magnitude (a.u.)       :      1.33961
Magnitude (Debye)      :      3.40503

Rotational constants in cm-1:     0.068134     0.011435     0.011017
Rotational constants in MHz :  2042.602495   342.817123   330.294552

                             ****ORCA TERMINATED NORMALLY****
TOTAL RUN TIME: 0 days 0 hours 23 minutes 36 seconds 301 msec
