                         Program Version 4.2.0 -  RELEASE  -
|  1> # Test redundant internal optimization
|  2> #
|  3> ! RKS B3LYP  Opt TightSCF SmallPrint
|  4>
|  5> %basis
|  6>         Basis "6-31G"
|  7> end
|  8>
|  9> %geom
| 10> Constraints
| 11> { D 4  0  15  12  60.0   C } # D for Dihedral angle
| 12> { D 0  15  12  16  105.0   C } # D for Dihedral angle
| 13> { D 0  4  3  2   C } # D for Dihedral angle
| 14> { D 4  3  2  1   C } # D for Dihedral angle
| 15> { D 3  2  1  0   C } # D for Dihedral angle
| 16> { D 2  1  0  4   C } # D for Dihedral angle
| 17> { D 1  0  4  3   C } # D for Dihedral angle
| 18> { D 16  20  19  18   C } # D for Dihedral angle
| 19> { D 20  19  18  17   C } # D for Dihedral angle
| 20> { D 19  18  17  16   C } # D for Dihedral angle
| 21> { D 18  17  16  20   C } # D for Dihedral angle
| 22> { D 17  16  20  19   C } # D for Dihedral angle
| 23> { D 15  12  16  20   C } # D for Dihedral angle
| 24> end
| 25> end
| 26>
| 27>
| 28> #%pal
| 29> #nprocs 8
| 30> #end
| 31>
| 32> * xyz 0 1
| 33> C  -21.048   26.222   46.251
| 34> C  -20.361   27.558   45.944
| 35> C  -20.329   28.222   47.341
| 36> C  -20.110   27.022   48.296
| 37> O  -20.473   25.807   47.535
| 38> H  -20.833   25.428   45.533
| 39> H  -19.344   27.382   45.576
| 40> H  -20.898   28.157   45.201
| 41> H  -19.543   28.978   47.434
| 42> H  -21.289   28.710   47.548
| 43> H  -20.733   27.082   49.195
| 44> H  -19.064   26.913   48.597
| 45> C  -23.051   27.452   47.413
| 46> H  -23.868   27.034   48.015
| 47> H  -22.227   27.714   48.089
| 48> O  -22.586   26.394   46.375
| 49> C  -23.554   28.764   46.750
| 50> C  -23.894   29.824   47.803
| 51> C  -22.492   30.365   48.168
| 52> C  -21.729   30.302   46.821
| 53> O  -22.487   29.377   45.952
| 54> H  -24.371   28.528   46.065
| 55> H  -24.509   30.614   47.357
| 56> O  -24.654   29.246   49.028
| 57> H  -22.522   31.378   48.583
| 58> H  -22.018   29.713   48.911
| 59> H  -20.705   29.928   46.936
| 60> H  -21.698   31.270   46.313
| 61> H  -24.057   28.453   49.492
| 62> *
| 63>
| 64>                          ****END OF INPUT****
 Total Charge           Charge          ....    0
 Multiplicity           Mult            ....    1
 Number of Electrons    NEL             ....  102
FINAL SINGLE POINT ENERGY      -652.745727048631
FINAL SINGLE POINT ENERGY      -652.815840114789
FINAL SINGLE POINT ENERGY      -652.839770029717
FINAL SINGLE POINT ENERGY      -652.847301921468
FINAL SINGLE POINT ENERGY      -652.848540986880
FINAL SINGLE POINT ENERGY      -652.849050583043
FINAL SINGLE POINT ENERGY      -652.849133635959
FINAL SINGLE POINT ENERGY      -652.849162937325
FINAL SINGLE POINT ENERGY      -652.849167779194
                    ***********************HURRAY********************

CARTESIAN COORDINATES (ANGSTROEM)
---------------------------------
  C    -21.132849   26.221578   46.344522
  C    -20.162542   27.313271   45.877548
  C    -19.698983   27.931426   47.224842
  C    -19.665306   26.700495   48.166857
  O    -20.485926   25.658223   47.511381
  H    -21.218203   25.403234   45.628072
  H    -19.324932   26.834626   45.358621
  H    -20.641406   28.041352   45.221700
  H    -18.722935   28.421806   47.155371
  H    -20.424831   28.666931   47.568235
  H    -20.073668   26.904950   49.162283
  H    -18.657267   26.289199   48.278050
  C    -23.067141   27.499680   47.491512
  H    -23.968970   27.026904   47.892131
  H    -22.370567   27.660779   48.326923
  O    -22.521744   26.558991   46.530683
  C    -23.498518   28.811314   46.820762
  C    -24.164735   29.845047   47.747034
  C    -22.937398   30.666618   48.244564
  C    -22.008882   30.678825   47.011050
  O    -22.468644   29.574457   46.121149
  H    -24.190536   28.511898   46.025378
  H    -24.833962   30.477676   47.160670
  O    -25.003107   29.299820   48.792506
  H    -23.213549   31.668864   48.580559
  H    -22.469724   30.141752   49.089472
  H    -20.955837   30.535296   47.262310
  H    -22.106637   31.602460   46.432730
  H    -24.458204   28.889528   49.495086

 Multiplicity           Mult            ....    1
 Number of Electrons    NEL             ....  102
 Basis Dimension        Dim             ....  149

ORBITAL ENERGIES
----------------

  NO   OCC          E(Eh)            E(eV)
   0   2.0000     -19.155084      -521.2363
   1   2.0000     -19.151096      -521.1278
   2   2.0000     -19.138188      -520.7766
   3   2.0000     -19.136628      -520.7341
   4   2.0000     -10.273315      -279.5511
   5   2.0000     -10.251208      -278.9495
   6   2.0000     -10.239382      -278.6278
   7   2.0000     -10.235259      -278.5156
   8   2.0000     -10.233988      -278.4810
   9   2.0000     -10.226989      -278.2905
  10   2.0000     -10.202979      -277.6372
  11   2.0000     -10.187486      -277.2156
  12   2.0000     -10.177255      -276.9372
  13   2.0000      -1.047439       -28.5023
  14   2.0000      -1.039194       -28.2779
  15   2.0000      -1.023337       -27.8464
  16   2.0000      -0.991185       -26.9715
  17   2.0000      -0.790106       -21.4999
  18   2.0000      -0.783024       -21.3072
  19   2.0000      -0.774646       -21.0792
  20   2.0000      -0.733910       -19.9707
  21   2.0000      -0.685658       -18.6577
  22   2.0000      -0.619536       -16.8584
  23   2.0000      -0.601902       -16.3786
  24   2.0000      -0.598765       -16.2932
  25   2.0000      -0.570123       -15.5138
  26   2.0000      -0.529078       -14.3969
  27   2.0000      -0.516804       -14.0629
  28   2.0000      -0.503535       -13.7019
  29   2.0000      -0.487933       -13.2773
  30   2.0000      -0.467157       -12.7120
  31   2.0000      -0.463306       -12.6072
  32   2.0000      -0.449005       -12.2180
  33   2.0000      -0.440706       -11.9922
  34   2.0000      -0.434370       -11.8198
  35   2.0000      -0.417019       -11.3477
  36   2.0000      -0.409798       -11.1512
  37   2.0000      -0.403578       -10.9819
  38   2.0000      -0.387645       -10.5483
  39   2.0000      -0.372950       -10.1485
  40   2.0000      -0.361036        -9.8243
  41   2.0000      -0.353020        -9.6062
  42   2.0000      -0.342348        -9.3158
  43   2.0000      -0.337137        -9.1740
  44   2.0000      -0.322375        -8.7723
  45   2.0000      -0.312354        -8.4996
  46   2.0000      -0.299180        -8.1411
  47   2.0000      -0.276754        -7.5309
  48   2.0000      -0.268845        -7.3156
  49   2.0000      -0.256101        -6.9689
  50   2.0000      -0.238349        -6.4858
  51   0.0000       0.043622         1.1870
  52   0.0000       0.059847         1.6285
  53   0.0000       0.081633         2.2213
  54   0.0000       0.090427         2.4606
  55   0.0000       0.098080         2.6689

MULLIKEN ATOMIC CHARGES
-----------------------
   0 C :    0.305882
   1 C :   -0.271303
   2 C :   -0.321690
   3 C :   -0.011362
   4 O :   -0.508969
   5 H :    0.165959
   6 H :    0.143580
   7 H :    0.182519
   8 H :    0.139224
   9 H :    0.148194
  10 H :    0.133976
  11 H :    0.145866
  12 C :   -0.021712
  13 H :    0.163460
  14 H :    0.115384
  15 O :   -0.524691
  16 C :    0.096522
  17 C :    0.084712
  18 C :   -0.319474
  19 C :   -0.020398
  20 O :   -0.516273
  21 H :    0.169814
  22 H :    0.171421
  23 O :   -0.597567
  24 H :    0.160804
  25 H :    0.130163
  26 H :    0.145442
  27 H :    0.153654
  28 H :    0.356866
Sum of atomic charges:   -0.0000000

LOEWDIN ATOMIC CHARGES
----------------------
   0 C :    0.182250
   1 C :   -0.230167
   2 C :   -0.224413
   3 C :   -0.035930
   4 O :   -0.322754
   5 H :    0.113911
   6 H :    0.115337
   7 H :    0.135372
   8 H :    0.113965
   9 H :    0.107555
  10 H :    0.095328
  11 H :    0.103280
  12 C :   -0.045570
  13 H :    0.120340
  14 H :    0.087482
  15 O :   -0.319536
  16 C :    0.008460
  17 C :    0.036298
  18 C :   -0.240022
  19 C :   -0.035372
  20 O :   -0.317918
  21 H :    0.120451
  22 H :    0.120973
  23 O :   -0.404343
  24 H :    0.124887
  25 H :    0.102431
  26 H :    0.100951
  27 H :    0.107935
  28 H :    0.278821

  Mayer bond orders larger than 0.100000
B(  0-C ,  1-C ) :   0.9195 B(  0-C ,  4-O ) :   0.8990 B(  0-C ,  5-H ) :   0.9360
B(  0-C , 15-O ) :   0.8901 B(  1-C ,  2-C ) :   0.9602 B(  1-C ,  6-H ) :   0.9325
B(  1-C ,  7-H ) :   0.9197 B(  2-C ,  3-C ) :   0.9465 B(  2-C ,  8-H ) :   0.9467
B(  2-C ,  9-H ) :   0.9282 B(  3-C ,  4-O ) :   0.8475 B(  3-C , 10-H ) :   0.9335
B(  3-C , 11-H ) :   0.9386 B( 12-C , 13-H ) :   0.9166 B( 12-C , 14-H ) :   0.9204
B( 12-C , 15-O ) :   0.8519 B( 12-C , 16-C ) :   0.8956 B( 16-C , 17-C ) :   0.8656
B( 16-C , 20-O ) :   0.8558 B( 16-C , 21-H ) :   0.9275 B( 17-C , 18-C ) :   0.9215
B( 17-C , 22-H ) :   0.9330 B( 17-C , 23-O ) :   0.9011 B( 18-C , 19-C ) :   0.9410
B( 18-C , 24-H ) :   0.9412 B( 18-C , 25-H ) :   0.9421 B( 19-C , 20-O ) :   0.8408
B( 19-C , 26-H ) :   0.9185 B( 19-C , 27-H ) :   0.9385 B( 23-O , 28-H ) :   0.7980

FINAL SINGLE POINT ENERGY      -652.849168005842

DIPOLE MOMENT
-------------
                                X             Y             Z
Electronic contribution:     -4.39603      -4.06500      -1.88586
Nuclear contribution   :      5.28559       5.40621       2.62671
                        -----------------------------------------
Total Dipole Moment    :      0.88957       1.34121       0.74085
                        -----------------------------------------
Magnitude (a.u.)       :      1.77173
Magnitude (Debye)      :      4.50339

Rotational constants in cm-1:     0.045015     0.017158     0.015510
Rotational constants in MHz :  1349.512256   514.394731   464.989741

                             ****ORCA TERMINATED NORMALLY****
TOTAL RUN TIME: 0 days 0 hours 33 minutes 4 seconds 542 msec
