                         Program Version 4.2.0 -  RELEASE  -
|  1> # Test redundant internal optimization
|  2> #
|  3> ! RKS B3LYP  Opt TightSCF SmallPrint
|  4>
|  5> %basis
|  6>         Basis "6-31G"
|  7> end
|  8>
|  9> %geom
| 10> Constraints
| 11> { D 4  0  15  12  270.0   C } # D for Dihedral angle
| 12> { D 0  15  12  16  270.0   C } # D for Dihedral angle
| 13> { D 0  4  3  2   C } # D for Dihedral angle
| 14> { D 4  3  2  1   C } # D for Dihedral angle
| 15> { D 3  2  1  0   C } # D for Dihedral angle
| 16> { D 2  1  0  4   C } # D for Dihedral angle
| 17> { D 1  0  4  3   C } # D for Dihedral angle
| 18> { D 16  20  19  18   C } # D for Dihedral angle
| 19> { D 20  19  18  17   C } # D for Dihedral angle
| 20> { D 19  18  17  16   C } # D for Dihedral angle
| 21> { D 18  17  16  20   C } # D for Dihedral angle
| 22> { D 17  16  20  19   C } # D for Dihedral angle
| 23> { D 15  12  16  20   C } # D for Dihedral angle
| 24> end
| 25> end
| 26>
| 27>
| 28> #%pal
| 29> #nprocs 8
| 30> #end
| 31>
| 32> * xyz 0 1
| 33> C  -21.048   26.222   46.251
| 34> C  -20.361   27.558   45.944
| 35> C  -20.329   28.222   47.341
| 36> C  -20.110   27.022   48.296
| 37> O  -20.473   25.807   47.535
| 38> H  -20.833   25.428   45.533
| 39> H  -19.344   27.382   45.576
| 40> H  -20.898   28.157   45.201
| 41> H  -19.543   28.978   47.434
| 42> H  -21.289   28.710   47.548
| 43> H  -20.733   27.082   49.195
| 44> H  -19.064   26.913   48.597
| 45> C  -23.420   25.119   46.072
| 46> H  -22.837   24.231   46.348
| 47> H  -24.346   25.117   46.661
| 48> O  -22.586   26.394   46.375
| 49> C  -23.812   24.999   44.573
| 50> C  -22.574   24.824   43.687
| 51> C  -22.257   23.322   43.883
| 52> C  -23.662   22.682   44.018
| 53> O  -24.595   23.781   44.344
| 54> H  -24.447   25.844   44.301
| 55> O  -22.934   25.120   42.205
| 56> H  -21.741   25.475   43.975
| 57> H  -21.683   22.898   43.054
| 58> H  -21.676   23.178   44.802
| 59> H  -23.704   21.927   44.810
| 60> H  -24.007   22.233   43.083
| 61> H  -23.766   24.478   41.893
| 62> *
| 63>
| 64>                          ****END OF INPUT****
 Total Charge           Charge          ....    0
 Multiplicity           Mult            ....    1
 Number of Electrons    NEL             ....  102
FINAL SINGLE POINT ENERGY      -652.834062419019
FINAL SINGLE POINT ENERGY      -652.857829839467
FINAL SINGLE POINT ENERGY      -652.862579862088
FINAL SINGLE POINT ENERGY      -652.863569811644
FINAL SINGLE POINT ENERGY      -652.863697458475
FINAL SINGLE POINT ENERGY      -652.863712632457
                    ***********************HURRAY********************

CARTESIAN COORDINATES (ANGSTROEM)
---------------------------------
  C    -21.009990   26.169727   46.253846
  C    -20.387246   27.536407   45.967934
  C    -20.437430   28.205244   47.361146
  C    -20.187764   27.023615   48.324891
  O    -20.465076   25.793580   47.540281
  H    -20.737688   25.365015   45.568021
  H    -19.351556   27.400447   45.635594
  H    -20.937737   28.088318   45.203539
  H    -19.692510   28.998800   47.473841
  H    -21.430197   28.633801   47.525550
  H    -20.842856   27.038634   49.199570
  H    -19.146492   26.955752   48.654034
  C    -23.290773   25.194324   46.058267
  H    -22.811049   24.281246   46.438138
  H    -24.204454   25.353846   46.633974
  O    -22.441749   26.349796   46.318656
  C    -23.673625   25.026117   44.578842
  C    -22.544671   24.775350   43.567269
  C    -22.261196   23.262864   43.778072
  C    -23.666363   22.685801   44.085988
  O    -24.520319   23.832027   44.475662
  H    -24.278527   25.880627   44.260399
  O    -23.006044   25.049732   42.214820
  H    -21.672034   25.411061   43.698770
  H    -21.806673   22.825475   42.886044
  H    -21.578046   23.113974   44.622106
  H    -23.656093   21.955941   44.901561
  H    -24.129805   22.222091   43.209562
  H    -23.904039   24.673387   42.098622

 Multiplicity           Mult            ....    1
 Number of Electrons    NEL             ....  102
 Basis Dimension        Dim             ....  149

ORBITAL ENERGIES
----------------

  NO   OCC          E(Eh)            E(eV)
   0   2.0000     -19.148957      -521.0696
   1   2.0000     -19.145905      -520.9866
   2   2.0000     -19.141230      -520.8593
   3   2.0000     -19.138723      -520.7911
   4   2.0000     -10.281324      -279.7690
   5   2.0000     -10.244684      -278.7720
   6   2.0000     -10.235748      -278.5289
   7   2.0000     -10.235586      -278.5244
   8   2.0000     -10.231062      -278.4014
   9   2.0000     -10.224149      -278.2132
  10   2.0000     -10.193308      -277.3740
  11   2.0000     -10.185766      -277.1688
  12   2.0000     -10.184577      -277.1364
  13   2.0000      -1.054067       -28.6826
  14   2.0000      -1.041009       -28.3273
  15   2.0000      -1.009614       -27.4730
  16   2.0000      -0.995019       -27.0759
  17   2.0000      -0.788906       -21.4672
  18   2.0000      -0.782095       -21.2819
  19   2.0000      -0.768087       -20.9007
  20   2.0000      -0.734276       -19.9807
  21   2.0000      -0.676853       -18.4181
  22   2.0000      -0.607874       -16.5411
  23   2.0000      -0.599509       -16.3135
  24   2.0000      -0.596263       -16.2251
  25   2.0000      -0.585570       -15.9342
  26   2.0000      -0.525249       -14.2927
  27   2.0000      -0.520887       -14.1741
  28   2.0000      -0.501327       -13.6418
  29   2.0000      -0.486453       -13.2371
  30   2.0000      -0.473188       -12.8761
  31   2.0000      -0.460141       -12.5211
  32   2.0000      -0.447020       -12.1640
  33   2.0000      -0.435693       -11.8558
  34   2.0000      -0.428152       -11.6506
  35   2.0000      -0.421929       -11.4813
  36   2.0000      -0.401436       -10.9236
  37   2.0000      -0.397324       -10.8117
  38   2.0000      -0.378018       -10.2864
  39   2.0000      -0.372823       -10.1450
  40   2.0000      -0.357127        -9.7179
  41   2.0000      -0.354705        -9.6520
  42   2.0000      -0.349395        -9.5075
  43   2.0000      -0.335867        -9.1394
  44   2.0000      -0.323934        -8.8147
  45   2.0000      -0.311628        -8.4798
  46   2.0000      -0.302583        -8.2337
  47   2.0000      -0.278741        -7.5849
  48   2.0000      -0.272726        -7.4213
  49   2.0000      -0.255672        -6.9572
  50   2.0000      -0.242046        -6.5864
  51   0.0000       0.063005         1.7144
  52   0.0000       0.068227         1.8565
  53   0.0000       0.091425         2.4878
  54   0.0000       0.097939         2.6651
  55   0.0000       0.101501         2.7620

MULLIKEN ATOMIC CHARGES
-----------------------
   0 C :    0.280962
   1 C :   -0.257906
   2 C :   -0.298839
   3 C :   -0.001983
   4 O :   -0.513400
   5 H :    0.139257
   6 H :    0.144334
   7 H :    0.157128
   8 H :    0.141301
   9 H :    0.165838
  10 H :    0.149807
  11 H :    0.140798
  12 C :   -0.023869
  13 H :    0.140104
  14 H :    0.169935
  15 O :   -0.517370
  16 C :    0.059734
  17 C :    0.085250
  18 C :   -0.305987
  19 C :   -0.030942
  20 O :   -0.524479
  21 H :    0.165066
  22 O :   -0.606823
  23 H :    0.158820
  24 H :    0.164797
  25 H :    0.152181
  26 H :    0.152146
  27 H :    0.148137
  28 H :    0.366002
Sum of atomic charges:   -0.0000000

LOEWDIN ATOMIC CHARGES
----------------------
   0 C :    0.167822
   1 C :   -0.216449
   2 C :   -0.215330
   3 C :   -0.026704
   4 O :   -0.327615
   5 H :    0.093933
   6 H :    0.113677
   7 H :    0.123494
   8 H :    0.113650
   9 H :    0.120861
  10 H :    0.106898
  11 H :    0.101916
  12 C :   -0.040538
  13 H :    0.101192
  14 H :    0.124093
  15 O :   -0.327508
  16 C :    0.007596
  17 C :    0.033295
  18 C :   -0.242971
  19 C :   -0.038200
  20 O :   -0.328895
  21 H :    0.117345
  22 O :   -0.414820
  23 H :    0.117343
  24 H :    0.127816
  25 H :    0.114618
  26 H :    0.106432
  27 H :    0.103326
  28 H :    0.283722

  Mayer bond orders larger than 0.100000
B(  0-C ,  1-C ) :   0.9463 B(  0-C ,  4-O ) :   0.9104 B(  0-C ,  5-H ) :   0.9101
B(  0-C , 15-O ) :   0.8523 B(  1-C ,  2-C ) :   0.9573 B(  1-C ,  6-H ) :   0.9394
B(  1-C ,  7-H ) :   0.9358 B(  2-C ,  3-C ) :   0.9548 B(  2-C ,  8-H ) :   0.9452
B(  2-C ,  9-H ) :   0.9435 B(  3-C ,  4-O ) :   0.8374 B(  3-C , 10-H ) :   0.9353
B(  3-C , 11-H ) :   0.9403 B( 12-C , 13-H ) :   0.9249 B( 12-C , 14-H ) :   0.9340
B( 12-C , 15-O ) :   0.8418 B( 12-C , 16-C ) :   0.8798 B( 16-C , 17-C ) :   0.9114
B( 16-C , 20-O ) :   0.8360 B( 16-C , 21-H ) :   0.9250 B( 17-C , 18-C ) :   0.9132
B( 17-C , 22-O ) :   0.8849 B( 17-C , 23-H ) :   0.9230 B( 18-C , 19-C ) :   0.9396
B( 18-C , 24-H ) :   0.9376 B( 18-C , 25-H ) :   0.9304 B( 19-C , 20-O ) :   0.8414
B( 19-C , 26-H ) :   0.9345 B( 19-C , 27-H ) :   0.9378 B( 22-O , 28-H ) :   0.7936

FINAL SINGLE POINT ENERGY      -652.863714214675

DIPOLE MOMENT
-------------
                                X             Y             Z
Electronic contribution:     -3.63049      -1.14653      -1.30936
Nuclear contribution   :      4.12142       1.03957       1.38668
                        -----------------------------------------
Total Dipole Moment    :      0.49093      -0.10696       0.07731
                        -----------------------------------------
Magnitude (a.u.)       :      0.50836
Magnitude (Debye)      :      1.29214

Rotational constants in cm-1:     0.057498     0.013083     0.012395
Rotational constants in MHz :  1723.738438   392.231836   371.584974

                             ****ORCA TERMINATED NORMALLY****
TOTAL RUN TIME: 0 days 0 hours 48 minutes 13 seconds 311 msec
