                         Program Version 4.2.0 -  RELEASE  -
|  1> # Test redundant internal optimization
|  2> #
|  3> ! RKS B3LYP  Opt TightSCF SmallPrint
|  4>
|  5> %basis
|  6>         Basis "6-31G"
|  7> end
|  8>
|  9> %geom
| 10> Constraints
| 11> { D 4  0  15  12  135.0   C } # D for Dihedral angle
| 12> { D 0  15  12  16  150.0   C } # D for Dihedral angle
| 13> { D 0  4  3  2   C } # D for Dihedral angle
| 14> { D 4  3  2  1   C } # D for Dihedral angle
| 15> { D 3  2  1  0   C } # D for Dihedral angle
| 16> { D 2  1  0  4   C } # D for Dihedral angle
| 17> { D 1  0  4  3   C } # D for Dihedral angle
| 18> { D 16  20  19  18   C } # D for Dihedral angle
| 19> { D 20  19  18  17   C } # D for Dihedral angle
| 20> { D 19  18  17  16   C } # D for Dihedral angle
| 21> { D 18  17  16  20   C } # D for Dihedral angle
| 22> { D 17  16  20  19   C } # D for Dihedral angle
| 23> { D 15  12  16  20   C } # D for Dihedral angle
| 24> end
| 25> end
| 26>
| 27>
| 28> #%pal
| 29> #nprocs 8
| 30> #end
| 31>
| 32> * xyz 0 1
| 33> C  -21.048   26.222   46.251
| 34> C  -20.361   27.558   45.944
| 35> C  -20.329   28.222   47.341
| 36> C  -20.110   27.022   48.296
| 37> O  -20.473   25.807   47.535
| 38> H  -20.833   25.428   45.533
| 39> H  -19.344   27.382   45.576
| 40> H  -20.898   28.157   45.201
| 41> H  -19.543   28.978   47.434
| 42> H  -21.289   28.710   47.548
| 43> H  -20.733   27.082   49.195
| 44> H  -19.064   26.913   48.597
| 45> C  -23.162   27.680   45.721
| 46> H  -23.158   28.493   46.457
| 47> H  -22.543   27.987   44.868
| 48> O  -22.586   26.394   46.375
| 49> C  -24.616   27.492   45.206
| 50> C  -25.109   28.740   44.465
| 51> C  -24.434   28.572   43.083
| 52> C  -24.453   27.038   42.867
| 53> O  -24.670   26.429   44.197
| 54> H  -25.252   27.178   46.036
| 55> H  -26.200   28.714   44.368
| 56> O  -24.712   30.065   45.171
| 57> H  -24.957   29.112   42.287
| 58> H  -23.404   28.944   43.120
| 59> H  -23.513   26.661   42.449
| 60> H  -25.280   26.716   42.227
| 61> H  -23.623   30.115   45.279
| 62> *
| 63>
| 64>                          ****END OF INPUT****
 Total Charge           Charge          ....    0
 Multiplicity           Mult            ....    1
 Number of Electrons    NEL             ....  102
FINAL SINGLE POINT ENERGY      -652.813980673930
FINAL SINGLE POINT ENERGY      -652.838604162514
FINAL SINGLE POINT ENERGY      -652.844256293098
FINAL SINGLE POINT ENERGY      -652.846367290045
FINAL SINGLE POINT ENERGY      -652.846631475357
FINAL SINGLE POINT ENERGY      -652.846722533218
FINAL SINGLE POINT ENERGY      -652.846733801341
FINAL SINGLE POINT ENERGY      -652.846736974733
                    ***********************HURRAY********************

CARTESIAN COORDINATES (ANGSTROEM)
---------------------------------
  C    -21.084793   26.307996   46.247988
  C    -20.137584   27.486547   46.010193
  C    -20.111284   28.168451   47.405025
  C    -20.210146   26.963621   48.368066
  O    -20.722391   25.834554   47.557756
  H    -20.948381   25.462811   45.570540
  H    -19.149031   27.083695   45.762893
  H    -20.433173   28.159666   45.202513
  H    -19.202799   28.757167   47.563828
  H    -20.971897   28.835897   47.522831
  H    -20.893173   27.138048   49.203617
  H    -19.235349   26.655779   48.757616
  C    -23.053938   27.827899   45.673275
  H    -23.108664   28.631590   46.421241
  H    -22.443302   28.178317   44.829141
  O    -22.507357   26.619730   46.251780
  C    -24.465027   27.496569   45.185991
  C    -25.186312   28.667568   44.497597
  C    -24.624588   28.581701   43.046840
  C    -24.465953   27.060609   42.833728
  O    -24.475887   26.437455   44.181924
  H    -25.030697   27.103937   46.035093
  H    -26.262556   28.481588   44.501994
  O    -25.035138   29.959247   45.137300
  H    -25.289828   29.049467   42.316230
  H    -23.655740   29.097516   43.000441
  H    -23.534266   26.795496   42.322688
  H    -25.304245   26.630711   42.276939
  H    -24.153500   30.337367   44.941932

 Multiplicity           Mult            ....    1
 Number of Electrons    NEL             ....  102
 Basis Dimension        Dim             ....  149

ORBITAL ENERGIES
----------------

  NO   OCC          E(Eh)            E(eV)
   0   2.0000     -19.152761      -521.1731
   1   2.0000     -19.137061      -520.7459
   2   2.0000     -19.136340      -520.7263
   3   2.0000     -19.133986      -520.6622
   4   2.0000     -10.277979      -279.6780
   5   2.0000     -10.246986      -278.8347
   6   2.0000     -10.233843      -278.4770
   7   2.0000     -10.231884      -278.4237
   8   2.0000     -10.229507      -278.3590
   9   2.0000     -10.225331      -278.2454
  10   2.0000     -10.198530      -277.5161
  11   2.0000     -10.194210      -277.3985
  12   2.0000     -10.193597      -277.3819
  13   2.0000      -1.048812       -28.5396
  14   2.0000      -1.035095       -28.1664
  15   2.0000      -1.016604       -27.6632
  16   2.0000      -0.989231       -26.9183
  17   2.0000      -0.790223       -21.5031
  18   2.0000      -0.784776       -21.3549
  19   2.0000      -0.770675       -20.9711
  20   2.0000      -0.732460       -19.9312
  21   2.0000      -0.685240       -18.6463
  22   2.0000      -0.613584       -16.6965
  23   2.0000      -0.605230       -16.4691
  24   2.0000      -0.593894       -16.1607
  25   2.0000      -0.572178       -15.5697
  26   2.0000      -0.529228       -14.4010
  27   2.0000      -0.508604       -13.8398
  28   2.0000      -0.503407       -13.6984
  29   2.0000      -0.496574       -13.5125
  30   2.0000      -0.473002       -12.8710
  31   2.0000      -0.461943       -12.5701
  32   2.0000      -0.443240       -12.0612
  33   2.0000      -0.440255       -11.9800
  34   2.0000      -0.430160       -11.7053
  35   2.0000      -0.416692       -11.3388
  36   2.0000      -0.409572       -11.1450
  37   2.0000      -0.402710       -10.9583
  38   2.0000      -0.382167       -10.3993
  39   2.0000      -0.379717       -10.3326
  40   2.0000      -0.363365        -9.8877
  41   2.0000      -0.355435        -9.6719
  42   2.0000      -0.351434        -9.5630
  43   2.0000      -0.331472        -9.0198
  44   2.0000      -0.316655        -8.6166
  45   2.0000      -0.311801        -8.4845
  46   2.0000      -0.291490        -7.9319
  47   2.0000      -0.272727        -7.4213
  48   2.0000      -0.261366        -7.1121
  49   2.0000      -0.251055        -6.8316
  50   2.0000      -0.237361        -6.4589
  51   0.0000       0.045261         1.2316
  52   0.0000       0.067563         1.8385
  53   0.0000       0.083851         2.2817
  54   0.0000       0.090816         2.4712
  55   0.0000       0.101832         2.7710

MULLIKEN ATOMIC CHARGES
-----------------------
   0 C :    0.318553
   1 C :   -0.296442
   2 C :   -0.307780
   3 C :    0.000471
   4 O :   -0.493513
   5 H :    0.159354
   6 H :    0.154259
   7 H :    0.139103
   8 H :    0.144684
   9 H :    0.151414
  10 H :    0.151915
  11 H :    0.143051
  12 C :   -0.008963
  13 H :    0.134570
  14 H :    0.107751
  15 O :   -0.516553
  16 C :    0.098710
  17 C :    0.075659
  18 C :   -0.322121
  19 C :   -0.013425
  20 O :   -0.501592
  21 H :    0.171770
  22 H :    0.173700
  23 O :   -0.599487
  24 H :    0.159240
  25 H :    0.127594
  26 H :    0.141355
  27 H :    0.152242
  28 H :    0.354480
Sum of atomic charges:   -0.0000000

LOEWDIN ATOMIC CHARGES
----------------------
   0 C :    0.186090
   1 C :   -0.233431
   2 C :   -0.219535
   3 C :   -0.028167
   4 O :   -0.307355
   5 H :    0.107473
   6 H :    0.121205
   7 H :    0.110916
   8 H :    0.115545
   9 H :    0.110348
  10 H :    0.107788
  11 H :    0.103156
  12 C :   -0.048181
  13 H :    0.096534
  14 H :    0.082697
  15 O :   -0.323016
  16 C :    0.022374
  17 C :    0.033256
  18 C :   -0.241970
  19 C :   -0.031529
  20 O :   -0.310458
  21 H :    0.123667
  22 H :    0.121616
  23 O :   -0.408113
  24 H :    0.123263
  25 H :    0.100742
  26 H :    0.101232
  27 H :    0.107133
  28 H :    0.276720

  Mayer bond orders larger than 0.100000
B(  0-C ,  1-C ) :   0.9326 B(  0-C ,  4-O ) :   0.9232 B(  0-C ,  5-H ) :   0.9268
B(  0-C , 15-O ) :   0.8570 B(  1-C ,  2-C ) :   0.9485 B(  1-C ,  6-H ) :   0.9341
B(  1-C ,  7-H ) :   0.9281 B(  2-C ,  3-C ) :   0.9522 B(  2-C ,  8-H ) :   0.9456
B(  2-C ,  9-H ) :   0.9438 B(  3-C ,  4-O ) :   0.8444 B(  3-C , 10-H ) :   0.9340
B(  3-C , 11-H ) :   0.9395 B( 12-C , 13-H ) :   0.9008 B( 12-C , 14-H ) :   0.9095
B( 12-C , 15-O ) :   0.8581 B( 12-C , 16-C ) :   0.8969 B( 16-C , 17-C ) :   0.8727
B( 16-C , 20-O ) :   0.8715 B( 16-C , 21-H ) :   0.9276 B( 17-C , 18-C ) :   0.9246
B( 17-C , 22-H ) :   0.9314 B( 17-C , 23-O ) :   0.8946 B( 18-C , 19-C ) :   0.9369
B( 18-C , 24-H ) :   0.9412 B( 18-C , 25-H ) :   0.9410 B( 19-C , 20-O ) :   0.8533
B( 19-C , 26-H ) :   0.9320 B( 19-C , 27-H ) :   0.9373 B( 23-O , 28-H ) :   0.7996

FINAL SINGLE POINT ENERGY      -652.846737246585

DIPOLE MOMENT
-------------
                                X             Y             Z
Electronic contribution:     -3.59537      -4.36483       1.69833
Nuclear contribution   :      4.60645       5.92157      -2.72489
                        -----------------------------------------
Total Dipole Moment    :      1.01108       1.55674      -1.02656
                        -----------------------------------------
Magnitude (a.u.)       :      2.12121
Magnitude (Debye)      :      5.39170

Rotational constants in cm-1:     0.053151     0.013065     0.011975
Rotational constants in MHz :  1593.441371   391.680810   359.002634

                             ****ORCA TERMINATED NORMALLY****
TOTAL RUN TIME: 0 days 0 hours 26 minutes 40 seconds 528 msec
