                         Program Version 4.2.0 -  RELEASE  -
|  1> # Test redundant internal optimization
|  2> #
|  3> ! RKS B3LYP  Opt TightSCF SmallPrint
|  4>
|  5> %basis
|  6>         Basis "6-31G"
|  7> end
|  8>
|  9> %geom
| 10> Constraints
| 11> { D 4  0  15  12  210.0   C } # D for Dihedral angle
| 12> { D 0  15  12  16  255.0   C } # D for Dihedral angle
| 13> { D 0  4  3  2   C } # D for Dihedral angle
| 14> { D 4  3  2  1   C } # D for Dihedral angle
| 15> { D 3  2  1  0   C } # D for Dihedral angle
| 16> { D 2  1  0  4   C } # D for Dihedral angle
| 17> { D 1  0  4  3   C } # D for Dihedral angle
| 18> { D 16  20  19  18   C } # D for Dihedral angle
| 19> { D 20  19  18  17   C } # D for Dihedral angle
| 20> { D 19  18  17  16   C } # D for Dihedral angle
| 21> { D 18  17  16  20   C } # D for Dihedral angle
| 22> { D 17  16  20  19   C } # D for Dihedral angle
| 23> { D 15  12  16  20   C } # D for Dihedral angle
| 24> end
| 25> end
| 26>
| 27>
| 28> #%pal
| 29> #nprocs 8
| 30> #end
| 31>
| 32> * xyz 0 1
| 33> C  -21.048   26.222   46.251
| 34> C  -20.361   27.558   45.944
| 35> C  -20.329   28.222   47.341
| 36> C  -20.110   27.022   48.296
| 37> O  -20.473   25.807   47.535
| 38> H  -20.833   25.428   45.533
| 39> H  -19.344   27.382   45.576
| 40> H  -20.898   28.157   45.201
| 41> H  -19.543   28.978   47.434
| 42> H  -21.289   28.710   47.548
| 43> H  -20.733   27.082   49.195
| 44> H  -19.064   26.913   48.597
| 45> C  -23.389   26.110   45.076
| 46> H  -22.750   25.571   44.366
| 47> H  -24.264   25.485   45.294
| 48> O  -22.586   26.394   46.375
| 49> C  -23.896   27.408   44.388
| 50> C  -24.780   27.087   43.178
| 51> C  -26.126   26.737   43.856
| 52> C  -26.166   27.695   45.072
| 53> O  -24.778   28.156   45.290
| 54> H  -23.043   28.053   44.167
| 55> H  -24.886   27.974   42.543
| 56> O  -24.224   25.927   42.307
| 57> H  -26.984   26.872   43.190
| 58> H  -26.120   25.692   44.187
| 59> H  -26.527   27.202   45.982
| 60> H  -26.775   28.584   44.884
| 61> H  -24.110   25.027   42.921
| 62> *
| 63>
| 64>                          ****END OF INPUT****
 Total Charge           Charge          ....    0
 Multiplicity           Mult            ....    1
 Number of Electrons    NEL             ....  102
FINAL SINGLE POINT ENERGY      -652.825417906753
FINAL SINGLE POINT ENERGY      -652.848393739207
FINAL SINGLE POINT ENERGY      -652.852780373898
FINAL SINGLE POINT ENERGY      -652.853629248002
FINAL SINGLE POINT ENERGY      -652.853785947707
FINAL SINGLE POINT ENERGY      -652.853816293462
FINAL SINGLE POINT ENERGY      -652.853821801829
FINAL SINGLE POINT ENERGY      -652.853821662176
                    ***********************HURRAY********************

CARTESIAN COORDINATES (ANGSTROEM)
---------------------------------
  C    -21.045224   26.214984   46.191261
  C    -20.382635   27.561617   45.907391
  C    -20.434724   28.244540   47.296043
  C    -20.231042   27.062578   48.266628
  O    -20.532541   25.839221   47.477516
  H    -20.799890   25.412816   45.485965
  H    -19.344504   27.393711   45.594496
  H    -20.890543   28.135606   45.129273
  H    -19.671886   29.019944   47.412869
  H    -21.420119   28.696658   47.441934
  H    -20.901112   27.092236   49.129014
  H    -19.197015   26.965261   48.610772
  C    -23.283693   26.056326   45.124645
  H    -22.690966   25.491856   44.388642
  H    -24.110842   25.422255   45.465983
  O    -22.491488   26.343648   46.305976
  C    -23.821730   27.326023   44.459452
  C    -24.711737   27.048087   43.235930
  C    -26.089809   26.750995   43.901558
  C    -26.091328   27.705376   45.116343
  O    -24.679789   28.103521   45.348109
  H    -22.982984   27.980949   44.206695
  H    -24.772945   27.948228   42.620216
  O    -24.226895   26.019165   42.337674
  H    -26.925235   26.928044   43.219005
  H    -26.125878   25.699762   44.217471
  H    -26.483038   27.238239   46.025004
  H    -26.654070   28.623381   44.921390
  H    -24.435338   25.129973   42.689744

 Multiplicity           Mult            ....    1
 Number of Electrons    NEL             ....  102
 Basis Dimension        Dim             ....  149

ORBITAL ENERGIES
----------------

  NO   OCC          E(Eh)            E(eV)
   0   2.0000     -19.153837      -521.2024
   1   2.0000     -19.138737      -520.7915
   2   2.0000     -19.135166      -520.6943
   3   2.0000     -19.135067      -520.6916
   4   2.0000     -10.275986      -279.6238
   5   2.0000     -10.248613      -278.8789
   6   2.0000     -10.232561      -278.4422
   7   2.0000     -10.232384      -278.4373
   8   2.0000     -10.231895      -278.4240
   9   2.0000     -10.219163      -278.0776
  10   2.0000     -10.199358      -277.5386
  11   2.0000     -10.181118      -277.0423
  12   2.0000     -10.179315      -276.9932
  13   2.0000      -1.048686       -28.5362
  14   2.0000      -1.036350       -28.2005
  15   2.0000      -1.017935       -27.6994
  16   2.0000      -0.989332       -26.9211
  17   2.0000      -0.785867       -21.3845
  18   2.0000      -0.780435       -21.2367
  19   2.0000      -0.767475       -20.8841
  20   2.0000      -0.729668       -19.8553
  21   2.0000      -0.680748       -18.5241
  22   2.0000      -0.615001       -16.7350
  23   2.0000      -0.593802       -16.1582
  24   2.0000      -0.592915       -16.1340
  25   2.0000      -0.577151       -15.7051
  26   2.0000      -0.527474       -14.3533
  27   2.0000      -0.512892       -13.9565
  28   2.0000      -0.497396       -13.5348
  29   2.0000      -0.490330       -13.3425
  30   2.0000      -0.465710       -12.6726
  31   2.0000      -0.453758       -12.3474
  32   2.0000      -0.445382       -12.1195
  33   2.0000      -0.438395       -11.9293
  34   2.0000      -0.429942       -11.6993
  35   2.0000      -0.420002       -11.4288
  36   2.0000      -0.408701       -11.1213
  37   2.0000      -0.398041       -10.8313
  38   2.0000      -0.378150       -10.2900
  39   2.0000      -0.368862       -10.0373
  40   2.0000      -0.358207        -9.7473
  41   2.0000      -0.351803        -9.5731
  42   2.0000      -0.346959        -9.4412
  43   2.0000      -0.330728        -8.9996
  44   2.0000      -0.320140        -8.7115
  45   2.0000      -0.307551        -8.3689
  46   2.0000      -0.299492        -8.1496
  47   2.0000      -0.274731        -7.4758
  48   2.0000      -0.261443        -7.1142
  49   2.0000      -0.253129        -6.8880
  50   2.0000      -0.233283        -6.3480
  51   0.0000       0.048364         1.3161
  52   0.0000       0.077062         2.0970
  53   0.0000       0.081599         2.2204
  54   0.0000       0.089012         2.4221
  55   0.0000       0.101768         2.7692

MULLIKEN ATOMIC CHARGES
-----------------------
   0 C :    0.286734
   1 C :   -0.262463
   2 C :   -0.301889
   3 C :   -0.000493
   4 O :   -0.502765
   5 H :    0.136100
   6 H :    0.140992
   7 H :    0.145722
   8 H :    0.139227
   9 H :    0.173664
  10 H :    0.154553
  11 H :    0.138761
  12 C :   -0.026930
  13 H :    0.128218
  14 H :    0.141511
  15 O :   -0.495329
  16 C :    0.090440
  17 C :    0.081126
  18 C :   -0.325034
  19 C :   -0.011158
  20 O :   -0.503718
  21 H :    0.154152
  22 H :    0.168989
  23 O :   -0.601674
  24 H :    0.158758
  25 H :    0.135030
  26 H :    0.149254
  27 H :    0.150527
  28 H :    0.357696
Sum of atomic charges:    0.0000000

LOEWDIN ATOMIC CHARGES
----------------------
   0 C :    0.178706
   1 C :   -0.227661
   2 C :   -0.217296
   3 C :   -0.024909
   4 O :   -0.306943
   5 H :    0.094422
   6 H :    0.111701
   7 H :    0.114014
   8 H :    0.113229
   9 H :    0.124868
  10 H :    0.109614
  11 H :    0.100729
  12 C :   -0.050290
  13 H :    0.097766
  14 H :    0.104139
  15 O :   -0.320706
  16 C :    0.011141
  17 C :    0.033280
  18 C :   -0.241427
  19 C :   -0.029298
  20 O :   -0.314811
  21 H :    0.111161
  22 H :    0.119371
  23 O :   -0.409451
  24 H :    0.123003
  25 H :    0.104611
  26 H :    0.105689
  27 H :    0.106441
  28 H :    0.278908

  Mayer bond orders larger than 0.100000
B(  0-C ,  1-C ) :   0.9322 B(  0-C ,  4-O ) :   0.9378 B(  0-C ,  5-H ) :   0.9168
B(  0-C , 15-O ) :   0.8413 B(  1-C ,  2-C ) :   0.9549 B(  1-C ,  6-H ) :   0.9338
B(  1-C ,  7-H ) :   0.9321 B(  2-C ,  3-C ) :   0.9554 B(  2-C ,  8-H ) :   0.9451
B(  2-C ,  9-H ) :   0.9404 B(  3-C ,  4-O ) :   0.8347 B(  3-C , 10-H ) :   0.9347
B(  3-C , 11-H ) :   0.9399 B( 12-C , 13-H ) :   0.9025 B( 12-C , 14-H ) :   0.9341
B( 12-C , 15-O ) :   0.8669 B( 12-C , 16-C ) :   0.8889 B( 16-C , 17-C ) :   0.8684
B( 16-C , 20-O ) :   0.8743 B( 16-C , 21-H ) :   0.9272 B( 17-C , 18-C ) :   0.9269
B( 17-C , 22-H ) :   0.9319 B( 17-C , 23-O ) :   0.8944 B( 18-C , 19-C ) :   0.9387
B( 18-C , 24-H ) :   0.9413 B( 18-C , 25-H ) :   0.9402 B( 19-C , 20-O ) :   0.8480
B( 19-C , 26-H ) :   0.9312 B( 19-C , 27-H ) :   0.9373 B( 23-O , 28-H ) :   0.7983

FINAL SINGLE POINT ENERGY      -652.853821469883

DIPOLE MOMENT
-------------
                                X             Y             Z
Electronic contribution:     -0.05081      -2.13765       0.00122
Nuclear contribution   :     -0.45196       2.22302      -0.56336
                        -----------------------------------------
Total Dipole Moment    :     -0.50277       0.08537      -0.56214
                        -----------------------------------------
Magnitude (a.u.)       :      0.75899
Magnitude (Debye)      :      1.92921

Rotational constants in cm-1:     0.056471     0.012662     0.011789
Rotational constants in MHz :  1692.952097   379.584998   353.412656

                             ****ORCA TERMINATED NORMALLY****
TOTAL RUN TIME: 0 days 2 hours 24 minutes 25 seconds 77 msec
