                         Program Version 4.2.0 -  RELEASE  -
|  1> # Test redundant internal optimization
|  2> #
|  3> ! RKS B3LYP  Opt TightSCF SmallPrint
|  4>
|  5> %basis
|  6>         Basis "6-31G"
|  7> end
|  8>
|  9> %geom
| 10> Constraints
| 11> { D 4  0  15  12  135.0   C } # D for Dihedral angle
| 12> { D 0  15  12  16  225.0   C } # D for Dihedral angle
| 13> { D 0  4  3  2   C } # D for Dihedral angle
| 14> { D 4  3  2  1   C } # D for Dihedral angle
| 15> { D 3  2  1  0   C } # D for Dihedral angle
| 16> { D 2  1  0  4   C } # D for Dihedral angle
| 17> { D 1  0  4  3   C } # D for Dihedral angle
| 18> { D 16  20  19  18   C } # D for Dihedral angle
| 19> { D 20  19  18  17   C } # D for Dihedral angle
| 20> { D 19  18  17  16   C } # D for Dihedral angle
| 21> { D 18  17  16  20   C } # D for Dihedral angle
| 22> { D 17  16  20  19   C } # D for Dihedral angle
| 23> { D 15  12  16  20   C } # D for Dihedral angle
| 24> end
| 25> end
| 26>
| 27>
| 28> #%pal
| 29> #nprocs 8
| 30> #end
| 31>
| 32> * xyz 0 1
| 33> C  -21.048   26.222   46.251
| 34> C  -20.361   27.558   45.944
| 35> C  -20.329   28.222   47.341
| 36> C  -20.110   27.022   48.296
| 37> O  -20.473   25.807   47.535
| 38> H  -20.833   25.428   45.533
| 39> H  -19.344   27.382   45.576
| 40> H  -20.898   28.157   45.201
| 41> H  -19.543   28.978   47.434
| 42> H  -21.289   28.710   47.548
| 43> H  -20.733   27.082   49.195
| 44> H  -19.064   26.913   48.597
| 45> C  -23.162   27.680   45.721
| 46> H  -22.341   28.375   45.504
| 47> H  -23.664   27.437   44.775
| 48> O  -22.586   26.394   46.375
| 49> C  -24.191   28.407   46.630
| 50> C  -24.822   29.603   45.909
| 51> C  -25.874   28.908   45.011
| 52> C  -26.354   27.723   45.886
| 53> O  -25.324   27.526   46.928
| 54> H  -23.716   28.653   47.582
| 55> O  -25.512   30.542   46.936
| 56> H  -24.098   30.192   45.335
| 57> H  -26.695   29.575   44.725
| 58> H  -25.402   28.543   44.091
| 59> H  -26.465   26.796   45.311
| 60> H  -27.296   27.937   46.399
| 61> H  -26.243   29.973   47.521
| 62> *
| 63>
| 64>                          ****END OF INPUT****
 Total Charge           Charge          ....    0
 Multiplicity           Mult            ....    1
 Number of Electrons    NEL             ....  102
FINAL SINGLE POINT ENERGY      -652.814416766822
FINAL SINGLE POINT ENERGY      -652.838015897360
FINAL SINGLE POINT ENERGY      -652.846455644110
FINAL SINGLE POINT ENERGY      -652.848504839043
FINAL SINGLE POINT ENERGY      -652.848863657787
FINAL SINGLE POINT ENERGY      -652.848911579271
                    ***********************HURRAY********************

CARTESIAN COORDINATES (ANGSTROEM)
---------------------------------
  C    -21.116416   26.321753   46.249793
  C    -20.182239   27.499271   45.963808
  C    -20.181219   28.250166   47.322289
  C    -20.275690   27.094278   48.343841
  O    -20.763832   25.919599   47.584456
  H    -20.953285   25.447256   45.616373
  H    -19.187061   27.092479   45.753089
  H    -20.465707   28.124542   45.113965
  H    -19.281732   28.857239   47.461617
  H    -21.049629   28.913872   47.397825
  H    -20.971178   27.299742   49.161841
  H    -19.301683   26.819237   48.758935
  C    -23.138426   27.759351   45.589869
  H    -22.395695   28.533892   45.362791
  H    -23.598586   27.445534   44.642974
  O    -22.549773   26.598381   46.224520
  C    -24.186988   28.363575   46.526678
  C    -24.912560   29.580623   45.936264
  C    -26.009028   28.905050   45.069457
  C    -26.379256   27.647806   45.896233
  O    -25.263113   27.424564   46.844686
  H    -23.705517   28.609599   47.478515
  O    -25.485980   30.403782   46.989063
  H    -24.267450   30.253154   45.368425
  H    -26.852771   29.582632   44.916765
  H    -25.603332   28.632931   44.088471
  H    -26.504126   26.755071   45.275938
  H    -27.287176   27.788131   46.491169
  H    -25.900550   29.821490   47.660349

 Multiplicity           Mult            ....    1
 Number of Electrons    NEL             ....  102
 Basis Dimension        Dim             ....  149

ORBITAL ENERGIES
----------------

  NO   OCC          E(Eh)            E(eV)
   0   2.0000     -19.140697      -520.8448
   1   2.0000     -19.139367      -520.8087
   2   2.0000     -19.137218      -520.7502
   3   2.0000     -19.135173      -520.6945
   4   2.0000     -10.280285      -279.7408
   5   2.0000     -10.244944      -278.7791
   6   2.0000     -10.236070      -278.5376
   7   2.0000     -10.234758      -278.5019
   8   2.0000     -10.229567      -278.3607
   9   2.0000     -10.226152      -278.2677
  10   2.0000     -10.195371      -277.4302
  11   2.0000     -10.194444      -277.4049
  12   2.0000     -10.191075      -277.3133
  13   2.0000      -1.049645       -28.5623
  14   2.0000      -1.036683       -28.2096
  15   2.0000      -1.007117       -27.4050
  16   2.0000      -0.989839       -26.9349
  17   2.0000      -0.791414       -21.5355
  18   2.0000      -0.786608       -21.4047
  19   2.0000      -0.769865       -20.9491
  20   2.0000      -0.734240       -19.9797
  21   2.0000      -0.679878       -18.5004
  22   2.0000      -0.607465       -16.5300
  23   2.0000      -0.605339       -16.4721
  24   2.0000      -0.596388       -16.2285
  25   2.0000      -0.576520       -15.6879
  26   2.0000      -0.523009       -14.2318
  27   2.0000      -0.518222       -14.1016
  28   2.0000      -0.501900       -13.6574
  29   2.0000      -0.494628       -13.4595
  30   2.0000      -0.473266       -12.8782
  31   2.0000      -0.460415       -12.5285
  32   2.0000      -0.451591       -12.2884
  33   2.0000      -0.442372       -12.0375
  34   2.0000      -0.430399       -11.7118
  35   2.0000      -0.415817       -11.3150
  36   2.0000      -0.399460       -10.8699
  37   2.0000      -0.394335       -10.7304
  38   2.0000      -0.380991       -10.3673
  39   2.0000      -0.373324       -10.1587
  40   2.0000      -0.363635        -9.8950
  41   2.0000      -0.361568        -9.8388
  42   2.0000      -0.355720        -9.6796
  43   2.0000      -0.333838        -9.0842
  44   2.0000      -0.313153        -8.5213
  45   2.0000      -0.306949        -8.3525
  46   2.0000      -0.290167        -7.8959
  47   2.0000      -0.273345        -7.4381
  48   2.0000      -0.267168        -7.2700
  49   2.0000      -0.250539        -6.8175
  50   2.0000      -0.237212        -6.4549
  51   0.0000       0.062573         1.7027
  52   0.0000       0.073625         2.0034
  53   0.0000       0.084151         2.2899
  54   0.0000       0.092232         2.5098
  55   0.0000       0.098600         2.6830

MULLIKEN ATOMIC CHARGES
-----------------------
   0 C :    0.318950
   1 C :   -0.304948
   2 C :   -0.306875
   3 C :   -0.000716
   4 O :   -0.491773
   5 H :    0.153721
   6 H :    0.156573
   7 H :    0.143573
   8 H :    0.146644
   9 H :    0.151448
  10 H :    0.153347
  11 H :    0.144383
  12 C :    0.000062
  13 H :    0.119821
  14 H :    0.135306
  15 O :   -0.514039
  16 C :    0.072558
  17 C :    0.078517
  18 C :   -0.304526
  19 C :   -0.025348
  20 O :   -0.504058
  21 H :    0.162623
  22 O :   -0.603301
  23 H :    0.146630
  24 H :    0.164973
  25 H :    0.144237
  26 H :    0.150208
  27 H :    0.145175
  28 H :    0.366837
Sum of atomic charges:   -0.0000000

LOEWDIN ATOMIC CHARGES
----------------------
   0 C :    0.185621
   1 C :   -0.234538
   2 C :   -0.219584
   3 C :   -0.028068
   4 O :   -0.306253
   5 H :    0.103731
   6 H :    0.122699
   7 H :    0.112694
   8 H :    0.116631
   9 H :    0.109589
  10 H :    0.108438
  11 H :    0.103887
  12 C :   -0.040170
  13 H :    0.093905
  14 H :    0.097681
  15 O :   -0.324024
  16 C :    0.014194
  17 C :    0.033927
  18 C :   -0.243185
  19 C :   -0.037328
  20 O :   -0.316012
  21 H :    0.115780
  22 O :   -0.415129
  23 H :    0.112402
  24 H :    0.127271
  25 H :    0.112500
  26 H :    0.106530
  27 H :    0.102231
  28 H :    0.284580

  Mayer bond orders larger than 0.100000
B(  0-C ,  1-C ) :   0.9304 B(  0-C ,  4-O ) :   0.9248 B(  0-C ,  5-H ) :   0.9284
B(  0-C , 15-O ) :   0.8580 B(  1-C ,  2-C ) :   0.9493 B(  1-C ,  6-H ) :   0.9330
B(  1-C ,  7-H ) :   0.9269 B(  2-C ,  3-C ) :   0.9510 B(  2-C ,  8-H ) :   0.9457
B(  2-C ,  9-H ) :   0.9426 B(  3-C ,  4-O ) :   0.8428 B(  3-C , 10-H ) :   0.9335
B(  3-C , 11-H ) :   0.9393 B( 12-C , 13-H ) :   0.8987 B( 12-C , 14-H ) :   0.9235
B( 12-C , 15-O ) :   0.8521 B( 12-C , 16-C ) :   0.8915 B( 16-C , 17-C ) :   0.8953
B( 16-C , 20-O ) :   0.8694 B( 16-C , 21-H ) :   0.9232 B( 17-C , 18-C ) :   0.9114
B( 17-C , 22-O ) :   0.8935 B( 17-C , 23-H ) :   0.9335 B( 18-C , 19-C ) :   0.9404
B( 18-C , 24-H ) :   0.9368 B( 18-C , 25-H ) :   0.9332 B( 19-C , 20-O ) :   0.8516
B( 19-C , 26-H ) :   0.9338 B( 19-C , 27-H ) :   0.9376 B( 22-O , 28-H ) :   0.7929

FINAL SINGLE POINT ENERGY      -652.848917840087

DIPOLE MOMENT
-------------
                                X             Y             Z
Electronic contribution:     -2.09877      -3.43155       2.46935
Nuclear contribution   :      2.59562       4.34483      -3.49871
                        -----------------------------------------
Total Dipole Moment    :      0.49686       0.91328      -1.02936
                        -----------------------------------------
Magnitude (a.u.)       :      1.46305
Magnitude (Debye)      :      3.71879

Rotational constants in cm-1:     0.054689     0.013091     0.012328
Rotational constants in MHz :  1639.532290   392.462064   369.576648

                             ****ORCA TERMINATED NORMALLY****
TOTAL RUN TIME: 0 days 0 hours 17 minutes 49 seconds 342 msec
