                         Program Version 4.2.0 -  RELEASE  -
|  1> # Test redundant internal optimization
|  2> #
|  3> ! RKS B3LYP  Opt TightSCF SmallPrint
|  4>
|  5> %basis
|  6>         Basis "6-31G"
|  7> end
|  8>
|  9> %geom
| 10> Constraints
| 11> { D 4  0  15  12  240.0   C } # D for Dihedral angle
| 12> { D 0  15  12  16  315.0   C } # D for Dihedral angle
| 13> { D 0  4  3  2   C } # D for Dihedral angle
| 14> { D 4  3  2  1   C } # D for Dihedral angle
| 15> { D 3  2  1  0   C } # D for Dihedral angle
| 16> { D 2  1  0  4   C } # D for Dihedral angle
| 17> { D 1  0  4  3   C } # D for Dihedral angle
| 18> { D 16  20  19  18   C } # D for Dihedral angle
| 19> { D 20  19  18  17   C } # D for Dihedral angle
| 20> { D 19  18  17  16   C } # D for Dihedral angle
| 21> { D 18  17  16  20   C } # D for Dihedral angle
| 22> { D 17  16  20  19   C } # D for Dihedral angle
| 23> { D 15  12  16  20   C } # D for Dihedral angle
| 24> end
| 25> end
| 26>
| 27>
| 28> #%pal
| 29> #nprocs 8
| 30> #end
| 31>
| 32> * xyz 0 1
| 33> C  -21.048   26.222   46.251
| 34> C  -20.361   27.558   45.944
| 35> C  -20.329   28.222   47.341
| 36> C  -20.110   27.022   48.296
| 37> O  -20.473   25.807   47.535
| 38> H  -20.833   25.428   45.533
| 39> H  -19.344   27.382   45.576
| 40> H  -20.898   28.157   45.201
| 41> H  -19.543   28.978   47.434
| 42> H  -21.289   28.710   47.548
| 43> H  -20.733   27.082   49.195
| 44> H  -19.064   26.913   48.597
| 45> C  -23.430   25.483   45.442
| 46> H  -23.431   24.460   45.839
| 47> H  -24.469   25.834   45.399
| 48> O  -22.586   26.394   46.375
| 49> C  -22.884   25.442   43.988
| 50> C  -22.769   26.852   43.396
| 51> C  -21.454   27.355   44.040
| 52> C  -20.584   26.075   44.111
| 53> O  -21.510   24.929   43.971
| 54> H  -23.490   24.752   43.398
| 55> H  -22.668   26.795   42.307
| 56> O  -23.987   27.755   43.730
| 57> H  -20.977   28.152   43.462
| 58> H  -21.652   27.743   45.046
| 59> H  -20.044   25.987   45.059
| 60> H  -19.867   26.011   43.288
| 61> H  -24.106   27.826   44.817
| 62> *
| 63>
| 64>                          ****END OF INPUT****
 Total Charge           Charge          ....    0
 Multiplicity           Mult            ....    1
 Number of Electrons    NEL             ....  102
FINAL SINGLE POINT ENERGY      -652.509559740684
FINAL SINGLE POINT ENERGY      -652.798943798051
FINAL SINGLE POINT ENERGY      -652.831052505950
FINAL SINGLE POINT ENERGY      -652.842840230010
FINAL SINGLE POINT ENERGY      -652.845418257169
FINAL SINGLE POINT ENERGY      -652.846343079126
FINAL SINGLE POINT ENERGY      -652.846785735309
FINAL SINGLE POINT ENERGY      -652.847177634602
FINAL SINGLE POINT ENERGY      -652.847354453062
FINAL SINGLE POINT ENERGY      -652.847413418594
FINAL SINGLE POINT ENERGY      -652.847428075862
FINAL SINGLE POINT ENERGY      -652.847431036095
                    ***********************HURRAY********************

CARTESIAN COORDINATES (ANGSTROEM)
---------------------------------
  C    -20.860427   26.295280   46.571320
  C    -20.250030   27.696284   46.482064
  C    -20.453942   28.232692   47.925440
  C    -20.264837   26.959679   48.781964
  O    -20.431311   25.816416   47.860396
  H    -20.534230   25.559695   45.837159
  H    -19.181993   27.615328   46.246164
  H    -20.727715   28.333607   45.738984
  H    -19.744202   29.023223   48.184641
  H    -21.470424   28.622795   48.031162
  H    -21.000035   26.873436   49.586559
  H    -19.258115   26.881824   49.204757
  C    -23.135104   25.655811   45.626098
  H    -23.211938   24.631279   46.016102
  H    -24.124996   26.115810   45.707070
  O    -22.312451   26.411462   46.568786
  C    -22.845114   25.502998   44.120306
  C    -22.979629   26.719285   43.187538
  C    -21.512618   27.243073   43.135683
  C    -20.679279   25.944301   43.196802
  O    -21.587772   24.882270   43.717943
  H    -23.613773   24.770328   43.833734
  H    -23.312177   26.391687   42.201283
  O    -23.958389   27.696531   43.605612
  H    -21.311950   27.830767   42.235518
  H    -21.334862   27.881045   44.004379
  H    -19.804427   26.022732   43.849656
  H    -20.350269   25.612959   42.208470
  H    -23.680994   28.103405   44.453408

 Multiplicity           Mult            ....    1
 Number of Electrons    NEL             ....  102
 Basis Dimension        Dim             ....  149

ORBITAL ENERGIES
----------------

  NO   OCC          E(Eh)            E(eV)
   0   2.0000     -19.151784      -521.1465
   1   2.0000     -19.150643      -521.1155
   2   2.0000     -19.141397      -520.8639
   3   2.0000     -19.136413      -520.7283
   4   2.0000     -10.277927      -279.6766
   5   2.0000     -10.247877      -278.8589
   6   2.0000     -10.240602      -278.6609
   7   2.0000     -10.238500      -278.6037
   8   2.0000     -10.234126      -278.4847
   9   2.0000     -10.223231      -278.1883
  10   2.0000     -10.196572      -277.4628
  11   2.0000     -10.189404      -277.2678
  12   2.0000     -10.187123      -277.2057
  13   2.0000      -1.050293       -28.5799
  14   2.0000      -1.038207       -28.2510
  15   2.0000      -1.021878       -27.8067
  16   2.0000      -0.990602       -26.9556
  17   2.0000      -0.789024       -21.4704
  18   2.0000      -0.785283       -21.3686
  19   2.0000      -0.773575       -21.0500
  20   2.0000      -0.734235       -19.9796
  21   2.0000      -0.686526       -18.6813
  22   2.0000      -0.617001       -16.7895
  23   2.0000      -0.605938       -16.4884
  24   2.0000      -0.599480       -16.3127
  25   2.0000      -0.569462       -15.4958
  26   2.0000      -0.532126       -14.4799
  27   2.0000      -0.510581       -13.8936
  28   2.0000      -0.510146       -13.8818
  29   2.0000      -0.483506       -13.1569
  30   2.0000      -0.465014       -12.6537
  31   2.0000      -0.463008       -12.5991
  32   2.0000      -0.451055       -12.2738
  33   2.0000      -0.441080       -12.0024
  34   2.0000      -0.430715       -11.7204
  35   2.0000      -0.417836       -11.3699
  36   2.0000      -0.412152       -11.2152
  37   2.0000      -0.399297       -10.8654
  38   2.0000      -0.383622       -10.4389
  39   2.0000      -0.375522       -10.2185
  40   2.0000      -0.367091        -9.9891
  41   2.0000      -0.352047        -9.5797
  42   2.0000      -0.348883        -9.4936
  43   2.0000      -0.340644        -9.2694
  44   2.0000      -0.319010        -8.6807
  45   2.0000      -0.313987        -8.5440
  46   2.0000      -0.310839        -8.4584
  47   2.0000      -0.271729        -7.3941
  48   2.0000      -0.268616        -7.3094
  49   2.0000      -0.250871        -6.8265
  50   2.0000      -0.242954        -6.6111
  51   0.0000       0.053146         1.4462
  52   0.0000       0.067845         1.8462
  53   0.0000       0.075799         2.0626
  54   0.0000       0.091223         2.4823
  55   0.0000       0.099825         2.7164

MULLIKEN ATOMIC CHARGES
-----------------------
   0 C :    0.269393
   1 C :   -0.268310
   2 C :   -0.303523
   3 C :    0.001543
   4 O :   -0.502596
   5 H :    0.179350
   6 H :    0.144322
   7 H :    0.145969
   8 H :    0.141093
   9 H :    0.161060
  10 H :    0.152171
  11 H :    0.139806
  12 C :   -0.033186
  13 H :    0.156931
  14 H :    0.156238
  15 O :   -0.532878
  16 C :    0.077177
  17 C :    0.093045
  18 C :   -0.321442
  19 C :   -0.023545
  20 O :   -0.518575
  21 H :    0.158513
  22 H :    0.168012
  23 O :   -0.601236
  24 H :    0.157495
  25 H :    0.143531
  26 H :    0.140768
  27 H :    0.154420
  28 H :    0.364454
Sum of atomic charges:    0.0000000

LOEWDIN ATOMIC CHARGES
----------------------
   0 C :    0.171537
   1 C :   -0.225191
   2 C :   -0.216956
   3 C :   -0.026688
   4 O :   -0.311688
   5 H :    0.116265
   6 H :    0.112733
   7 H :    0.110094
   8 H :    0.113662
   9 H :    0.118287
  10 H :    0.107674
  11 H :    0.101057
  12 C :   -0.051675
  13 H :    0.109286
  14 H :    0.120508
  15 O :   -0.344395
  16 C :   -0.000683
  17 C :    0.036175
  18 C :   -0.243028
  19 C :   -0.032061
  20 O :   -0.323461
  21 H :    0.121171
  22 H :    0.119341
  23 O :   -0.405781
  24 H :    0.122982
  25 H :    0.109618
  26 H :    0.098949
  27 H :    0.108942
  28 H :    0.283327

  Mayer bond orders larger than 0.100000
B(  0-C ,  1-C ) :   0.9368 B(  0-C ,  4-O ) :   0.9192 B(  0-C ,  5-H ) :   0.9031
B(  0-C , 15-O ) :   0.8275 B(  1-C ,  2-C ) :   0.9501 B(  1-C ,  6-H ) :   0.9367
B(  1-C ,  7-H ) :   0.9218 B(  2-C ,  3-C ) :   0.9538 B(  2-C ,  8-H ) :   0.9450
B(  2-C ,  9-H ) :   0.9437 B(  3-C ,  4-O ) :   0.8395 B(  3-C , 10-H ) :   0.9348
B(  3-C , 11-H ) :   0.9396 B( 12-C , 13-H ) :   0.9215 B( 12-C , 14-H ) :   0.9189
B( 12-C , 15-O ) :   0.8678 B( 12-C , 16-C ) :   0.9036 B( 16-C , 17-C ) :   0.8769
B( 16-C , 20-O ) :   0.8581 B( 16-C , 21-H ) :   0.9149 B( 17-C , 18-C ) :   0.9242
B( 17-C , 22-H ) :   0.9346 B( 17-C , 23-O ) :   0.9071 B( 18-C , 19-C ) :   0.9428
B( 18-C , 24-H ) :   0.9420 B( 18-C , 25-H ) :   0.9217 B( 19-C , 20-O ) :   0.8365
B( 19-C , 26-H ) :   0.9239 B( 19-C , 27-H ) :   0.9396 B( 23-O , 28-H ) :   0.7926

FINAL SINGLE POINT ENERGY      -652.847431143322

DIPOLE MOMENT
-------------
                                X             Y             Z
Electronic contribution:     -2.93577      -4.18769      -0.49837
Nuclear contribution   :      3.54750       5.20489       0.20098
                        -----------------------------------------
Total Dipole Moment    :      0.61174       1.01721      -0.29739
                        -----------------------------------------
Magnitude (a.u.)       :      1.22367
Magnitude (Debye)      :      3.11032

Rotational constants in cm-1:     0.046324     0.016050     0.015734
Rotational constants in MHz :  1388.771185   481.161980   471.681281

                             ****ORCA TERMINATED NORMALLY****
TOTAL RUN TIME: 0 days 1 hours 10 minutes 29 seconds 491 msec
