                         Program Version 4.2.0 -  RELEASE  -
|  1> # Test redundant internal optimization
|  2> #
|  3> ! RKS B3LYP  Opt TightSCF SmallPrint
|  4>
|  5> %basis
|  6>         Basis "6-31G"
|  7> end
|  8>
|  9> %geom
| 10> Constraints
| 11> { D 4  0  15  12  195.0   C } # D for Dihedral angle
| 12> { D 0  15  12  16  195.0   C } # D for Dihedral angle
| 13> { D 0  4  3  2   C } # D for Dihedral angle
| 14> { D 4  3  2  1   C } # D for Dihedral angle
| 15> { D 3  2  1  0   C } # D for Dihedral angle
| 16> { D 2  1  0  4   C } # D for Dihedral angle
| 17> { D 1  0  4  3   C } # D for Dihedral angle
| 18> { D 16  20  19  18   C } # D for Dihedral angle
| 19> { D 20  19  18  17   C } # D for Dihedral angle
| 20> { D 19  18  17  16   C } # D for Dihedral angle
| 21> { D 18  17  16  20   C } # D for Dihedral angle
| 22> { D 17  16  20  19   C } # D for Dihedral angle
| 23> { D 15  12  16  20   C } # D for Dihedral angle
| 24> end
| 25> end
| 26>
| 27>
| 28> #%pal
| 29> #nprocs 8
| 30> #end
| 31>
| 32> * xyz 0 1
| 33> C  -21.048   26.222   46.251
| 34> C  -20.361   27.558   45.944
| 35> C  -20.329   28.222   47.341
| 36> C  -20.110   27.022   48.296
| 37> O  -20.473   25.807   47.535
| 38> H  -20.833   25.428   45.533
| 39> H  -19.344   27.382   45.576
| 40> H  -20.898   28.157   45.201
| 41> H  -19.543   28.978   47.434
| 42> H  -21.289   28.710   47.548
| 43> H  -20.733   27.082   49.195
| 44> H  -19.064   26.913   48.597
| 45> C  -23.353   26.472   45.026
| 46> H  -22.814   27.139   44.342
| 47> H  -23.414   25.480   44.561
| 48> O  -22.586   26.394   46.375
| 49> C  -24.802   27.008   45.190
| 50> C  -25.592   26.175   46.206
| 51> C  -25.068   26.739   47.548
| 52> C  -24.842   28.239   47.235
| 53> O  -24.788   28.358   45.761
| 54> H  -25.269   27.082   44.206
| 55> H  -26.665   26.369   46.098
| 56> O  -25.353   24.647   46.061
| 57> H  -25.769   26.587   48.376
| 58> H  -24.122   26.254   47.817
| 59> H  -23.908   28.621   47.660
| 60> H  -25.670   28.867   47.578
| 61> H  -24.285   24.430   46.166
| 62> *
| 63>
| 64>                          ****END OF INPUT****
 Total Charge           Charge          ....    0
 Multiplicity           Mult            ....    1
 Number of Electrons    NEL             ....  102
FINAL SINGLE POINT ENERGY      -652.834037009344
FINAL SINGLE POINT ENERGY      -652.857443649882
FINAL SINGLE POINT ENERGY      -652.861965860197
FINAL SINGLE POINT ENERGY      -652.863309115072
FINAL SINGLE POINT ENERGY      -652.863448215487
FINAL SINGLE POINT ENERGY      -652.863467677486
                    ***********************HURRAY********************

CARTESIAN COORDINATES (ANGSTROEM)
---------------------------------
  C    -21.060296   26.232075   46.164476
  C    -20.358624   27.560542   45.892760
  C    -20.386312   28.228456   47.288025
  C    -20.215662   27.032813   48.247110
  O    -20.556787   25.825747   47.443982
  H    -20.842638   25.428982   45.452021
  H    -19.329862   27.364013   45.568968
  H    -20.851926   28.164147   45.126429
  H    -19.597875   28.977084   47.409777
  H    -21.353179   28.716911   47.440230
  H    -20.879651   27.072616   49.113929
  H    -19.184133   26.899296   48.584953
  C    -23.233068   26.474538   45.027794
  H    -22.720531   27.154560   44.333806
  H    -23.292657   25.480819   44.560031
  O    -22.504375   26.398063   46.287142
  C    -24.642047   27.009598   45.261399
  C    -25.513165   26.167229   46.210142
  C    -25.092779   26.718781   47.607201
  C    -24.843620   28.214074   47.318575
  O    -24.673920   28.342547   45.846735
  H    -25.111046   27.097843   44.273865
  H    -26.570140   26.353903   46.008894
  O    -25.345162   24.737088   46.057453
  H    -25.869283   26.558300   48.361232
  H    -24.171450   26.223018   47.920351
  H    -23.943264   28.593019   47.810270
  H    -25.695858   28.844228   47.592204
  H    -24.485692   24.471714   46.447246

 Multiplicity           Mult            ....    1
 Number of Electrons    NEL             ....  102
 Basis Dimension        Dim             ....  149

ORBITAL ENERGIES
----------------

  NO   OCC          E(Eh)            E(eV)
   0   2.0000     -19.150236      -521.1044
   1   2.0000     -19.146994      -521.0162
   2   2.0000     -19.137075      -520.7463
   3   2.0000     -19.134363      -520.6725
   4   2.0000     -10.286157      -279.9006
   5   2.0000     -10.234839      -278.5041
   6   2.0000     -10.233891      -278.4783
   7   2.0000     -10.231306      -278.4080
   8   2.0000     -10.230250      -278.3793
   9   2.0000     -10.221920      -278.1526
  10   2.0000     -10.190916      -277.3089
  11   2.0000     -10.190186      -277.2891
  12   2.0000     -10.176798      -276.9247
  13   2.0000      -1.060563       -28.8594
  14   2.0000      -1.026386       -27.9294
  15   2.0000      -1.008264       -27.4363
  16   2.0000      -0.999175       -27.1889
  17   2.0000      -0.791078       -21.5263
  18   2.0000      -0.772961       -21.0333
  19   2.0000      -0.764974       -20.8160
  20   2.0000      -0.734828       -19.9957
  21   2.0000      -0.678845       -18.4723
  22   2.0000      -0.605354       -16.4725
  23   2.0000      -0.601122       -16.3574
  24   2.0000      -0.595693       -16.2096
  25   2.0000      -0.571028       -15.5385
  26   2.0000      -0.530644       -14.4396
  27   2.0000      -0.506365       -13.7789
  28   2.0000      -0.499299       -13.5866
  29   2.0000      -0.488837       -13.3019
  30   2.0000      -0.475242       -12.9320
  31   2.0000      -0.458874       -12.4866
  32   2.0000      -0.448379       -12.2010
  33   2.0000      -0.432250       -11.7621
  34   2.0000      -0.422862       -11.5067
  35   2.0000      -0.411213       -11.1897
  36   2.0000      -0.401895       -10.9361
  37   2.0000      -0.401055       -10.9133
  38   2.0000      -0.378518       -10.3000
  39   2.0000      -0.373017       -10.1503
  40   2.0000      -0.360077        -9.7982
  41   2.0000      -0.355974        -9.6865
  42   2.0000      -0.351967        -9.5775
  43   2.0000      -0.325305        -8.8520
  44   2.0000      -0.317816        -8.6482
  45   2.0000      -0.311238        -8.4692
  46   2.0000      -0.304980        -8.2989
  47   2.0000      -0.267174        -7.2702
  48   2.0000      -0.264250        -7.1906
  49   2.0000      -0.257732        -7.0132
  50   2.0000      -0.239825        -6.5260
  51   0.0000       0.064143         1.7454
  52   0.0000       0.077272         2.1027
  53   0.0000       0.093303         2.5389
  54   0.0000       0.095888         2.6092
  55   0.0000       0.102529         2.7900

MULLIKEN ATOMIC CHARGES
-----------------------
   0 C :    0.302536
   1 C :   -0.271369
   2 C :   -0.306058
   3 C :   -0.003525
   4 O :   -0.506634
   5 H :    0.141587
   6 H :    0.147288
   7 H :    0.155141
   8 H :    0.145054
   9 H :    0.169947
  10 H :    0.150876
  11 H :    0.145042
  12 C :   -0.026521
  13 H :    0.141258
  14 H :    0.140145
  15 O :   -0.527347
  16 C :    0.088681
  17 C :    0.090124
  18 C :   -0.319826
  19 C :   -0.006681
  20 O :   -0.522142
  21 H :    0.148601
  22 H :    0.160232
  23 O :   -0.609672
  24 H :    0.144176
  25 H :    0.177673
  26 H :    0.141884
  27 H :    0.141775
  28 H :    0.367755
Sum of atomic charges:   -0.0000000

LOEWDIN ATOMIC CHARGES
----------------------
   0 C :    0.179685
   1 C :   -0.228340
   2 C :   -0.216825
   3 C :   -0.025424
   4 O :   -0.306582
   5 H :    0.097373
   6 H :    0.115475
   7 H :    0.119952
   8 H :    0.116169
   9 H :    0.120032
  10 H :    0.107615
  11 H :    0.104237
  12 C :   -0.051527
  13 H :    0.100372
  14 H :    0.100493
  15 O :   -0.341360
  16 C :    0.019455
  17 C :    0.038586
  18 C :   -0.245139
  19 C :   -0.024822
  20 O :   -0.324464
  21 H :    0.114122
  22 H :    0.115371
  23 O :   -0.412850
  24 H :    0.114919
  25 H :    0.127665
  26 H :    0.100442
  27 H :    0.100642
  28 H :    0.284726

  Mayer bond orders larger than 0.100000
B(  0-C ,  1-C ) :   0.9325 B(  0-C ,  4-O ) :   0.9390 B(  0-C ,  5-H ) :   0.9204
B(  0-C , 15-O ) :   0.8213 B(  1-C ,  2-C ) :   0.9516 B(  1-C ,  6-H ) :   0.9336
B(  1-C ,  7-H ) :   0.9309 B(  2-C ,  3-C ) :   0.9561 B(  2-C ,  8-H ) :   0.9444
B(  2-C ,  9-H ) :   0.9388 B(  3-C ,  4-O ) :   0.8328 B(  3-C , 10-H ) :   0.9350
B(  3-C , 11-H ) :   0.9395 B( 12-C , 13-H ) :   0.9151 B( 12-C , 14-H ) :   0.9024
B( 12-C , 15-O ) :   0.8314 B( 12-C , 16-C ) :   0.9137 B( 16-C , 17-C ) :   0.8873
B( 16-C , 20-O ) :   0.8823 B( 16-C , 21-H ) :   0.9283 B( 17-C , 18-C ) :   0.9342
B( 17-C , 22-H ) :   0.9365 B( 17-C , 23-O ) :   0.9035 B( 18-C , 19-C ) :   0.9453
B( 18-C , 24-H ) :   0.9408 B( 18-C , 25-H ) :   0.9233 B( 19-C , 20-O ) :   0.8380
B( 19-C , 26-H ) :   0.9291 B( 19-C , 27-H ) :   0.9374 B( 23-O , 28-H ) :   0.7901

FINAL SINGLE POINT ENERGY      -652.863467870819

DIPOLE MOMENT
-------------
                                X             Y             Z
Electronic contribution:     -2.44614      -3.36591      -1.60014
Nuclear contribution   :      3.29311       4.00149       1.68267
                        -----------------------------------------
Total Dipole Moment    :      0.84696       0.63558       0.08252
                        -----------------------------------------
Magnitude (a.u.)       :      1.06213
Magnitude (Debye)      :      2.69972

Rotational constants in cm-1:     0.045193     0.016587     0.015643
Rotational constants in MHz :  1354.862536   497.262390   468.956273

                             ****ORCA TERMINATED NORMALLY****
TOTAL RUN TIME: 0 days 0 hours 19 minutes 25 seconds 178 msec
