                         Program Version 4.2.0 -  RELEASE  -
|  1> # Test redundant internal optimization
|  2> #
|  3> ! RKS B3LYP  Opt TightSCF SmallPrint
|  4>
|  5> %basis
|  6>         Basis "6-31G"
|  7> end
|  8>
|  9> %geom
| 10> Constraints
| 11> { D 4  0  15  12  270.0   C } # D for Dihedral angle
| 12> { D 0  15  12  16  150.0   C } # D for Dihedral angle
| 13> { D 0  4  3  2   C } # D for Dihedral angle
| 14> { D 4  3  2  1   C } # D for Dihedral angle
| 15> { D 3  2  1  0   C } # D for Dihedral angle
| 16> { D 2  1  0  4   C } # D for Dihedral angle
| 17> { D 1  0  4  3   C } # D for Dihedral angle
| 18> { D 16  20  19  18   C } # D for Dihedral angle
| 19> { D 20  19  18  17   C } # D for Dihedral angle
| 20> { D 19  18  17  16   C } # D for Dihedral angle
| 21> { D 18  17  16  20   C } # D for Dihedral angle
| 22> { D 17  16  20  19   C } # D for Dihedral angle
| 23> { D 15  12  16  20   C } # D for Dihedral angle
| 24> end
| 25> end
| 26>
| 27>
| 28> #%pal
| 29> #nprocs 8
| 30> #end
| 31>
| 32> * xyz 0 1
| 33> C  -21.048   26.222   46.251
| 34> C  -20.361   27.558   45.944
| 35> C  -20.329   28.222   47.341
| 36> C  -20.110   27.022   48.296
| 37> O  -20.473   25.807   47.535
| 38> H  -20.833   25.428   45.533
| 39> H  -19.344   27.382   45.576
| 40> H  -20.898   28.157   45.201
| 41> H  -19.543   28.978   47.434
| 42> H  -21.289   28.710   47.548
| 43> H  -20.733   27.082   49.195
| 44> H  -19.064   26.913   48.597
| 45> C  -23.420   25.119   46.072
| 46> H  -23.657   25.087   45.002
| 47> H  -22.847   24.217   46.324
| 48> O  -22.586   26.394   46.375
| 49> C  -24.753   25.070   46.869
| 50> C  -25.493   23.748   46.635
| 51> C  -24.720   22.786   47.569
| 52> C  -24.352   23.687   48.774
| 53> O  -24.488   25.084   48.312
| 54> H  -25.339   25.962   46.642
| 55> H  -26.537   23.839   46.953
| 56> O  -25.472   23.292   45.151
| 57> H  -25.312   21.914   47.865
| 58> H  -23.815   22.422   47.068
| 59> H  -23.326   23.523   49.123
| 60> H  -25.037   23.557   49.617
| 61> H  -24.436   23.192   44.809
| 62> *
| 63>
| 64>                          ****END OF INPUT****
 Total Charge           Charge          ....    0
 Multiplicity           Mult            ....    1
 Number of Electrons    NEL             ....  102
FINAL SINGLE POINT ENERGY      -652.828998495300
FINAL SINGLE POINT ENERGY      -652.853560198102
FINAL SINGLE POINT ENERGY      -652.858295090340
FINAL SINGLE POINT ENERGY      -652.859137967434
FINAL SINGLE POINT ENERGY      -652.859285400197
FINAL SINGLE POINT ENERGY      -652.859316771960
FINAL SINGLE POINT ENERGY      -652.859323373495
FINAL SINGLE POINT ENERGY      -652.859324683750
                    ***********************HURRAY********************

CARTESIAN COORDINATES (ANGSTROEM)
---------------------------------
  C    -21.025544   26.162777   46.192865
  C    -20.485253   27.576297   45.975552
  C    -20.539444   28.160629   47.406605
  C    -20.203174   26.940702   48.292885
  O    -20.431139   25.745404   47.443100
  H    -20.741329   25.417445   45.444053
  H    -19.451661   27.519210   45.614397
  H    -21.084564   28.137889   45.256294
  H    -19.836909   28.987040   47.550520
  H    -21.550588   28.519768   47.617269
  H    -20.841775   26.867313   49.176097
  H    -19.152379   26.911894   48.597430
  C    -23.225606   25.078512   45.988436
  H    -23.480905   25.065684   44.919629
  H    -22.630320   24.186010   46.227881
  O    -22.460553   26.272838   46.298438
  C    -24.507170   25.107559   46.820169
  C    -25.400458   23.870347   46.629533
  C    -24.739978   22.845818   47.600348
  C    -24.268689   23.738989   48.768397
  O    -24.241784   25.132475   48.253969
  H    -25.036413   26.038748   46.598536
  H    -26.416251   24.103546   46.955403
  O    -25.552466   23.412137   45.263269
  H    -25.438829   22.065544   47.913556
  H    -23.891990   22.358576   47.100815
  H    -23.270590   23.476069   49.130832
  H    -24.967355   23.722910   49.610494
  H    -24.741882   22.951871   44.964228

 Multiplicity           Mult            ....    1
 Number of Electrons    NEL             ....  102
 Basis Dimension        Dim             ....  149

ORBITAL ENERGIES
----------------

  NO   OCC          E(Eh)            E(eV)
   0   2.0000     -19.149301      -521.0790
   1   2.0000     -19.137938      -520.7698
   2   2.0000     -19.133626      -520.6524
   3   2.0000     -19.131700      -520.6000
   4   2.0000     -10.274527      -279.5841
   5   2.0000     -10.243898      -278.7506
   6   2.0000     -10.229034      -278.3462
   7   2.0000     -10.228333      -278.3271
   8   2.0000     -10.226805      -278.2855
   9   2.0000     -10.217044      -278.0199
  10   2.0000     -10.194127      -277.3963
  11   2.0000     -10.179435      -276.9965
  12   2.0000     -10.177740      -276.9504
  13   2.0000      -1.048725       -28.5373
  14   2.0000      -1.031840       -28.0778
  15   2.0000      -1.013051       -27.5665
  16   2.0000      -0.988397       -26.8957
  17   2.0000      -0.784291       -21.3416
  18   2.0000      -0.779146       -21.2017
  19   2.0000      -0.763577       -20.7780
  20   2.0000      -0.725075       -19.7303
  21   2.0000      -0.676894       -18.4192
  22   2.0000      -0.609553       -16.5868
  23   2.0000      -0.591530       -16.0963
  24   2.0000      -0.585265       -15.9259
  25   2.0000      -0.578381       -15.7386
  26   2.0000      -0.528536       -14.3822
  27   2.0000      -0.509509       -13.8644
  28   2.0000      -0.492895       -13.4124
  29   2.0000      -0.482721       -13.1355
  30   2.0000      -0.468518       -12.7490
  31   2.0000      -0.455454       -12.3935
  32   2.0000      -0.442233       -12.0338
  33   2.0000      -0.431289       -11.7360
  34   2.0000      -0.423125       -11.5138
  35   2.0000      -0.416882       -11.3439
  36   2.0000      -0.399206       -10.8629
  37   2.0000      -0.395592       -10.7646
  38   2.0000      -0.377374       -10.2689
  39   2.0000      -0.370326       -10.0771
  40   2.0000      -0.350406        -9.5350
  41   2.0000      -0.347281        -9.4500
  42   2.0000      -0.341103        -9.2819
  43   2.0000      -0.328562        -8.9406
  44   2.0000      -0.319093        -8.6830
  45   2.0000      -0.312931        -8.5153
  46   2.0000      -0.297069        -8.0837
  47   2.0000      -0.270517        -7.3611
  48   2.0000      -0.262381        -7.1397
  49   2.0000      -0.243183        -6.6174
  50   2.0000      -0.237780        -6.4703
  51   0.0000       0.051289         1.3957
  52   0.0000       0.079806         2.1716
  53   0.0000       0.090680         2.4675
  54   0.0000       0.100116         2.7243
  55   0.0000       0.107623         2.9286

MULLIKEN ATOMIC CHARGES
-----------------------
   0 C :    0.281920
   1 C :   -0.256044
   2 C :   -0.298652
   3 C :    0.000445
   4 O :   -0.510149
   5 H :    0.134249
   6 H :    0.140361
   7 H :    0.152051
   8 H :    0.136758
   9 H :    0.169445
  10 H :    0.156860
  11 H :    0.136302
  12 C :   -0.009004
  13 H :    0.132727
  14 H :    0.129711
  15 O :   -0.511091
  16 C :    0.097386
  17 C :    0.079240
  18 C :   -0.324005
  19 C :   -0.011217
  20 O :   -0.504705
  21 H :    0.163049
  22 H :    0.169310
  23 O :   -0.600509
  24 H :    0.157521
  25 H :    0.132755
  26 H :    0.151812
  27 H :    0.148278
  28 H :    0.355193
Sum of atomic charges:    0.0000000

LOEWDIN ATOMIC CHARGES
----------------------
   0 C :    0.173041
   1 C :   -0.216274
   2 C :   -0.215458
   3 C :   -0.026077
   4 O :   -0.328495
   5 H :    0.094521
   6 H :    0.111223
   7 H :    0.121598
   8 H :    0.111432
   9 H :    0.122783
  10 H :    0.110647
  11 H :    0.099509
  12 C :   -0.050038
  13 H :    0.098036
  14 H :    0.094914
  15 O :   -0.319500
  16 C :    0.021882
  17 C :    0.033958
  18 C :   -0.241559
  19 C :   -0.030207
  20 O :   -0.312663
  21 H :    0.119335
  22 H :    0.119981
  23 O :   -0.408279
  24 H :    0.122334
  25 H :    0.103697
  26 H :    0.107167
  27 H :    0.105267
  28 H :    0.277225

  Mayer bond orders larger than 0.100000
B(  0-C ,  1-C ) :   0.9493 B(  0-C ,  4-O ) :   0.9145 B(  0-C ,  5-H ) :   0.9206
B(  0-C , 15-O ) :   0.8639 B(  1-C ,  2-C ) :   0.9581 B(  1-C ,  6-H ) :   0.9405
B(  1-C ,  7-H ) :   0.9373 B(  2-C ,  3-C ) :   0.9559 B(  2-C ,  8-H ) :   0.9456
B(  2-C ,  9-H ) :   0.9424 B(  3-C ,  4-O ) :   0.8355 B(  3-C , 10-H ) :   0.9340
B(  3-C , 11-H ) :   0.9404 B( 12-C , 13-H ) :   0.9083 B( 12-C , 14-H ) :   0.9158
B( 12-C , 15-O ) :   0.8424 B( 12-C , 16-C ) :   0.9083 B( 16-C , 17-C ) :   0.8749
B( 16-C , 20-O ) :   0.8725 B( 16-C , 21-H ) :   0.9300 B( 17-C , 18-C ) :   0.9245
B( 17-C , 22-H ) :   0.9328 B( 17-C , 23-O ) :   0.8935 B( 18-C , 19-C ) :   0.9386
B( 18-C , 24-H ) :   0.9417 B( 18-C , 25-H ) :   0.9410 B( 19-C , 20-O ) :   0.8498
B( 19-C , 26-H ) :   0.9306 B( 19-C , 27-H ) :   0.9376 B( 23-O , 28-H ) :   0.7990

FINAL SINGLE POINT ENERGY      -652.859324853636

DIPOLE MOMENT
-------------
                                X             Y             Z
Electronic contribution:     -2.53442      -0.85592      -1.04579
Nuclear contribution   :      3.05087       0.40494       0.87048
                        -----------------------------------------
Total Dipole Moment    :      0.51645      -0.45099      -0.17531
                        -----------------------------------------
Magnitude (a.u.)       :      0.70770
Magnitude (Debye)      :      1.79883

Rotational constants in cm-1:     0.055093     0.013614     0.012222
Rotational constants in MHz :  1651.658197   408.144205   366.402816

                             ****ORCA TERMINATED NORMALLY****
TOTAL RUN TIME: 0 days 1 hours 40 minutes 40 seconds 823 msec
