                         Program Version 4.2.0 -  RELEASE  -
|  1> # Test redundant internal optimization
|  2> #
|  3> ! RKS B3LYP  Opt TightSCF SmallPrint
|  4>
|  5> %basis
|  6>         Basis "6-31G"
|  7> end
|  8>
|  9> %geom
| 10> Constraints
| 11> { D 4  0  15  12  60.0   C } # D for Dihedral angle
| 12> { D 0  15  12  16  270.0   C } # D for Dihedral angle
| 13> { D 0  4  3  2   C } # D for Dihedral angle
| 14> { D 4  3  2  1   C } # D for Dihedral angle
| 15> { D 3  2  1  0   C } # D for Dihedral angle
| 16> { D 2  1  0  4   C } # D for Dihedral angle
| 17> { D 1  0  4  3   C } # D for Dihedral angle
| 18> { D 16  20  19  18   C } # D for Dihedral angle
| 19> { D 20  19  18  17   C } # D for Dihedral angle
| 20> { D 19  18  17  16   C } # D for Dihedral angle
| 21> { D 18  17  16  20   C } # D for Dihedral angle
| 22> { D 17  16  20  19   C } # D for Dihedral angle
| 23> { D 15  12  16  20   C } # D for Dihedral angle
| 24> end
| 25> end
| 26>
| 27>
| 28> #%pal
| 29> #nprocs 8
| 30> #end
| 31>
| 32> * xyz 0 1
| 33> C  -21.048   26.222   46.251
| 34> C  -20.361   27.558   45.944
| 35> C  -20.329   28.222   47.341
| 36> C  -20.110   27.022   48.296
| 37> O  -20.473   25.807   47.535
| 38> H  -20.833   25.428   45.533
| 39> H  -19.344   27.382   45.576
| 40> H  -20.898   28.157   45.201
| 41> H  -19.543   28.978   47.434
| 42> H  -21.289   28.710   47.548
| 43> H  -20.733   27.082   49.195
| 44> H  -19.064   26.913   48.597
| 45> C  -23.051   27.452   47.413
| 46> H  -22.296   28.245   47.484
| 47> H  -23.999   27.907   47.100
| 48> O  -22.586   26.394   46.375
| 49> C  -23.262   26.850   48.830
| 50> C  -23.829   27.893   49.799
| 51> C  -25.327   27.900   49.411
| 52> C  -25.601   26.420   49.042
| 53> O  -24.283   25.798   48.794
| 54> H  -22.332   26.383   49.163
| 55> H  -23.700   27.556   50.834
| 56> O  -23.163   29.289   49.652
| 57> H  -25.974   28.255   50.219
| 58> H  -25.488   28.550   48.543
| 59> H  -26.220   26.319   48.144
| 60> H  -26.070   25.866   49.860
| 61> H  -23.281   29.647   48.624
| 62> *
| 63>
| 64>                          ****END OF INPUT****
 Total Charge           Charge          ....    0
 Multiplicity           Mult            ....    1
 Number of Electrons    NEL             ....  102
FINAL SINGLE POINT ENERGY      -652.783353098934
FINAL SINGLE POINT ENERGY      -652.822338486366
FINAL SINGLE POINT ENERGY      -652.843062957521
FINAL SINGLE POINT ENERGY      -652.847991323754
FINAL SINGLE POINT ENERGY      -652.848859200732
FINAL SINGLE POINT ENERGY      -652.849127186634
FINAL SINGLE POINT ENERGY      -652.849170384984
FINAL SINGLE POINT ENERGY      -652.849185532581
FINAL SINGLE POINT ENERGY      -652.849186390503
                    ***********************HURRAY********************

CARTESIAN COORDINATES (ANGSTROEM)
---------------------------------
  C    -21.137888   26.331514   46.400457
  C    -20.260084   27.480389   45.875680
  C    -19.869344   28.219873   47.192230
  C    -19.738902   27.052338   48.204045
  O    -20.456436   25.899977   47.604377
  H    -21.127221   25.466728   45.734728
  H    -19.373997   27.051666   45.396833
  H    -20.782786   28.113644   45.154256
  H    -18.927813   28.770060   47.093220
  H    -20.635052   28.938029   47.493826
  H    -20.178669   27.280356   49.179987
  H    -18.700677   26.739013   48.345420
  C    -23.113627   27.535544   47.449224
  H    -22.473122   28.414907   47.564988
  H    -24.046217   27.850449   46.968524
  O    -22.555749   26.556828   46.529044
  C    -23.397536   26.924648   48.826360
  C    -24.037118   27.909038   49.819085
  C    -25.541152   27.834049   49.420236
  C    -25.711481   26.352005   49.016682
  O    -24.350094   25.820332   48.762076
  H    -22.473098   26.487291   49.209666
  H    -23.892888   27.542389   50.838091
  O    -23.465570   29.243610   49.820944
  H    -26.204458   28.133126   50.236407
  H    -25.727020   28.504284   48.569596
  H    -26.321187   26.223628   48.116535
  H    -26.144472   25.751708   49.822769
  H    -23.843342   29.777578   49.092715

 Multiplicity           Mult            ....    1
 Number of Electrons    NEL             ....  102
 Basis Dimension        Dim             ....  149

ORBITAL ENERGIES
----------------

  NO   OCC          E(Eh)            E(eV)
   0   2.0000     -19.152278      -521.1600
   1   2.0000     -19.140375      -520.8361
   2   2.0000     -19.139010      -520.7989
   3   2.0000     -19.132551      -520.6232
   4   2.0000     -10.274335      -279.5789
   5   2.0000     -10.245062      -278.7823
   6   2.0000     -10.229105      -278.3481
   7   2.0000     -10.228265      -278.3252
   8   2.0000     -10.227314      -278.2994
   9   2.0000     -10.224649      -278.2269
  10   2.0000     -10.197070      -277.4764
  11   2.0000     -10.191767      -277.3321
  12   2.0000     -10.188596      -277.2458
  13   2.0000      -1.048060       -28.5191
  14   2.0000      -1.033450       -28.1216
  15   2.0000      -1.013414       -27.5764
  16   2.0000      -0.992090       -26.9961
  17   2.0000      -0.786246       -21.3948
  18   2.0000      -0.782660       -21.2973
  19   2.0000      -0.768804       -20.9202
  20   2.0000      -0.731093       -19.8940
  21   2.0000      -0.682425       -18.5697
  22   2.0000      -0.611642       -16.6436
  23   2.0000      -0.602836       -16.4040
  24   2.0000      -0.600160       -16.3312
  25   2.0000      -0.564397       -15.3580
  26   2.0000      -0.521179       -14.1820
  27   2.0000      -0.515205       -14.0194
  28   2.0000      -0.502776       -13.6812
  29   2.0000      -0.492822       -13.4104
  30   2.0000      -0.464271       -12.6334
  31   2.0000      -0.455724       -12.4009
  32   2.0000      -0.440123       -11.9764
  33   2.0000      -0.431795       -11.7497
  34   2.0000      -0.428082       -11.6487
  35   2.0000      -0.418369       -11.3844
  36   2.0000      -0.413745       -11.2586
  37   2.0000      -0.400539       -10.8992
  38   2.0000      -0.379830       -10.3357
  39   2.0000      -0.377389       -10.2693
  40   2.0000      -0.359047        -9.7702
  41   2.0000      -0.357686        -9.7331
  42   2.0000      -0.340676        -9.2703
  43   2.0000      -0.328738        -8.9454
  44   2.0000      -0.317080        -8.6282
  45   2.0000      -0.313743        -8.5374
  46   2.0000      -0.301137        -8.1944
  47   2.0000      -0.272123        -7.4048
  48   2.0000      -0.262780        -7.1506
  49   2.0000      -0.254124        -6.9151
  50   2.0000      -0.231461        -6.2984
  51   0.0000       0.047921         1.3040
  52   0.0000       0.075288         2.0487
  53   0.0000       0.082369         2.2414
  54   0.0000       0.089297         2.4299
  55   0.0000       0.097399         2.6504

MULLIKEN ATOMIC CHARGES
-----------------------
   0 C :    0.297002
   1 C :   -0.272760
   2 C :   -0.317523
   3 C :   -0.015938
   4 O :   -0.503024
   5 H :    0.168171
   6 H :    0.154813
   7 H :    0.148171
   8 H :    0.144573
   9 H :    0.155664
  10 H :    0.146903
  11 H :    0.149626
  12 C :   -0.034220
  13 H :    0.124039
  14 H :    0.141488
  15 O :   -0.504190
  16 C :    0.096875
  17 C :    0.081542
  18 C :   -0.330914
  19 C :   -0.011996
  20 O :   -0.501033
  21 H :    0.177218
  22 H :    0.167006
  23 O :   -0.605079
  24 H :    0.158230
  25 H :    0.131781
  26 H :    0.146897
  27 H :    0.151140
  28 H :    0.355540
Sum of atomic charges:   -0.0000000

LOEWDIN ATOMIC CHARGES
----------------------
   0 C :    0.174107
   1 C :   -0.228575
   2 C :   -0.224061
   3 C :   -0.035647
   4 O :   -0.321352
   5 H :    0.114368
   6 H :    0.121429
   7 H :    0.118528
   8 H :    0.115195
   9 H :    0.109207
  10 H :    0.102606
  11 H :    0.105888
  12 C :   -0.053614
  13 H :    0.095336
  14 H :    0.105950
  15 O :   -0.304838
  16 C :    0.012500
  17 C :    0.032577
  18 C :   -0.242427
  19 C :   -0.031062
  20 O :   -0.309563
  21 H :    0.124377
  22 H :    0.118873
  23 O :   -0.412598
  24 H :    0.122350
  25 H :    0.102620
  26 H :    0.104052
  27 H :    0.106533
  28 H :    0.277242

  Mayer bond orders larger than 0.100000
B(  0-C ,  1-C ) :   0.9141 B(  0-C ,  4-O ) :   0.8927 B(  0-C ,  5-H ) :   0.9366
B(  0-C , 15-O ) :   0.9099 B(  1-C ,  2-C ) :   0.9555 B(  1-C ,  6-H ) :   0.9352
B(  1-C ,  7-H ) :   0.9381 B(  2-C ,  3-C ) :   0.9467 B(  2-C ,  8-H ) :   0.9445
B(  2-C ,  9-H ) :   0.9358 B(  3-C ,  4-O ) :   0.8455 B(  3-C , 10-H ) :   0.9288
B(  3-C , 11-H ) :   0.9397 B( 12-C , 13-H ) :   0.8915 B( 12-C , 14-H ) :   0.9415
B( 12-C , 15-O ) :   0.8619 B( 12-C , 16-C ) :   0.8856 B( 16-C , 17-C ) :   0.8683
B( 16-C , 20-O ) :   0.8671 B( 16-C , 21-H ) :   0.9213 B( 17-C , 18-C ) :   0.9270
B( 17-C , 22-H ) :   0.9326 B( 17-C , 23-O ) :   0.8871 B( 18-C , 19-C ) :   0.9389
B( 18-C , 24-H ) :   0.9414 B( 18-C , 25-H ) :   0.9408 B( 19-C , 20-O ) :   0.8543
B( 19-C , 26-H ) :   0.9307 B( 19-C , 27-H ) :   0.9368 B( 23-O , 28-H ) :   0.7999

FINAL SINGLE POINT ENERGY      -652.849185257644

DIPOLE MOMENT
-------------
                                X             Y             Z
Electronic contribution:     -0.83521      -4.28258       0.18380
Nuclear contribution   :      0.61297       5.82432      -0.40227
                        -----------------------------------------
Total Dipole Moment    :     -0.22224       1.54174      -0.21847
                        -----------------------------------------
Magnitude (a.u.)       :      1.57292
Magnitude (Debye)      :      3.99805

Rotational constants in cm-1:     0.048574     0.015872     0.014094
Rotational constants in MHz :  1456.218023   475.826434   422.536558

                             ****ORCA TERMINATED NORMALLY****
TOTAL RUN TIME: 0 days 0 hours 30 minutes 18 seconds 377 msec
