                         Program Version 4.2.0 -  RELEASE  -
|  1> # Test redundant internal optimization
|  2> #
|  3> ! RKS B3LYP  Opt TightSCF SmallPrint
|  4>
|  5> %basis
|  6>         Basis "6-31G"
|  7> end
|  8>
|  9> %geom
| 10> Constraints
| 11> { D 4  0  15  12  255.0   C } # D for Dihedral angle
| 12> { D 0  15  12  16  180.0   C } # D for Dihedral angle
| 13> { D 0  4  3  2   C } # D for Dihedral angle
| 14> { D 4  3  2  1   C } # D for Dihedral angle
| 15> { D 3  2  1  0   C } # D for Dihedral angle
| 16> { D 2  1  0  4   C } # D for Dihedral angle
| 17> { D 1  0  4  3   C } # D for Dihedral angle
| 18> { D 16  20  19  18   C } # D for Dihedral angle
| 19> { D 20  19  18  17   C } # D for Dihedral angle
| 20> { D 19  18  17  16   C } # D for Dihedral angle
| 21> { D 18  17  16  20   C } # D for Dihedral angle
| 22> { D 17  16  20  19   C } # D for Dihedral angle
| 23> { D 15  12  16  20   C } # D for Dihedral angle
| 24> end
| 25> end
| 26>
| 27>
| 28> #%pal
| 29> #nprocs 8
| 30> #end
| 31>
| 32> * xyz 0 1
| 33> C  -21.048   26.222   46.251
| 34> C  -20.361   27.558   45.944
| 35> C  -20.329   28.222   47.341
| 36> C  -20.110   27.022   48.296
| 37> O  -20.473   25.807   47.535
| 38> H  -20.833   25.428   45.533
| 39> H  -19.344   27.382   45.576
| 40> H  -20.898   28.157   45.201
| 41> H  -19.543   28.978   47.434
| 42> H  -21.289   28.710   47.548
| 43> H  -20.733   27.082   49.195
| 44> H  -19.064   26.913   48.597
| 45> C  -23.431   25.260   45.734
| 46> H  -23.200   25.197   44.663
| 47> H  -23.189   24.293   46.194
| 48> O  -22.586   26.394   46.375
| 49> C  -24.960   25.488   45.890
| 50> C  -25.759   24.297   45.350
| 51> C  -25.635   23.283   46.512
| 52> C  -25.650   24.188   47.770
| 53> O  -25.326   25.554   47.309
| 54> H  -25.226   26.449   45.445
| 55> O  -27.242   24.704   45.133
| 56> H  -25.365   23.908   44.404
| 57> H  -26.444   22.545   46.520
| 58> H  -24.686   22.740   46.439
| 59> H  -24.912   23.877   48.519
| 60> H  -26.636   24.231   48.241
| 61> H  -27.657   25.096   46.068
| 62> *
| 63>
| 64>                          ****END OF INPUT****
 Total Charge           Charge          ....    0
 Multiplicity           Mult            ....    1
 Number of Electrons    NEL             ....  102
FINAL SINGLE POINT ENERGY      -652.832806539243
FINAL SINGLE POINT ENERGY      -652.856720195488
FINAL SINGLE POINT ENERGY      -652.860660288597
FINAL SINGLE POINT ENERGY      -652.861397624554
FINAL SINGLE POINT ENERGY      -652.861499884164
FINAL SINGLE POINT ENERGY      -652.861508240586
                    ***********************HURRAY********************

CARTESIAN COORDINATES (ANGSTROEM)
---------------------------------
  C    -21.075363   26.146743   46.190282
  C    -20.531027   27.551624   45.931168
  C    -20.573501   28.175798   47.346367
  C    -20.236132   26.978707   48.262606
  O    -20.474804   25.762401   47.446247
  H    -20.796195   25.384881   45.456452
  H    -19.499508   27.481820   45.565701
  H    -21.131799   28.096919   45.200354
  H    -19.867762   29.003557   47.463543
  H    -21.582225   28.544587   47.553331
  H    -20.866784   26.931556   49.153524
  H    -19.183344   26.953800   48.560320
  C    -23.279441   25.165141   45.713847
  H    -23.084762   25.104738   44.631254
  H    -22.993796   24.207766   46.172630
  O    -22.514938   26.244978   46.305947
  C    -24.759223   25.457326   45.943129
  C    -25.695595   24.366202   45.405595
  C    -25.669510   23.330079   46.560310
  C    -25.565229   24.219773   47.824232
  O    -25.095096   25.549182   47.364663
  H    -24.993311   26.434516   45.510045
  O    -27.031803   24.894717   45.185471
  H    -25.389809   23.950141   44.444677
  H    -26.570814   22.712131   46.544128
  H    -24.798363   22.672818   46.461451
  H    -24.857959   23.827990   48.561280
  H    -26.532758   24.370505   48.313597
  H    -27.278152   25.464604   45.944850

 Multiplicity           Mult            ....    1
 Number of Electrons    NEL             ....  102
 Basis Dimension        Dim             ....  149

ORBITAL ENERGIES
----------------

  NO   OCC          E(Eh)            E(eV)
   0   2.0000     -19.139629      -520.8158
   1   2.0000     -19.139444      -520.8107
   2   2.0000     -19.139156      -520.8029
   3   2.0000     -19.133953      -520.6613
   4   2.0000     -10.276319      -279.6329
   5   2.0000     -10.243607      -278.7427
   6   2.0000     -10.234578      -278.4970
   7   2.0000     -10.234088      -278.4837
   8   2.0000     -10.228964      -278.3443
   9   2.0000     -10.219503      -278.0868
  10   2.0000     -10.189772      -277.2778
  11   2.0000     -10.181462      -277.0517
  12   2.0000     -10.180133      -277.0155
  13   2.0000      -1.050488       -28.5852
  14   2.0000      -1.035586       -28.1797
  15   2.0000      -1.006110       -27.3776
  16   2.0000      -0.991293       -26.9745
  17   2.0000      -0.788514       -21.4566
  18   2.0000      -0.779805       -21.2196
  19   2.0000      -0.766549       -20.8589
  20   2.0000      -0.727365       -19.7926
  21   2.0000      -0.672977       -18.3126
  22   2.0000      -0.604676       -16.4541
  23   2.0000      -0.593853       -16.1596
  24   2.0000      -0.589643       -16.0450
  25   2.0000      -0.584953       -15.9174
  26   2.0000      -0.527012       -14.3407
  27   2.0000      -0.510671       -13.8961
  28   2.0000      -0.492151       -13.3921
  29   2.0000      -0.484685       -13.1889
  30   2.0000      -0.476550       -12.9676
  31   2.0000      -0.458004       -12.4629
  32   2.0000      -0.451126       -12.2758
  33   2.0000      -0.435073       -11.8389
  34   2.0000      -0.428390       -11.6571
  35   2.0000      -0.403926       -10.9914
  36   2.0000      -0.398263       -10.8373
  37   2.0000      -0.393623       -10.7110
  38   2.0000      -0.373797       -10.1715
  39   2.0000      -0.371937       -10.1209
  40   2.0000      -0.358075        -9.7437
  41   2.0000      -0.351885        -9.5753
  42   2.0000      -0.345925        -9.4131
  43   2.0000      -0.330057        -8.9813
  44   2.0000      -0.317263        -8.6332
  45   2.0000      -0.307508        -8.3677
  46   2.0000      -0.300736        -8.1834
  47   2.0000      -0.271650        -7.3920
  48   2.0000      -0.262866        -7.1529
  49   2.0000      -0.247970        -6.7476
  50   2.0000      -0.240896        -6.5551
  51   0.0000       0.066654         1.8137
  52   0.0000       0.082697         2.2503
  53   0.0000       0.089713         2.4412
  54   0.0000       0.099279         2.7015
  55   0.0000       0.105645         2.8747

MULLIKEN ATOMIC CHARGES
-----------------------
   0 C :    0.282926
   1 C :   -0.252927
   2 C :   -0.299981
   3 C :    0.000433
   4 O :   -0.505945
   5 H :    0.136544
   6 H :    0.140969
   7 H :    0.148757
   8 H :    0.138335
   9 H :    0.169052
  10 H :    0.153164
  11 H :    0.138324
  12 C :    0.003187
  13 H :    0.125084
  14 H :    0.137252
  15 O :   -0.509279
  16 C :    0.066557
  17 C :    0.077294
  18 C :   -0.292547
  19 C :   -0.034075
  20 O :   -0.507755
  21 H :    0.166900
  22 O :   -0.602726
  23 H :    0.147820
  24 H :    0.162299
  25 H :    0.144459
  26 H :    0.154757
  27 H :    0.145248
  28 H :    0.365873
Sum of atomic charges:    0.0000000

LOEWDIN ATOMIC CHARGES
----------------------
   0 C :    0.173796
   1 C :   -0.218103
   2 C :   -0.216080
   3 C :   -0.026070
   4 O :   -0.323285
   5 H :    0.097096
   6 H :    0.111406
   7 H :    0.119836
   8 H :    0.112423
   9 H :    0.122588
  10 H :    0.108754
  11 H :    0.100466
  12 C :   -0.040818
  13 H :    0.092620
  14 H :    0.097771
  15 O :   -0.321709
  16 C :    0.019014
  17 C :    0.036069
  18 C :   -0.240632
  19 C :   -0.039332
  20 O :   -0.318601
  21 H :    0.119845
  22 O :   -0.414285
  23 H :    0.113662
  24 H :    0.126508
  25 H :    0.112851
  26 H :    0.108247
  27 H :    0.101969
  28 H :    0.283995

  Mayer bond orders larger than 0.100000
B(  0-C ,  1-C ) :   0.9453 B(  0-C ,  4-O ) :   0.9249 B(  0-C ,  5-H ) :   0.9194
B(  0-C , 15-O ) :   0.8511 B(  1-C ,  2-C ) :   0.9580 B(  1-C ,  6-H ) :   0.9390
B(  1-C ,  7-H ) :   0.9380 B(  2-C ,  3-C ) :   0.9550 B(  2-C ,  8-H ) :   0.9453
B(  2-C ,  9-H ) :   0.9424 B(  3-C ,  4-O ) :   0.8369 B(  3-C , 10-H ) :   0.9347
B(  3-C , 11-H ) :   0.9401 B( 12-C , 13-H ) :   0.9110 B( 12-C , 14-H ) :   0.9137
B( 12-C , 15-O ) :   0.8442 B( 12-C , 16-C ) :   0.9040 B( 16-C , 17-C ) :   0.8999
B( 16-C , 20-O ) :   0.8701 B( 16-C , 21-H ) :   0.9239 B( 17-C , 18-C ) :   0.9109
B( 17-C , 22-O ) :   0.8933 B( 17-C , 23-H ) :   0.9342 B( 18-C , 19-C ) :   0.9401
B( 18-C , 24-H ) :   0.9375 B( 18-C , 25-H ) :   0.9338 B( 19-C , 20-O ) :   0.8505
B( 19-C , 26-H ) :   0.9328 B( 19-C , 27-H ) :   0.9374 B( 22-O , 28-H ) :   0.7936

FINAL SINGLE POINT ENERGY      -652.861509726903

DIPOLE MOMENT
-------------
                                X             Y             Z
Electronic contribution:     -2.64560      -0.44500      -0.47358
Nuclear contribution   :      3.09253       0.30420       0.28370
                        -----------------------------------------
Total Dipole Moment    :      0.44693      -0.14080      -0.18988
                        -----------------------------------------
Magnitude (a.u.)       :      0.50559
Magnitude (Debye)      :      1.28511

Rotational constants in cm-1:     0.063875     0.011593     0.011081
Rotational constants in MHz :  1914.921779   347.544476   332.201826

                             ****ORCA TERMINATED NORMALLY****
TOTAL RUN TIME: 0 days 0 hours 50 minutes 17 seconds 565 msec
