                         Program Version 4.2.0 -  RELEASE  -
|  1> # Test redundant internal optimization
|  2> #
|  3> ! RKS B3LYP  Opt TightSCF SmallPrint
|  4>
|  5> %basis
|  6>         Basis "6-31G"
|  7> end
|  8>
|  9> %geom
| 10> Constraints
| 11> { D 4  0  15  12  150.0   C } # D for Dihedral angle
| 12> { D 0  15  12  16  285.0   C } # D for Dihedral angle
| 13> { D 0  4  3  2   C } # D for Dihedral angle
| 14> { D 4  3  2  1   C } # D for Dihedral angle
| 15> { D 3  2  1  0   C } # D for Dihedral angle
| 16> { D 2  1  0  4   C } # D for Dihedral angle
| 17> { D 1  0  4  3   C } # D for Dihedral angle
| 18> { D 16  20  19  18   C } # D for Dihedral angle
| 19> { D 20  19  18  17   C } # D for Dihedral angle
| 20> { D 19  18  17  16   C } # D for Dihedral angle
| 21> { D 18  17  16  20   C } # D for Dihedral angle
| 22> { D 17  16  20  19   C } # D for Dihedral angle
| 23> { D 15  12  16  20   C } # D for Dihedral angle
| 24> end
| 25> end
| 26>
| 27>
| 28> #%pal
| 29> #nprocs 8
| 30> #end
| 31>
| 32> * xyz 0 1
| 33> C  -21.048   26.222   46.251
| 34> C  -20.361   27.558   45.944
| 35> C  -20.329   28.222   47.341
| 36> C  -20.110   27.022   48.296
| 37> O  -20.473   25.807   47.535
| 38> H  -20.833   25.428   45.533
| 39> H  -19.344   27.382   45.576
| 40> H  -20.898   28.157   45.201
| 41> H  -19.543   28.978   47.434
| 42> H  -21.289   28.710   47.548
| 43> H  -20.733   27.082   49.195
| 44> H  -19.064   26.913   48.597
| 45> C  -23.210   27.459   45.431
| 46> H  -22.797   27.334   44.423
| 47> H  -24.298   27.331   45.375
| 48> O  -22.586   26.394   46.375
| 49> C  -22.928   28.914   45.899
| 50> C  -23.653   29.933   45.013
| 51> C  -25.094   29.867   45.574
| 52> C  -24.871   29.631   47.088
| 53> O  -23.484   29.139   47.237
| 54> H  -21.849   29.064   45.971
| 55> H  -23.226   30.931   45.159
| 56> O  -23.580   29.587   43.500
| 57> H  -25.669   30.777   45.374
| 58> H  -25.634   29.024   45.126
| 59> H  -25.561   28.888   47.503
| 60> H  -24.950   30.553   47.671
| 61> H  -24.003   28.592   43.328
| 62> *
| 63>
| 64>                          ****END OF INPUT****
 Total Charge           Charge          ....    0
 Multiplicity           Mult            ....    1
 Number of Electrons    NEL             ....  102
FINAL SINGLE POINT ENERGY      -652.800395447308
FINAL SINGLE POINT ENERGY      -652.826832379587
FINAL SINGLE POINT ENERGY      -652.841550164449
FINAL SINGLE POINT ENERGY      -652.844090323124
FINAL SINGLE POINT ENERGY      -652.844656407222
FINAL SINGLE POINT ENERGY      -652.844753180853
FINAL SINGLE POINT ENERGY      -652.844767309704
FINAL SINGLE POINT ENERGY      -652.844770159558
                    ***********************HURRAY********************

CARTESIAN COORDINATES (ANGSTROEM)
---------------------------------
  C    -21.017274   26.274565   46.234601
  C    -20.094821   27.472572   45.994957
  C    -20.079381   28.159819   47.390806
  C    -20.151928   26.952319   48.351507
  O    -20.642946   25.815000   47.538534
  H    -20.845699   25.438634   45.549549
  H    -19.098413   27.085707   45.753139
  H    -20.402671   28.126624   45.175338
  H    -19.175939   28.758394   47.543531
  H    -20.949101   28.805326   47.531600
  H    -20.843222   27.112152   49.182501
  H    -19.173330   26.657549   48.741792
  C    -23.132567   27.525073   45.441331
  H    -22.823408   27.433236   44.386874
  H    -24.180989   27.218219   45.513621
  O    -22.455494   26.529065   46.251116
  C    -23.002740   29.001118   45.835157
  C    -23.840110   29.921648   44.927606
  C    -25.261640   29.797703   45.565084
  C    -24.941435   29.667465   47.071785
  O    -23.514080   29.273085   47.174063
  H    -21.961197   29.315820   45.838409
  H    -23.473312   30.946260   45.024810
  O    -23.770059   29.643274   43.509363
  H    -25.891881   30.661179   45.336834
  H    -25.762772   28.900147   45.179342
  H    -25.553750   28.913333   47.575038
  H    -25.047922   30.619359   47.600399
  H    -24.329917   28.874356   43.279314

 Multiplicity           Mult            ....    1
 Number of Electrons    NEL             ....  102
 Basis Dimension        Dim             ....  149

ORBITAL ENERGIES
----------------

  NO   OCC          E(Eh)            E(eV)
   0   2.0000     -19.155758      -521.2547
   1   2.0000     -19.143341      -520.9168
   2   2.0000     -19.132588      -520.6242
   3   2.0000     -19.131449      -520.5932
   4   2.0000     -10.274969      -279.5961
   5   2.0000     -10.251170      -278.9485
   6   2.0000     -10.235421      -278.5200
   7   2.0000     -10.234366      -278.4913
   8   2.0000     -10.233530      -278.4685
   9   2.0000     -10.217793      -278.0403
  10   2.0000     -10.201095      -277.5859
  11   2.0000     -10.187329      -277.2113
  12   2.0000     -10.181429      -277.0508
  13   2.0000      -1.045209       -28.4416
  14   2.0000      -1.038733       -28.2654
  15   2.0000      -1.021495       -27.7963
  16   2.0000      -0.985267       -26.8105
  17   2.0000      -0.787874       -21.4392
  18   2.0000      -0.781791       -21.2736
  19   2.0000      -0.770950       -20.9786
  20   2.0000      -0.732462       -19.9313
  21   2.0000      -0.684273       -18.6200
  22   2.0000      -0.617571       -16.8050
  23   2.0000      -0.602941       -16.4068
  24   2.0000      -0.592743       -16.1294
  25   2.0000      -0.572144       -15.5688
  26   2.0000      -0.527704       -14.3596
  27   2.0000      -0.510012       -13.8781
  28   2.0000      -0.498292       -13.5592
  29   2.0000      -0.495868       -13.4932
  30   2.0000      -0.465273       -12.6607
  31   2.0000      -0.454672       -12.3723
  32   2.0000      -0.442273       -12.0349
  33   2.0000      -0.438967       -11.9449
  34   2.0000      -0.432786       -11.7767
  35   2.0000      -0.424406       -11.5487
  36   2.0000      -0.408170       -11.1069
  37   2.0000      -0.404334       -11.0025
  38   2.0000      -0.380520       -10.3545
  39   2.0000      -0.376745       -10.2518
  40   2.0000      -0.357820        -9.7368
  41   2.0000      -0.353687        -9.6243
  42   2.0000      -0.349291        -9.5047
  43   2.0000      -0.333421        -9.0728
  44   2.0000      -0.321613        -8.7515
  45   2.0000      -0.303985        -8.2719
  46   2.0000      -0.285327        -7.7641
  47   2.0000      -0.277240        -7.5441
  48   2.0000      -0.265727        -7.2308
  49   2.0000      -0.251079        -6.8322
  50   2.0000      -0.233975        -6.3668
  51   0.0000       0.047503         1.2926
  52   0.0000       0.074092         2.0161
  53   0.0000       0.080734         2.1969
  54   0.0000       0.092426         2.5151
  55   0.0000       0.097023         2.6401

MULLIKEN ATOMIC CHARGES
-----------------------
   0 C :    0.321518
   1 C :   -0.302541
   2 C :   -0.322035
   3 C :   -0.000542
   4 O :   -0.496947
   5 H :    0.145284
   6 H :    0.150447
   7 H :    0.144447
   8 H :    0.138997
   9 H :    0.191372
  10 H :    0.158520
  11 H :    0.138766
  12 C :   -0.010623
  13 H :    0.121370
  14 H :    0.148208
  15 O :   -0.518295
  16 C :    0.079798
  17 C :    0.083625
  18 C :   -0.326527
  19 C :   -0.009024
  20 O :   -0.516196
  21 H :    0.154759
  22 H :    0.165937
  23 O :   -0.600059
  24 H :    0.160708
  25 H :    0.135623
  26 H :    0.153862
  27 H :    0.150596
  28 H :    0.358950
Sum of atomic charges:   -0.0000000

LOEWDIN ATOMIC CHARGES
----------------------
   0 C :    0.187034
   1 C :   -0.235093
   2 C :   -0.225643
   3 C :   -0.024987
   4 O :   -0.304150
   5 H :    0.098457
   6 H :    0.119514
   7 H :    0.112014
   8 H :    0.113223
   9 H :    0.127554
  10 H :    0.111243
  11 H :    0.100510
  12 C :   -0.046935
  13 H :    0.091679
  14 H :    0.111096
  15 O :   -0.329982
  16 C :    0.002132
  17 C :    0.035990
  18 C :   -0.241427
  19 C :   -0.028227
  20 O :   -0.320504
  21 H :    0.112472
  22 H :    0.118218
  23 O :   -0.407120
  24 H :    0.123826
  25 H :    0.104939
  26 H :    0.107791
  27 H :    0.106888
  28 H :    0.279485

  Mayer bond orders larger than 0.100000
B(  0-C ,  1-C ) :   0.9283 B(  0-C ,  4-O ) :   0.9373 B(  0-C ,  5-H ) :   0.9267
B(  0-C , 15-O ) :   0.8462 B(  1-C ,  2-C ) :   0.9500 B(  1-C ,  6-H ) :   0.9324
B(  1-C ,  7-H ) :   0.9263 B(  2-C ,  3-C ) :   0.9504 B(  2-C ,  8-H ) :   0.9456
B(  2-C ,  9-H ) :   0.9215 B(  3-C ,  4-O ) :   0.8355 B(  3-C , 10-H ) :   0.9338
B(  3-C , 11-H ) :   0.9404 B( 12-C , 13-H ) :   0.9031 B( 12-C , 14-H ) :   0.9377
B( 12-C , 15-O ) :   0.8770 B( 12-C , 16-C ) :   0.8750 B( 16-C , 17-C ) :   0.8659
B( 16-C , 20-O ) :   0.8523 B( 16-C , 21-H ) :   0.9202 B( 17-C , 18-C ) :   0.9226
B( 17-C , 22-H ) :   0.9334 B( 17-C , 23-O ) :   0.9003 B( 18-C , 19-C ) :   0.9385
B( 18-C , 24-H ) :   0.9414 B( 18-C , 25-H ) :   0.9398 B( 19-C , 20-O ) :   0.8431
B( 19-C , 26-H ) :   0.9303 B( 19-C , 27-H ) :   0.9374 B( 23-O , 28-H ) :   0.7967

FINAL SINGLE POINT ENERGY      -652.844770384692

DIPOLE MOMENT
-------------
                                X             Y             Z
Electronic contribution:     -0.41324      -3.21229      -0.05469
Nuclear contribution   :     -0.03905       4.15810      -0.54969
                        -----------------------------------------
Total Dipole Moment    :     -0.45230       0.94581      -0.60438
                        -----------------------------------------
Magnitude (a.u.)       :      1.21013
Magnitude (Debye)      :      3.07590

Rotational constants in cm-1:     0.050168     0.015097     0.013998
Rotational constants in MHz :  1504.006622   452.600976   419.664061

                             ****ORCA TERMINATED NORMALLY****
TOTAL RUN TIME: 0 days 1 hours 0 minutes 19 seconds 281 msec
