                         Program Version 4.2.0 -  RELEASE  -
|  1> # Test redundant internal optimization
|  2> #
|  3> ! RKS B3LYP  Opt TightSCF SmallPrint
|  4>
|  5> %basis
|  6>         Basis "6-31G"
|  7> end
|  8>
|  9> %geom
| 10> Constraints
| 11> { D 4  0  15  12  225.0   C } # D for Dihedral angle
| 12> { D 0  15  12  16  0.0   C } # D for Dihedral angle
| 13> { D 0  4  3  2   C } # D for Dihedral angle
| 14> { D 4  3  2  1   C } # D for Dihedral angle
| 15> { D 3  2  1  0   C } # D for Dihedral angle
| 16> { D 2  1  0  4   C } # D for Dihedral angle
| 17> { D 1  0  4  3   C } # D for Dihedral angle
| 18> { D 16  20  19  18   C } # D for Dihedral angle
| 19> { D 20  19  18  17   C } # D for Dihedral angle
| 20> { D 19  18  17  16   C } # D for Dihedral angle
| 21> { D 18  17  16  20   C } # D for Dihedral angle
| 22> { D 17  16  20  19   C } # D for Dihedral angle
| 23> { D 15  12  16  20   C } # D for Dihedral angle
| 24> end
| 25> end
| 26>
| 27>
| 28> #%pal
| 29> #nprocs 8
| 30> #end
| 31>
| 32> * xyz 0 1
| 33> C  -21.048   26.222   46.251
| 34> C  -20.361   27.558   45.944
| 35> C  -20.329   28.222   47.341
| 36> C  -20.110   27.022   48.296
| 37> O  -20.473   25.807   47.535
| 38> H  -20.833   25.428   45.533
| 39> H  -19.344   27.382   45.576
| 40> H  -20.898   28.157   45.201
| 41> H  -19.543   28.978   47.434
| 42> H  -21.289   28.710   47.548
| 43> H  -20.733   27.082   49.195
| 44> H  -19.064   26.913   48.597
| 45> C  -23.415   25.773   45.218
| 46> H  -24.102   25.021   45.627
| 47> H  -24.012   26.545   44.716
| 48> O  -22.586   26.394   46.375
| 49> C  -22.527   25.088   44.142
| 50> C  -21.781   23.881   44.723
| 51> C  -22.887   22.799   44.721
| 52> C  -23.700   23.129   43.444
| 53> O  -23.359   24.520   43.077
| 54> H  -21.883   25.838   43.680
| 55> O  -20.614   23.475   43.783
| 56> H  -21.371   24.068   45.721
| 57> H  -22.485   21.781   44.708
| 58> H  -23.514   22.900   45.615
| 59> H  -24.780   23.054   43.603
| 60> H  -23.423   22.495   42.597
| 61> H  -21.001   23.282   42.776
| 62> *
| 63>
| 64>                          ****END OF INPUT****
 Total Charge           Charge          ....    0
 Multiplicity           Mult            ....    1
 Number of Electrons    NEL             ....  102
FINAL SINGLE POINT ENERGY      -652.810903949521
FINAL SINGLE POINT ENERGY      -652.837431559484
FINAL SINGLE POINT ENERGY      -652.848940641984
FINAL SINGLE POINT ENERGY      -652.850642022055
FINAL SINGLE POINT ENERGY      -652.850988812329
FINAL SINGLE POINT ENERGY      -652.851027369718
FINAL SINGLE POINT ENERGY      -652.851031436225
                    ***********************HURRAY********************

CARTESIAN COORDINATES (ANGSTROEM)
---------------------------------
  C    -20.815651   26.258464   46.302580
  C    -20.215469   27.644635   46.065729
  C    -20.481193   28.345747   47.421829
  C    -20.316461   27.195619   48.438716
  O    -20.436251   25.940846   47.654274
  H    -20.413201   25.479450   45.659692
  H    -19.138387   27.550562   45.880748
  H    -20.675483   28.158913   45.218362
  H    -19.791337   29.173432   47.610323
  H    -21.504320   28.731528   47.440117
  H    -21.085240   27.195603   49.216092
  H    -19.327137   27.178958   48.906379
  C    -23.096078   25.751758   45.191449
  H    -23.813464   25.100961   45.705165
  H    -23.662964   26.568963   44.733225
  O    -22.261482   26.343995   46.234557
  C    -22.450055   24.958485   44.040503
  C    -21.718679   23.657248   44.420192
  C    -22.909155   22.678511   44.654507
  C    -23.942898   23.141380   43.596708
  O    -23.550924   24.508292   43.183853
  H    -21.808873   25.599579   43.427855
  O    -20.857276   23.225268   43.331646
  H    -21.071375   23.721341   45.290533
  H    -22.586893   21.643943   44.514119
  H    -23.294440   22.787669   45.673063
  H    -24.965615   23.168763   43.983880
  H    -23.928336   22.518897   42.696207
  H    -21.346362   23.295193   42.484696

 Multiplicity           Mult            ....    1
 Number of Electrons    NEL             ....  102
 Basis Dimension        Dim             ....  149

ORBITAL ENERGIES
----------------

  NO   OCC          E(Eh)            E(eV)
   0   2.0000     -19.153081      -521.1818
   1   2.0000     -19.144176      -520.9395
   2   2.0000     -19.136606      -520.7335
   3   2.0000     -19.136336      -520.7262
   4   2.0000     -10.279081      -279.7080
   5   2.0000     -10.246114      -278.8109
   6   2.0000     -10.243853      -278.7494
   7   2.0000     -10.237224      -278.5690
   8   2.0000     -10.233438      -278.4660
   9   2.0000     -10.221914      -278.1524
  10   2.0000     -10.193333      -277.3747
  11   2.0000     -10.182180      -277.0712
  12   2.0000     -10.181994      -277.0661
  13   2.0000      -1.049303       -28.5530
  14   2.0000      -1.043788       -28.4029
  15   2.0000      -1.013350       -27.5747
  16   2.0000      -0.988494       -26.8983
  17   2.0000      -0.785880       -21.3849
  18   2.0000      -0.781344       -21.2614
  19   2.0000      -0.770021       -20.9533
  20   2.0000      -0.736049       -20.0289
  21   2.0000      -0.678035       -18.4503
  22   2.0000      -0.610982       -16.6257
  23   2.0000      -0.606472       -16.5029
  24   2.0000      -0.595611       -16.2074
  25   2.0000      -0.575721       -15.6662
  26   2.0000      -0.528256       -14.3746
  27   2.0000      -0.519678       -14.1412
  28   2.0000      -0.500211       -13.6114
  29   2.0000      -0.480828       -13.0840
  30   2.0000      -0.474337       -12.9074
  31   2.0000      -0.460655       -12.5351
  32   2.0000      -0.450027       -12.2458
  33   2.0000      -0.434176       -11.8145
  34   2.0000      -0.427788       -11.6407
  35   2.0000      -0.421027       -11.4567
  36   2.0000      -0.400320       -10.8933
  37   2.0000      -0.398136       -10.8338
  38   2.0000      -0.374682       -10.1956
  39   2.0000      -0.374037       -10.1781
  40   2.0000      -0.366087        -9.9617
  41   2.0000      -0.354054        -9.6343
  42   2.0000      -0.349513        -9.5107
  43   2.0000      -0.335525        -9.1301
  44   2.0000      -0.314985        -8.5712
  45   2.0000      -0.311138        -8.4665
  46   2.0000      -0.307341        -8.3632
  47   2.0000      -0.276561        -7.5256
  48   2.0000      -0.260896        -7.0993
  49   2.0000      -0.251985        -6.8569
  50   2.0000      -0.241236        -6.5644
  51   0.0000       0.058797         1.5999
  52   0.0000       0.073961         2.0126
  53   0.0000       0.092402         2.5144
  54   0.0000       0.094755         2.5784
  55   0.0000       0.096192         2.6175

MULLIKEN ATOMIC CHARGES
-----------------------
   0 C :    0.276989
   1 C :   -0.252901
   2 C :   -0.297273
   3 C :   -0.001865
   4 O :   -0.503836
   5 H :    0.149695
   6 H :    0.143673
   7 H :    0.141327
   8 H :    0.139136
   9 H :    0.163259
  10 H :    0.152116
  11 H :    0.140850
  12 C :    0.025987
  13 H :    0.140021
  14 H :    0.156508
  15 O :   -0.539422
  16 C :    0.019399
  17 C :    0.075397
  18 C :   -0.299488
  19 C :   -0.034069
  20 O :   -0.523346
  21 H :    0.160352
  22 O :   -0.603681
  23 H :    0.182837
  24 H :    0.165347
  25 H :    0.156407
  26 H :    0.151978
  27 H :    0.149544
  28 H :    0.365059
Sum of atomic charges:   -0.0000000

LOEWDIN ATOMIC CHARGES
----------------------
   0 C :    0.174593
   1 C :   -0.223846
   2 C :   -0.216231
   3 C :   -0.026101
   4 O :   -0.313850
   5 H :    0.101085
   6 H :    0.112188
   7 H :    0.115253
   8 H :    0.113045
   9 H :    0.119773
  10 H :    0.107858
  11 H :    0.101582
  12 C :   -0.034145
  13 H :    0.103013
  14 H :    0.112475
  15 O :   -0.341242
  16 C :    0.001854
  17 C :    0.029299
  18 C :   -0.239202
  19 C :   -0.039432
  20 O :   -0.323911
  21 H :    0.112720
  22 O :   -0.413890
  23 H :    0.124948
  24 H :    0.128549
  25 H :    0.119577
  26 H :    0.106753
  27 H :    0.103923
  28 H :    0.283365

  Mayer bond orders larger than 0.100000
B(  0-C ,  1-C ) :   0.9354 B(  0-C ,  4-O ) :   0.9329 B(  0-C ,  5-H ) :   0.9044
B(  0-C , 15-O ) :   0.8380 B(  1-C ,  2-C ) :   0.9570 B(  1-C ,  6-H ) :   0.9357
B(  1-C ,  7-H ) :   0.9400 B(  2-C ,  3-C ) :   0.9541 B(  2-C ,  8-H ) :   0.9454
B(  2-C ,  9-H ) :   0.9433 B(  3-C ,  4-O ) :   0.8360 B(  3-C , 10-H ) :   0.9350
B(  3-C , 11-H ) :   0.9398 B( 12-C , 13-H ) :   0.9273 B( 12-C , 14-H ) :   0.9220
B( 12-C , 15-O ) :   0.8378 B( 12-C , 16-C ) :   0.8914 B( 16-C , 17-C ) :   0.8989
B( 16-C , 20-O ) :   0.8299 B( 16-C , 21-H ) :   0.9233 B( 17-C , 18-C ) :   0.9073
B( 17-C , 22-O ) :   0.8863 B( 17-C , 23-H ) :   0.9161 B( 18-C , 19-C ) :   0.9405
B( 18-C , 24-H ) :   0.9369 B( 18-C , 25-H ) :   0.9328 B( 19-C , 20-O ) :   0.8374
B( 19-C , 26-H ) :   0.9349 B( 19-C , 27-H ) :   0.9371 B( 22-O , 28-H ) :   0.7946

FINAL SINGLE POINT ENERGY      -652.851032292645

DIPOLE MOMENT
-------------
                                X             Y             Z
Electronic contribution:     -0.24357      -2.06737      -1.96304
Nuclear contribution   :     -0.03223       2.27398       1.79009
                        -----------------------------------------
Total Dipole Moment    :     -0.27580       0.20662      -0.17296
                        -----------------------------------------
Magnitude (a.u.)       :      0.38558
Magnitude (Debye)      :      0.98007

Rotational constants in cm-1:     0.058781     0.012884     0.012366
Rotational constants in MHz :  1762.196115   386.242005   370.724978

                             ****ORCA TERMINATED NORMALLY****
TOTAL RUN TIME: 0 days 1 hours 42 minutes 52 seconds 568 msec
