                         Program Version 4.2.1 -  RELEASE  -
|  1> # Test redundant internal optimization
|  2> #
|  3> ! RKS B3LYP  Opt TightSCF SmallPrint
|  4>
|  5> %basis
|  6>         Basis "6-31G"
|  7> end
|  8>
|  9> %geom
| 10> Constraints
| 11> { D 4  0  19  14  105.0   C } # D for Dihedral angle
| 12> { D 0  19  14  12  165.0   C } # D for Dihedral angle
| 13> { D 0  4  3  2   C } # D for Dihedral angle
| 14> { D 4  3  2  1   C } # D for Dihedral angle
| 15> { D 3  2  1  0   C } # D for Dihedral angle
| 16> { D 2  1  0  4   C } # D for Dihedral angle
| 17> { D 1  0  4  3   C } # D for Dihedral angle
| 18> { D 14  15  16  17   C } # D for Dihedral angle
| 19> { D 15  16  17  12   C } # D for Dihedral angle
| 20> { D 16  17  12  14   C } # D for Dihedral angle
| 21> { D 17  12  14  15   C } # D for Dihedral angle
| 22> { D 12  14  15  16   C } # D for Dihedral angle
| 23> end
| 24> end
| 25>
| 26>
| 27> #%pal
| 28> #nprocs 8
| 29> #end
| 30>
| 31> * xyz 0 1
| 32> C  -21.048   26.222   46.251
| 33> C  -20.361   27.558   45.944
| 34> C  -20.329   28.222   47.341
| 35> C  -20.110   27.022   48.296
| 36> O  -20.473   25.807   47.535
| 37> H  -20.833   25.428   45.533
| 38> H  -19.344   27.382   45.576
| 39> H  -20.898   28.157   45.201
| 40> H  -19.543   28.978   47.434
| 41> H  -21.289   28.710   47.548
| 42> H  -20.733   27.082   49.195
| 43> H  -19.064   26.913   48.597
| 44> C  -24.425   27.819   46.154
| 45> H  -24.739   28.841   45.892
| 46> C  -22.914   27.747   46.406
| 47> C  -22.808   28.314   47.841
| 48> C  -24.101   27.797   48.521
| 49> O  -25.023   27.410   47.430
| 50> H  -24.790   27.126   45.394
| 51> O  -22.472   26.381   46.366
| 52> H  -22.329   28.321   45.679
| 53> H  -21.903   27.985   48.362
| 54> H  -22.799   29.411   47.815
| 55> H  -24.582   28.558   49.144
| 56> H  -23.926   26.902   49.126
| 57> *
| 58>
| 59>                          ****END OF INPUT****
 Total Charge           Charge          ....    0
 Multiplicity           Mult            ....    1
 Number of Electrons    NEL             ....   86
FINAL SINGLE POINT ENERGY      -538.335330313152
FINAL SINGLE POINT ENERGY      -538.415665134617
FINAL SINGLE POINT ENERGY      -538.420091484038
FINAL SINGLE POINT ENERGY      -538.421154799702
FINAL SINGLE POINT ENERGY      -538.421430457048
FINAL SINGLE POINT ENERGY      -538.421597007846
FINAL SINGLE POINT ENERGY      -538.421634313508
FINAL SINGLE POINT ENERGY      -538.421641013330
                    ***********************HURRAY********************

CARTESIAN COORDINATES (ANGSTROEM)
---------------------------------
  C    -21.079343   26.370460   46.337291
  C    -20.114780   27.487826   45.917213
  C    -19.803027   28.175693   47.276675
  C    -19.806136   26.982257   48.265795
  O    -20.520776   25.880351   47.578049
  H    -21.035574   25.508980   45.667446
  H    -19.214892   27.018979   45.507484
  H    -20.519437   28.169449   45.163947
  H    -18.836566   28.689778   47.265626
  H    -20.566309   28.916451   47.524558
  H    -20.314339   27.206627   49.209306
  H    -18.797594   26.620814   48.485164
  C    -24.593183   27.737455   46.133561
  H    -25.068576   28.692639   45.864644
  C    -23.115759   27.945073   46.471563
  C    -23.199228   28.476157   47.916586
  C    -24.401266   27.706701   48.510839
  O    -25.171713   27.184933   47.359872
  H    -24.739715   27.006153   45.338393
  O    -22.501859   26.623721   46.397284
  H    -22.620654   28.644247   45.785998
  H    -22.287851   28.303998   48.489272
  H    -23.391229   29.556645   47.894742
  H    -25.050916   28.345607   49.120009
  H    -24.085278   26.842007   49.099683

 Multiplicity           Mult            ....    1
 Number of Electrons    NEL             ....   86
 Basis Dimension        Dim             ....  127

ORBITAL ENERGIES
----------------

  NO   OCC          E(Eh)            E(eV)
   0   2.0000     -19.140952      -520.8518
   1   2.0000     -19.140260      -520.8330
   2   2.0000     -19.125552      -520.4327
   3   2.0000     -10.279512      -279.7197
   4   2.0000     -10.245097      -278.7832
   5   2.0000     -10.230785      -278.3938
   6   2.0000     -10.221318      -278.1362
   7   2.0000     -10.218724      -278.0656
   8   2.0000     -10.197413      -277.4857
   9   2.0000     -10.196775      -277.4684
  10   2.0000     -10.188423      -277.2411
  11   2.0000      -1.049886       -28.5689
  12   2.0000      -1.013351       -27.5747
  13   2.0000      -0.990110       -26.9423
  14   2.0000      -0.792799       -21.5731
  15   2.0000      -0.787710       -21.4347
  16   2.0000      -0.743210       -20.2238
  17   2.0000      -0.724293       -19.7090
  18   2.0000      -0.624204       -16.9855
  19   2.0000      -0.606820       -16.5124
  20   2.0000      -0.598736       -16.2924
  21   2.0000      -0.563346       -15.3294
  22   2.0000      -0.522606       -14.2208
  23   2.0000      -0.509048       -13.8519
  24   2.0000      -0.490182       -13.3385
  25   2.0000      -0.483598       -13.1594
  26   2.0000      -0.453267       -12.3340
  27   2.0000      -0.445236       -12.1155
  28   2.0000      -0.428492       -11.6599
  29   2.0000      -0.422519       -11.4973
  30   2.0000      -0.410267       -11.1639
  31   2.0000      -0.386807       -10.5256
  32   2.0000      -0.381495       -10.3810
  33   2.0000      -0.369036       -10.0420
  34   2.0000      -0.365116        -9.9353
  35   2.0000      -0.357567        -9.7299
  36   2.0000      -0.353824        -9.6281
  37   2.0000      -0.317300        -8.6342
  38   2.0000      -0.301253        -8.1975
  39   2.0000      -0.288333        -7.8459
  40   2.0000      -0.268339        -7.3019
  41   2.0000      -0.255500        -6.9525
  42   2.0000      -0.230529        -6.2730
  43   0.0000       0.065825         1.7912
  44   0.0000       0.088220         2.4006
  45   0.0000       0.091587         2.4922
  46   0.0000       0.108085         2.9411
  47   0.0000       0.115564         3.1446

MULLIKEN ATOMIC CHARGES
-----------------------
   0 C :    0.311522
   1 C :   -0.296590
   2 C :   -0.315101
   3 C :   -0.010138
   4 O :   -0.496339
   5 H :    0.165065
   6 H :    0.160637
   7 H :    0.146170
   8 H :    0.146189
   9 H :    0.151363
  10 H :    0.144046
  11 H :    0.147500
  12 C :    0.011659
  13 H :    0.121072
  14 C :    0.060698
  15 C :   -0.301330
  16 C :    0.000066
  17 O :   -0.515276
  18 H :    0.169264
  19 O :   -0.516471
  20 H :    0.126065
  21 H :    0.155313
  22 H :    0.138413
  23 H :    0.133395
  24 H :    0.162807
Sum of atomic charges:    0.0000000

LOEWDIN ATOMIC CHARGES
----------------------
   0 C :    0.176110
   1 C :   -0.229774
   2 C :   -0.224538
   3 C :   -0.034276
   4 O :   -0.316956
   5 H :    0.110573
   6 H :    0.124913
   7 H :    0.115206
   8 H :    0.115969
   9 H :    0.110005
  10 H :    0.100430
  11 H :    0.105675
  12 C :   -0.032383
  13 H :    0.089552
  14 C :    0.037249
  15 C :   -0.240107
  16 C :   -0.027855
  17 O :   -0.325613
  18 H :    0.124322
  19 O :   -0.314714
  20 H :    0.094338
  21 H :    0.120449
  22 H :    0.111123
  23 H :    0.097569
  24 H :    0.112732

  Mayer bond orders larger than 0.100000
B(  0-C ,  1-C ) :   0.9234 B(  0-C ,  4-O ) :   0.9033 B(  0-C ,  5-H ) :   0.9354
B(  0-C , 19-O ) :   0.8993 B(  1-C ,  2-C ) :   0.9528 B(  1-C ,  6-H ) :   0.9344
B(  1-C ,  7-H ) :   0.9321 B(  2-C ,  3-C ) :   0.9483 B(  2-C ,  8-H ) :   0.9452
B(  2-C ,  9-H ) :   0.9375 B(  3-C ,  4-O ) :   0.8516 B(  3-C , 10-H ) :   0.9284
B(  3-C , 11-H ) :   0.9375 B( 12-C , 13-H ) :   0.9147 B( 12-C , 14-C ) :   0.9348
B( 12-C , 17-O ) :   0.8763 B( 12-C , 18-H ) :   0.9296 B( 14-C , 15-C ) :   0.9332
B( 14-C , 19-O ) :   0.8363 B( 14-C , 20-H ) :   0.9144 B( 15-C , 16-C ) :   0.9411
B( 15-C , 21-H ) :   0.9286 B( 15-C , 22-H ) :   0.9361 B( 16-C , 17-O ) :   0.8582
B( 16-C , 23-H ) :   0.9327 B( 16-C , 24-H ) :   0.9343

FINAL SINGLE POINT ENERGY      -538.421641347568

DIPOLE MOMENT
-------------
                                X             Y             Z
Electronic contribution:     -3.05382      -5.02027      -1.05074
Nuclear contribution   :      4.26160       6.68586       0.79216
                        -----------------------------------------
Total Dipole Moment    :      1.20779       1.66559      -0.25858
                        -----------------------------------------
Magnitude (a.u.)       :      2.07360
Magnitude (Debye)      :      5.27067

Rotational constants in cm-1:     0.073184     0.023469     0.022247
Rotational constants in MHz :  2193.986593   703.576451   666.941885

                             ****ORCA TERMINATED NORMALLY****
TOTAL RUN TIME: 0 days 0 hours 9 minutes 57 seconds 163 msec
