                         Program Version 4.2.0 -  RELEASE  -
|  1> # Test redundant internal optimization
|  2> #
|  3> ! RKS B3LYP  Opt TightSCF SmallPrint
|  4>
|  5> %basis
|  6>         Basis "6-31G"
|  7> end
|  8>
|  9> %geom
| 10> Constraints
| 11> { D 4  0  15  12  45.0   C } # D for Dihedral angle
| 12> { D 0  15  12  16  90.0   C } # D for Dihedral angle
| 13> { D 0  4  3  2   C } # D for Dihedral angle
| 14> { D 4  3  2  1   C } # D for Dihedral angle
| 15> { D 3  2  1  0   C } # D for Dihedral angle
| 16> { D 2  1  0  4   C } # D for Dihedral angle
| 17> { D 1  0  4  3   C } # D for Dihedral angle
| 18> { D 16  20  19  18   C } # D for Dihedral angle
| 19> { D 20  19  18  17   C } # D for Dihedral angle
| 20> { D 19  18  17  16   C } # D for Dihedral angle
| 21> { D 18  17  16  20   C } # D for Dihedral angle
| 22> { D 17  16  20  19   C } # D for Dihedral angle
| 23> { D 15  12  16  20   C } # D for Dihedral angle
| 24> end
| 25> end
| 26>
| 27>
| 28> #%pal
| 29> #nprocs 8
| 30> #end
| 31>
| 32> * xyz 0 1
| 33> C  -21.048   26.222   46.251
| 34> C  -20.361   27.558   45.944
| 35> C  -20.329   28.222   47.341
| 36> C  -20.110   27.022   48.296
| 37> O  -20.473   25.807   47.535
| 38> H  -20.833   25.428   45.533
| 39> H  -19.344   27.382   45.576
| 40> H  -20.898   28.157   45.201
| 41> H  -19.543   28.978   47.434
| 42> H  -21.289   28.710   47.548
| 43> H  -20.733   27.082   49.195
| 44> H  -19.064   26.913   48.597
| 45> C  -23.065   27.161   47.638
| 46> H  -24.054   26.789   47.934
| 47> H  -22.372   26.997   48.473
| 48> O  -22.586   26.394   46.375
| 49> C  -23.170   28.694   47.405
| 50> C  -24.247   29.027   46.366
| 51> C  -25.541   28.910   47.207
| 52> C  -25.103   29.429   48.600
| 53> O  -23.626   29.368   48.626
| 54> H  -22.180   29.089   47.172
| 55> H  -24.114   30.052   46.002
| 56> O  -24.234   28.068   45.144
| 57> H  -26.372   29.487   46.789
| 58> H  -25.857   27.862   47.267
| 59> H  -25.501   28.821   49.418
| 60> H  -25.385   30.472   48.764
| 61> H  -24.365   27.035   45.486
| 62> *
| 63>
| 64>                          ****END OF INPUT****
 Total Charge           Charge          ....    0
 Multiplicity           Mult            ....    1
 Number of Electrons    NEL             ....  102
FINAL SINGLE POINT ENERGY      -652.777697559765
FINAL SINGLE POINT ENERGY      -652.826947712971
FINAL SINGLE POINT ENERGY      -652.849489964051
FINAL SINGLE POINT ENERGY      -652.855841854345
FINAL SINGLE POINT ENERGY      -652.857484331789
FINAL SINGLE POINT ENERGY      -652.858320717558
FINAL SINGLE POINT ENERGY      -652.858573101227
FINAL SINGLE POINT ENERGY      -652.858641308789
FINAL SINGLE POINT ENERGY      -652.858645512182
                    ***********************HURRAY********************

CARTESIAN COORDINATES (ANGSTROEM)
---------------------------------
  C    -21.178487   26.290214   46.448976
  C    -20.332976   27.448897   45.903944
  C    -19.896517   28.177263   47.209061
  C    -19.716554   27.003770   48.203048
  O    -20.453055   25.854211   47.611760
  H    -21.199096   25.438554   45.766414
  H    -19.465886   27.026889   45.386174
  H    -20.889651   28.085938   45.211338
  H    -18.967049   28.739640   47.076279
  H    -20.654693   28.879800   47.553156
  H    -20.120070   27.209343   49.198288
  H    -18.673752   26.688268   48.296417
  C    -23.206676   27.212634   47.789086
  H    -24.177609   26.730992   47.924897
  H    -22.615893   27.043385   48.695344
  O    -22.605261   26.506124   46.652946
  C    -23.375019   28.720064   47.550745
  C    -24.344796   29.072094   46.409708
  C    -25.725801   28.880687   47.100562
  C    -25.464053   29.344518   48.548300
  O    -23.980205   29.322536   48.738306
  H    -22.411178   29.208808   47.418897
  H    -24.216158   30.125439   46.140585
  O    -24.159625   28.317420   45.195139
  H    -26.509631   29.460031   46.606193
  H    -26.011907   27.824267   47.051382
  H    -25.923104   28.698599   49.302651
  H    -25.783200   30.375517   48.724722
  H    -23.739097   27.450099   45.402682

 Multiplicity           Mult            ....    1
 Number of Electrons    NEL             ....  102
 Basis Dimension        Dim             ....  149

ORBITAL ENERGIES
----------------

  NO   OCC          E(Eh)            E(eV)
   0   2.0000     -19.159928      -521.3681
   1   2.0000     -19.154953      -521.2328
   2   2.0000     -19.143977      -520.9341
   3   2.0000     -19.121736      -520.3289
   4   2.0000     -10.290006      -280.0053
   5   2.0000     -10.238652      -278.6079
   6   2.0000     -10.237139      -278.5667
   7   2.0000     -10.235588      -278.5245
   8   2.0000     -10.235001      -278.5085
   9   2.0000     -10.230163      -278.3769
  10   2.0000     -10.198104      -277.5045
  11   2.0000     -10.195928      -277.4453
  12   2.0000     -10.183333      -277.1026
  13   2.0000      -1.062223       -28.9046
  14   2.0000      -1.028682       -27.9919
  15   2.0000      -1.008251       -27.4359
  16   2.0000      -0.997826       -27.1522
  17   2.0000      -0.795629       -21.6502
  18   2.0000      -0.779466       -21.2103
  19   2.0000      -0.772194       -21.0125
  20   2.0000      -0.739847       -20.1323
  21   2.0000      -0.684775       -18.6337
  22   2.0000      -0.612395       -16.6641
  23   2.0000      -0.604876       -16.4595
  24   2.0000      -0.600499       -16.3404
  25   2.0000      -0.577775       -15.7220
  26   2.0000      -0.535508       -14.5719
  27   2.0000      -0.510545       -13.8926
  28   2.0000      -0.506987       -13.7958
  29   2.0000      -0.490269       -13.3409
  30   2.0000      -0.475975       -12.9519
  31   2.0000      -0.459929       -12.5153
  32   2.0000      -0.452998       -12.3267
  33   2.0000      -0.432756       -11.7759
  34   2.0000      -0.424467       -11.5503
  35   2.0000      -0.422042       -11.4844
  36   2.0000      -0.416104       -11.3228
  37   2.0000      -0.394550       -10.7362
  38   2.0000      -0.388223       -10.5641
  39   2.0000      -0.370483       -10.0813
  40   2.0000      -0.366179        -9.9642
  41   2.0000      -0.356548        -9.7022
  42   2.0000      -0.351385        -9.5617
  43   2.0000      -0.344124        -9.3641
  44   2.0000      -0.326085        -8.8732
  45   2.0000      -0.322211        -8.7678
  46   2.0000      -0.292128        -7.9492
  47   2.0000      -0.281561        -7.6617
  48   2.0000      -0.268868        -7.3163
  49   2.0000      -0.253688        -6.9032
  50   2.0000      -0.241077        -6.5600
  51   0.0000       0.057001         1.5511
  52   0.0000       0.068685         1.8690
  53   0.0000       0.083840         2.2814
  54   0.0000       0.093284         2.5384
  55   0.0000       0.105447         2.8694

MULLIKEN ATOMIC CHARGES
-----------------------
   0 C :    0.314175
   1 C :   -0.279301
   2 C :   -0.324595
   3 C :   -0.017838
   4 O :   -0.506703
   5 H :    0.171504
   6 H :    0.158026
   7 H :    0.163655
   8 H :    0.151743
   9 H :    0.160939
  10 H :    0.152445
  11 H :    0.154037
  12 C :   -0.041152
  13 H :    0.164105
  14 H :    0.168034
  15 O :   -0.556426
  16 C :    0.044284
  17 C :    0.117160
  18 C :   -0.309232
  19 C :   -0.018305
  20 O :   -0.521150
  21 H :    0.156935
  22 H :    0.149713
  23 O :   -0.637133
  24 H :    0.154367
  25 H :    0.147457
  26 H :    0.145850
  27 H :    0.148582
  28 H :    0.388824
Sum of atomic charges:    0.0000000

LOEWDIN ATOMIC CHARGES
----------------------
   0 C :    0.181430
   1 C :   -0.229758
   2 C :   -0.225378
   3 C :   -0.032578
   4 O :   -0.313127
   5 H :    0.114793
   6 H :    0.123713
   7 H :    0.125835
   8 H :    0.119673
   9 H :    0.112687
  10 H :    0.105907
  11 H :    0.107782
  12 C :   -0.048100
  13 H :    0.116772
  14 H :    0.117058
  15 O :   -0.337042
  16 C :    0.002538
  17 C :    0.040755
  18 C :   -0.239858
  19 C :   -0.031085
  20 O :   -0.325752
  21 H :    0.107927
  22 H :    0.107235
  23 O :   -0.430979
  24 H :    0.122623
  25 H :    0.112144
  26 H :    0.103663
  27 H :    0.106189
  28 H :    0.284931

  Mayer bond orders larger than 0.100000
B(  0-C ,  1-C ) :   0.9182 B(  0-C ,  4-O ) :   0.9218 B(  0-C ,  5-H ) :   0.9346
B(  0-C , 15-O ) :   0.8368 B(  1-C ,  2-C ) :   0.9556 B(  1-C ,  6-H ) :   0.9320
B(  1-C ,  7-H ) :   0.9305 B(  2-C ,  3-C ) :   0.9481 B(  2-C ,  8-H ) :   0.9439
B(  2-C ,  9-H ) :   0.9225 B(  3-C ,  4-O ) :   0.8310 B(  3-C , 10-H ) :   0.9324
B(  3-C , 11-H ) :   0.9391 B( 12-C , 13-H ) :   0.9363 B( 12-C , 14-H ) :   0.9231
B( 12-C , 15-O ) :   0.7969 B( 12-C , 16-C ) :   0.8813 B( 16-C , 17-C ) :   0.9057
B( 16-C , 20-O ) :   0.8531 B( 16-C , 21-H ) :   0.9080 B( 17-C , 18-C ) :   0.9012
B( 17-C , 22-H ) :   0.9339 B( 17-C , 23-O ) :   0.9301 B( 18-C , 19-C ) :   0.9392
B( 18-C , 24-H ) :   0.9438 B( 18-C , 25-H ) :   0.9430 B( 19-C , 20-O ) :   0.8296
B( 19-C , 26-H ) :   0.9338 B( 19-C , 27-H ) :   0.9391 B( 23-O , 28-H ) :   0.7281

FINAL SINGLE POINT ENERGY      -652.858644839504

DIPOLE MOMENT
-------------
                                X             Y             Z
Electronic contribution:     -0.61647      -2.82448      -0.58179
Nuclear contribution   :      1.06510       3.23267       0.88880
                        -----------------------------------------
Total Dipole Moment    :      0.44862       0.40819       0.30701
                        -----------------------------------------
Magnitude (a.u.)       :      0.67981
Magnitude (Debye)      :      1.72793

Rotational constants in cm-1:     0.050253     0.015982     0.014553
Rotational constants in MHz :  1506.542633   479.138917   436.301174

                             ****ORCA TERMINATED NORMALLY****
TOTAL RUN TIME: 0 days 0 hours 33 minutes 20 seconds 773 msec
