                         Program Version 4.2.0 -  RELEASE  -
|  1> # Test redundant internal optimization
|  2> #
|  3> ! RKS B3LYP  Opt TightSCF SmallPrint
|  4>
|  5> %basis
|  6>         Basis "6-31G"
|  7> end
|  8>
|  9> %geom
| 10> Constraints
| 11> { D 4  0  15  12  345.0   C } # D for Dihedral angle
| 12> { D 0  15  12  16  270.0   C } # D for Dihedral angle
| 13> { D 0  4  3  2   C } # D for Dihedral angle
| 14> { D 4  3  2  1   C } # D for Dihedral angle
| 15> { D 3  2  1  0   C } # D for Dihedral angle
| 16> { D 2  1  0  4   C } # D for Dihedral angle
| 17> { D 1  0  4  3   C } # D for Dihedral angle
| 18> { D 16  20  19  18   C } # D for Dihedral angle
| 19> { D 20  19  18  17   C } # D for Dihedral angle
| 20> { D 19  18  17  16   C } # D for Dihedral angle
| 21> { D 18  17  16  20   C } # D for Dihedral angle
| 22> { D 17  16  20  19   C } # D for Dihedral angle
| 23> { D 15  12  16  20   C } # D for Dihedral angle
| 24> end
| 25> end
| 26>
| 27>
| 28> #%pal
| 29> #nprocs 8
| 30> #end
| 31>
| 32> * xyz 0 1
| 33> C  -21.048   26.222   46.251
| 34> C  -20.361   27.558   45.944
| 35> C  -20.329   28.222   47.341
| 36> C  -20.110   27.022   48.296
| 37> O  -20.473   25.807   47.535
| 38> H  -20.833   25.428   45.533
| 39> H  -19.344   27.382   45.576
| 40> H  -20.898   28.157   45.201
| 41> H  -19.543   28.978   47.434
| 42> H  -21.289   28.710   47.548
| 43> H  -20.733   27.082   49.195
| 44> H  -19.064   26.913   48.597
| 45> C  -23.221   25.764   47.645
| 46> H  -22.492   25.790   48.465
| 47> H  -24.106   26.335   47.955
| 48> O  -22.586   26.394   46.375
| 49> C  -23.661   24.290   47.429
| 50> C  -24.386   23.739   48.661
| 51> C  -25.798   24.347   48.493
| 52> C  -26.001   24.344   46.957
| 53> O  -24.658   24.205   46.356
| 54> H  -22.797   23.702   47.111
| 55> O  -24.445   22.188   48.596
| 56> H  -23.909   24.027   49.605
| 57> H  -26.572   23.776   49.017
| 58> H  -25.816   25.372   48.883
| 59> H  -26.463   25.269   46.593
| 60> H  -26.597   23.493   46.616
| 61> H  -24.919   21.877   47.659
| 62> *
| 63>
| 64>                          ****END OF INPUT****
 Total Charge           Charge          ....    0
 Multiplicity           Mult            ....    1
 Number of Electrons    NEL             ....  102
FINAL SINGLE POINT ENERGY      -652.832981409189
FINAL SINGLE POINT ENERGY      -652.855380473270
FINAL SINGLE POINT ENERGY      -652.859555581755
FINAL SINGLE POINT ENERGY      -652.860291178606
FINAL SINGLE POINT ENERGY      -652.860402054354
FINAL SINGLE POINT ENERGY      -652.860417025629
                    ***********************HURRAY********************

CARTESIAN COORDINATES (ANGSTROEM)
---------------------------------
  C    -21.100877   26.172953   46.327688
  C    -20.476826   27.522129   45.971430
  C    -20.340991   28.183158   47.361561
  C    -20.013030   26.993673   48.290067
  O    -20.420194   25.771631   47.537846
  H    -20.924868   25.374275   45.602637
  H    -19.495129   27.356175   45.513137
  H    -21.102996   28.091760   45.281817
  H    -19.564498   28.953887   47.387820
  H    -21.291609   28.646179   47.644416
  H    -20.556105   27.021139   49.239002
  H    -18.943233   26.889134   48.490995
  C    -23.197646   25.797408   47.656393
  H    -22.526418   25.825428   48.521429
  H    -24.047283   26.463876   47.831456
  O    -22.542455   26.341391   46.478884
  C    -23.673586   24.358247   47.442228
  C    -24.419922   23.772611   48.649268
  C    -25.848966   24.341081   48.444536
  C    -26.003326   24.345980   46.902986
  O    -24.635947   24.253191   46.340989
  H    -22.817760   23.732748   47.169953
  O    -24.413084   22.318514   48.611746
  H    -23.983049   24.037657   49.613292
  H    -26.589098   23.714484   48.947876
  H    -25.917698   25.354159   48.856619
  H    -26.482432   25.255882   46.527936
  H    -26.564639   23.480814   46.535106
  H    -24.558335   22.023436   47.687889

 Multiplicity           Mult            ....    1
 Number of Electrons    NEL             ....  102
 Basis Dimension        Dim             ....  149

ORBITAL ENERGIES
----------------

  NO   OCC          E(Eh)            E(eV)
   0   2.0000     -19.151163      -521.1296
   1   2.0000     -19.136377      -520.7273
   2   2.0000     -19.136341      -520.7263
   3   2.0000     -19.135248      -520.6966
   4   2.0000     -10.277551      -279.6664
   5   2.0000     -10.239436      -278.6292
   6   2.0000     -10.233216      -278.4600
   7   2.0000     -10.227775      -278.3119
   8   2.0000     -10.227082      -278.2931
   9   2.0000     -10.226908      -278.2883
  10   2.0000     -10.190329      -277.2929
  11   2.0000     -10.186871      -277.1989
  12   2.0000     -10.185170      -277.1526
  13   2.0000      -1.054826       -28.7033
  14   2.0000      -1.032348       -28.0916
  15   2.0000      -1.002673       -27.2841
  16   2.0000      -0.989948       -26.9379
  17   2.0000      -0.792094       -21.5540
  18   2.0000      -0.779913       -21.2225
  19   2.0000      -0.764218       -20.7954
  20   2.0000      -0.734470       -19.9859
  21   2.0000      -0.671020       -18.2594
  22   2.0000      -0.604036       -16.4367
  23   2.0000      -0.601546       -16.3689
  24   2.0000      -0.598298       -16.2805
  25   2.0000      -0.569593       -15.4994
  26   2.0000      -0.522363       -14.2142
  27   2.0000      -0.511177       -13.9098
  28   2.0000      -0.497921       -13.5491
  29   2.0000      -0.490883       -13.3576
  30   2.0000      -0.473051       -12.8724
  31   2.0000      -0.459457       -12.5024
  32   2.0000      -0.449179       -12.2228
  33   2.0000      -0.437767       -11.9122
  34   2.0000      -0.421338       -11.4652
  35   2.0000      -0.412220       -11.2171
  36   2.0000      -0.396368       -10.7857
  37   2.0000      -0.389903       -10.6098
  38   2.0000      -0.374482       -10.1902
  39   2.0000      -0.368683       -10.0324
  40   2.0000      -0.360966        -9.8224
  41   2.0000      -0.356009        -9.6875
  42   2.0000      -0.350809        -9.5460
  43   2.0000      -0.332665        -9.0523
  44   2.0000      -0.328786        -8.9467
  45   2.0000      -0.308122        -8.3844
  46   2.0000      -0.297429        -8.0935
  47   2.0000      -0.267571        -7.2810
  48   2.0000      -0.265014        -7.2114
  49   2.0000      -0.261745        -7.1224
  50   2.0000      -0.231276        -6.2933
  51   0.0000       0.068829         1.8729
  52   0.0000       0.079047         2.1510
  53   0.0000       0.088548         2.4095
  54   0.0000       0.097916         2.6644
  55   0.0000       0.106439         2.8963

MULLIKEN ATOMIC CHARGES
-----------------------
   0 C :    0.294463
   1 C :   -0.256565
   2 C :   -0.303520
   3 C :   -0.017272
   4 O :   -0.515729
   5 H :    0.158522
   6 H :    0.144074
   7 H :    0.163962
   8 H :    0.146550
   9 H :    0.156295
  10 H :    0.142372
  11 H :    0.152097
  12 C :   -0.013121
  13 H :    0.145262
  14 H :    0.142263
  15 O :   -0.520860
  16 C :    0.060491
  17 C :    0.079879
  18 C :   -0.293794
  19 C :   -0.026868
  20 O :   -0.512179
  21 H :    0.170304
  22 O :   -0.603253
  23 H :    0.148059
  24 H :    0.162198
  25 H :    0.139793
  26 H :    0.147454
  27 H :    0.143726
  28 H :    0.365396
Sum of atomic charges:   -0.0000000

LOEWDIN ATOMIC CHARGES
----------------------
   0 C :    0.179971
   1 C :   -0.216753
   2 C :   -0.218581
   3 C :   -0.032108
   4 O :   -0.323371
   5 H :    0.103586
   6 H :    0.113476
   7 H :    0.127670
   8 H :    0.116805
   9 H :    0.115830
  10 H :    0.100800
  11 H :    0.107589
  12 C :   -0.044716
  13 H :    0.106258
  14 H :    0.107136
  15 O :   -0.328142
  16 C :    0.007259
  17 C :    0.035945
  18 C :   -0.240923
  19 C :   -0.038011
  20 O :   -0.323947
  21 H :    0.119354
  22 O :   -0.415318
  23 H :    0.113467
  24 H :    0.126485
  25 H :    0.110717
  26 H :    0.104709
  27 H :    0.101385
  28 H :    0.283429

  Mayer bond orders larger than 0.100000
B(  0-C ,  1-C ) :   0.9383 B(  0-C ,  4-O ) :   0.9009 B(  0-C ,  5-H ) :   0.9245
B(  0-C , 15-O ) :   0.8468 B(  1-C ,  2-C ) :   0.9530 B(  1-C ,  6-H ) :   0.9365
B(  1-C ,  7-H ) :   0.9353 B(  2-C ,  3-C ) :   0.9539 B(  2-C ,  8-H ) :   0.9448
B(  2-C ,  9-H ) :   0.9453 B(  3-C ,  4-O ) :   0.8298 B(  3-C , 10-H ) :   0.9328
B(  3-C , 11-H ) :   0.9407 B( 12-C , 13-H ) :   0.9041 B( 12-C , 14-H ) :   0.9374
B( 12-C , 15-O ) :   0.8595 B( 12-C , 16-C ) :   0.8803 B( 16-C , 17-C ) :   0.8995
B( 16-C , 20-O ) :   0.8610 B( 16-C , 21-H ) :   0.9247 B( 17-C , 18-C ) :   0.9100
B( 17-C , 22-O ) :   0.8921 B( 17-C , 23-H ) :   0.9344 B( 18-C , 19-C ) :   0.9382
B( 18-C , 24-H ) :   0.9377 B( 18-C , 25-H ) :   0.9354 B( 19-C , 20-O ) :   0.8524
B( 19-C , 26-H ) :   0.9344 B( 19-C , 27-H ) :   0.9379 B( 22-O , 28-H ) :   0.7937

FINAL SINGLE POINT ENERGY      -652.860419697803

DIPOLE MOMENT
-------------
                                X             Y             Z
Electronic contribution:     -0.36226      -4.78145      -2.06123
Nuclear contribution   :      0.42308       5.90605       2.47130
                        -----------------------------------------
Total Dipole Moment    :      0.06082       1.12460       0.41007
                        -----------------------------------------
Magnitude (a.u.)       :      1.19857
Magnitude (Debye)      :      3.04652

Rotational constants in cm-1:     0.060615     0.012666     0.011838
Rotational constants in MHz :  1817.192858   379.707200   354.898890

                             ****ORCA TERMINATED NORMALLY****
TOTAL RUN TIME: 0 days 0 hours 20 minutes 19 seconds 629 msec
