                         Program Version 4.2.0 -  RELEASE  -
|  1> # Test redundant internal optimization
|  2> #
|  3> ! RKS B3LYP  Opt TightSCF SmallPrint
|  4>
|  5> %basis
|  6>         Basis "6-31G"
|  7> end
|  8>
|  9> %geom
| 10> Constraints
| 11> { D 4  0  15  12  300.0   C } # D for Dihedral angle
| 12> { D 0  15  12  16  255.0   C } # D for Dihedral angle
| 13> { D 0  4  3  2   C } # D for Dihedral angle
| 14> { D 4  3  2  1   C } # D for Dihedral angle
| 15> { D 3  2  1  0   C } # D for Dihedral angle
| 16> { D 2  1  0  4   C } # D for Dihedral angle
| 17> { D 1  0  4  3   C } # D for Dihedral angle
| 18> { D 16  20  19  18   C } # D for Dihedral angle
| 19> { D 20  19  18  17   C } # D for Dihedral angle
| 20> { D 19  18  17  16   C } # D for Dihedral angle
| 21> { D 18  17  16  20   C } # D for Dihedral angle
| 22> { D 17  16  20  19   C } # D for Dihedral angle
| 23> { D 15  12  16  20   C } # D for Dihedral angle
| 24> end
| 25> end
| 26>
| 27>
| 28> #%pal
| 29> #nprocs 8
| 30> #end
| 31>
| 32> * xyz 0 1
| 33> C  -21.048   26.222   46.251
| 34> C  -20.361   27.558   45.944
| 35> C  -20.329   28.222   47.341
| 36> C  -20.110   27.022   48.296
| 37> O  -20.473   25.807   47.535
| 38> H  -20.833   25.428   45.533
| 39> H  -19.344   27.382   45.576
| 40> H  -20.898   28.157   45.201
| 41> H  -19.543   28.978   47.434
| 42> H  -21.289   28.710   47.548
| 43> H  -20.733   27.082   49.195
| 44> H  -19.064   26.913   48.597
| 45> C  -23.362   25.116   46.798
| 46> H  -22.655   24.381   47.202
| 47> H  -24.095   25.353   47.580
| 48> O  -22.586   26.394   46.375
| 49> C  -24.127   24.460   45.616
| 50> C  -23.159   23.941   44.546
| 51> C  -22.679   22.612   45.175
| 52> C  -23.939   22.098   45.916
| 53> O  -24.839   23.261   46.070
| 54> H  -24.880   25.158   45.245
| 55> O  -23.924   23.676   43.220
| 56> H  -22.337   24.634   44.336
| 57> H  -22.312   21.898   44.430
| 58> H  -21.864   22.804   45.883
| 59> H  -23.706   21.691   46.906
| 60> H  -24.481   21.343   45.342
| 61> H  -24.753   22.983   43.405
| 62> *
| 63>
| 64>                          ****END OF INPUT****
 Total Charge           Charge          ....    0
 Multiplicity           Mult            ....    1
 Number of Electrons    NEL             ....  102
FINAL SINGLE POINT ENERGY      -652.839358337074
FINAL SINGLE POINT ENERGY      -652.862570412416
FINAL SINGLE POINT ENERGY      -652.866729280963
FINAL SINGLE POINT ENERGY      -652.867453967167
FINAL SINGLE POINT ENERGY      -652.867548859464
FINAL SINGLE POINT ENERGY      -652.867559354035
                    ***********************HURRAY********************

CARTESIAN COORDINATES (ANGSTROEM)
---------------------------------
  C    -21.043993   26.139550   46.266197
  C    -20.438750   27.506850   45.949302
  C    -20.450443   28.185293   47.336956
  C    -20.164470   27.016514   48.305342
  O    -20.458472   25.774660   47.539179
  H    -20.786147   25.330075   45.577720
  H    -19.415308   27.371978   45.581761
  H    -21.019206   28.048383   45.199653
  H    -19.706682   28.983703   47.420753
  H    -21.439755   28.610492   47.527269
  H    -20.791439   27.035381   49.200198
  H    -19.113323   26.955118   48.601674
  C    -23.251301   25.157758   46.786474
  H    -22.597188   24.444098   47.300568
  H    -23.986750   25.519619   47.509115
  O    -22.474895   26.319571   46.353007
  C    -23.994501   24.499113   45.618323
  C    -23.123461   23.906484   44.499416
  C    -22.678672   22.558769   45.126244
  C    -23.917469   22.131573   45.952308
  O    -24.742687   23.348683   46.138650
  H    -24.724003   25.200102   45.202143
  O    -23.910707   23.701266   43.292435
  H    -22.298399   24.547319   44.193903
  H    -22.417148   21.838351   44.347569
  H    -21.803379   22.704337   45.769026
  H    -23.654191   21.726717   46.934050
  H    -24.538564   21.398259   45.427963
  H    -24.781695   23.323985   43.538802

 Multiplicity           Mult            ....    1
 Number of Electrons    NEL             ....  102
 Basis Dimension        Dim             ....  149

ORBITAL ENERGIES
----------------

  NO   OCC          E(Eh)            E(eV)
   0   2.0000     -19.146409      -521.0003
   1   2.0000     -19.145056      -520.9635
   2   2.0000     -19.144741      -520.9549
   3   2.0000     -19.137008      -520.7445
   4   2.0000     -10.281786      -279.7816
   5   2.0000     -10.240273      -278.6520
   6   2.0000     -10.232158      -278.4312
   7   2.0000     -10.231958      -278.4257
   8   2.0000     -10.227955      -278.3168
   9   2.0000     -10.226108      -278.2665
  10   2.0000     -10.188897      -277.2540
  11   2.0000     -10.186929      -277.2004
  12   2.0000     -10.186481      -277.1882
  13   2.0000      -1.056628       -28.7523
  14   2.0000      -1.037133       -28.2218
  15   2.0000      -1.005646       -27.3650
  16   2.0000      -0.995100       -27.0780
  17   2.0000      -0.791366       -21.5342
  18   2.0000      -0.778691       -21.1893
  19   2.0000      -0.766187       -20.8490
  20   2.0000      -0.733442       -19.9580
  21   2.0000      -0.674359       -18.3502
  22   2.0000      -0.603633       -16.4257
  23   2.0000      -0.601748       -16.3744
  24   2.0000      -0.593939       -16.1619
  25   2.0000      -0.581784       -15.8311
  26   2.0000      -0.521604       -14.1936
  27   2.0000      -0.520225       -14.1560
  28   2.0000      -0.499698       -13.5975
  29   2.0000      -0.488202       -13.2846
  30   2.0000      -0.470714       -12.8088
  31   2.0000      -0.459145       -12.4940
  32   2.0000      -0.449634       -12.2352
  33   2.0000      -0.433722       -11.8022
  34   2.0000      -0.423253       -11.5173
  35   2.0000      -0.417100       -11.3499
  36   2.0000      -0.404209       -10.9991
  37   2.0000      -0.393359       -10.7039
  38   2.0000      -0.377161       -10.2631
  39   2.0000      -0.368993       -10.0408
  40   2.0000      -0.359441        -9.7809
  41   2.0000      -0.353558        -9.6208
  42   2.0000      -0.349491        -9.5101
  43   2.0000      -0.334239        -9.0951
  44   2.0000      -0.330633        -8.9970
  45   2.0000      -0.307557        -8.3691
  46   2.0000      -0.298625        -8.1260
  47   2.0000      -0.278755        -7.5853
  48   2.0000      -0.269245        -7.3265
  49   2.0000      -0.259603        -7.0642
  50   2.0000      -0.241449        -6.5702
  51   0.0000       0.066257         1.8029
  52   0.0000       0.073324         1.9953
  53   0.0000       0.093261         2.5377
  54   0.0000       0.101516         2.7624
  55   0.0000       0.103464         2.8154

MULLIKEN ATOMIC CHARGES
-----------------------
   0 C :    0.282171
   1 C :   -0.260847
   2 C :   -0.298160
   3 C :   -0.005474
   4 O :   -0.516245
   5 H :    0.142011
   6 H :    0.145296
   7 H :    0.161374
   8 H :    0.142286
   9 H :    0.165061
  10 H :    0.148662
  11 H :    0.144209
  12 C :   -0.030673
  13 H :    0.155882
  14 H :    0.162857
  15 O :   -0.522753
  16 C :    0.063601
  17 C :    0.081604
  18 C :   -0.302414
  19 C :   -0.030855
  20 O :   -0.526553
  21 H :    0.165549
  22 O :   -0.604766
  23 H :    0.160326
  24 H :    0.163761
  25 H :    0.151955
  26 H :    0.150341
  27 H :    0.147460
  28 H :    0.364333
Sum of atomic charges:    0.0000000

LOEWDIN ATOMIC CHARGES
----------------------
   0 C :    0.169402
   1 C :   -0.213773
   2 C :   -0.215571
   3 C :   -0.027567
   4 O :   -0.331371
   5 H :    0.091977
   6 H :    0.114297
   7 H :    0.126392
   8 H :    0.114199
   9 H :    0.120611
  10 H :    0.106250
  11 H :    0.103678
  12 C :   -0.046533
  13 H :    0.109897
  14 H :    0.119060
  15 O :   -0.329855
  16 C :    0.011289
  17 C :    0.035063
  18 C :   -0.243103
  19 C :   -0.037938
  20 O :   -0.330805
  21 H :    0.117429
  22 O :   -0.415102
  23 H :    0.117718
  24 H :    0.127267
  25 H :    0.116018
  26 H :    0.105822
  27 H :    0.102636
  28 H :    0.282614

  Mayer bond orders larger than 0.100000
B(  0-C ,  1-C ) :   0.9506 B(  0-C ,  4-O ) :   0.9002 B(  0-C ,  5-H ) :   0.9104
B(  0-C , 15-O ) :   0.8619 B(  1-C ,  2-C ) :   0.9558 B(  1-C ,  6-H ) :   0.9398
B(  1-C ,  7-H ) :   0.9352 B(  2-C ,  3-C ) :   0.9562 B(  2-C ,  8-H ) :   0.9449
B(  2-C ,  9-H ) :   0.9438 B(  3-C ,  4-O ) :   0.8324 B(  3-C , 10-H ) :   0.9358
B(  3-C , 11-H ) :   0.9405 B( 12-C , 13-H ) :   0.9187 B( 12-C , 14-H ) :   0.9335
B( 12-C , 15-O ) :   0.8255 B( 12-C , 16-C ) :   0.8888 B( 16-C , 17-C ) :   0.9121
B( 16-C , 20-O ) :   0.8367 B( 16-C , 21-H ) :   0.9260 B( 17-C , 18-C ) :   0.9150
B( 17-C , 22-O ) :   0.8889 B( 17-C , 23-H ) :   0.9243 B( 18-C , 19-C ) :   0.9398
B( 18-C , 24-H ) :   0.9373 B( 18-C , 25-H ) :   0.9321 B( 19-C , 20-O ) :   0.8418
B( 19-C , 26-H ) :   0.9347 B( 19-C , 27-H ) :   0.9381 B( 22-O , 28-H ) :   0.7943

FINAL SINGLE POINT ENERGY      -652.867560991514

DIPOLE MOMENT
-------------
                                X             Y             Z
Electronic contribution:     -3.95777      -1.57211      -1.54411
Nuclear contribution   :      4.64350       1.66723       1.94411
                        -----------------------------------------
Total Dipole Moment    :      0.68573       0.09512       0.40000
                        -----------------------------------------
Magnitude (a.u.)       :      0.79954
Magnitude (Debye)      :      2.03228

Rotational constants in cm-1:     0.058046     0.013072     0.012416
Rotational constants in MHz :  1740.173822   391.891745   372.224672

                             ****ORCA TERMINATED NORMALLY****
TOTAL RUN TIME: 0 days 1 hours 24 minutes 30 seconds 788 msec
