                         Program Version 4.2.0 -  RELEASE  -
|  1> # Test redundant internal optimization
|  2> #
|  3> ! RKS B3LYP  Opt TightSCF SmallPrint
|  4>
|  5> %basis
|  6>         Basis "6-31G"
|  7> end
|  8>
|  9> %geom
| 10> Constraints
| 11> { D 4  0  15  12  300.0   C } # D for Dihedral angle
| 12> { D 0  15  12  16  150.0   C } # D for Dihedral angle
| 13> { D 0  4  3  2   C } # D for Dihedral angle
| 14> { D 4  3  2  1   C } # D for Dihedral angle
| 15> { D 3  2  1  0   C } # D for Dihedral angle
| 16> { D 2  1  0  4   C } # D for Dihedral angle
| 17> { D 1  0  4  3   C } # D for Dihedral angle
| 18> { D 16  20  19  18   C } # D for Dihedral angle
| 19> { D 20  19  18  17   C } # D for Dihedral angle
| 20> { D 19  18  17  16   C } # D for Dihedral angle
| 21> { D 18  17  16  20   C } # D for Dihedral angle
| 22> { D 17  16  20  19   C } # D for Dihedral angle
| 23> { D 15  12  16  20   C } # D for Dihedral angle
| 24> end
| 25> end
| 26>
| 27>
| 28> #%pal
| 29> #nprocs 8
| 30> #end
| 31>
| 32> * xyz 0 1
| 33> C  -21.048   26.222   46.251
| 34> C  -20.361   27.558   45.944
| 35> C  -20.329   28.222   47.341
| 36> C  -20.110   27.022   48.296
| 37> O  -20.473   25.807   47.535
| 38> H  -20.833   25.428   45.533
| 39> H  -19.344   27.382   45.576
| 40> H  -20.898   28.157   45.201
| 41> H  -19.543   28.978   47.434
| 42> H  -21.289   28.710   47.548
| 43> H  -20.733   27.082   49.195
| 44> H  -19.064   26.913   48.597
| 45> C  -23.362   25.116   46.798
| 46> H  -23.644   24.551   45.901
| 47> H  -22.730   24.473   47.424
| 48> O  -22.586   26.394   46.375
| 49> C  -24.653   25.436   47.601
| 50> C  -24.346   26.304   48.827
| 51> C  -24.210   27.708   48.190
| 52> C  -25.257   27.679   47.047
| 53> O  -25.567   26.254   46.798
| 54> H  -25.173   24.503   47.827
| 55> H  -25.188   26.277   49.526
| 56> O  -23.064   25.861   49.584
| 57> H  -24.394   28.518   48.903
| 58> H  -23.200   27.842   47.784
| 59> H  -24.883   28.132   46.123
| 60> H  -26.194   28.168   47.327
| 61> H  -22.208   25.880   48.901
| 62> *
| 63>
| 64>                          ****END OF INPUT****
 Total Charge           Charge          ....    0
 Multiplicity           Mult            ....    1
 Number of Electrons    NEL             ....  102
FINAL SINGLE POINT ENERGY      -652.839569900005
FINAL SINGLE POINT ENERGY      -652.862713170357
FINAL SINGLE POINT ENERGY      -652.866603839631
FINAL SINGLE POINT ENERGY      -652.868394252251
FINAL SINGLE POINT ENERGY      -652.868624468165
FINAL SINGLE POINT ENERGY      -652.868684098737
FINAL SINGLE POINT ENERGY      -652.868693561920
                    ***********************HURRAY********************

CARTESIAN COORDINATES (ANGSTROEM)
---------------------------------
  C    -21.077245   26.170289   46.268045
  C    -20.375056   27.483873   45.911047
  C    -20.322963   28.190716   47.284429
  C    -20.113486   27.031603   48.283169
  O    -20.506181   25.786032   47.551085
  H    -20.852104   25.335748   45.594591
  H    -19.370145   27.258389   45.540066
  H    -20.920971   28.048407   45.152479
  H    -19.516275   28.928362   47.344182
  H    -21.266531   28.709615   47.476097
  H    -20.725747   27.125127   49.183879
  H    -19.067523   26.899305   48.570583
  C    -23.237273   25.159495   46.763046
  H    -23.502231   24.592018   45.861823
  H    -22.599166   24.533232   47.396167
  O    -22.500559   26.361026   46.341350
  C    -24.515492   25.504371   47.515810
  C    -24.325744   26.310686   48.812097
  C    -24.292803   27.774337   48.276444
  C    -25.292640   27.729501   47.101565
  O    -25.464864   26.294238   46.745661
  H    -25.013563   24.547947   47.720502
  H    -25.185814   26.161648   49.468622
  O    -23.182329   25.918235   49.608277
  H    -24.577794   28.496916   49.046805
  H    -23.286844   27.999400   47.923536
  H    -24.932325   28.265355   46.219234
  H    -26.283107   28.105875   47.375087
  H    -22.377226   25.855253   49.051323

 Multiplicity           Mult            ....    1
 Number of Electrons    NEL             ....  102
 Basis Dimension        Dim             ....  149

ORBITAL ENERGIES
----------------

  NO   OCC          E(Eh)            E(eV)
   0   2.0000     -19.159861      -521.3663
   1   2.0000     -19.156462      -521.2738
   2   2.0000     -19.134624      -520.6796
   3   2.0000     -19.131551      -520.5960
   4   2.0000     -10.289550      -279.9929
   5   2.0000     -10.238418      -278.6015
   6   2.0000     -10.233857      -278.4774
   7   2.0000     -10.231056      -278.4012
   8   2.0000     -10.230906      -278.3971
   9   2.0000     -10.218989      -278.0728
  10   2.0000     -10.197174      -277.4792
  11   2.0000     -10.197022      -277.4751
  12   2.0000     -10.174991      -276.8756
  13   2.0000      -1.067430       -29.0462
  14   2.0000      -1.023610       -27.8538
  15   2.0000      -1.007179       -27.4067
  16   2.0000      -1.001308       -27.2470
  17   2.0000      -0.800448       -21.7813
  18   2.0000      -0.772654       -21.0250
  19   2.0000      -0.764800       -20.8113
  20   2.0000      -0.738362       -20.0918
  21   2.0000      -0.678565       -18.4647
  22   2.0000      -0.611455       -16.6385
  23   2.0000      -0.600975       -16.3534
  24   2.0000      -0.595821       -16.2131
  25   2.0000      -0.575210       -15.6523
  26   2.0000      -0.525200       -14.2914
  27   2.0000      -0.514302       -13.9949
  28   2.0000      -0.510100       -13.8805
  29   2.0000      -0.488852       -13.3023
  30   2.0000      -0.474542       -12.9129
  31   2.0000      -0.465944       -12.6790
  32   2.0000      -0.438227       -11.9248
  33   2.0000      -0.431279       -11.7357
  34   2.0000      -0.418802       -11.3962
  35   2.0000      -0.416854       -11.3432
  36   2.0000      -0.405211       -11.0264
  37   2.0000      -0.398120       -10.8334
  38   2.0000      -0.381657       -10.3854
  39   2.0000      -0.370825       -10.0907
  40   2.0000      -0.368850       -10.0369
  41   2.0000      -0.357199        -9.7199
  42   2.0000      -0.348226        -9.4757
  43   2.0000      -0.345512        -9.4019
  44   2.0000      -0.326738        -8.8910
  45   2.0000      -0.311417        -8.4741
  46   2.0000      -0.299403        -8.1472
  47   2.0000      -0.278231        -7.5710
  48   2.0000      -0.268432        -7.3044
  49   2.0000      -0.258559        -7.0358
  50   2.0000      -0.237633        -6.4663
  51   0.0000       0.064066         1.7433
  52   0.0000       0.082887         2.2555
  53   0.0000       0.089383         2.4322
  54   0.0000       0.095959         2.6112
  55   0.0000       0.097837         2.6623

MULLIKEN ATOMIC CHARGES
-----------------------
   0 C :    0.282393
   1 C :   -0.263524
   2 C :   -0.304176
   3 C :   -0.032716
   4 O :   -0.518893
   5 H :    0.151351
   6 H :    0.152885
   7 H :    0.164202
   8 H :    0.149107
   9 H :    0.166227
  10 H :    0.153139
  11 H :    0.154810
  12 C :   -0.036187
  13 H :    0.155371
  14 H :    0.159859
  15 O :   -0.522413
  16 C :    0.080593
  17 C :    0.084035
  18 C :   -0.310611
  19 C :   -0.004406
  20 O :   -0.519669
  21 H :    0.150903
  22 H :    0.159919
  23 O :   -0.626890
  24 H :    0.140334
  25 H :    0.165310
  26 H :    0.146809
  27 H :    0.140026
  28 H :    0.382213
Sum of atomic charges:    0.0000000

LOEWDIN ATOMIC CHARGES
----------------------
   0 C :    0.169732
   1 C :   -0.211602
   2 C :   -0.216430
   3 C :   -0.036887
   4 O :   -0.337874
   5 H :    0.097808
   6 H :    0.119125
   7 H :    0.128589
   8 H :    0.117876
   9 H :    0.116983
  10 H :    0.105566
  11 H :    0.109658
  12 C :   -0.056176
  13 H :    0.110957
  14 H :    0.113077
  15 O :   -0.328054
  16 C :    0.017147
  17 C :    0.040381
  18 C :   -0.242881
  19 C :   -0.024878
  20 O :   -0.323026
  21 H :    0.115562
  22 H :    0.114962
  23 O :   -0.417641
  24 H :    0.113815
  25 H :    0.116705
  26 H :    0.105700
  27 H :    0.100520
  28 H :    0.281288

  Mayer bond orders larger than 0.100000
B(  0-C ,  1-C ) :   0.9465 B(  0-C ,  4-O ) :   0.8789 B(  0-C ,  5-H ) :   0.9188
B(  0-C , 15-O ) :   0.8752 B(  1-C ,  2-C ) :   0.9544 B(  1-C ,  6-H ) :   0.9386
B(  1-C ,  7-H ) :   0.9351 B(  2-C ,  3-C ) :   0.9535 B(  2-C ,  8-H ) :   0.9437
B(  2-C ,  9-H ) :   0.9357 B(  3-C ,  4-O ) :   0.8256 B(  3-C , 10-H ) :   0.9224
B(  3-C , 11-H ) :   0.9407 B( 12-C , 13-H ) :   0.9241 B( 12-C , 14-H ) :   0.8952
B( 12-C , 15-O ) :   0.8185 B( 12-C , 16-C ) :   0.9180 B( 16-C , 17-C ) :   0.8947
B( 16-C , 20-O ) :   0.8817 B( 16-C , 21-H ) :   0.9244 B( 17-C , 18-C ) :   0.9208
B( 17-C , 22-H ) :   0.9362 B( 17-C , 23-O ) :   0.9115 B( 18-C , 19-C ) :   0.9445
B( 18-C , 24-H ) :   0.9428 B( 18-C , 25-H ) :   0.9196 B( 19-C , 20-O ) :   0.8343
B( 19-C , 26-H ) :   0.9327 B( 19-C , 27-H ) :   0.9380 B( 23-O , 28-H ) :   0.7459

FINAL SINGLE POINT ENERGY      -652.868693745928

DIPOLE MOMENT
-------------
                                X             Y             Z
Electronic contribution:     -2.59516      -4.46602      -0.40631
Nuclear contribution   :      3.55463       5.21618       0.00135
                        -----------------------------------------
Total Dipole Moment    :      0.95947       0.75016      -0.40496
                        -----------------------------------------
Magnitude (a.u.)       :      1.28348
Magnitude (Debye)      :      3.26235

Rotational constants in cm-1:     0.043863     0.018717     0.017816
Rotational constants in MHz :  1314.982989   561.121153   534.109221

                             ****ORCA TERMINATED NORMALLY****
TOTAL RUN TIME: 0 days 0 hours 34 minutes 5 seconds 383 msec
