                         Program Version 4.2.0 -  RELEASE  -
|  1> # Test redundant internal optimization
|  2> #
|  3> ! RKS B3LYP  Opt TightSCF SmallPrint
|  4>
|  5> %basis
|  6>         Basis "6-31G"
|  7> end
|  8>
|  9> %geom
| 10> Constraints
| 11> { D 4  0  15  12  255.0   C } # D for Dihedral angle
| 12> { D 0  15  12  16  300.0   C } # D for Dihedral angle
| 13> { D 0  4  3  2   C } # D for Dihedral angle
| 14> { D 4  3  2  1   C } # D for Dihedral angle
| 15> { D 3  2  1  0   C } # D for Dihedral angle
| 16> { D 2  1  0  4   C } # D for Dihedral angle
| 17> { D 1  0  4  3   C } # D for Dihedral angle
| 18> { D 16  20  19  18   C } # D for Dihedral angle
| 19> { D 20  19  18  17   C } # D for Dihedral angle
| 20> { D 19  18  17  16   C } # D for Dihedral angle
| 21> { D 18  17  16  20   C } # D for Dihedral angle
| 22> { D 17  16  20  19   C } # D for Dihedral angle
| 23> { D 15  12  16  20   C } # D for Dihedral angle
| 24> end
| 25> end
| 26>
| 27>
| 28> #%pal
| 29> #nprocs 8
| 30> #end
| 31>
| 32> * xyz 0 1
| 33> C  -21.048   26.222   46.251
| 34> C  -20.361   27.558   45.944
| 35> C  -20.329   28.222   47.341
| 36> C  -20.110   27.022   48.296
| 37> O  -20.473   25.807   47.535
| 38> H  -20.833   25.428   45.533
| 39> H  -19.344   27.382   45.576
| 40> H  -20.898   28.157   45.201
| 41> H  -19.543   28.978   47.434
| 42> H  -21.289   28.710   47.548
| 43> H  -20.733   27.082   49.195
| 44> H  -19.064   26.913   48.597
| 45> C  -23.431   25.260   45.734
| 46> H  -23.188   24.307   46.221
| 47> H  -24.503   25.453   45.874
| 48> O  -22.586   26.394   46.375
| 49> C  -23.174   25.108   44.209
| 50> C  -21.733   24.669   43.928
| 51> C  -21.804   23.152   44.224
| 52> C  -23.226   22.767   43.743
| 53> O  -23.995   24.026   43.656
| 54> H  -23.474   26.027   43.702
| 55> O  -21.380   24.922   42.437
| 56> H  -20.995   25.189   44.549
| 57> H  -21.022   22.583   43.711
| 58> H  -21.698   22.973   45.300
| 59> H  -23.731   22.084   44.435
| 60> H  -23.222   22.320   42.745
| 61> H  -22.106   24.409   41.794
| 62> *
| 63>
| 64>                          ****END OF INPUT****
 Total Charge           Charge          ....    0
 Multiplicity           Mult            ....    1
 Number of Electrons    NEL             ....  102
FINAL SINGLE POINT ENERGY      -652.791321737657
FINAL SINGLE POINT ENERGY      -652.832231634134
FINAL SINGLE POINT ENERGY      -652.851648545413
FINAL SINGLE POINT ENERGY      -652.854855155545
FINAL SINGLE POINT ENERGY      -652.855391422075
FINAL SINGLE POINT ENERGY      -652.855479602172
FINAL SINGLE POINT ENERGY      -652.855500836041
                    ***********************HURRAY********************

CARTESIAN COORDINATES (ANGSTROEM)
---------------------------------
  C    -20.861133   26.269160   46.301967
  C    -20.285734   27.672215   46.104094
  C    -20.476469   28.294544   47.507506
  C    -20.244256   27.094971   48.453880
  O    -20.399070   25.879476   47.617217
  H    -20.489288   25.503608   45.625444
  H    -19.221476   27.596906   45.851804
  H    -20.801879   28.221365   45.314139
  H    -19.782618   29.118091   47.699857
  H    -21.499293   28.669487   47.605354
  H    -20.965288   27.051988   49.274587
  H    -19.229470   27.067283   48.862902
  C    -23.155709   25.375244   45.651518
  H    -23.068165   24.425890   46.200920
  H    -24.166802   25.753922   45.808381
  O    -22.299802   26.371497   46.278706
  C    -23.011599   25.073057   44.140338
  C    -21.709140   24.478905   43.577892
  C    -21.828006   22.988212   44.008020
  C    -23.349328   22.718355   43.890091
  O    -24.018361   24.038102   43.874770
  H    -23.292837   25.955879   43.557333
  O    -21.698783   24.614123   42.127345
  H    -20.791510   24.958364   43.901708
  H    -21.228771   22.349024   43.356177
  H    -21.479253   22.860598   45.038637
  H    -23.742330   22.131070   44.725434
  H    -23.612481   22.212613   42.955244
  H    -22.584146   24.380051   41.776735

 Multiplicity           Mult            ....    1
 Number of Electrons    NEL             ....  102
 Basis Dimension        Dim             ....  149

ORBITAL ENERGIES
----------------

  NO   OCC          E(Eh)            E(eV)
   0   2.0000     -19.151634      -521.1425
   1   2.0000     -19.142977      -520.9069
   2   2.0000     -19.142028      -520.8811
   3   2.0000     -19.135845      -520.7128
   4   2.0000     -10.279669      -279.7240
   5   2.0000     -10.248157      -278.8665
   6   2.0000     -10.240768      -278.6655
   7   2.0000     -10.236892      -278.5600
   8   2.0000     -10.233235      -278.4605
   9   2.0000     -10.222177      -278.1596
  10   2.0000     -10.193905      -277.3903
  11   2.0000     -10.184074      -277.1227
  12   2.0000     -10.183123      -277.0969
  13   2.0000      -1.050885       -28.5960
  14   2.0000      -1.043912       -28.4063
  15   2.0000      -1.011815       -27.5329
  16   2.0000      -0.991874       -26.9903
  17   2.0000      -0.786767       -21.4090
  18   2.0000      -0.782844       -21.3023
  19   2.0000      -0.768904       -20.9230
  20   2.0000      -0.735743       -20.0206
  21   2.0000      -0.677935       -18.4475
  22   2.0000      -0.609885       -16.5958
  23   2.0000      -0.603224       -16.4145
  24   2.0000      -0.595974       -16.2173
  25   2.0000      -0.582813       -15.8591
  26   2.0000      -0.527154       -14.3446
  27   2.0000      -0.521174       -14.1819
  28   2.0000      -0.501065       -13.6347
  29   2.0000      -0.482995       -13.1430
  30   2.0000      -0.474779       -12.9194
  31   2.0000      -0.460415       -12.5285
  32   2.0000      -0.446590       -12.1523
  33   2.0000      -0.434460       -11.8223
  34   2.0000      -0.427675       -11.6376
  35   2.0000      -0.423737       -11.5305
  36   2.0000      -0.399578       -10.8731
  37   2.0000      -0.398444       -10.8422
  38   2.0000      -0.377467       -10.2714
  39   2.0000      -0.374923       -10.2022
  40   2.0000      -0.359240        -9.7754
  41   2.0000      -0.354636        -9.6501
  42   2.0000      -0.348957        -9.4956
  43   2.0000      -0.336500        -9.1566
  44   2.0000      -0.316805        -8.6207
  45   2.0000      -0.315018        -8.5721
  46   2.0000      -0.303538        -8.2597
  47   2.0000      -0.276634        -7.5276
  48   2.0000      -0.271094        -7.3768
  49   2.0000      -0.252594        -6.8734
  50   2.0000      -0.241966        -6.5842
  51   0.0000       0.061329         1.6689
  52   0.0000       0.070643         1.9223
  53   0.0000       0.088920         2.4196
  54   0.0000       0.098146         2.6707
  55   0.0000       0.101175         2.7531

MULLIKEN ATOMIC CHARGES
-----------------------
   0 C :    0.276556
   1 C :   -0.251223
   2 C :   -0.297336
   3 C :   -0.002365
   4 O :   -0.509776
   5 H :    0.141358
   6 H :    0.142677
   7 H :    0.150669
   8 H :    0.139803
   9 H :    0.165023
  10 H :    0.150411
  11 H :    0.139493
  12 C :    0.003352
  13 H :    0.134328
  14 H :    0.171535
  15 O :   -0.525222
  16 C :    0.034577
  17 C :    0.079476
  18 C :   -0.292629
  19 C :   -0.032513
  20 O :   -0.521895
  21 H :    0.164296
  22 O :   -0.605840
  23 H :    0.159633
  24 H :    0.165630
  25 H :    0.153476
  26 H :    0.152994
  27 H :    0.147215
  28 H :    0.366299
Sum of atomic charges:   -0.0000000

LOEWDIN ATOMIC CHARGES
----------------------
   0 C :    0.170988
   1 C :   -0.217294
   2 C :   -0.215372
   3 C :   -0.027479
   4 O :   -0.324841
   5 H :    0.096063
   6 H :    0.112563
   7 H :    0.120788
   8 H :    0.113122
   9 H :    0.120468
  10 H :    0.106843
  11 H :    0.101038
  12 C :   -0.037406
  13 H :    0.096270
  14 H :    0.127048
  15 O :   -0.331000
  16 C :    0.003695
  17 C :    0.032285
  18 C :   -0.239475
  19 C :   -0.039115
  20 O :   -0.325793
  21 H :    0.115533
  22 O :   -0.415027
  23 H :    0.116464
  24 H :    0.128425
  25 H :    0.117532
  26 H :    0.107119
  27 H :    0.102916
  28 H :    0.283643

  Mayer bond orders larger than 0.100000
B(  0-C ,  1-C ) :   0.9464 B(  0-C ,  4-O ) :   0.9140 B(  0-C ,  5-H ) :   0.9029
B(  0-C , 15-O ) :   0.8505 B(  1-C ,  2-C ) :   0.9583 B(  1-C ,  6-H ) :   0.9384
B(  1-C ,  7-H ) :   0.9373 B(  2-C ,  3-C ) :   0.9540 B(  2-C ,  8-H ) :   0.9454
B(  2-C ,  9-H ) :   0.9432 B(  3-C ,  4-O ) :   0.8391 B(  3-C , 10-H ) :   0.9351
B(  3-C , 11-H ) :   0.9401 B( 12-C , 13-H ) :   0.9232 B( 12-C , 14-H ) :   0.9337
B( 12-C , 15-O ) :   0.8483 B( 12-C , 16-C ) :   0.8769 B( 16-C , 17-C ) :   0.9097
B( 16-C , 20-O ) :   0.8265 B( 16-C , 21-H ) :   0.9237 B( 17-C , 18-C ) :   0.9136
B( 17-C , 22-O ) :   0.8797 B( 17-C , 23-H ) :   0.9173 B( 18-C , 19-C ) :   0.9384
B( 18-C , 24-H ) :   0.9372 B( 18-C , 25-H ) :   0.9322 B( 19-C , 20-O ) :   0.8370
B( 19-C , 26-H ) :   0.9346 B( 19-C , 27-H ) :   0.9379 B( 22-O , 28-H ) :   0.7922

FINAL SINGLE POINT ENERGY      -652.855507799905

DIPOLE MOMENT
-------------
                                X             Y             Z
Electronic contribution:     -2.51907      -1.21896      -2.08650
Nuclear contribution   :      2.74906       1.16152       2.14944
                        -----------------------------------------
Total Dipole Moment    :      0.23000      -0.05744       0.06294
                        -----------------------------------------
Magnitude (a.u.)       :      0.24527
Magnitude (Debye)      :      0.62344

Rotational constants in cm-1:     0.057143     0.012859     0.012379
Rotational constants in MHz :  1713.099054   385.496464   371.115317

                             ****ORCA TERMINATED NORMALLY****
TOTAL RUN TIME: 0 days 0 hours 51 minutes 45 seconds 569 msec
