                         Program Version 4.2.0 -  RELEASE  -
|  1> # Test redundant internal optimization
|  2> #
|  3> ! RKS B3LYP  Opt TightSCF SmallPrint
|  4>
|  5> %basis
|  6>         Basis "6-31G"
|  7> end
|  8>
|  9> %geom
| 10> Constraints
| 11> { D 4  0  15  12  210.0   C } # D for Dihedral angle
| 12> { D 0  15  12  16  90.0   C } # D for Dihedral angle
| 13> { D 0  4  3  2   C } # D for Dihedral angle
| 14> { D 4  3  2  1   C } # D for Dihedral angle
| 15> { D 3  2  1  0   C } # D for Dihedral angle
| 16> { D 2  1  0  4   C } # D for Dihedral angle
| 17> { D 1  0  4  3   C } # D for Dihedral angle
| 18> { D 16  20  19  18   C } # D for Dihedral angle
| 19> { D 20  19  18  17   C } # D for Dihedral angle
| 20> { D 19  18  17  16   C } # D for Dihedral angle
| 21> { D 18  17  16  20   C } # D for Dihedral angle
| 22> { D 17  16  20  19   C } # D for Dihedral angle
| 23> { D 15  12  16  20   C } # D for Dihedral angle
| 24> end
| 25> end
| 26>
| 27>
| 28> #%pal
| 29> #nprocs 8
| 30> #end
| 31>
| 32> * xyz 0 1
| 33> C  -21.048   26.222   46.251
| 34> C  -20.361   27.558   45.944
| 35> C  -20.329   28.222   47.341
| 36> C  -20.110   27.022   48.296
| 37> O  -20.473   25.807   47.535
| 38> H  -20.833   25.428   45.533
| 39> H  -19.344   27.382   45.576
| 40> H  -20.898   28.157   45.201
| 41> H  -19.543   28.978   47.434
| 42> H  -21.289   28.710   47.548
| 43> H  -20.733   27.082   49.195
| 44> H  -19.064   26.913   48.597
| 45> C  -23.389   26.110   45.076
| 46> H  -24.291   26.735   45.064
| 47> H  -22.789   26.358   44.191
| 48> O  -22.586   26.394   46.375
| 49> C  -23.823   24.624   44.951
| 50> C  -24.510   24.356   43.608
| 51> C  -23.299   24.243   42.652
| 52> C  -22.218   23.567   43.533
| 53> O  -22.648   23.746   44.937
| 54> H  -24.417   24.349   45.825
| 55> H  -25.061   23.409   43.648
| 56> O  -25.500   25.479   43.194
| 57> H  -23.522   23.665   41.749
| 58> H  -22.972   25.241   42.339
| 59> H  -21.228   24.016   43.401
| 60> H  -22.146   22.490   43.353
| 61> H  -24.972   26.437   43.145
| 62> *
| 63>
| 64>                          ****END OF INPUT****
 Total Charge           Charge          ....    0
 Multiplicity           Mult            ....    1
 Number of Electrons    NEL             ....  102
FINAL SINGLE POINT ENERGY      -652.827441193580
FINAL SINGLE POINT ENERGY      -652.850673486139
FINAL SINGLE POINT ENERGY      -652.854950779394
FINAL SINGLE POINT ENERGY      -652.855631214527
FINAL SINGLE POINT ENERGY      -652.855745757972
FINAL SINGLE POINT ENERGY      -652.855766608724
FINAL SINGLE POINT ENERGY      -652.855769821237
                    ***********************HURRAY********************

CARTESIAN COORDINATES (ANGSTROEM)
---------------------------------
  C    -21.018449   26.238173   46.184330
  C    -20.342132   27.589496   45.964801
  C    -20.396934   28.209552   47.381518
  C    -20.210145   26.984022   48.300387
  O    -20.517562   25.799913   47.455799
  H    -20.794751   25.453665   45.460912
  H    -19.304244   27.430713   45.646998
  H    -20.846663   28.200171   45.210275
  H    -19.628528   28.972507   47.538308
  H    -21.378506   28.664794   47.543561
  H    -20.883702   26.983501   49.160756
  H    -19.178841   26.863258   48.645563
  C    -23.244662   26.188267   45.088919
  H    -24.130877   26.823512   45.184739
  H    -22.680717   26.518279   44.200617
  O    -22.466382   26.410480   46.293194
  C    -23.688371   24.730721   44.956467
  C    -24.491488   24.416530   43.682219
  C    -23.357519   24.199277   42.635781
  C    -22.243469   23.530947   43.471163
  O    -22.555231   23.805736   44.900012
  H    -24.235056   24.465677   45.865583
  H    -25.058418   23.495003   43.828770
  O    -25.487447   25.401863   43.315552
  H    -23.684606   23.585458   41.792429
  H    -23.032757   25.171021   42.240402
  H    -21.246446   23.920606   43.241217
  H    -22.230403   22.443629   43.353319
  H    -25.061694   26.203229   42.948407

 Multiplicity           Mult            ....    1
 Number of Electrons    NEL             ....  102
 Basis Dimension        Dim             ....  149

ORBITAL ENERGIES
----------------

  NO   OCC          E(Eh)            E(eV)
   0   2.0000     -19.152893      -521.1767
   1   2.0000     -19.143415      -520.9188
   2   2.0000     -19.134094      -520.6652
   3   2.0000     -19.131736      -520.6010
   4   2.0000     -10.269034      -279.4346
   5   2.0000     -10.248166      -278.8668
   6   2.0000     -10.235373      -278.5186
   7   2.0000     -10.232973      -278.4533
   8   2.0000     -10.230318      -278.3811
   9   2.0000     -10.217890      -278.0429
  10   2.0000     -10.199806      -277.5508
  11   2.0000     -10.181358      -277.0488
  12   2.0000     -10.180707      -277.0311
  13   2.0000      -1.045997       -28.4630
  14   2.0000      -1.035706       -28.1830
  15   2.0000      -1.018991       -27.7282
  16   2.0000      -0.987041       -26.8588
  17   2.0000      -0.786752       -21.4086
  18   2.0000      -0.781065       -21.2539
  19   2.0000      -0.766691       -20.8627
  20   2.0000      -0.727413       -19.7939
  21   2.0000      -0.681453       -18.5433
  22   2.0000      -0.615480       -16.7481
  23   2.0000      -0.596101       -16.2207
  24   2.0000      -0.589632       -16.0447
  25   2.0000      -0.573304       -15.6004
  26   2.0000      -0.531391       -14.4599
  27   2.0000      -0.508146       -13.8274
  28   2.0000      -0.500800       -13.6275
  29   2.0000      -0.485468       -13.2103
  30   2.0000      -0.467720       -12.7273
  31   2.0000      -0.455769       -12.4021
  32   2.0000      -0.445377       -12.1193
  33   2.0000      -0.436623       -11.8811
  34   2.0000      -0.430619       -11.7177
  35   2.0000      -0.417699       -11.3662
  36   2.0000      -0.407512       -11.0890
  37   2.0000      -0.391905       -10.6643
  38   2.0000      -0.383912       -10.4468
  39   2.0000      -0.367173        -9.9913
  40   2.0000      -0.359926        -9.7941
  41   2.0000      -0.350973        -9.5504
  42   2.0000      -0.347445        -9.4545
  43   2.0000      -0.333374        -9.0716
  44   2.0000      -0.318265        -8.6604
  45   2.0000      -0.304697        -8.2912
  46   2.0000      -0.301687        -8.2093
  47   2.0000      -0.273957        -7.4548
  48   2.0000      -0.266428        -7.2499
  49   2.0000      -0.251236        -6.8365
  50   2.0000      -0.230489        -6.2719
  51   0.0000       0.046291         1.2596
  52   0.0000       0.065792         1.7903
  53   0.0000       0.088477         2.4076
  54   0.0000       0.096971         2.6387
  55   0.0000       0.103317         2.8114

MULLIKEN ATOMIC CHARGES
-----------------------
   0 C :    0.290489
   1 C :   -0.262180
   2 C :   -0.299077
   3 C :   -0.000432
   4 O :   -0.498842
   5 H :    0.161179
   6 H :    0.140338
   7 H :    0.136275
   8 H :    0.138405
   9 H :    0.160363
  10 H :    0.152644
  11 H :    0.138285
  12 C :   -0.041519
  13 H :    0.156395
  14 H :    0.107366
  15 O :   -0.506115
  16 C :    0.101017
  17 C :    0.083205
  18 C :   -0.319661
  19 C :   -0.017276
  20 O :   -0.505511
  21 H :    0.170640
  22 H :    0.171519
  23 O :   -0.598890
  24 H :    0.159748
  25 H :    0.130185
  26 H :    0.138370
  27 H :    0.157440
  28 H :    0.355639
Sum of atomic charges:   -0.0000000

LOEWDIN ATOMIC CHARGES
----------------------
   0 C :    0.177886
   1 C :   -0.229134
   2 C :   -0.217314
   3 C :   -0.026079
   4 O :   -0.301206
   5 H :    0.108341
   6 H :    0.110993
   7 H :    0.111378
   8 H :    0.112360
   9 H :    0.118389
  10 H :    0.108511
  11 H :    0.100576
  12 C :   -0.052371
  13 H :    0.116799
  14 H :    0.081518
  15 O :   -0.328468
  16 C :    0.011708
  17 C :    0.034625
  18 C :   -0.241372
  19 C :   -0.032892
  20 O :   -0.315824
  21 H :    0.123359
  22 H :    0.121409
  23 O :   -0.406476
  24 H :    0.123865
  25 H :    0.102663
  26 H :    0.099277
  27 H :    0.109770
  28 H :    0.277710

  Mayer bond orders larger than 0.100000
B(  0-C ,  1-C ) :   0.9300 B(  0-C ,  4-O ) :   0.9355 B(  0-C ,  5-H ) :   0.9104
B(  0-C , 15-O ) :   0.8163 B(  1-C ,  2-C ) :   0.9533 B(  1-C ,  6-H ) :   0.9353
B(  1-C ,  7-H ) :   0.9384 B(  2-C ,  3-C ) :   0.9557 B(  2-C ,  8-H ) :   0.9455
B(  2-C ,  9-H ) :   0.9438 B(  3-C ,  4-O ) :   0.8407 B(  3-C , 10-H ) :   0.9344
B(  3-C , 11-H ) :   0.9398 B( 12-C , 13-H ) :   0.9219 B( 12-C , 14-H ) :   0.9215
B( 12-C , 15-O ) :   0.8782 B( 12-C , 16-C ) :   0.8884 B( 16-C , 17-C ) :   0.8673
B( 16-C , 20-O ) :   0.8598 B( 16-C , 21-H ) :   0.9291 B( 17-C , 18-C ) :   0.9237
B( 17-C , 22-H ) :   0.9314 B( 17-C , 23-O ) :   0.8982 B( 18-C , 19-C ) :   0.9389
B( 18-C , 24-H ) :   0.9414 B( 18-C , 25-H ) :   0.9405 B( 19-C , 20-O ) :   0.8481
B( 19-C , 26-H ) :   0.9311 B( 19-C , 27-H ) :   0.9373 B( 23-O , 28-H ) :   0.7984

FINAL SINGLE POINT ENERGY      -652.855770209043

DIPOLE MOMENT
-------------
                                X             Y             Z
Electronic contribution:     -3.07717      -3.53942       2.06109
Nuclear contribution   :      3.60722       4.41865      -3.45434
                        -----------------------------------------
Total Dipole Moment    :      0.53005       0.87924      -1.39324
                        -----------------------------------------
Magnitude (a.u.)       :      1.73065
Magnitude (Debye)      :      4.39895

Rotational constants in cm-1:     0.059056     0.012980     0.012057
Rotational constants in MHz :  1770.462947   389.124152   361.450063

                             ****ORCA TERMINATED NORMALLY****
TOTAL RUN TIME: 0 days 0 hours 23 minutes 3 seconds 461 msec
