                         Program Version 4.2.0 -  RELEASE  -
|  1> # Test redundant internal optimization
|  2> #
|  3> ! RKS B3LYP  Opt TightSCF SmallPrint
|  4>
|  5> %basis
|  6>         Basis "6-31G"
|  7> end
|  8>
|  9> %geom
| 10> Constraints
| 11> { D 4  0  15  12  210.0   C } # D for Dihedral angle
| 12> { D 0  15  12  16  225.0   C } # D for Dihedral angle
| 13> { D 0  4  3  2   C } # D for Dihedral angle
| 14> { D 4  3  2  1   C } # D for Dihedral angle
| 15> { D 3  2  1  0   C } # D for Dihedral angle
| 16> { D 2  1  0  4   C } # D for Dihedral angle
| 17> { D 1  0  4  3   C } # D for Dihedral angle
| 18> { D 16  20  19  18   C } # D for Dihedral angle
| 19> { D 20  19  18  17   C } # D for Dihedral angle
| 20> { D 19  18  17  16   C } # D for Dihedral angle
| 21> { D 18  17  16  20   C } # D for Dihedral angle
| 22> { D 17  16  20  19   C } # D for Dihedral angle
| 23> { D 15  12  16  20   C } # D for Dihedral angle
| 24> end
| 25> end
| 26>
| 27>
| 28> #%pal
| 29> #nprocs 8
| 30> #end
| 31>
| 32> * xyz 0 1
| 33> C  -21.048   26.222   46.251
| 34> C  -20.361   27.558   45.944
| 35> C  -20.329   28.222   47.341
| 36> C  -20.110   27.022   48.296
| 37> O  -20.473   25.807   47.535
| 38> H  -20.833   25.428   45.533
| 39> H  -19.344   27.382   45.576
| 40> H  -20.898   28.157   45.201
| 41> H  -19.543   28.978   47.434
| 42> H  -21.289   28.710   47.548
| 43> H  -20.733   27.082   49.195
| 44> H  -19.064   26.913   48.597
| 45> C  -23.389   26.110   45.076
| 46> H  -22.700   26.085   44.223
| 47> H  -23.892   25.137   45.140
| 48> O  -22.586   26.394   46.375
| 49> C  -24.475   27.185   44.795
| 50> C  -25.323   26.814   43.573
| 51> C  -26.293   25.768   44.171
| 52> C  -26.536   26.294   45.607
| 53> O  -25.439   27.241   45.899
| 54> H  -24.000   28.167   44.734
| 55> H  -25.873   27.691   43.215
| 56> O  -24.481   26.250   42.395
| 57> H  -27.222   25.674   43.598
| 58> H  -25.815   24.781   44.197
| 59> H  -26.527   25.493   46.355
| 60> H  -27.474   26.850   45.695
| 61> H  -23.922   25.369   42.729
| 62> *
| 63>
| 64>                          ****END OF INPUT****
 Total Charge           Charge          ....    0
 Multiplicity           Mult            ....    1
 Number of Electrons    NEL             ....  102
FINAL SINGLE POINT ENERGY      -652.824777243691
FINAL SINGLE POINT ENERGY      -652.848069762650
FINAL SINGLE POINT ENERGY      -652.852229532807
FINAL SINGLE POINT ENERGY      -652.853075840846
FINAL SINGLE POINT ENERGY      -652.853243005274
FINAL SINGLE POINT ENERGY      -652.853274916069
FINAL SINGLE POINT ENERGY      -652.853282314483
FINAL SINGLE POINT ENERGY      -652.853284058545
                    ***********************HURRAY********************

CARTESIAN COORDINATES (ANGSTROEM)
---------------------------------
  C    -21.050681   26.195779   46.198148
  C    -20.411631   27.551911   45.908046
  C    -20.482208   28.241739   47.291243
  C    -20.261435   27.071285   48.271922
  O    -20.537363   25.836483   47.489126
  H    -20.786466   25.391449   45.503881
  H    -19.369911   27.405294   45.597082
  H    -20.932771   28.107583   45.123661
  H    -19.734671   29.032269   47.405850
  H    -21.475937   28.676486   47.432445
  H    -20.936182   27.095226   49.130683
  H    -19.227390   26.994442   48.621011
  C    -23.251943   26.009026   45.091058
  H    -22.595982   25.991539   44.208719
  H    -23.702198   25.013576   45.211110
  O    -22.499595   26.319300   46.294168
  C    -24.321495   27.076468   44.867066
  C    -25.207638   26.814213   43.637061
  C    -26.264130   25.821556   44.209120
  C    -26.449489   26.321915   45.658744
  O    -25.271124   27.170168   45.970014
  H    -23.825329   28.050472   44.817318
  H    -25.686039   27.746827   43.330322
  O    -24.507325   26.354745   42.454119
  H    -27.193363   25.827879   43.633604
  H    -25.857381   24.801810   44.186365
  H    -26.504946   25.507630   46.387678
  H    -27.335707   26.954114   45.767839
  H    -24.291668   25.402817   42.530597

 Multiplicity           Mult            ....    1
 Number of Electrons    NEL             ....  102
 Basis Dimension        Dim             ....  149

ORBITAL ENERGIES
----------------

  NO   OCC          E(Eh)            E(eV)
   0   2.0000     -19.153081      -521.1818
   1   2.0000     -19.136791      -520.7386
   2   2.0000     -19.135879      -520.7137
   3   2.0000     -19.135072      -520.6918
   4   2.0000     -10.276411      -279.6353
   5   2.0000     -10.247256      -278.8420
   6   2.0000     -10.231935      -278.4251
   7   2.0000     -10.231794      -278.4213
   8   2.0000     -10.230501      -278.3861
   9   2.0000     -10.219958      -278.0992
  10   2.0000     -10.197644      -277.4920
  11   2.0000     -10.182499      -277.0799
  12   2.0000     -10.180846      -277.0349
  13   2.0000      -1.048950       -28.5434
  14   2.0000      -1.035592       -28.1799
  15   2.0000      -1.016702       -27.6659
  16   2.0000      -0.989913       -26.9369
  17   2.0000      -0.785047       -21.3622
  18   2.0000      -0.781638       -21.2695
  19   2.0000      -0.767554       -20.8862
  20   2.0000      -0.728717       -19.8294
  21   2.0000      -0.680722       -18.5234
  22   2.0000      -0.613508       -16.6944
  23   2.0000      -0.595007       -16.1910
  24   2.0000      -0.588861       -16.0237
  25   2.0000      -0.579330       -15.7644
  26   2.0000      -0.527465       -14.3531
  27   2.0000      -0.511787       -13.9264
  28   2.0000      -0.499933       -13.6039
  29   2.0000      -0.488701       -13.2982
  30   2.0000      -0.466124       -12.6839
  31   2.0000      -0.456190       -12.4136
  32   2.0000      -0.447420       -12.1749
  33   2.0000      -0.434796       -11.8314
  34   2.0000      -0.425405       -11.5758
  35   2.0000      -0.422567       -11.4986
  36   2.0000      -0.405137       -11.0243
  37   2.0000      -0.398196       -10.8355
  38   2.0000      -0.376873       -10.2552
  39   2.0000      -0.371983       -10.1222
  40   2.0000      -0.355479        -9.6731
  41   2.0000      -0.353261        -9.6127
  42   2.0000      -0.348924        -9.4947
  43   2.0000      -0.330694        -8.9986
  44   2.0000      -0.318425        -8.6648
  45   2.0000      -0.308233        -8.3874
  46   2.0000      -0.301269        -8.1979
  47   2.0000      -0.273676        -7.4471
  48   2.0000      -0.258025        -7.0212
  49   2.0000      -0.252186        -6.8623
  50   2.0000      -0.234899        -6.3919
  51   0.0000       0.048191         1.3114
  52   0.0000       0.078488         2.1358
  53   0.0000       0.085439         2.3249
  54   0.0000       0.088539         2.4093
  55   0.0000       0.100041         2.7222

MULLIKEN ATOMIC CHARGES
-----------------------
   0 C :    0.285497
   1 C :   -0.260969
   2 C :   -0.300179
   3 C :   -0.000834
   4 O :   -0.502458
   5 H :    0.134619
   6 H :    0.141163
   7 H :    0.143102
   8 H :    0.139809
   9 H :    0.168689
  10 H :    0.156717
  11 H :    0.139109
  12 C :   -0.014783
  13 H :    0.128056
  14 H :    0.128745
  15 O :   -0.497228
  16 C :    0.101019
  17 C :    0.081500
  18 C :   -0.325175
  19 C :   -0.012175
  20 O :   -0.502719
  21 H :    0.153434
  22 H :    0.167631
  23 O :   -0.601177
  24 H :    0.158845
  25 H :    0.133519
  26 H :    0.151473
  27 H :    0.148757
  28 H :    0.356014
Sum of atomic charges:   -0.0000000

LOEWDIN ATOMIC CHARGES
----------------------
   0 C :    0.177695
   1 C :   -0.227722
   2 C :   -0.217051
   3 C :   -0.024628
   4 O :   -0.306824
   5 H :    0.094609
   6 H :    0.111635
   7 H :    0.114398
   8 H :    0.113477
   9 H :    0.122475
  10 H :    0.110760
  11 H :    0.100987
  12 C :   -0.048836
  13 H :    0.097136
  14 H :    0.094975
  15 O :   -0.323795
  16 C :    0.019332
  17 C :    0.032942
  18 C :   -0.241242
  19 C :   -0.029997
  20 O :   -0.312318
  21 H :    0.114270
  22 H :    0.119669
  23 O :   -0.408816
  24 H :    0.122815
  25 H :    0.103841
  26 H :    0.106452
  27 H :    0.105897
  28 H :    0.277863

  Mayer bond orders larger than 0.100000
B(  0-C ,  1-C ) :   0.9310 B(  0-C ,  4-O ) :   0.9395 B(  0-C ,  5-H ) :   0.9200
B(  0-C , 15-O ) :   0.8396 B(  1-C ,  2-C ) :   0.9546 B(  1-C ,  6-H ) :   0.9341
B(  1-C ,  7-H ) :   0.9376 B(  2-C ,  3-C ) :   0.9555 B(  2-C ,  8-H ) :   0.9451
B(  2-C ,  9-H ) :   0.9416 B(  3-C ,  4-O ) :   0.8347 B(  3-C , 10-H ) :   0.9342
B(  3-C , 11-H ) :   0.9399 B( 12-C , 13-H ) :   0.9037 B( 12-C , 14-H ) :   0.9247
B( 12-C , 15-O ) :   0.8516 B( 12-C , 16-C ) :   0.9000 B( 16-C , 17-C ) :   0.8709
B( 16-C , 20-O ) :   0.8737 B( 16-C , 21-H ) :   0.9314 B( 17-C , 18-C ) :   0.9252
B( 17-C , 22-H ) :   0.9327 B( 17-C , 23-O ) :   0.8929 B( 18-C , 19-C ) :   0.9400
B( 18-C , 24-H ) :   0.9411 B( 18-C , 25-H ) :   0.9404 B( 19-C , 20-O ) :   0.8506
B( 19-C , 26-H ) :   0.9302 B( 19-C , 27-H ) :   0.9378 B( 23-O , 28-H ) :   0.7989

FINAL SINGLE POINT ENERGY      -652.853284536823

DIPOLE MOMENT
-------------
                                X             Y             Z
Electronic contribution:     -0.62046      -1.47081       0.33778
Nuclear contribution   :      0.45779       1.32963      -1.07088
                        -----------------------------------------
Total Dipole Moment    :     -0.16266      -0.14118      -0.73309
                        -----------------------------------------
Magnitude (a.u.)       :      0.76408
Magnitude (Debye)      :      1.94214

Rotational constants in cm-1:     0.056575     0.012293     0.011420
Rotational constants in MHz :  1696.070975   368.525717   342.371417

                             ****ORCA TERMINATED NORMALLY****
TOTAL RUN TIME: 0 days 0 hours 25 minutes 21 seconds 71 msec
