                         Program Version 4.2.0 -  RELEASE  -
|  1> # Test redundant internal optimization
|  2> #
|  3> ! RKS B3LYP  Opt TightSCF SmallPrint
|  4>
|  5> %basis
|  6>         Basis "6-31G"
|  7> end
|  8>
|  9> %geom
| 10> Constraints
| 11> { D 4  0  15  12  45.0   C } # D for Dihedral angle
| 12> { D 0  15  12  16  195.0   C } # D for Dihedral angle
| 13> { D 0  4  3  2   C } # D for Dihedral angle
| 14> { D 4  3  2  1   C } # D for Dihedral angle
| 15> { D 3  2  1  0   C } # D for Dihedral angle
| 16> { D 2  1  0  4   C } # D for Dihedral angle
| 17> { D 1  0  4  3   C } # D for Dihedral angle
| 18> { D 16  20  19  18   C } # D for Dihedral angle
| 19> { D 20  19  18  17   C } # D for Dihedral angle
| 20> { D 19  18  17  16   C } # D for Dihedral angle
| 21> { D 18  17  16  20   C } # D for Dihedral angle
| 22> { D 17  16  20  19   C } # D for Dihedral angle
| 23> { D 15  12  16  20   C } # D for Dihedral angle
| 24> end
| 25> end
| 26>
| 27>
| 28> #%pal
| 29> #nprocs 8
| 30> #end
| 31>
| 32> * xyz 0 1
| 33> C  -21.048   26.222   46.251
| 34> C  -20.361   27.558   45.944
| 35> C  -20.329   28.222   47.341
| 36> C  -20.110   27.022   48.296
| 37> O  -20.473   25.807   47.535
| 38> H  -20.833   25.428   45.533
| 39> H  -19.344   27.382   45.576
| 40> H  -20.898   28.157   45.201
| 41> H  -19.543   28.978   47.434
| 42> H  -21.289   28.710   47.548
| 43> H  -20.733   27.082   49.195
| 44> H  -19.064   26.913   48.597
| 45> C  -23.065   27.161   47.638
| 46> H  -22.516   26.795   48.514
| 47> H  -22.866   28.236   47.533
| 48> O  -22.586   26.394   46.375
| 49> C  -24.586   26.986   47.906
| 50> C  -25.417   27.396   46.685
| 51> C  -25.277   26.149   45.779
| 52> C  -25.242   24.979   46.793
| 53> O  -24.911   25.571   48.107
| 54> H  -24.849   27.509   48.827
| 55> H  -26.463   27.546   46.975
| 56> O  -24.905   28.694   46.004
| 57> H  -26.096   26.053   45.058
| 58> H  -24.338   26.198   45.213
| 59> H  -24.490   24.224   46.539
| 60> H  -26.214   24.487   46.897
| 61> H  -23.860   28.566   45.705
| 62> *
| 63>
| 64>                          ****END OF INPUT****
 Total Charge           Charge          ....    0
 Multiplicity           Mult            ....    1
 Number of Electrons    NEL             ....  102
FINAL SINGLE POINT ENERGY      -652.820987119513
FINAL SINGLE POINT ENERGY      -652.846459823446
FINAL SINGLE POINT ENERGY      -652.856776664432
FINAL SINGLE POINT ENERGY      -652.859017297213
FINAL SINGLE POINT ENERGY      -652.859380802869
FINAL SINGLE POINT ENERGY      -652.859437458860
FINAL SINGLE POINT ENERGY      -652.859439618962
                    ***********************HURRAY********************

CARTESIAN COORDINATES (ANGSTROEM)
---------------------------------
  C    -21.137717   26.320725   46.444197
  C    -20.353137   27.559022   45.991433
  C    -20.065505   28.273410   47.343135
  C    -19.859093   27.086184   48.315030
  O    -20.458163   25.901418   47.645568
  H    -21.066157   25.488043   45.742772
  H    -19.420652   27.231597   45.519421
  H    -20.910050   28.175799   45.281218
  H    -19.180604   28.915526   47.293650
  H    -20.910880   28.899004   47.643105
  H    -20.342726   27.228486   49.285363
  H    -18.802059   26.854134   48.473032
  C    -23.128928   27.183851   47.733835
  H    -22.641887   26.818250   48.643626
  H    -22.988283   28.269979   47.649895
  O    -22.572145   26.486349   46.580057
  C    -24.627261   26.909157   47.842557
  C    -25.466220   27.355606   46.632986
  C    -25.343538   26.123335   45.684018
  C    -25.311878   24.938534   46.672928
  O    -24.964096   25.504197   48.002130
  H    -24.964806   27.411038   48.757932
  H    -26.501658   27.521065   46.937388
  O    -25.041087   28.609997   46.043956
  H    -26.178333   26.063694   44.978846
  H    -24.403562   26.193276   45.132542
  H    -24.563005   24.187964   46.407411
  H    -26.288178   24.455883   46.781539
  H    -24.214392   28.459478   45.539430

 Multiplicity           Mult            ....    1
 Number of Electrons    NEL             ....  102
 Basis Dimension        Dim             ....  149

ORBITAL ENERGIES
----------------

  NO   OCC          E(Eh)            E(eV)
   0   2.0000     -19.151423      -521.1367
   1   2.0000     -19.151104      -521.1280
   2   2.0000     -19.139322      -520.8074
   3   2.0000     -19.129676      -520.5449
   4   2.0000     -10.285547      -279.8840
   5   2.0000     -10.236043      -278.5369
   6   2.0000     -10.234260      -278.4884
   7   2.0000     -10.230505      -278.3862
   8   2.0000     -10.228491      -278.3314
   9   2.0000     -10.217596      -278.0349
  10   2.0000     -10.198650      -277.5194
  11   2.0000     -10.195933      -277.4454
  12   2.0000     -10.176722      -276.9227
  13   2.0000      -1.059866       -28.8404
  14   2.0000      -1.025699       -27.9107
  15   2.0000      -1.008093       -27.4316
  16   2.0000      -0.998814       -27.1791
  17   2.0000      -0.795076       -21.6351
  18   2.0000      -0.775662       -21.1068
  19   2.0000      -0.764545       -20.8043
  20   2.0000      -0.735988       -20.0273
  21   2.0000      -0.678798       -18.4710
  22   2.0000      -0.610229       -16.6052
  23   2.0000      -0.603094       -16.4110
  24   2.0000      -0.599008       -16.2998
  25   2.0000      -0.562621       -15.3097
  26   2.0000      -0.525883       -14.3100
  27   2.0000      -0.513725       -13.9792
  28   2.0000      -0.501534       -13.6474
  29   2.0000      -0.488453       -13.2915
  30   2.0000      -0.475566       -12.9408
  31   2.0000      -0.458912       -12.4876
  32   2.0000      -0.440665       -11.9911
  33   2.0000      -0.431849       -11.7512
  34   2.0000      -0.425280       -11.5725
  35   2.0000      -0.418241       -11.3809
  36   2.0000      -0.401579       -10.9275
  37   2.0000      -0.394662       -10.7393
  38   2.0000      -0.384523       -10.4634
  39   2.0000      -0.372848       -10.1457
  40   2.0000      -0.367300        -9.9947
  41   2.0000      -0.359338        -9.7781
  42   2.0000      -0.345599        -9.4042
  43   2.0000      -0.327068        -8.9000
  44   2.0000      -0.323304        -8.7975
  45   2.0000      -0.311568        -8.4782
  46   2.0000      -0.304877        -8.2961
  47   2.0000      -0.270798        -7.3688
  48   2.0000      -0.261492        -7.1155
  49   2.0000      -0.258437        -7.0324
  50   2.0000      -0.235658        -6.4126
  51   0.0000       0.055555         1.5117
  52   0.0000       0.081168         2.2087
  53   0.0000       0.091198         2.4816
  54   0.0000       0.094866         2.5814
  55   0.0000       0.098984         2.6935

MULLIKEN ATOMIC CHARGES
-----------------------
   0 C :    0.305978
   1 C :   -0.268487
   2 C :   -0.313595
   3 C :   -0.016489
   4 O :   -0.503240
   5 H :    0.164294
   6 H :    0.154909
   7 H :    0.144789
   8 H :    0.149828
   9 H :    0.151270
  10 H :    0.148216
  11 H :    0.152589
  12 C :   -0.026210
  13 H :    0.163480
  14 H :    0.134551
  15 O :   -0.540082
  16 C :    0.093455
  17 C :    0.083327
  18 C :   -0.310261
  19 C :   -0.000440
  20 O :   -0.518316
  21 H :    0.146402
  22 H :    0.160565
  23 O :   -0.608604
  24 H :    0.142511
  25 H :    0.161490
  26 H :    0.149864
  27 H :    0.138158
  28 H :    0.360046
Sum of atomic charges:    0.0000000

LOEWDIN ATOMIC CHARGES
----------------------
   0 C :    0.177711
   1 C :   -0.227669
   2 C :   -0.223126
   3 C :   -0.033343
   4 O :   -0.314388
   5 H :    0.112479
   6 H :    0.120674
   7 H :    0.116681
   8 H :    0.118105
   9 H :    0.110940
  10 H :    0.103902
  11 H :    0.107417
  12 C :   -0.053430
  13 H :    0.115051
  14 H :    0.094916
  15 O :   -0.333291
  16 C :    0.021064
  17 C :    0.036793
  18 C :   -0.242534
  19 C :   -0.023607
  20 O :   -0.319785
  21 H :    0.113031
  22 H :    0.115525
  23 O :   -0.413608
  24 H :    0.113998
  25 H :    0.120416
  26 H :    0.107190
  27 H :    0.099502
  28 H :    0.279385

  Mayer bond orders larger than 0.100000
B(  0-C ,  1-C ) :   0.9173 B(  0-C ,  4-O ) :   0.9135 B(  0-C ,  5-H ) :   0.9363
B(  0-C , 15-O ) :   0.8704 B(  1-C ,  2-C ) :   0.9558 B(  1-C ,  6-H ) :   0.9343
B(  1-C ,  7-H ) :   0.9383 B(  2-C ,  3-C ) :   0.9484 B(  2-C ,  8-H ) :   0.9445
B(  2-C ,  9-H ) :   0.9400 B(  3-C ,  4-O ) :   0.8368 B(  3-C , 10-H ) :   0.9316
B(  3-C , 11-H ) :   0.9393 B( 12-C , 13-H ) :   0.9140 B( 12-C , 14-H ) :   0.8946
B( 12-C , 15-O ) :   0.8262 B( 12-C , 16-C ) :   0.9117 B( 16-C , 17-C ) :   0.8854
B( 16-C , 20-O ) :   0.8880 B( 16-C , 21-H ) :   0.9297 B( 17-C , 18-C ) :   0.9347
B( 17-C , 22-H ) :   0.9363 B( 17-C , 23-O ) :   0.8971 B( 18-C , 19-C ) :   0.9467
B( 18-C , 24-H ) :   0.9413 B( 18-C , 25-H ) :   0.9270 B( 19-C , 20-O ) :   0.8376
B( 19-C , 26-H ) :   0.9321 B( 19-C , 27-H ) :   0.9378 B( 23-O , 28-H ) :   0.7937

FINAL SINGLE POINT ENERGY      -652.859438079148

DIPOLE MOMENT
-------------
                                X             Y             Z
Electronic contribution:     -2.68123      -2.57112       1.14196
Nuclear contribution   :      3.63371       3.24752      -1.67453
                        -----------------------------------------
Total Dipole Moment    :      0.95248       0.67641      -0.53257
                        -----------------------------------------
Magnitude (a.u.)       :      1.28389
Magnitude (Debye)      :      3.26339

Rotational constants in cm-1:     0.049446     0.015756     0.014437
Rotational constants in MHz :  1482.343780   472.366163   432.802973

                             ****ORCA TERMINATED NORMALLY****
TOTAL RUN TIME: 0 days 0 hours 37 minutes 50 seconds 264 msec
