                         Program Version 4.2.1 -  RELEASE  -
|  1> # Test redundant internal optimization
|  2> #
|  3> ! RKS B3LYP  Opt TightSCF SmallPrint
|  4>
|  5> %basis
|  6>         Basis "6-31G"
|  7> end
|  8>
|  9> %geom
| 10> Constraints
| 11> { D 4  0  19  14  270.0   C } # D for Dihedral angle
| 12> { D 0  19  14  12  60.0   C } # D for Dihedral angle
| 13> { D 0  4  3  2   C } # D for Dihedral angle
| 14> { D 4  3  2  1   C } # D for Dihedral angle
| 15> { D 3  2  1  0   C } # D for Dihedral angle
| 16> { D 2  1  0  4   C } # D for Dihedral angle
| 17> { D 1  0  4  3   C } # D for Dihedral angle
| 18> { D 14  15  16  17   C } # D for Dihedral angle
| 19> { D 15  16  17  12   C } # D for Dihedral angle
| 20> { D 16  17  12  14   C } # D for Dihedral angle
| 21> { D 17  12  14  15   C } # D for Dihedral angle
| 22> { D 12  14  15  16   C } # D for Dihedral angle
| 23> end
| 24> end
| 25>
| 26>
| 27> #%pal
| 28> #nprocs 8
| 29> #end
| 30>
| 31> * xyz 0 1
| 32> C  -21.048   26.222   46.251
| 33> C  -20.361   27.558   45.944
| 34> C  -20.329   28.222   47.341
| 35> C  -20.110   27.022   48.296
| 36> O  -20.473   25.807   47.535
| 37> H  -20.833   25.428   45.533
| 38> H  -19.344   27.382   45.576
| 39> H  -20.898   28.157   45.201
| 40> H  -19.543   28.978   47.434
| 41> H  -21.289   28.710   47.548
| 42> H  -20.733   27.082   49.195
| 43> H  -19.064   26.913   48.597
| 44> C  -22.828   24.074   47.054
| 45> H  -23.161   23.089   46.689
| 46> C  -23.226   25.191   46.082
| 47> C  -24.719   25.394   46.430
| 48> C  -24.761   25.147   47.959
| 49> O  -23.520   24.417   48.301
| 50> H  -21.762   24.029   47.281
| 51> O  -22.472   26.381   46.366
| 52> H  -23.067   24.924   45.032
| 53> H  -25.087   26.388   46.158
| 54> H  -25.333   24.654   45.903
| 55> H  -25.625   24.547   48.265
| 56> H  -24.755   26.078   48.534
| 57> *
| 58>
| 59>                          ****END OF INPUT****
 Total Charge           Charge          ....    0
 Multiplicity           Mult            ....    1
 Number of Electrons    NEL             ....   86
FINAL SINGLE POINT ENERGY      -538.432526458745
FINAL SINGLE POINT ENERGY      -538.436170772555
FINAL SINGLE POINT ENERGY      -538.436509310305
FINAL SINGLE POINT ENERGY      -538.436563685673
FINAL SINGLE POINT ENERGY      -538.436573825313
FINAL SINGLE POINT ENERGY      -538.436575598182
                    ***********************HURRAY********************

CARTESIAN COORDINATES (ANGSTROEM)
---------------------------------
  C    -20.963673   26.185116   46.248280
  C    -20.400712   27.575964   45.952568
  C    -20.425339   28.234327   47.353046
  C    -20.099073   27.053242   48.296033
  O    -20.360227   25.821980   47.510411
  H    -20.695717   25.401389   45.532775
  H    -19.372949   27.480943   45.583202
  H    -20.998648   28.110633   45.212023
  H    -19.705776   29.053262   47.446862
  H    -21.426588   28.624428   47.556955
  H    -20.723814   27.033369   49.191774
  H    -19.044782   27.020698   48.586961
  C    -22.897709   23.968635   47.044249
  H    -23.327174   23.036849   46.646088
  C    -23.194151   25.124074   46.088864
  C    -24.654146   25.457129   46.445687
  C    -24.716601   25.199777   47.971060
  O    -23.548327   24.357063   48.297742
  H    -21.840419   23.827452   47.268098
  O    -22.398761   26.322191   46.341979
  H    -23.070462   24.831519   45.036080
  H    -24.896617   26.487453   46.174816
  H    -25.324492   24.784418   45.899542
  H    -25.633716   24.679609   48.270603
  H    -24.621127   26.122481   48.549300

 Multiplicity           Mult            ....    1
 Number of Electrons    NEL             ....   86
 Basis Dimension        Dim             ....  127

ORBITAL ENERGIES
----------------

  NO   OCC          E(Eh)            E(eV)
   0   2.0000     -19.141853      -520.8763
   1   2.0000     -19.135793      -520.7114
   2   2.0000     -19.122518      -520.3502
   3   2.0000     -10.277218      -279.6573
   4   2.0000     -10.238265      -278.5974
   5   2.0000     -10.220406      -278.1114
   6   2.0000     -10.215938      -277.9898
   7   2.0000     -10.214280      -277.9447
   8   2.0000     -10.183383      -277.1039
   9   2.0000     -10.182872      -277.0900
  10   2.0000     -10.182059      -277.0679
  11   2.0000      -1.051976       -28.6257
  12   2.0000      -1.008871       -27.4528
  13   2.0000      -0.988308       -26.8932
  14   2.0000      -0.790088       -21.4994
  15   2.0000      -0.773638       -21.0518
  16   2.0000      -0.732808       -19.9407
  17   2.0000      -0.720260       -19.5993
  18   2.0000      -0.609268       -16.5790
  19   2.0000      -0.596335       -16.2271
  20   2.0000      -0.590126       -16.0581
  21   2.0000      -0.572079       -15.5671
  22   2.0000      -0.519777       -14.1439
  23   2.0000      -0.499279       -13.5861
  24   2.0000      -0.481873       -13.1124
  25   2.0000      -0.473376       -12.8812
  26   2.0000      -0.446958       -12.1623
  27   2.0000      -0.440781       -11.9943
  28   2.0000      -0.431879       -11.7520
  29   2.0000      -0.407332       -11.0841
  30   2.0000      -0.402239       -10.9455
  31   2.0000      -0.381549       -10.3825
  32   2.0000      -0.364611        -9.9216
  33   2.0000      -0.363466        -9.8904
  34   2.0000      -0.353797        -9.6273
  35   2.0000      -0.352933        -9.6038
  36   2.0000      -0.340951        -9.2778
  37   2.0000      -0.322967        -8.7884
  38   2.0000      -0.300021        -8.1640
  39   2.0000      -0.297972        -8.1082
  40   2.0000      -0.265479        -7.2240
  41   2.0000      -0.246683        -6.7126
  42   2.0000      -0.229177        -6.2362
  43   0.0000       0.082289         2.2392
  44   0.0000       0.097571         2.6550
  45   0.0000       0.102524         2.7898
  46   0.0000       0.118331         3.2200
  47   0.0000       0.126194         3.4339

MULLIKEN ATOMIC CHARGES
-----------------------
   0 C :    0.283456
   1 C :   -0.256284
   2 C :   -0.299671
   3 C :    0.000745
   4 O :   -0.506928
   5 H :    0.137685
   6 H :    0.142790
   7 H :    0.151914
   8 H :    0.139371
   9 H :    0.162353
  10 H :    0.157278
  11 H :    0.139942
  12 C :   -0.009192
  13 H :    0.115404
  14 C :    0.071880
  15 C :   -0.293219
  16 C :    0.005390
  17 O :   -0.517879
  18 H :    0.188015
  19 O :   -0.516099
  20 H :    0.122487
  21 H :    0.158493
  22 H :    0.141570
  23 H :    0.129857
  24 H :    0.150643
Sum of atomic charges:   -0.0000000

LOEWDIN ATOMIC CHARGES
----------------------
   0 C :    0.170658
   1 C :   -0.214962
   2 C :   -0.215888
   3 C :   -0.025711
   4 O :   -0.324161
   5 H :    0.095456
   6 H :    0.112539
   7 H :    0.121427
   8 H :    0.112683
   9 H :    0.119166
  10 H :    0.110906
  11 H :    0.101518
  12 C :   -0.050581
  13 H :    0.088486
  14 C :    0.037828
  15 C :   -0.223425
  16 C :   -0.028217
  17 O :   -0.327396
  18 H :    0.130088
  19 O :   -0.323889
  20 H :    0.092362
  21 H :    0.126377
  22 H :    0.112667
  23 H :    0.095708
  24 H :    0.106362

  Mayer bond orders larger than 0.100000
B(  0-C ,  1-C ) :   0.9505 B(  0-C ,  4-O ) :   0.9058 B(  0-C ,  5-H ) :   0.9190
B(  0-C , 19-O ) :   0.8558 B(  1-C ,  2-C ) :   0.9578 B(  1-C ,  6-H ) :   0.9401
B(  1-C ,  7-H ) :   0.9377 B(  2-C ,  3-C ) :   0.9542 B(  2-C ,  8-H ) :   0.9453
B(  2-C ,  9-H ) :   0.9442 B(  3-C ,  4-O ) :   0.8333 B(  3-C , 10-H ) :   0.9340
B(  3-C , 11-H ) :   0.9404 B( 12-C , 13-H ) :   0.9087 B( 12-C , 14-C ) :   0.9116
B( 12-C , 17-O ) :   0.8704 B( 12-C , 18-H ) :   0.9163 B( 14-C , 15-C ) :   0.9615
B( 14-C , 19-O ) :   0.8408 B( 14-C , 20-H ) :   0.9212 B( 15-C , 16-C ) :   0.9464
B( 15-C , 21-H ) :   0.9372 B( 15-C , 22-H ) :   0.9414 B( 16-C , 17-O ) :   0.8621
B( 16-C , 23-H ) :   0.9333 B( 16-C , 24-H ) :   0.9363

FINAL SINGLE POINT ENERGY      -538.436575852016

DIPOLE MOMENT
-------------
                                X             Y             Z
Electronic contribution:      0.47384      -2.71575       0.84158
Nuclear contribution   :     -0.53396       3.30750      -1.80791
                        -----------------------------------------
Total Dipole Moment    :     -0.06012       0.59175      -0.96634
                        -----------------------------------------
Magnitude (a.u.)       :      1.13472
Magnitude (Debye)      :      2.88423

Rotational constants in cm-1:     0.072519     0.023474     0.022075
Rotational constants in MHz :  2174.062339   703.721717   661.778138

                             ****ORCA TERMINATED NORMALLY****
TOTAL RUN TIME: 0 days 0 hours 6 minutes 48 seconds 443 msec
