                         Program Version 4.2.1 -  RELEASE  -
|  1> # Test redundant internal optimization
|  2> #
|  3> ! RKS B3LYP  Opt TightSCF SmallPrint
|  4>
|  5> %basis
|  6>         Basis "6-31G"
|  7> end
|  8>
|  9> %geom
| 10> Constraints
| 11> { D 4  0  19  14  210.0   C } # D for Dihedral angle
| 12> { D 0  19  14  12  240.0   C } # D for Dihedral angle
| 13> { D 0  4  3  2   C } # D for Dihedral angle
| 14> { D 4  3  2  1   C } # D for Dihedral angle
| 15> { D 3  2  1  0   C } # D for Dihedral angle
| 16> { D 2  1  0  4   C } # D for Dihedral angle
| 17> { D 1  0  4  3   C } # D for Dihedral angle
| 18> { D 14  15  16  17   C } # D for Dihedral angle
| 19> { D 15  16  17  12   C } # D for Dihedral angle
| 20> { D 16  17  12  14   C } # D for Dihedral angle
| 21> { D 17  12  14  15   C } # D for Dihedral angle
| 22> { D 12  14  15  16   C } # D for Dihedral angle
| 23> end
| 24> end
| 25>
| 26>
| 27> #%pal
| 28> #nprocs 8
| 29> #end
| 30>
| 31> * xyz 0 1
| 32> C  -21.048   26.222   46.251
| 33> C  -20.361   27.558   45.944
| 34> C  -20.329   28.222   47.341
| 35> C  -20.110   27.022   48.296
| 36> O  -20.473   25.807   47.535
| 37> H  -20.833   25.428   45.533
| 38> H  -19.344   27.382   45.576
| 39> H  -20.898   28.157   45.201
| 40> H  -19.543   28.978   47.434
| 41> H  -21.289   28.710   47.548
| 42> H  -20.733   27.082   49.195
| 43> H  -19.064   26.913   48.597
| 44> C  -23.974   27.363   44.722
| 45> H  -24.752   27.115   43.983
| 46> C  -23.197   26.114   45.155
| 47> C  -22.226   25.921   43.968
| 48> C  -21.898   27.373   43.540
| 49> O  -22.955   28.231   44.120
| 50> H  -24.425   27.923   45.542
| 51> O  -22.472   26.381   46.366
| 52> H  -23.842   25.245   45.323
| 53> H  -21.330   25.353   44.239
| 54> H  -22.728   25.383   43.153
| 55> H  -21.891   27.500   42.452
| 56> H  -20.943   27.722   43.944
| 57> *
| 58>
| 59>                          ****END OF INPUT****
 Total Charge           Charge          ....    0
 Multiplicity           Mult            ....    1
 Number of Electrons    NEL             ....   86
FINAL SINGLE POINT ENERGY      -538.382087421460
FINAL SINGLE POINT ENERGY      -538.423064530664
FINAL SINGLE POINT ENERGY      -538.425187834547
FINAL SINGLE POINT ENERGY      -538.425498361313
FINAL SINGLE POINT ENERGY      -538.425579293150
FINAL SINGLE POINT ENERGY      -538.425598665077
FINAL SINGLE POINT ENERGY      -538.425601924929
                    ***********************HURRAY********************

CARTESIAN COORDINATES (ANGSTROEM)
---------------------------------
  C    -20.807960   26.250133   46.284058
  C    -20.164772   27.626583   46.113070
  C    -20.364303   28.251938   47.517290
  C    -20.211697   27.036280   48.455951
  O    -20.400917   25.837618   47.599521
  H    -20.470853   25.477944   45.589437
  H    -19.098297   27.510607   45.884305
  H    -20.642728   28.220542   45.332305
  H    -19.638709   29.041697   47.732022
  H    -21.371011   28.672707   47.589170
  H    -20.955605   27.012227   49.256580
  H    -19.209801   26.954887   48.888735
  C    -23.860742   27.419412   44.785665
  H    -24.789795   27.196528   44.241650
  C    -23.084889   26.136982   45.096203
  C    -22.407988   25.851112   43.743713
  C    -22.092139   27.261758   43.188429
  O    -22.947533   28.208142   43.942711
  H    -24.077864   28.002629   45.680065
  O    -22.256026   26.364818   46.279891
  H    -23.762961   25.319394   45.369900
  H    -21.527719   25.207186   43.809863
  H    -23.139201   25.338149   43.108821
  H    -22.322566   27.349456   42.120618
  H    -21.051925   27.556269   43.348028

 Multiplicity           Mult            ....    1
 Number of Electrons    NEL             ....   86
 Basis Dimension        Dim             ....  127

ORBITAL ENERGIES
----------------

  NO   OCC          E(Eh)            E(eV)
   0   2.0000     -19.138354      -520.7811
   1   2.0000     -19.134925      -520.6878
   2   2.0000     -19.134672      -520.6809
   3   2.0000     -10.277465      -279.6640
   4   2.0000     -10.244501      -278.7671
   5   2.0000     -10.230832      -278.3951
   6   2.0000     -10.223668      -278.2001
   7   2.0000     -10.219591      -278.0892
   8   2.0000     -10.198719      -277.5213
   9   2.0000     -10.179487      -276.9979
  10   2.0000     -10.177591      -276.9463
  11   2.0000      -1.048076       -28.5196
  12   2.0000      -1.018712       -27.7206
  13   2.0000      -0.985451       -26.8155
  14   2.0000      -0.790767       -21.5179
  15   2.0000      -0.777474       -21.1561
  16   2.0000      -0.749360       -20.3911
  17   2.0000      -0.718610       -19.5544
  18   2.0000      -0.618891       -16.8409
  19   2.0000      -0.605753       -16.4834
  20   2.0000      -0.593189       -16.1415
  21   2.0000      -0.564858       -15.3706
  22   2.0000      -0.523053       -14.2330
  23   2.0000      -0.505434       -13.7536
  24   2.0000      -0.485130       -13.2011
  25   2.0000      -0.482590       -13.1319
  26   2.0000      -0.454508       -12.3678
  27   2.0000      -0.441699       -12.0193
  28   2.0000      -0.428992       -11.6735
  29   2.0000      -0.420394       -11.4395
  30   2.0000      -0.400880       -10.9085
  31   2.0000      -0.386679       -10.5221
  32   2.0000      -0.377004       -10.2588
  33   2.0000      -0.373755       -10.1704
  34   2.0000      -0.364670        -9.9232
  35   2.0000      -0.349116        -9.4999
  36   2.0000      -0.343397        -9.3443
  37   2.0000      -0.314265        -8.5516
  38   2.0000      -0.307124        -8.3573
  39   2.0000      -0.297632        -8.0990
  40   2.0000      -0.256774        -6.9872
  41   2.0000      -0.250955        -6.8288
  42   2.0000      -0.237772        -6.4701
  43   0.0000       0.073546         2.0013
  44   0.0000       0.087794         2.3890
  45   0.0000       0.098485         2.6799
  46   0.0000       0.107139         2.9154
  47   0.0000       0.112629         3.0648

MULLIKEN ATOMIC CHARGES
-----------------------
   0 C :    0.294979
   1 C :   -0.273652
   2 C :   -0.300591
   3 C :   -0.001569
   4 O :   -0.504400
   5 H :    0.136838
   6 H :    0.135617
   7 H :    0.172132
   8 H :    0.139561
   9 H :    0.163488
  10 H :    0.152067
  11 H :    0.139021
  12 C :   -0.007023
  13 H :    0.126609
  14 C :    0.098044
  15 C :   -0.335662
  16 C :   -0.005301
  17 O :   -0.522507
  18 H :    0.171175
  19 O :   -0.524901
  20 H :    0.144981
  21 H :    0.156913
  22 H :    0.157694
  23 H :    0.144559
  24 H :    0.141927
Sum of atomic charges:    0.0000000

LOEWDIN ATOMIC CHARGES
----------------------
   0 C :    0.181822
   1 C :   -0.233512
   2 C :   -0.215626
   3 C :   -0.026288
   4 O :   -0.308522
   5 H :    0.094833
   6 H :    0.109255
   7 H :    0.126825
   8 H :    0.113499
   9 H :    0.119577
  10 H :    0.107804
  11 H :    0.100804
  12 C :   -0.041279
  13 H :    0.092276
  14 C :    0.046001
  15 C :   -0.241036
  16 C :   -0.034637
  17 O :   -0.334139
  18 H :    0.123944
  19 O :   -0.333719
  20 H :    0.106180
  21 H :    0.120949
  22 H :    0.123130
  23 H :    0.102094
  24 H :    0.099765

  Mayer bond orders larger than 0.100000
B(  0-C ,  1-C ) :   0.9345 B(  0-C ,  4-O ) :   0.9338 B(  0-C ,  5-H ) :   0.9167
B(  0-C , 19-O ) :   0.8305 B(  1-C ,  2-C ) :   0.9523 B(  1-C ,  6-H ) :   0.9348
B(  1-C ,  7-H ) :   0.9186 B(  2-C ,  3-C ) :   0.9544 B(  2-C ,  8-H ) :   0.9452
B(  2-C ,  9-H ) :   0.9431 B(  3-C ,  4-O ) :   0.8348 B(  3-C , 10-H ) :   0.9352
B(  3-C , 11-H ) :   0.9401 B( 12-C , 13-H ) :   0.9135 B( 12-C , 14-C ) :   0.9167
B( 12-C , 17-O ) :   0.8577 B( 12-C , 18-H ) :   0.9311 B( 14-C , 15-C ) :   0.9390
B( 14-C , 19-O ) :   0.8602 B( 14-C , 20-H ) :   0.9286 B( 15-C , 16-C ) :   0.9400
B( 15-C , 21-H ) :   0.9303 B( 15-C , 22-H ) :   0.9344 B( 16-C , 17-O ) :   0.8577
B( 16-C , 23-H ) :   0.9347 B( 16-C , 24-H ) :   0.9293

FINAL SINGLE POINT ENERGY      -538.425602740778

DIPOLE MOMENT
-------------
                                X             Y             Z
Electronic contribution:     -1.41097      -1.78426       1.46379
Nuclear contribution   :      1.54618       1.67758      -2.11491
                        -----------------------------------------
Total Dipole Moment    :      0.13521      -0.10668      -0.65112
                        -----------------------------------------
Magnitude (a.u.)       :      0.67351
Magnitude (Debye)      :      1.71193

Rotational constants in cm-1:     0.074397     0.023482     0.022265
Rotational constants in MHz :  2230.373633   703.987527   667.477557

                             ****ORCA TERMINATED NORMALLY****
TOTAL RUN TIME: 0 days 0 hours 10 minutes 1 seconds 271 msec
