                         Program Version 4.2.0 -  RELEASE  -
|  1> # Test redundant internal optimization
|  2> #
|  3> ! RKS B3LYP  Opt TightSCF SmallPrint
|  4>
|  5> %basis
|  6>         Basis "6-31G"
|  7> end
|  8>
|  9> %geom
| 10> Constraints
| 11> { D 4  0  15  12  75.0   C } # D for Dihedral angle
| 12> { D 0  15  12  16  240.0   C } # D for Dihedral angle
| 13> { D 0  4  3  2   C } # D for Dihedral angle
| 14> { D 4  3  2  1   C } # D for Dihedral angle
| 15> { D 3  2  1  0   C } # D for Dihedral angle
| 16> { D 2  1  0  4   C } # D for Dihedral angle
| 17> { D 1  0  4  3   C } # D for Dihedral angle
| 18> { D 16  20  19  18   C } # D for Dihedral angle
| 19> { D 20  19  18  17   C } # D for Dihedral angle
| 20> { D 19  18  17  16   C } # D for Dihedral angle
| 21> { D 18  17  16  20   C } # D for Dihedral angle
| 22> { D 17  16  20  19   C } # D for Dihedral angle
| 23> { D 15  12  16  20   C } # D for Dihedral angle
| 24> end
| 25> end
| 26>
| 27>
| 28> #%pal
| 29> #nprocs 8
| 30> #end
| 31>
| 32> * xyz 0 1
| 33> C  -21.048   26.222   46.251
| 34> C  -20.361   27.558   45.944
| 35> C  -20.329   28.222   47.341
| 36> C  -20.110   27.022   48.296
| 37> O  -20.473   25.807   47.535
| 38> H  -20.833   25.428   45.533
| 39> H  -19.344   27.382   45.576
| 40> H  -20.898   28.157   45.201
| 41> H  -19.543   28.978   47.434
| 42> H  -21.289   28.710   47.548
| 43> H  -20.733   27.082   49.195
| 44> H  -19.064   26.913   48.597
| 45> C  -23.049   27.675   47.122
| 46> H  -22.169   28.252   47.431
| 47> H  -23.658   28.305   46.462
| 48> O  -22.586   26.394   46.375
| 49> C  -23.895   27.360   48.387
| 50> C  -23.063   26.622   49.443
| 51> C  -22.263   27.784   50.079
| 52> C  -23.266   28.965   50.039
| 53> O  -24.304   28.601   49.052
| 54> H  -24.807   26.841   48.087
| 55> O  -24.000   25.962   50.492
| 56> H  -22.420   25.845   49.018
| 57> H  -21.923   27.559   51.094
| 58> H  -21.378   28.007   49.471
| 59> H  -22.794   29.905   49.734
| 60> H  -23.770   29.117   50.997
| 61> H  -24.655   26.723   50.932
| 62> *
| 63>
| 64>                          ****END OF INPUT****
 Total Charge           Charge          ....    0
 Multiplicity           Mult            ....    1
 Number of Electrons    NEL             ....  102
FINAL SINGLE POINT ENERGY      -652.736980153413
FINAL SINGLE POINT ENERGY      -652.822377431124
FINAL SINGLE POINT ENERGY      -652.846466839819
FINAL SINGLE POINT ENERGY      -652.853293353566
FINAL SINGLE POINT ENERGY      -652.854399189620
FINAL SINGLE POINT ENERGY      -652.854723321413
FINAL SINGLE POINT ENERGY      -652.854796417339
FINAL SINGLE POINT ENERGY      -652.854840788630
FINAL SINGLE POINT ENERGY      -652.854851667796
FINAL SINGLE POINT ENERGY      -652.854853601648
                    ***********************HURRAY********************

CARTESIAN COORDINATES (ANGSTROEM)
---------------------------------
  C    -21.159823   26.352775   46.405881
  C    -20.265898   27.430861   45.771352
  C    -19.740357   28.196270   47.023301
  C    -19.594835   27.062637   48.071412
  O    -20.413733   25.929917   47.574075
  H    -21.225610   25.457918   45.784466
  H    -19.441689   26.935943   45.248035
  H    -20.804370   28.065951   45.063515
  H    -18.785731   28.697497   46.836253
  H    -20.453520   28.959761   47.346076
  H    -19.932083   27.344797   49.070468
  H    -18.565659   26.697528   48.138409
  C    -23.135608   27.810425   47.242163
  H    -22.377914   28.538807   47.549978
  H    -23.794199   28.293679   46.514711
  O    -22.555086   26.634332   46.601024
  C    -23.962484   27.360575   48.453987
  C    -23.193994   26.646293   49.577285
  C    -22.575311   27.844636   50.345594
  C    -23.666828   28.937800   50.227786
  O    -24.552260   28.532763   49.109484
  H    -24.789425   26.734649   48.106612
  O    -24.111784   25.896115   50.421680
  H    -22.460582   25.928631   49.213236
  H    -22.357208   27.567932   51.379527
  H    -21.644455   28.167721   49.871730
  H    -23.256926   29.930311   50.015420
  H    -24.292023   29.005873   51.123650
  H    -24.915606   26.435603   50.578890

 Multiplicity           Mult            ....    1
 Number of Electrons    NEL             ....  102
 Basis Dimension        Dim             ....  149

ORBITAL ENERGIES
----------------

  NO   OCC          E(Eh)            E(eV)
   0   2.0000     -19.150588      -521.1140
   1   2.0000     -19.147690      -521.0351
   2   2.0000     -19.145062      -520.9636
   3   2.0000     -19.131383      -520.5914
   4   2.0000     -10.285000      -279.8691
   5   2.0000     -10.235971      -278.5349
   6   2.0000     -10.235829      -278.5311
   7   2.0000     -10.232213      -278.4327
   8   2.0000     -10.231051      -278.4011
   9   2.0000     -10.230604      -278.3889
  10   2.0000     -10.200858      -277.5794
  11   2.0000     -10.197178      -277.4793
  12   2.0000     -10.187283      -277.2101
  13   2.0000      -1.055411       -28.7192
  14   2.0000      -1.035219       -28.1697
  15   2.0000      -1.003421       -27.3045
  16   2.0000      -1.000170       -27.2160
  17   2.0000      -0.795287       -21.6408
  18   2.0000      -0.781046       -21.2534
  19   2.0000      -0.771433       -20.9918
  20   2.0000      -0.736103       -20.0304
  21   2.0000      -0.682733       -18.5781
  22   2.0000      -0.611618       -16.6430
  23   2.0000      -0.603787       -16.4299
  24   2.0000      -0.598996       -16.2995
  25   2.0000      -0.575712       -15.6659
  26   2.0000      -0.526044       -14.3144
  27   2.0000      -0.511905       -13.9296
  28   2.0000      -0.508299       -13.8315
  29   2.0000      -0.494550       -13.4574
  30   2.0000      -0.477763       -13.0006
  31   2.0000      -0.457742       -12.4558
  32   2.0000      -0.451702       -12.2914
  33   2.0000      -0.437589       -11.9074
  34   2.0000      -0.427730       -11.6391
  35   2.0000      -0.420666       -11.4469
  36   2.0000      -0.412325       -11.2199
  37   2.0000      -0.390612       -10.6291
  38   2.0000      -0.388808       -10.5800
  39   2.0000      -0.369563       -10.0563
  40   2.0000      -0.365036        -9.9331
  41   2.0000      -0.362443        -9.8626
  42   2.0000      -0.349394        -9.5075
  43   2.0000      -0.332776        -9.0553
  44   2.0000      -0.322671        -8.7803
  45   2.0000      -0.303543        -8.2598
  46   2.0000      -0.300974        -8.1899
  47   2.0000      -0.279189        -7.5971
  48   2.0000      -0.264265        -7.1910
  49   2.0000      -0.261888        -7.1263
  50   2.0000      -0.242837        -6.6079
  51   0.0000       0.052193         1.4202
  52   0.0000       0.066076         1.7980
  53   0.0000       0.086660         2.3582
  54   0.0000       0.093636         2.5480
  55   0.0000       0.103389         2.8134

MULLIKEN ATOMIC CHARGES
-----------------------
   0 C :    0.306631
   1 C :   -0.277305
   2 C :   -0.317918
   3 C :   -0.016164
   4 O :   -0.502772
   5 H :    0.171991
   6 H :    0.158946
   7 H :    0.152283
   8 H :    0.148567
   9 H :    0.148044
  10 H :    0.147403
  11 H :    0.151923
  12 C :   -0.020933
  13 H :    0.122580
  14 H :    0.163297
  15 O :   -0.528889
  16 C :    0.068035
  17 C :    0.073108
  18 C :   -0.302929
  19 C :   -0.031095
  20 O :   -0.529348
  21 H :    0.169430
  22 O :   -0.602073
  23 H :    0.195578
  24 H :    0.162432
  25 H :    0.138600
  26 H :    0.141058
  27 H :    0.148203
  28 H :    0.361315
Sum of atomic charges:   -0.0000000

LOEWDIN ATOMIC CHARGES
----------------------
   0 C :    0.175970
   1 C :   -0.227102
   2 C :   -0.223359
   3 C :   -0.035815
   4 O :   -0.320561
   5 H :    0.115368
   6 H :    0.123551
   7 H :    0.120568
   8 H :    0.117498
   9 H :    0.106171
  10 H :    0.100740
  11 H :    0.106770
  12 C :   -0.039370
  13 H :    0.092488
  14 H :    0.116236
  15 O :   -0.322944
  16 C :    0.013880
  17 C :    0.033824
  18 C :   -0.243009
  19 C :   -0.039184
  20 O :   -0.332246
  21 H :    0.119375
  22 O :   -0.413411
  23 H :    0.135563
  24 H :    0.127613
  25 H :    0.107118
  26 H :    0.100955
  27 H :    0.103201
  28 H :    0.280111

  Mayer bond orders larger than 0.100000
B(  0-C ,  1-C ) :   0.9172 B(  0-C ,  4-O ) :   0.8876 B(  0-C ,  5-H ) :   0.9357
B(  0-C , 15-O ) :   0.9073 B(  1-C ,  2-C ) :   0.9550 B(  1-C ,  6-H ) :   0.9352
B(  1-C ,  7-H ) :   0.9375 B(  2-C ,  3-C ) :   0.9482 B(  2-C ,  8-H ) :   0.9439
B(  2-C ,  9-H ) :   0.9372 B(  3-C ,  4-O ) :   0.8460 B(  3-C , 10-H ) :   0.9202
B(  3-C , 11-H ) :   0.9376 B( 12-C , 13-H ) :   0.9125 B( 12-C , 14-H ) :   0.9306
B( 12-C , 15-O ) :   0.8219 B( 12-C , 16-C ) :   0.8933 B( 16-C , 17-C ) :   0.9116
B( 16-C , 20-O ) :   0.8357 B( 16-C , 21-H ) :   0.9251 B( 17-C , 18-C ) :   0.9140
B( 17-C , 22-O ) :   0.8844 B( 17-C , 23-H ) :   0.9077 B( 18-C , 19-C ) :   0.9361
B( 18-C , 24-H ) :   0.9391 B( 18-C , 25-H ) :   0.9238 B( 19-C , 20-O ) :   0.8447
B( 19-C , 26-H ) :   0.9365 B( 19-C , 27-H ) :   0.9380 B( 22-O , 28-H ) :   0.7958

FINAL SINGLE POINT ENERGY      -652.854853255573

DIPOLE MOMENT
-------------
                                X             Y             Z
Electronic contribution:     -5.27360      -4.58618      -0.30629
Nuclear contribution   :      6.41120       6.03922       0.05726
                        -----------------------------------------
Total Dipole Moment    :      1.13760       1.45304      -0.24903
                        -----------------------------------------
Magnitude (a.u.)       :      1.86212
Magnitude (Debye)      :      4.73313

Rotational constants in cm-1:     0.045265     0.016539     0.016175
Rotational constants in MHz :  1357.010905   495.831440   484.914397

                             ****ORCA TERMINATED NORMALLY****
TOTAL RUN TIME: 0 days 1 hours 40 minutes 10 seconds 302 msec
