                         Program Version 4.2.1 -  RELEASE  -
|  1> # Test redundant internal optimization
|  2> #
|  3> ! RKS B3LYP  Opt TightSCF SmallPrint
|  4>
|  5> %basis
|  6>         Basis "6-31G"
|  7> end
|  8>
|  9> %geom
| 10> Constraints
| 11> { D 4  0  19  14  300.0   C } # D for Dihedral angle
| 12> { D 0  19  14  12  300.0   C } # D for Dihedral angle
| 13> { D 0  4  3  2   C } # D for Dihedral angle
| 14> { D 4  3  2  1   C } # D for Dihedral angle
| 15> { D 3  2  1  0   C } # D for Dihedral angle
| 16> { D 2  1  0  4   C } # D for Dihedral angle
| 17> { D 1  0  4  3   C } # D for Dihedral angle
| 18> { D 14  15  16  17   C } # D for Dihedral angle
| 19> { D 15  16  17  12   C } # D for Dihedral angle
| 20> { D 16  17  12  14   C } # D for Dihedral angle
| 21> { D 17  12  14  15   C } # D for Dihedral angle
| 22> { D 12  14  15  16   C } # D for Dihedral angle
| 23> end
| 24> end
| 25>
| 26>
| 27> #%pal
| 28> #nprocs 8
| 29> #end
| 30>
| 31> * xyz 0 1
| 32> C  -21.048   26.222   46.251
| 33> C  -20.361   27.558   45.944
| 34> C  -20.329   28.222   47.341
| 35> C  -20.110   27.022   48.296
| 36> O  -20.473   25.807   47.535
| 37> H  -20.833   25.428   45.533
| 38> H  -19.344   27.382   45.576
| 39> H  -20.898   28.157   45.201
| 40> H  -19.543   28.978   47.434
| 41> H  -21.289   28.710   47.548
| 42> H  -20.733   27.082   49.195
| 43> H  -19.064   26.913   48.597
| 44> C  -22.935   24.078   45.728
| 45> H  -23.671   23.267   45.837
| 46> C  -23.171   25.189   46.758
| 47> C  -22.539   24.577   48.029
| 48> C  -21.334   23.778   47.474
| 49> O  -21.585   23.588   46.028
| 50> H  -22.928   24.417   44.690
| 51> O  -22.472   26.381   46.366
| 52> H  -24.231   25.436   46.887
| 53> H  -22.237   25.334   48.760
| 54> H  -23.254   23.905   48.521
| 55> H  -21.224   22.798   47.951
| 56> H  -20.391   24.325   47.568
| 57> *
| 58>
| 59>                          ****END OF INPUT****
 Total Charge           Charge          ....    0
 Multiplicity           Mult            ....    1
 Number of Electrons    NEL             ....   86
FINAL SINGLE POINT ENERGY      -538.377293093488
FINAL SINGLE POINT ENERGY      -538.431387038658
FINAL SINGLE POINT ENERGY      -538.435152231549
FINAL SINGLE POINT ENERGY      -538.435900351593
FINAL SINGLE POINT ENERGY      -538.435979319653
FINAL SINGLE POINT ENERGY      -538.436005060333
FINAL SINGLE POINT ENERGY      -538.435996668238
FINAL SINGLE POINT ENERGY      -538.435995830165
                    ***********************HURRAY********************

CARTESIAN COORDINATES (ANGSTROEM)
---------------------------------
  C    -20.839538   26.335093   46.179399
  C    -20.424272   27.785838   45.928297
  C    -20.382781   28.354443   47.365141
  C    -19.877388   27.159252   48.204050
  O    -20.098674   25.950215   47.365720
  H    -20.552695   25.608845   45.415266
  H    -19.431205   27.799886   45.465207
  H    -21.130644   28.306622   45.278977
  H    -19.730083   29.227999   47.455052
  H    -21.391985   28.641447   47.673014
  H    -20.416623   27.040734   49.148093
  H    -18.803354   27.204529   48.407148
  C    -22.906052   23.990745   45.737625
  H    -23.800004   23.350053   45.779166
  C    -23.030339   25.145555   46.735356
  C    -22.659672   24.448672   48.057733
  C    -21.578234   23.420870   47.645748
  O    -21.713587   23.253129   46.167291
  H    -22.745752   24.320794   44.709000
  O    -22.273043   26.338580   46.358548
  H    -24.051144   25.537347   46.767973
  H    -22.305894   25.155237   48.811307
  H    -23.555236   23.947889   48.444351
  H    -21.727394   22.442806   48.116616
  H    -20.571407   23.787419   47.831921

 Multiplicity           Mult            ....    1
 Number of Electrons    NEL             ....   86
 Basis Dimension        Dim             ....  127

ORBITAL ENERGIES
----------------

  NO   OCC          E(Eh)            E(eV)
   0   2.0000     -19.142260      -520.8874
   1   2.0000     -19.139968      -520.8250
   2   2.0000     -19.125264      -520.4249
   3   2.0000     -10.274633      -279.5870
   4   2.0000     -10.237237      -278.5694
   5   2.0000     -10.226784      -278.2849
   6   2.0000     -10.218562      -278.0612
   7   2.0000     -10.206972      -277.7458
   8   2.0000     -10.184685      -277.1394
   9   2.0000     -10.183208      -277.0992
  10   2.0000     -10.179937      -277.0102
  11   2.0000      -1.050577       -28.5877
  12   2.0000      -1.006403       -27.3856
  13   2.0000      -0.987176       -26.8624
  14   2.0000      -0.791638       -21.5416
  15   2.0000      -0.773300       -21.0426
  16   2.0000      -0.736156       -20.0318
  17   2.0000      -0.717713       -19.5300
  18   2.0000      -0.617195       -16.7947
  19   2.0000      -0.597411       -16.2564
  20   2.0000      -0.591645       -16.0995
  21   2.0000      -0.561398       -15.2764
  22   2.0000      -0.516346       -14.0505
  23   2.0000      -0.498342       -13.5606
  24   2.0000      -0.481515       -13.1027
  25   2.0000      -0.478249       -13.0138
  26   2.0000      -0.446435       -12.1481
  27   2.0000      -0.443642       -12.0721
  28   2.0000      -0.415919       -11.3177
  29   2.0000      -0.410655       -11.1745
  30   2.0000      -0.398046       -10.8314
  31   2.0000      -0.388840       -10.5809
  32   2.0000      -0.370792       -10.0898
  33   2.0000      -0.364738        -9.9250
  34   2.0000      -0.357070        -9.7164
  35   2.0000      -0.351669        -9.5694
  36   2.0000      -0.337654        -9.1880
  37   2.0000      -0.323090        -8.7917
  38   2.0000      -0.303942        -8.2707
  39   2.0000      -0.292748        -7.9661
  40   2.0000      -0.265549        -7.2260
  41   2.0000      -0.254654        -6.9295
  42   2.0000      -0.227135        -6.1807
  43   0.0000       0.077365         2.1052
  44   0.0000       0.093369         2.5407
  45   0.0000       0.103945         2.8285
  46   0.0000       0.114978         3.1287
  47   0.0000       0.116850         3.1796

MULLIKEN ATOMIC CHARGES
-----------------------
   0 C :    0.294409
   1 C :   -0.260632
   2 C :   -0.297710
   3 C :   -0.009255
   4 O :   -0.516196
   5 H :    0.166894
   6 H :    0.146415
   7 H :    0.158710
   8 H :    0.140290
   9 H :    0.160549
  10 H :    0.140989
  11 H :    0.146861
  12 C :   -0.025785
  13 H :    0.128059
  14 C :    0.095236
  15 C :   -0.299811
  16 C :   -0.012725
  17 O :   -0.529271
  18 H :    0.155717
  19 O :   -0.536227
  20 H :    0.144814
  21 H :    0.155897
  22 H :    0.138850
  23 H :    0.126465
  24 H :    0.187457
Sum of atomic charges:   -0.0000000

LOEWDIN ATOMIC CHARGES
----------------------
   0 C :    0.174956
   1 C :   -0.213967
   2 C :   -0.215720
   3 C :   -0.031209
   4 O :   -0.323516
   5 H :    0.107047
   6 H :    0.114477
   7 H :    0.125365
   8 H :    0.113319
   9 H :    0.118408
  10 H :    0.100628
  11 H :    0.104363
  12 C :   -0.052248
  13 H :    0.094425
  14 C :    0.043779
  15 C :   -0.233804
  16 C :   -0.038802
  17 O :   -0.339596
  18 H :    0.113981
  19 O :   -0.327958
  20 H :    0.111874
  21 H :    0.124258
  22 H :    0.112719
  23 H :    0.093594
  24 H :    0.123627

  Mayer bond orders larger than 0.100000
B(  0-C ,  1-C ) :   0.9436 B(  0-C ,  4-O ) :   0.8821 B(  0-C ,  5-H ) :   0.9144
B(  0-C , 19-O ) :   0.8533 B(  1-C ,  2-C ) :   0.9559 B(  1-C ,  6-H ) :   0.9407
B(  1-C ,  7-H ) :   0.9363 B(  2-C ,  3-C ) :   0.9560 B(  2-C ,  8-H ) :   0.9452
B(  2-C ,  9-H ) :   0.9442 B(  3-C ,  4-O ) :   0.8350 B(  3-C , 10-H ) :   0.9340
B(  3-C , 11-H ) :   0.9401 B( 12-C , 13-H ) :   0.9138 B( 12-C , 14-C ) :   0.9152
B( 12-C , 17-O ) :   0.8707 B( 12-C , 18-H ) :   0.9326 B( 14-C , 15-C ) :   0.9338
B( 14-C , 19-O ) :   0.8660 B( 14-C , 20-H ) :   0.9384 B( 15-C , 16-C ) :   0.9498
B( 15-C , 21-H ) :   0.9353 B( 15-C , 22-H ) :   0.9360 B( 16-C , 17-O ) :   0.8368
B( 16-C , 23-H ) :   0.9340 B( 16-C , 24-H ) :   0.9142

FINAL SINGLE POINT ENERGY      -538.435997315140

DIPOLE MOMENT
-------------
                                X             Y             Z
Electronic contribution:     -0.12563      -2.37282      -2.22126
Nuclear contribution   :     -0.17659       3.20918       2.72080
                        -----------------------------------------
Total Dipole Moment    :     -0.30222       0.83636       0.49954
                        -----------------------------------------
Magnitude (a.u.)       :      1.01999
Magnitude (Debye)      :      2.59260

Rotational constants in cm-1:     0.073194     0.026160     0.023934
Rotational constants in MHz :  2194.290458   784.271192   717.514448

                             ****ORCA TERMINATED NORMALLY****
TOTAL RUN TIME: 0 days 0 hours 10 minutes 13 seconds 718 msec
