                         Program Version 4.2.1 -  RELEASE  -
|  1> # Test redundant internal optimization
|  2> #
|  3> ! RKS B3LYP  Opt TightSCF SmallPrint
|  4>
|  5> %basis
|  6>         Basis "6-31G"
|  7> end
|  8>
|  9> %geom
| 10> Constraints
| 11> { D 4  0  19  14  225.0   C } # D for Dihedral angle
| 12> { D 0  19  14  12  15.0   C } # D for Dihedral angle
| 13> { D 0  4  3  2   C } # D for Dihedral angle
| 14> { D 4  3  2  1   C } # D for Dihedral angle
| 15> { D 3  2  1  0   C } # D for Dihedral angle
| 16> { D 2  1  0  4   C } # D for Dihedral angle
| 17> { D 1  0  4  3   C } # D for Dihedral angle
| 18> { D 14  15  16  17   C } # D for Dihedral angle
| 19> { D 15  16  17  12   C } # D for Dihedral angle
| 20> { D 16  17  12  14   C } # D for Dihedral angle
| 21> { D 17  12  14  15   C } # D for Dihedral angle
| 22> { D 12  14  15  16   C } # D for Dihedral angle
| 23> end
| 24> end
| 25>
| 26>
| 27> #%pal
| 28> #nprocs 8
| 29> #end
| 30>
| 31> * xyz 0 1
| 32> C  -21.048   26.222   46.251
| 33> C  -20.361   27.558   45.944
| 34> C  -20.329   28.222   47.341
| 35> C  -20.110   27.022   48.296
| 36> O  -20.473   25.807   47.535
| 37> H  -20.833   25.428   45.533
| 38> H  -19.344   27.382   45.576
| 39> H  -20.898   28.157   45.201
| 40> H  -19.543   28.978   47.434
| 41> H  -21.289   28.710   47.548
| 42> H  -20.733   27.082   49.195
| 43> H  -19.064   26.913   48.597
| 44> C  -22.333   24.843   44.485
| 45> H  -22.776   24.612   43.503
| 46> C  -23.222   25.800   45.287
| 47> C  -24.307   24.841   45.830
| 48> C  -23.522   23.531   46.089
| 49> O  -22.265   23.634   45.313
| 50> H  -21.308   25.189   44.342
| 51> O  -22.472   26.381   46.366
| 52> H  -23.637   26.611   44.679
| 53> H  -24.796   25.220   46.732
| 54> H  -25.083   24.682   45.071
| 55> H  -24.071   22.640   45.765
| 56> H  -23.242   23.412   47.140
| 57> *
| 58>
| 59>                          ****END OF INPUT****
 Total Charge           Charge          ....    0
 Multiplicity           Mult            ....    1
 Number of Electrons    NEL             ....   86
FINAL SINGLE POINT ENERGY      -538.400853321362
FINAL SINGLE POINT ENERGY      -538.425746517550
FINAL SINGLE POINT ENERGY      -538.427417990907
FINAL SINGLE POINT ENERGY      -538.427649714839
FINAL SINGLE POINT ENERGY      -538.427708578546
FINAL SINGLE POINT ENERGY      -538.427719165539
                    ***********************HURRAY********************

CARTESIAN COORDINATES (ANGSTROEM)
---------------------------------
  C    -20.857439   26.207656   46.238498
  C    -20.226608   27.580295   46.003796
  C    -20.406354   28.255071   47.385280
  C    -20.229606   27.077292   48.369141
  O    -20.424246   25.844888   47.565977
  H    -20.521043   25.407162   45.581636
  H    -19.163149   27.458627   45.764719
  H    -20.709849   28.129421   45.191438
  H    -19.684805   29.058621   47.560051
  H    -21.415716   28.670135   47.460752
  H    -20.959268   27.085897   49.183471
  H    -19.220248   27.023115   48.788866
  C    -22.522195   24.726509   44.272058
  H    -23.184373   24.558983   43.409001
  C    -23.168401   25.753128   45.200911
  C    -24.207830   24.891490   45.941663
  C    -23.506860   23.521124   46.080993
  O    -22.403845   23.519541   45.087676
  H    -21.529549   24.979039   43.897554
  O    -22.303222   26.319327   46.243430
  H    -23.614874   26.588930   44.650357
  H    -24.457292   25.344530   46.902497
  H    -25.122692   24.808964   45.342119
  H    -24.174492   22.679695   45.869443
  H    -23.045043   23.387561   47.061673

 Multiplicity           Mult            ....    1
 Number of Electrons    NEL             ....   86
 Basis Dimension        Dim             ....  127

ORBITAL ENERGIES
----------------

  NO   OCC          E(Eh)            E(eV)
   0   2.0000     -19.134096      -520.6652
   1   2.0000     -19.132779      -520.6294
   2   2.0000     -19.131725      -520.6007
   3   2.0000     -10.272864      -279.5389
   4   2.0000     -10.243028      -278.7270
   5   2.0000     -10.229950      -278.3711
   6   2.0000     -10.219054      -278.0746
   7   2.0000     -10.218829      -278.0685
   8   2.0000     -10.181932      -277.0644
   9   2.0000     -10.181150      -277.0432
  10   2.0000     -10.181032      -277.0400
  11   2.0000      -1.045686       -28.4546
  12   2.0000      -1.015922       -27.6447
  13   2.0000      -0.982782       -26.7429
  14   2.0000      -0.788226       -21.4487
  15   2.0000      -0.774834       -21.0843
  16   2.0000      -0.738724       -20.1017
  17   2.0000      -0.721913       -19.6443
  18   2.0000      -0.618553       -16.8317
  19   2.0000      -0.596839       -16.2408
  20   2.0000      -0.591360       -16.0917
  21   2.0000      -0.562837       -15.3156
  22   2.0000      -0.526147       -14.3172
  23   2.0000      -0.499671       -13.5968
  24   2.0000      -0.483153       -13.1473
  25   2.0000      -0.476493       -12.9660
  26   2.0000      -0.449775       -12.2390
  27   2.0000      -0.447798       -12.1852
  28   2.0000      -0.424163       -11.5421
  29   2.0000      -0.415124       -11.2961
  30   2.0000      -0.396889       -10.7999
  31   2.0000      -0.379832       -10.3358
  32   2.0000      -0.371423       -10.1069
  33   2.0000      -0.365071        -9.9341
  34   2.0000      -0.359603        -9.7853
  35   2.0000      -0.351967        -9.5775
  36   2.0000      -0.344847        -9.3838
  37   2.0000      -0.314643        -8.5619
  38   2.0000      -0.306512        -8.3406
  39   2.0000      -0.292549        -7.9607
  40   2.0000      -0.257753        -7.0138
  41   2.0000      -0.241060        -6.5596
  42   2.0000      -0.238948        -6.5021
  43   0.0000       0.079390         2.1603
  44   0.0000       0.098086         2.6691
  45   0.0000       0.106365         2.8943
  46   0.0000       0.110746         3.0136
  47   0.0000       0.113308         3.0833

MULLIKEN ATOMIC CHARGES
-----------------------
   0 C :    0.282592
   1 C :   -0.253602
   2 C :   -0.298389
   3 C :   -0.001205
   4 O :   -0.501498
   5 H :    0.164955
   6 H :    0.141633
   7 H :    0.138113
   8 H :    0.138499
   9 H :    0.159962
  10 H :    0.148446
  11 H :    0.138999
  12 C :   -0.035098
  13 H :    0.135037
  14 C :    0.097016
  15 C :   -0.285009
  16 C :   -0.001006
  17 O :   -0.523389
  18 H :    0.150376
  19 O :   -0.534798
  20 H :    0.132858
  21 H :    0.168629
  22 H :    0.134511
  23 H :    0.136666
  24 H :    0.165701
Sum of atomic charges:   -0.0000000

LOEWDIN ATOMIC CHARGES
----------------------
   0 C :    0.176108
   1 C :   -0.225297
   2 C :   -0.216651
   3 C :   -0.027644
   4 O :   -0.311349
   5 H :    0.109355
   6 H :    0.111695
   7 H :    0.113608
   8 H :    0.112393
   9 H :    0.118010
  10 H :    0.105912
  11 H :    0.100642
  12 C :   -0.052281
  13 H :    0.098685
  14 C :    0.046290
  15 C :   -0.226074
  16 C :   -0.027030
  17 O :   -0.333031
  18 H :    0.109891
  19 O :   -0.336883
  20 H :    0.100696
  21 H :    0.130907
  22 H :    0.107609
  23 H :    0.099618
  24 H :    0.114821

  Mayer bond orders larger than 0.100000
B(  0-C ,  1-C ) :   0.9339 B(  0-C ,  4-O ) :   0.9223 B(  0-C ,  5-H ) :   0.9082
B(  0-C , 19-O ) :   0.8338 B(  1-C ,  2-C ) :   0.9559 B(  1-C ,  6-H ) :   0.9359
B(  1-C ,  7-H ) :   0.9402 B(  2-C ,  3-C ) :   0.9542 B(  2-C ,  8-H ) :   0.9457
B(  2-C ,  9-H ) :   0.9441 B(  3-C ,  4-O ) :   0.8426 B(  3-C , 10-H ) :   0.9350
B(  3-C , 11-H ) :   0.9398 B( 12-C , 13-H ) :   0.9116 B( 12-C , 14-C ) :   0.9233
B( 12-C , 17-O ) :   0.8645 B( 12-C , 18-H ) :   0.9266 B( 14-C , 15-C ) :   0.9423
B( 14-C , 19-O ) :   0.8433 B( 14-C , 20-H ) :   0.9261 B( 15-C , 16-C ) :   0.9477
B( 15-C , 21-H ) :   0.9357 B( 15-C , 22-H ) :   0.9385 B( 16-C , 17-O ) :   0.8401
B( 16-C , 23-H ) :   0.9347 B( 16-C , 24-H ) :   0.9348

FINAL SINGLE POINT ENERGY      -538.427720471643

DIPOLE MOMENT
-------------
                                X             Y             Z
Electronic contribution:      0.57004      -3.03122      -0.07829
Nuclear contribution   :     -0.99718       4.04885      -0.40037
                        -----------------------------------------
Total Dipole Moment    :     -0.42714       1.01763      -0.47866
                        -----------------------------------------
Magnitude (a.u.)       :      1.20297
Magnitude (Debye)      :      3.05770

Rotational constants in cm-1:     0.079152     0.021744     0.021027
Rotational constants in MHz :  2372.921643   651.858225   630.367377

                             ****ORCA TERMINATED NORMALLY****
TOTAL RUN TIME: 0 days 0 hours 16 minutes 35 seconds 370 msec
