                         Program Version 4.2.0 -  RELEASE  -
|  1> # Test redundant internal optimization
|  2> #
|  3> ! RKS B3LYP  Opt TightSCF SmallPrint
|  4>
|  5> %basis
|  6>         Basis "6-31G"
|  7> end
|  8>
|  9> %geom
| 10> Constraints
| 11> { D 4  0  15  12  345.0   C } # D for Dihedral angle
| 12> { D 0  15  12  16  90.0   C } # D for Dihedral angle
| 13> { D 0  4  3  2   C } # D for Dihedral angle
| 14> { D 4  3  2  1   C } # D for Dihedral angle
| 15> { D 3  2  1  0   C } # D for Dihedral angle
| 16> { D 2  1  0  4   C } # D for Dihedral angle
| 17> { D 1  0  4  3   C } # D for Dihedral angle
| 18> { D 16  20  19  18   C } # D for Dihedral angle
| 19> { D 20  19  18  17   C } # D for Dihedral angle
| 20> { D 19  18  17  16   C } # D for Dihedral angle
| 21> { D 18  17  16  20   C } # D for Dihedral angle
| 22> { D 17  16  20  19   C } # D for Dihedral angle
| 23> { D 15  12  16  20   C } # D for Dihedral angle
| 24> end
| 25> end
| 26>
| 27>
| 28> #%pal
| 29> #nprocs 8
| 30> #end
| 31>
| 32> * xyz 0 1
| 33> C  -21.048   26.222   46.251
| 34> C  -20.361   27.558   45.944
| 35> C  -20.329   28.222   47.341
| 36> C  -20.110   27.022   48.296
| 37> O  -20.473   25.807   47.535
| 38> H  -20.833   25.428   45.533
| 39> H  -19.344   27.382   45.576
| 40> H  -20.898   28.157   45.201
| 41> H  -19.543   28.978   47.434
| 42> H  -21.289   28.710   47.548
| 43> H  -20.733   27.082   49.195
| 44> H  -19.064   26.913   48.597
| 45> C  -23.221   25.764   47.645
| 46> H  -24.245   25.445   47.418
| 47> H  -22.650   24.882   47.963
| 48> O  -22.586   26.394   46.375
| 49> C  -23.271   26.752   48.844
| 50> C  -24.193   27.940   48.547
| 51> C  -25.590   27.324   48.797
| 52> C  -25.337   26.344   49.970
| 53> O  -23.878   26.107   50.013
| 54> H  -22.253   27.028   49.123
| 55> H  -23.997   28.753   49.255
| 56> O  -24.028   28.496   47.106
| 57> H  -26.348   28.075   49.037
| 58> H  -25.926   26.781   47.905
| 59> H  -25.852   25.387   49.835
| 60> H  -25.625   26.766   50.936
| 61> H  -24.219   27.698   46.380
| 62> *
| 63>
| 64>                          ****END OF INPUT****
 Total Charge           Charge          ....    0
 Multiplicity           Mult            ....    1
 Number of Electrons    NEL             ....  102
FINAL SINGLE POINT ENERGY      -652.826433817250
FINAL SINGLE POINT ENERGY      -652.851738688726
FINAL SINGLE POINT ENERGY      -652.860702292370
FINAL SINGLE POINT ENERGY      -652.863720914995
FINAL SINGLE POINT ENERGY      -652.865018439333
FINAL SINGLE POINT ENERGY      -652.865580978077
FINAL SINGLE POINT ENERGY      -652.865718044954
FINAL SINGLE POINT ENERGY      -652.865749890250
FINAL SINGLE POINT ENERGY      -652.865751686670
                    ***********************HURRAY********************

CARTESIAN COORDINATES (ANGSTROEM)
---------------------------------
  C    -21.085847   26.195901   46.365265
  C    -20.515128   27.545781   45.931362
  C    -20.318992   28.258222   47.290279
  C    -19.912040   27.109638   48.237646
  O    -20.334331   25.853045   47.542283
  H    -20.905605   25.382016   45.657686
  H    -19.557420   27.373930   45.427583
  H    -21.179700   28.087052   45.254024
  H    -19.557667   29.042809   47.245542
  H    -21.263992   28.717961   47.597620
  H    -20.383948   27.151475   49.220929
  H    -18.829116   27.029739   48.368071
  C    -23.209842   25.698449   47.711759
  H    -24.190039   25.383488   47.344484
  H    -22.665994   24.819942   48.069670
  O    -22.540455   26.267652   46.531289
  C    -23.344800   26.699274   48.864582
  C    -24.222700   27.922930   48.556796
  C    -25.651188   27.335543   48.726779
  C    -25.482782   26.322599   49.878073
  O    -24.018701   26.041323   49.983640
  H    -22.358465   26.980919   49.231962
  H    -24.051375   28.691824   49.316991
  O    -23.962209   28.548075   47.280015
  H    -26.386615   28.112536   48.951244
  H    -25.954567   26.849863   47.792864
  H    -26.010702   25.379386   49.707546
  H    -25.791791   26.729468   50.845301
  H    -23.557989   27.886162   46.668716

 Multiplicity           Mult            ....    1
 Number of Electrons    NEL             ....  102
 Basis Dimension        Dim             ....  149

ORBITAL ENERGIES
----------------

  NO   OCC          E(Eh)            E(eV)
   0   2.0000     -19.158729      -521.3355
   1   2.0000     -19.158123      -521.3190
   2   2.0000     -19.141152      -520.8572
   3   2.0000     -19.124322      -520.3993
   4   2.0000     -10.289042      -279.9791
   5   2.0000     -10.236357      -278.5454
   6   2.0000     -10.234479      -278.4943
   7   2.0000     -10.234420      -278.4927
   8   2.0000     -10.232254      -278.4338
   9   2.0000     -10.228397      -278.3288
  10   2.0000     -10.192940      -277.3640
  11   2.0000     -10.191650      -277.3289
  12   2.0000     -10.182619      -277.0832
  13   2.0000      -1.062687       -28.9172
  14   2.0000      -1.026848       -27.9420
  15   2.0000      -1.006392       -27.3853
  16   2.0000      -0.997233       -27.1361
  17   2.0000      -0.796274       -21.6677
  18   2.0000      -0.775654       -21.1066
  19   2.0000      -0.770156       -20.9570
  20   2.0000      -0.736898       -20.0520
  21   2.0000      -0.680897       -18.5281
  22   2.0000      -0.608435       -16.5564
  23   2.0000      -0.601245       -16.3607
  24   2.0000      -0.598332       -16.2814
  25   2.0000      -0.578748       -15.7485
  26   2.0000      -0.529681       -14.4133
  27   2.0000      -0.514295       -13.9947
  28   2.0000      -0.502826       -13.6826
  29   2.0000      -0.488053       -13.2806
  30   2.0000      -0.477489       -12.9931
  31   2.0000      -0.459760       -12.5107
  32   2.0000      -0.448191       -12.1959
  33   2.0000      -0.428063       -11.6482
  34   2.0000      -0.425461       -11.5774
  35   2.0000      -0.414186       -11.2706
  36   2.0000      -0.411290       -11.1918
  37   2.0000      -0.393430       -10.7058
  38   2.0000      -0.381455       -10.3799
  39   2.0000      -0.370493       -10.0816
  40   2.0000      -0.366228        -9.9656
  41   2.0000      -0.357597        -9.7307
  42   2.0000      -0.352725        -9.5981
  43   2.0000      -0.344291        -9.3686
  44   2.0000      -0.330849        -9.0029
  45   2.0000      -0.316832        -8.6214
  46   2.0000      -0.294901        -8.0247
  47   2.0000      -0.274442        -7.4680
  48   2.0000      -0.272947        -7.4273
  49   2.0000      -0.254969        -6.9381
  50   2.0000      -0.239642        -6.5210
  51   0.0000       0.058497         1.5918
  52   0.0000       0.074171         2.0183
  53   0.0000       0.087769         2.3883
  54   0.0000       0.092643         2.5210
  55   0.0000       0.102774         2.7966

MULLIKEN ATOMIC CHARGES
-----------------------
   0 C :    0.315785
   1 C :   -0.272802
   2 C :   -0.322308
   3 C :   -0.025155
   4 O :   -0.511951
   5 H :    0.161152
   6 H :    0.152845
   7 H :    0.163324
   8 H :    0.150462
   9 H :    0.173936
  10 H :    0.155790
  11 H :    0.154966
  12 C :   -0.034491
  13 H :    0.155112
  14 H :    0.179091
  15 O :   -0.566944
  16 C :    0.049520
  17 C :    0.114372
  18 C :   -0.305233
  19 C :   -0.019921
  20 O :   -0.519844
  21 H :    0.155879
  22 H :    0.148687
  23 O :   -0.636878
  24 H :    0.154393
  25 H :    0.145292
  26 H :    0.145615
  27 H :    0.147717
  28 H :    0.391589
Sum of atomic charges:   -0.0000000

LOEWDIN ATOMIC CHARGES
----------------------
   0 C :    0.183206
   1 C :   -0.218422
   2 C :   -0.225670
   3 C :   -0.033312
   4 O :   -0.316431
   5 H :    0.104897
   6 H :    0.118344
   7 H :    0.126331
   8 H :    0.119682
   9 H :    0.122220
  10 H :    0.104889
  11 H :    0.109013
  12 C :   -0.046883
  13 H :    0.111891
  14 H :    0.124353
  15 O :   -0.350465
  16 C :    0.005849
  17 C :    0.038650
  18 C :   -0.238458
  19 C :   -0.031563
  20 O :   -0.322439
  21 H :    0.111368
  22 H :    0.106732
  23 O :   -0.431108
  24 H :    0.122209
  25 H :    0.111575
  26 H :    0.103447
  27 H :    0.105604
  28 H :    0.284490

  Mayer bond orders larger than 0.100000
B(  0-C ,  1-C ) :   0.9376 B(  0-C ,  4-O ) :   0.9249 B(  0-C ,  5-H ) :   0.9291
B(  0-C , 15-O ) :   0.8071 B(  1-C ,  2-C ) :   0.9511 B(  1-C ,  6-H ) :   0.9363
B(  1-C ,  7-H ) :   0.9348 B(  2-C ,  3-C ) :   0.9536 B(  2-C ,  8-H ) :   0.9438
B(  2-C ,  9-H ) :   0.9250 B(  3-C ,  4-O ) :   0.8219 B(  3-C , 10-H ) :   0.9204
B(  3-C , 11-H ) :   0.9386 B( 12-C , 13-H ) :   0.9361 B( 12-C , 14-H ) :   0.9233
B( 12-C , 15-O ) :   0.7919 B( 12-C , 16-C ) :   0.8901 B( 16-C , 17-C ) :   0.9094
B( 16-C , 20-O ) :   0.8497 B( 16-C , 21-H ) :   0.9170 B( 17-C , 18-C ) :   0.9060
B( 17-C , 22-H ) :   0.9337 B( 17-C , 23-O ) :   0.9210 B( 18-C , 19-C ) :   0.9383
B( 18-C , 24-H ) :   0.9436 B( 18-C , 25-H ) :   0.9430 B( 19-C , 20-O ) :   0.8329
B( 19-C , 26-H ) :   0.9335 B( 19-C , 27-H ) :   0.9389 B( 23-O , 28-H ) :   0.7202

FINAL SINGLE POINT ENERGY      -652.865751652928

DIPOLE MOMENT
-------------
                                X             Y             Z
Electronic contribution:      0.22165      -2.77439      -0.29800
Nuclear contribution   :      0.01109       2.93616       0.14535
                        -----------------------------------------
Total Dipole Moment    :      0.23275       0.16177      -0.15265
                        -----------------------------------------
Magnitude (a.u.)       :      0.32194
Magnitude (Debye)      :      0.81830

Rotational constants in cm-1:     0.050260     0.016930     0.015743
Rotational constants in MHz :  1506.761108   507.558117   471.963937

                             ****ORCA TERMINATED NORMALLY****
TOTAL RUN TIME: 0 days 0 hours 20 minutes 10 seconds 586 msec
