                         Program Version 4.2.1 -  RELEASE  -
|  1> # Test redundant internal optimization
|  2> #
|  3> ! RKS B3LYP  Opt TightSCF SmallPrint
|  4>
|  5> %basis
|  6>         Basis "6-31G"
|  7> end
|  8>
|  9> %geom
| 10> Constraints
| 11> { D 4  0  19  14  345.0   C } # D for Dihedral angle
| 12> { D 0  19  14  12  120.0   C } # D for Dihedral angle
| 13> { D 0  4  3  2   C } # D for Dihedral angle
| 14> { D 4  3  2  1   C } # D for Dihedral angle
| 15> { D 3  2  1  0   C } # D for Dihedral angle
| 16> { D 2  1  0  4   C } # D for Dihedral angle
| 17> { D 1  0  4  3   C } # D for Dihedral angle
| 18> { D 14  15  16  17   C } # D for Dihedral angle
| 19> { D 15  16  17  12   C } # D for Dihedral angle
| 20> { D 16  17  12  14   C } # D for Dihedral angle
| 21> { D 17  12  14  15   C } # D for Dihedral angle
| 22> { D 12  14  15  16   C } # D for Dihedral angle
| 23> end
| 24> end
| 25>
| 26>
| 27> #%pal
| 28> #nprocs 8
| 29> #end
| 30>
| 31> * xyz 0 1
| 32> C  -21.048   26.222   46.251
| 33> C  -20.361   27.558   45.944
| 34> C  -20.329   28.222   47.341
| 35> C  -20.110   27.022   48.296
| 36> O  -20.473   25.807   47.535
| 37> H  -20.833   25.428   45.533
| 38> H  -19.344   27.382   45.576
| 39> H  -20.898   28.157   45.201
| 40> H  -19.543   28.978   47.434
| 41> H  -21.289   28.710   47.548
| 42> H  -20.733   27.082   49.195
| 43> H  -19.064   26.913   48.597
| 44> C  -23.733   26.869   48.390
| 45> H  -23.919   26.516   49.417
| 46> C  -23.040   25.792   47.547
| 47> C  -24.226   24.869   47.181
| 48> C  -25.406   25.859   47.016
| 49> O  -25.002   27.111   47.695
| 50> H  -23.204   27.822   48.430
| 51> O  -22.472   26.381   46.366
| 52> H  -22.245   25.268   48.088
| 53> H  -24.044   24.282   46.275
| 54> H  -24.424   24.166   48.000
| 55> H  -26.332   25.489   47.468
| 56> H  -25.598   26.109   45.968
| 57> *
| 58>
| 59>                          ****END OF INPUT****
 Total Charge           Charge          ....    0
 Multiplicity           Mult            ....    1
 Number of Electrons    NEL             ....   86
FINAL SINGLE POINT ENERGY      -538.426565396451
FINAL SINGLE POINT ENERGY      -538.431127605817
FINAL SINGLE POINT ENERGY      -538.432294376327
FINAL SINGLE POINT ENERGY      -538.432546963777
FINAL SINGLE POINT ENERGY      -538.432567098420
FINAL SINGLE POINT ENERGY      -538.432575367478
                    ***********************HURRAY********************

CARTESIAN COORDINATES (ANGSTROEM)
---------------------------------
  C    -21.008007   26.204097   46.314317
  C    -20.424051   27.569246   45.949706
  C    -20.298056   28.238609   47.337193
  C    -19.931181   27.061942   48.267382
  O    -20.308756   25.825970   47.521545
  H    -20.804103   25.408229   45.592486
  H    -19.440987   27.428353   45.486066
  H    -21.071208   28.119294   45.263604
  H    -19.541089   29.028862   47.354956
  H    -21.256965   28.681188   47.622772
  H    -20.468768   27.076297   49.219412
  H    -18.857629   26.988259   48.461544
  C    -23.825512   26.840410   48.428582
  H    -24.093042   26.483640   49.435228
  C    -23.102090   25.745429   47.644687
  C    -24.278981   24.865466   47.182153
  C    -25.410709   25.887393   46.922731
  O    -25.022861   27.125071   47.636651
  H    -23.257360   27.768665   48.507425
  O    -22.453553   26.317478   46.464365
  H    -22.364234   25.203300   48.240877
  H    -24.014131   24.287555   46.293419
  H    -24.552480   24.167444   47.982369
  H    -26.381861   25.546982   47.298320
  H    -25.502388   26.144824   45.864213

 Multiplicity           Mult            ....    1
 Number of Electrons    NEL             ....   86
 Basis Dimension        Dim             ....  127

ORBITAL ENERGIES
----------------

  NO   OCC          E(Eh)            E(eV)
   0   2.0000     -19.152567      -521.1678
   1   2.0000     -19.134936      -520.6881
   2   2.0000     -19.122942      -520.3617
   3   2.0000     -10.279829      -279.7284
   4   2.0000     -10.233900      -278.4786
   5   2.0000     -10.232329      -278.4358
   6   2.0000     -10.217849      -278.0418
   7   2.0000     -10.214656      -277.9549
   8   2.0000     -10.190627      -277.3011
   9   2.0000     -10.185829      -277.1705
  10   2.0000     -10.179505      -276.9984
  11   2.0000      -1.055315       -28.7166
  12   2.0000      -1.010539       -27.4982
  13   2.0000      -0.985920       -26.8282
  14   2.0000      -0.793603       -21.5950
  15   2.0000      -0.776268       -21.1233
  16   2.0000      -0.738596       -20.0982
  17   2.0000      -0.720447       -19.6044
  18   2.0000      -0.613243       -16.6872
  19   2.0000      -0.601229       -16.3603
  20   2.0000      -0.593622       -16.1533
  21   2.0000      -0.564197       -15.3526
  22   2.0000      -0.520201       -14.1554
  23   2.0000      -0.502914       -13.6850
  24   2.0000      -0.487548       -13.2668
  25   2.0000      -0.480996       -13.0886
  26   2.0000      -0.451881       -12.2963
  27   2.0000      -0.433880       -11.8065
  28   2.0000      -0.430331       -11.7099
  29   2.0000      -0.413747       -11.2586
  30   2.0000      -0.411006       -11.1840
  31   2.0000      -0.378239       -10.2924
  32   2.0000      -0.370663       -10.0863
  33   2.0000      -0.361791        -9.8448
  34   2.0000      -0.361120        -9.8266
  35   2.0000      -0.355953        -9.6860
  36   2.0000      -0.344956        -9.3867
  37   2.0000      -0.333622        -9.0783
  38   2.0000      -0.301258        -8.1977
  39   2.0000      -0.296050        -8.0559
  40   2.0000      -0.267723        -7.2851
  41   2.0000      -0.251057        -6.8316
  42   2.0000      -0.227240        -6.1835
  43   0.0000       0.073840         2.0093
  44   0.0000       0.094858         2.5812
  45   0.0000       0.098318         2.6754
  46   0.0000       0.105081         2.8594
  47   0.0000       0.111923         3.0456

MULLIKEN ATOMIC CHARGES
-----------------------
   0 C :    0.301410
   1 C :   -0.257639
   2 C :   -0.312157
   3 C :   -0.016130
   4 O :   -0.514341
   5 H :    0.150836
   6 H :    0.143636
   7 H :    0.166090
   8 H :    0.147522
   9 H :    0.164369
  10 H :    0.143637
  11 H :    0.152006
  12 C :    0.002521
  13 H :    0.121006
  14 C :    0.048282
  15 C :   -0.284933
  16 C :    0.007128
  17 O :   -0.522650
  18 H :    0.151306
  19 O :   -0.532388
  20 H :    0.165419
  21 H :    0.155288
  22 H :    0.138117
  23 H :    0.129455
  24 H :    0.152210
Sum of atomic charges:   -0.0000000

LOEWDIN ATOMIC CHARGES
----------------------
   0 C :    0.182857
   1 C :   -0.217548
   2 C :   -0.219295
   3 C :   -0.031901
   4 O :   -0.321582
   5 H :    0.099945
   6 H :    0.113459
   7 H :    0.128898
   8 H :    0.117455
   9 H :    0.116815
  10 H :    0.102394
  11 H :    0.107769
  12 C :   -0.042860
  13 H :    0.089642
  14 C :    0.032241
  15 C :   -0.227717
  16 C :   -0.027514
  17 O :   -0.331939
  18 H :    0.110960
  19 O :   -0.336725
  20 H :    0.116478
  21 H :    0.124199
  22 H :    0.110476
  23 H :    0.095828
  24 H :    0.107665

  Mayer bond orders larger than 0.100000
B(  0-C ,  1-C ) :   0.9369 B(  0-C ,  4-O ) :   0.9028 B(  0-C ,  5-H ) :   0.9269
B(  0-C , 19-O ) :   0.8540 B(  1-C ,  2-C ) :   0.9530 B(  1-C ,  6-H ) :   0.9361
B(  1-C ,  7-H ) :   0.9345 B(  2-C ,  3-C ) :   0.9549 B(  2-C ,  8-H ) :   0.9441
B(  2-C ,  9-H ) :   0.9382 B(  3-C ,  4-O ) :   0.8280 B(  3-C , 10-H ) :   0.9345
B(  3-C , 11-H ) :   0.9403 B( 12-C , 13-H ) :   0.9116 B( 12-C , 14-C ) :   0.9256
B( 12-C , 17-O ) :   0.8725 B( 12-C , 18-H ) :   0.9301 B( 14-C , 15-C ) :   0.9465
B( 14-C , 19-O ) :   0.8202 B( 14-C , 20-H ) :   0.9055 B( 15-C , 16-C ) :   0.9478
B( 15-C , 21-H ) :   0.9400 B( 15-C , 22-H ) :   0.9411 B( 16-C , 17-O ) :   0.8553
B( 16-C , 23-H ) :   0.9342 B( 16-C , 24-H ) :   0.9367

FINAL SINGLE POINT ENERGY      -538.432575900151

DIPOLE MOMENT
-------------
                                X             Y             Z
Electronic contribution:     -0.78266      -1.17891      -0.85158
Nuclear contribution   :      1.55238       1.03082       1.08020
                        -----------------------------------------
Total Dipole Moment    :      0.76973      -0.14809       0.22862
                        -----------------------------------------
Magnitude (a.u.)       :      0.81650
Magnitude (Debye)      :      2.07539

Rotational constants in cm-1:     0.077245     0.022228     0.021425
Rotational constants in MHz :  2315.753144   666.388059   642.293077

                             ****ORCA TERMINATED NORMALLY****
TOTAL RUN TIME: 0 days 0 hours 8 minutes 16 seconds 17 msec
