                         Program Version 4.2.0 -  RELEASE  -
|  1> # Test redundant internal optimization
|  2> #
|  3> ! RKS B3LYP  Opt TightSCF SmallPrint
|  4>
|  5> %basis
|  6>         Basis "6-31G"
|  7> end
|  8>
|  9> %geom
| 10> Constraints
| 11> { D 4  0  15  12  135.0   C } # D for Dihedral angle
| 12> { D 0  15  12  16  105.0   C } # D for Dihedral angle
| 13> { D 0  4  3  2   C } # D for Dihedral angle
| 14> { D 4  3  2  1   C } # D for Dihedral angle
| 15> { D 3  2  1  0   C } # D for Dihedral angle
| 16> { D 2  1  0  4   C } # D for Dihedral angle
| 17> { D 1  0  4  3   C } # D for Dihedral angle
| 18> { D 16  20  19  18   C } # D for Dihedral angle
| 19> { D 20  19  18  17   C } # D for Dihedral angle
| 20> { D 19  18  17  16   C } # D for Dihedral angle
| 21> { D 18  17  16  20   C } # D for Dihedral angle
| 22> { D 17  16  20  19   C } # D for Dihedral angle
| 23> { D 15  12  16  20   C } # D for Dihedral angle
| 24> end
| 25> end
| 26>
| 27>
| 28> #%pal
| 29> #nprocs 8
| 30> #end
| 31>
| 32> * xyz 0 1
| 33> C  -21.048   26.222   46.251
| 34> C  -20.361   27.558   45.944
| 35> C  -20.329   28.222   47.341
| 36> C  -20.110   27.022   48.296
| 37> O  -20.473   25.807   47.535
| 38> H  -20.833   25.428   45.533
| 39> H  -19.344   27.382   45.576
| 40> H  -20.898   28.157   45.201
| 41> H  -19.543   28.978   47.434
| 42> H  -21.289   28.710   47.548
| 43> H  -20.733   27.082   49.195
| 44> H  -19.064   26.913   48.597
| 45> C  -23.162   27.680   45.721
| 46> H  -23.872   28.151   46.411
| 47> H  -22.358   28.398   45.513
| 48> O  -22.586   26.394   46.375
| 49> C  -23.898   27.394   44.382
| 50> C  -24.351   28.694   43.708
| 51> C  -23.036   29.185   43.058
| 52> C  -22.339   27.867   42.637
| 53> O  -22.982   26.785   43.413
| 54> H  -24.700   26.675   44.561
| 55> O  -25.418   28.388   42.622
| 56> H  -24.773   29.419   44.412
| 57> H  -23.206   29.856   42.210
| 58> H  -22.429   29.724   43.796
| 59> H  -21.264   27.874   42.853
| 60> H  -22.486   27.637   41.578
| 61> H  -25.017   27.663   41.905
| 62> *
| 63>
| 64>                          ****END OF INPUT****
 Total Charge           Charge          ....    0
 Multiplicity           Mult            ....    1
 Number of Electrons    NEL             ....  102
FINAL SINGLE POINT ENERGY      -652.818209219402
FINAL SINGLE POINT ENERGY      -652.842381049929
FINAL SINGLE POINT ENERGY      -652.851013638652
FINAL SINGLE POINT ENERGY      -652.853058321850
FINAL SINGLE POINT ENERGY      -652.853422447066
FINAL SINGLE POINT ENERGY      -652.853479409894
FINAL SINGLE POINT ENERGY      -652.853487888201
                    ***********************HURRAY********************

CARTESIAN COORDINATES (ANGSTROEM)
---------------------------------
  C    -21.087601   26.304195   46.240146
  C    -20.155150   27.496690   46.017180
  C    -20.144727   28.166720   47.417231
  C    -20.232454   26.952522   48.369758
  O    -20.725592   25.824518   47.547368
  H    -20.937408   25.473310   45.550275
  H    -19.161930   27.101944   45.776231
  H    -20.446357   28.167029   45.205966
  H    -19.244967   28.765931   47.586697
  H    -21.014804   28.822207   47.536621
  H    -20.921423   27.111211   49.203759
  H    -19.255290   26.655158   48.761701
  C    -23.111725   27.781169   45.692644
  H    -23.867630   28.119809   46.412104
  H    -22.382701   28.588846   45.563339
  O    -22.518611   26.586111   46.249705
  C    -23.792795   27.439664   44.367209
  C    -24.437303   28.627298   43.636435
  C    -23.216511   29.248532   42.909909
  C    -22.361037   28.011074   42.538477
  O    -22.829886   26.897979   43.399107
  H    -24.518072   26.641901   44.550752
  O    -25.449665   28.175671   42.696766
  H    -24.948157   29.329776   44.297327
  H    -23.537514   29.823503   42.037981
  H    -22.674704   29.920667   43.585640
  H    -21.290647   28.169505   42.707455
  H    -22.505302   27.699035   41.499256
  H    -25.132034   27.363025   42.248959

 Multiplicity           Mult            ....    1
 Number of Electrons    NEL             ....  102
 Basis Dimension        Dim             ....  149

ORBITAL ENERGIES
----------------

  NO   OCC          E(Eh)            E(eV)
   0   2.0000     -19.147929      -521.0417
   1   2.0000     -19.142179      -520.8852
   2   2.0000     -19.135525      -520.7041
   3   2.0000     -19.134724      -520.6823
   4   2.0000     -10.276256      -279.6312
   5   2.0000     -10.247189      -278.8402
   6   2.0000     -10.237062      -278.5646
   7   2.0000     -10.236065      -278.5375
   8   2.0000     -10.234693      -278.5001
   9   2.0000     -10.225290      -278.2443
  10   2.0000     -10.195512      -277.4340
  11   2.0000     -10.193332      -277.3747
  12   2.0000     -10.193170      -277.3703
  13   2.0000      -1.049401       -28.5556
  14   2.0000      -1.039363       -28.2825
  15   2.0000      -1.010529       -27.4979
  16   2.0000      -0.989032       -26.9129
  17   2.0000      -0.790044       -21.4982
  18   2.0000      -0.788572       -21.4581
  19   2.0000      -0.772265       -21.0144
  20   2.0000      -0.733751       -19.9664
  21   2.0000      -0.682106       -18.5611
  22   2.0000      -0.609080       -16.5739
  23   2.0000      -0.604944       -16.4614
  24   2.0000      -0.599659       -16.3175
  25   2.0000      -0.574735       -15.6393
  26   2.0000      -0.531130       -14.4528
  27   2.0000      -0.509273       -13.8580
  28   2.0000      -0.505318       -13.7504
  29   2.0000      -0.491682       -13.3793
  30   2.0000      -0.480050       -13.0628
  31   2.0000      -0.461666       -12.5626
  32   2.0000      -0.454704       -12.3731
  33   2.0000      -0.441979       -12.0269
  34   2.0000      -0.431017       -11.7286
  35   2.0000      -0.409902       -11.1540
  36   2.0000      -0.403735       -10.9862
  37   2.0000      -0.399024       -10.8580
  38   2.0000      -0.381600       -10.3839
  39   2.0000      -0.377535       -10.2732
  40   2.0000      -0.365900        -9.9567
  41   2.0000      -0.359162        -9.7733
  42   2.0000      -0.355782        -9.6813
  43   2.0000      -0.336291        -9.1509
  44   2.0000      -0.312670        -8.5082
  45   2.0000      -0.311399        -8.4736
  46   2.0000      -0.290107        -7.8942
  47   2.0000      -0.275660        -7.5011
  48   2.0000      -0.268387        -7.3032
  49   2.0000      -0.255884        -6.9630
  50   2.0000      -0.237678        -6.4675
  51   0.0000       0.050549         1.3755
  52   0.0000       0.075586         2.0568
  53   0.0000       0.083713         2.2780
  54   0.0000       0.097574         2.6551
  55   0.0000       0.102131         2.7791

MULLIKEN ATOMIC CHARGES
-----------------------
   0 C :    0.325295
   1 C :   -0.303883
   2 C :   -0.306608
   3 C :    0.000892
   4 O :   -0.494726
   5 H :    0.166186
   6 H :    0.156283
   7 H :    0.142844
   8 H :    0.144315
   9 H :    0.148768
  10 H :    0.150072
  11 H :    0.142934
  12 C :   -0.011992
  13 H :    0.148263
  14 H :    0.119029
  15 O :   -0.517801
  16 C :    0.065945
  17 C :    0.080227
  18 C :   -0.298914
  19 C :   -0.033130
  20 O :   -0.517933
  21 H :    0.174045
  22 O :   -0.601584
  23 H :    0.152549
  24 H :    0.167164
  25 H :    0.139913
  26 H :    0.144573
  27 H :    0.149869
  28 H :    0.367404
Sum of atomic charges:   -0.0000000

LOEWDIN ATOMIC CHARGES
----------------------
   0 C :    0.188350
   1 C :   -0.232551
   2 C :   -0.220684
   3 C :   -0.027855
   4 O :   -0.308605
   5 H :    0.111004
   6 H :    0.122846
   7 H :    0.111395
   8 H :    0.115275
   9 H :    0.109059
  10 H :    0.106724
  11 H :    0.103007
  12 C :   -0.041105
  13 H :    0.110061
  14 H :    0.090876
  15 O :   -0.324653
  16 C :    0.007930
  17 C :    0.034765
  18 C :   -0.241993
  19 C :   -0.040199
  20 O :   -0.327512
  21 H :    0.122774
  22 O :   -0.413515
  23 H :    0.115729
  24 H :    0.128776
  25 H :    0.110131
  26 H :    0.100807
  27 H :    0.104347
  28 H :    0.284816

  Mayer bond orders larger than 0.100000
B(  0-C ,  1-C ) :   0.9330 B(  0-C ,  4-O ) :   0.9187 B(  0-C ,  5-H ) :   0.9261
B(  0-C , 15-O ) :   0.8478 B(  1-C ,  2-C ) :   0.9476 B(  1-C ,  6-H ) :   0.9341
B(  1-C ,  7-H ) :   0.9253 B(  2-C ,  3-C ) :   0.9513 B(  2-C ,  8-H ) :   0.9456
B(  2-C ,  9-H ) :   0.9441 B(  3-C ,  4-O ) :   0.8453 B(  3-C , 10-H ) :   0.9342
B(  3-C , 11-H ) :   0.9396 B( 12-C , 13-H ) :   0.9238 B( 12-C , 14-H ) :   0.9089
B( 12-C , 15-O ) :   0.8691 B( 12-C , 16-C ) :   0.8857 B( 16-C , 17-C ) :   0.8945
B( 16-C , 20-O ) :   0.8592 B( 16-C , 21-H ) :   0.9234 B( 17-C , 18-C ) :   0.9087
B( 17-C , 22-O ) :   0.8939 B( 17-C , 23-H ) :   0.9333 B( 18-C , 19-C ) :   0.9404
B( 18-C , 24-H ) :   0.9365 B( 18-C , 25-H ) :   0.9347 B( 19-C , 20-O ) :   0.8502
B( 19-C , 26-H ) :   0.9312 B( 19-C , 27-H ) :   0.9376 B( 22-O , 28-H ) :   0.7932

FINAL SINGLE POINT ENERGY      -652.853489860546

DIPOLE MOMENT
-------------
                                X             Y             Z
Electronic contribution:     -4.12803      -5.82585      -0.49472
Nuclear contribution   :      5.11837       7.40223       0.19481
                        -----------------------------------------
Total Dipole Moment    :      0.99034       1.57639      -0.29991
                        -----------------------------------------
Magnitude (a.u.)       :      1.88566
Magnitude (Debye)      :      4.79297

Rotational constants in cm-1:     0.064132     0.012936     0.012487
Rotational constants in MHz :  1922.626981   387.796805   374.337322

                             ****ORCA TERMINATED NORMALLY****
TOTAL RUN TIME: 0 days 0 hours 24 minutes 35 seconds 864 msec
