                         Program Version 4.2.0 -  RELEASE  -
|  1> # Test redundant internal optimization
|  2> #
|  3> ! RKS B3LYP  Opt TightSCF SmallPrint
|  4>
|  5> %basis
|  6>         Basis "6-31G"
|  7> end
|  8>
|  9> %geom
| 10> Constraints
| 11> { D 4  0  15  12  135.0   C } # D for Dihedral angle
| 12> { D 0  15  12  16  45.0   C } # D for Dihedral angle
| 13> { D 0  4  3  2   C } # D for Dihedral angle
| 14> { D 4  3  2  1   C } # D for Dihedral angle
| 15> { D 3  2  1  0   C } # D for Dihedral angle
| 16> { D 2  1  0  4   C } # D for Dihedral angle
| 17> { D 1  0  4  3   C } # D for Dihedral angle
| 18> { D 16  20  19  18   C } # D for Dihedral angle
| 19> { D 20  19  18  17   C } # D for Dihedral angle
| 20> { D 19  18  17  16   C } # D for Dihedral angle
| 21> { D 18  17  16  20   C } # D for Dihedral angle
| 22> { D 17  16  20  19   C } # D for Dihedral angle
| 23> { D 15  12  16  20   C } # D for Dihedral angle
| 24> end
| 25> end
| 26>
| 27>
| 28> #%pal
| 29> #nprocs 8
| 30> #end
| 31>
| 32> * xyz 0 1
| 33> C  -21.048   26.222   46.251
| 34> C  -20.361   27.558   45.944
| 35> C  -20.329   28.222   47.341
| 36> C  -20.110   27.022   48.296
| 37> O  -20.473   25.807   47.535
| 38> H  -20.833   25.428   45.533
| 39> H  -19.344   27.382   45.576
| 40> H  -20.898   28.157   45.201
| 41> H  -19.543   28.978   47.434
| 42> H  -21.289   28.710   47.548
| 43> H  -20.733   27.082   49.195
| 44> H  -19.064   26.913   48.597
| 45> C  -23.162   27.680   45.721
| 46> H  -24.251   27.584   45.632
| 47> H  -22.944   28.558   46.342
| 48> O  -22.586   26.394   46.375
| 49> C  -22.578   27.946   44.305
| 50> C  -22.981   26.844   43.320
| 51> C  -24.431   27.253   42.968
| 52> C  -24.373   28.802   42.983
| 53> O  -23.154   29.169   43.735
| 54> H  -21.502   28.108   44.387
| 55> H  -22.342   26.882   42.431
| 56> O  -22.889   25.418   43.929
| 57> H  -24.761   26.858   42.002
| 58> H  -25.123   26.885   43.735
| 59> H  -25.244   29.249   43.471
| 60> H  -24.273   29.225   41.980
| 61> H  -23.522   25.357   44.821
| 62> *
| 63>
| 64>                          ****END OF INPUT****
 Total Charge           Charge          ....    0
 Multiplicity           Mult            ....    1
 Number of Electrons    NEL             ....  102
FINAL SINGLE POINT ENERGY      -652.776079524375
FINAL SINGLE POINT ENERGY      -652.826095629599
FINAL SINGLE POINT ENERGY      -652.845188792713
FINAL SINGLE POINT ENERGY      -652.848418590941
FINAL SINGLE POINT ENERGY      -652.848858308947
FINAL SINGLE POINT ENERGY      -652.849022506288
FINAL SINGLE POINT ENERGY      -652.849039605193
FINAL SINGLE POINT ENERGY      -652.849045321464
                    ***********************HURRAY********************

CARTESIAN COORDINATES (ANGSTROEM)
---------------------------------
  C    -21.064011   26.245058   46.355147
  C    -20.046597   27.346638   46.050300
  C    -20.052589   28.173304   47.367542
  C    -20.261419   27.079852   48.438529
  O    -20.790543   25.900814   47.718674
  H    -20.954949   25.340490   45.758035
  H    -19.072416   26.861218   45.916886
  H    -20.240951   27.941050   45.162295
  H    -19.122644   28.730297   47.512911
  H    -20.880799   28.890620   47.366936
  H    -20.975821   27.367421   49.214268
  H    -19.324651   26.766749   48.908867
  C    -23.147122   27.743485   45.638335
  H    -24.206462   27.474370   45.665462
  H    -23.021627   28.652457   46.241258
  O    -22.493079   26.608980   46.301234
  C    -22.711930   28.075886   44.201015
  C    -23.027789   26.967308   43.183000
  C    -24.548219   27.191362   42.935668
  C    -24.697278   28.724304   43.024544
  O    -23.478694   29.229156   43.729891
  H    -21.672036   28.388961   44.156414
  H    -22.465377   27.132057   42.260811
  O    -22.676972   25.632287   43.614172
  H    -24.865122   26.790464   41.969356
  H    -25.123504   26.676639   43.713371
  H    -25.582992   29.043236   43.582229
  H    -24.707099   29.203736   42.042026
  H    -22.928309   25.514804   44.558826

 Multiplicity           Mult            ....    1
 Number of Electrons    NEL             ....  102
 Basis Dimension        Dim             ....  149

ORBITAL ENERGIES
----------------

  NO   OCC          E(Eh)            E(eV)
   0   2.0000     -19.147849      -521.0395
   1   2.0000     -19.146685      -521.0078
   2   2.0000     -19.142751      -520.9007
   3   2.0000     -19.136013      -520.7174
   4   2.0000     -10.286889      -279.9205
   5   2.0000     -10.241808      -278.6938
   6   2.0000     -10.239995      -278.6444
   7   2.0000     -10.238932      -278.6155
   8   2.0000     -10.233693      -278.4730
   9   2.0000     -10.229273      -278.3527
  10   2.0000     -10.195350      -277.4296
  11   2.0000     -10.195111      -277.4231
  12   2.0000     -10.189891      -277.2810
  13   2.0000      -1.054549       -28.6957
  14   2.0000      -1.032950       -28.1080
  15   2.0000      -1.011658       -27.5286
  16   2.0000      -0.991907       -26.9912
  17   2.0000      -0.792533       -21.5659
  18   2.0000      -0.781466       -21.2648
  19   2.0000      -0.772225       -21.0133
  20   2.0000      -0.741109       -20.1666
  21   2.0000      -0.685266       -18.6470
  22   2.0000      -0.609615       -16.5885
  23   2.0000      -0.607880       -16.5413
  24   2.0000      -0.604901       -16.4602
  25   2.0000      -0.573918       -15.6171
  26   2.0000      -0.537007       -14.6127
  27   2.0000      -0.512357       -13.9419
  28   2.0000      -0.503125       -13.6907
  29   2.0000      -0.490728       -13.3534
  30   2.0000      -0.472807       -12.8657
  31   2.0000      -0.460612       -12.5339
  32   2.0000      -0.445227       -12.1152
  33   2.0000      -0.442218       -12.0334
  34   2.0000      -0.429352       -11.6833
  35   2.0000      -0.418615       -11.3911
  36   2.0000      -0.409548       -11.1444
  37   2.0000      -0.405405       -11.0316
  38   2.0000      -0.387778       -10.5520
  39   2.0000      -0.377631       -10.2759
  40   2.0000      -0.362687        -9.8692
  41   2.0000      -0.357868        -9.7381
  42   2.0000      -0.355142        -9.6639
  43   2.0000      -0.340967        -9.2782
  44   2.0000      -0.317430        -8.6377
  45   2.0000      -0.309683        -8.4269
  46   2.0000      -0.300365        -8.1733
  47   2.0000      -0.273486        -7.4419
  48   2.0000      -0.263922        -7.1817
  49   2.0000      -0.258848        -7.0436
  50   2.0000      -0.242584        -6.6011
  51   0.0000       0.053960         1.4683
  52   0.0000       0.066318         1.8046
  53   0.0000       0.081577         2.2198
  54   0.0000       0.095201         2.5905
  55   0.0000       0.101775         2.7694

MULLIKEN ATOMIC CHARGES
-----------------------
   0 C :    0.314634
   1 C :   -0.295285
   2 C :   -0.309318
   3 C :   -0.001757
   4 O :   -0.493141
   5 H :    0.165646
   6 H :    0.157558
   7 H :    0.148423
   8 H :    0.147330
   9 H :    0.156211
  10 H :    0.153017
  11 H :    0.147234
  12 C :   -0.029047
  13 H :    0.162503
  14 H :    0.152387
  15 O :   -0.555489
  16 C :    0.045253
  17 C :    0.103234
  18 C :   -0.308196
  19 C :   -0.018120
  20 O :   -0.521800
  21 H :    0.163676
  22 H :    0.157273
  23 O :   -0.622105
  24 H :    0.154233
  25 H :    0.147430
  26 H :    0.144565
  27 H :    0.151914
  28 H :    0.381737
Sum of atomic charges:    0.0000000

LOEWDIN ATOMIC CHARGES
----------------------
   0 C :    0.185297
   1 C :   -0.229721
   2 C :   -0.219023
   3 C :   -0.027934
   4 O :   -0.302005
   5 H :    0.110496
   6 H :    0.123258
   7 H :    0.115596
   8 H :    0.117537
   9 H :    0.112899
  10 H :    0.108422
  11 H :    0.105024
  12 C :   -0.048901
  13 H :    0.115665
  14 H :    0.105539
  15 O :   -0.353793
  16 C :    0.001539
  17 C :    0.037779
  18 C :   -0.238755
  19 C :   -0.031383
  20 O :   -0.322814
  21 H :    0.110629
  22 H :    0.113804
  23 O :   -0.420584
  24 H :    0.123107
  25 H :    0.111719
  26 H :    0.103572
  27 H :    0.107790
  28 H :    0.285239

  Mayer bond orders larger than 0.100000
B(  0-C ,  1-C ) :   0.9349 B(  0-C ,  4-O ) :   0.9293 B(  0-C ,  5-H ) :   0.9208
B(  0-C , 15-O ) :   0.8104 B(  1-C ,  2-C ) :   0.9499 B(  1-C ,  6-H ) :   0.9318
B(  1-C ,  7-H ) :   0.9167 B(  2-C ,  3-C ) :   0.9516 B(  2-C ,  8-H ) :   0.9452
B(  2-C ,  9-H ) :   0.9429 B(  3-C ,  4-O ) :   0.8361 B(  3-C , 10-H ) :   0.9345
B(  3-C , 11-H ) :   0.9389 B( 12-C , 13-H ) :   0.9341 B( 12-C , 14-H ) :   0.9188
B( 12-C , 15-O ) :   0.8165 B( 12-C , 16-C ) :   0.8803 B( 16-C , 17-C ) :   0.8985
B( 16-C , 20-O ) :   0.8389 B( 16-C , 21-H ) :   0.9147 B( 17-C , 18-C ) :   0.9072
B( 17-C , 22-H ) :   0.9344 B( 17-C , 23-O ) :   0.9222 B( 18-C , 19-C ) :   0.9379
B( 18-C , 24-H ) :   0.9440 B( 18-C , 25-H ) :   0.9424 B( 19-C , 20-O ) :   0.8339
B( 19-C , 26-H ) :   0.9339 B( 19-C , 27-H ) :   0.9381 B( 23-O , 28-H ) :   0.7447

FINAL SINGLE POINT ENERGY      -652.849046290687

DIPOLE MOMENT
-------------
                                X             Y             Z
Electronic contribution:     -0.52945      -3.01809       0.22120
Nuclear contribution   :      0.62308       3.94722      -0.38139
                        -----------------------------------------
Total Dipole Moment    :      0.09363       0.92914      -0.16019
                        -----------------------------------------
Magnitude (a.u.)       :      0.94748
Magnitude (Debye)      :      2.40831

Rotational constants in cm-1:     0.058218     0.014550     0.013269
Rotational constants in MHz :  1745.334532   436.196717   397.807513

                             ****ORCA TERMINATED NORMALLY****
TOTAL RUN TIME: 0 days 1 hours 0 minutes 1 seconds 477 msec
