                         Program Version 4.2.0 -  RELEASE  -
|  1> # Test redundant internal optimization
|  2> #
|  3> ! RKS B3LYP  Opt TightSCF SmallPrint
|  4>
|  5> %basis
|  6>         Basis "6-31G"
|  7> end
|  8>
|  9> %geom
| 10> Constraints
| 11> { D 4  0  15  12  120.0   C } # D for Dihedral angle
| 12> { D 0  15  12  16  150.0   C } # D for Dihedral angle
| 13> { D 0  4  3  2   C } # D for Dihedral angle
| 14> { D 4  3  2  1   C } # D for Dihedral angle
| 15> { D 3  2  1  0   C } # D for Dihedral angle
| 16> { D 2  1  0  4   C } # D for Dihedral angle
| 17> { D 1  0  4  3   C } # D for Dihedral angle
| 18> { D 16  20  19  18   C } # D for Dihedral angle
| 19> { D 20  19  18  17   C } # D for Dihedral angle
| 20> { D 19  18  17  16   C } # D for Dihedral angle
| 21> { D 18  17  16  20   C } # D for Dihedral angle
| 22> { D 17  16  20  19   C } # D for Dihedral angle
| 23> { D 15  12  16  20   C } # D for Dihedral angle
| 24> end
| 25> end
| 26>
| 27>
| 28> #%pal
| 29> #nprocs 8
| 30> #end
| 31>
| 32> * xyz 0 1
| 33> C  -21.048   26.222   46.251
| 34> C  -20.361   27.558   45.944
| 35> C  -20.329   28.222   47.341
| 36> C  -20.110   27.022   48.296
| 37> O  -20.473   25.807   47.535
| 38> H  -20.833   25.428   45.533
| 39> H  -19.344   27.382   45.576
| 40> H  -20.898   28.157   45.201
| 41> H  -19.543   28.978   47.434
| 42> H  -21.289   28.710   47.548
| 43> H  -20.733   27.082   49.195
| 44> H  -19.064   26.913   48.597
| 45> C  -23.119   27.818   46.058
| 46> H  -23.125   28.416   46.978
| 47> H  -22.468   28.318   45.329
| 48> O  -22.586   26.394   46.375
| 49> C  -24.559   27.804   45.475
| 50> C  -25.569   27.275   46.499
| 51> C  -25.780   28.515   47.401
| 52> C  -25.683   29.696   46.403
| 53> O  -25.012   29.171   45.195
| 54> H  -24.555   27.267   44.524
| 55> O  -26.893   26.882   45.788
| 56> H  -25.205   26.403   47.053
| 57> H  -26.737   28.495   47.932
| 58> H  -24.982   28.575   48.150
| 59> H  -25.102   30.534   46.801
| 60> H  -26.665   30.062   46.093
| 61> H  -27.278   27.741   45.226
| 62> *
| 63>
| 64>                          ****END OF INPUT****
 Total Charge           Charge          ....    0
 Multiplicity           Mult            ....    1
 Number of Electrons    NEL             ....  102
FINAL SINGLE POINT ENERGY      -652.821589501197
FINAL SINGLE POINT ENERGY      -652.845788115515
FINAL SINGLE POINT ENERGY      -652.854114548967
FINAL SINGLE POINT ENERGY      -652.856090813885
FINAL SINGLE POINT ENERGY      -652.856405225459
FINAL SINGLE POINT ENERGY      -652.856456503220
FINAL SINGLE POINT ENERGY      -652.856463456609
                    ***********************HURRAY********************

CARTESIAN COORDINATES (ANGSTROEM)
---------------------------------
  C    -21.225861   26.362163   46.282864
  C    -20.226106   27.465187   45.924231
  C    -20.016256   28.168844   47.292108
  C    -20.104045   26.992766   48.293085
  O    -20.771025   25.886846   47.565626
  H    -21.199869   25.493693   45.622952
  H    -19.298507   26.984312   45.595365
  H    -20.551847   28.139622   45.129172
  H    -19.055890   28.690015   47.347321
  H    -20.806331   28.905112   47.474644
  H    -20.686044   27.232194   49.187449
  H    -19.119345   26.624420   48.594573
  C    -23.132025   28.071005   46.084048
  H    -23.134869   28.679594   46.998607
  H    -22.539829   28.595622   45.326821
  O    -22.629116   26.736852   46.359535
  C    -24.550405   27.898661   45.539682
  C    -25.553021   27.262243   46.511586
  C    -25.932003   28.470360   47.405105
  C    -25.905589   29.664258   46.419031
  O    -25.122367   29.216523   45.238680
  H    -24.510590   27.338827   44.601739
  O    -26.706596   26.743606   45.792398
  H    -25.136052   26.418336   47.058358
  H    -26.912490   28.318722   47.863051
  H    -25.196779   28.597143   48.207217
  H    -25.433496   30.556972   46.840383
  H    -26.902690   29.935085   46.058762
  H    -26.983959   27.398018   45.116606

 Multiplicity           Mult            ....    1
 Number of Electrons    NEL             ....  102
 Basis Dimension        Dim             ....  149

ORBITAL ENERGIES
----------------

  NO   OCC          E(Eh)            E(eV)
   0   2.0000     -19.144805      -520.9566
   1   2.0000     -19.143776      -520.9286
   2   2.0000     -19.140484      -520.8391
   3   2.0000     -19.132511      -520.6221
   4   2.0000     -10.283173      -279.8194
   5   2.0000     -10.235619      -278.5254
   6   2.0000     -10.232799      -278.4486
   7   2.0000     -10.232119      -278.4301
   8   2.0000     -10.231490      -278.4130
   9   2.0000     -10.229673      -278.3636
  10   2.0000     -10.197496      -277.4880
  11   2.0000     -10.196923      -277.4724
  12   2.0000     -10.186109      -277.1781
  13   2.0000      -1.052778       -28.6476
  14   2.0000      -1.035010       -28.1640
  15   2.0000      -1.002469       -27.2786
  16   2.0000      -0.996371       -27.1126
  17   2.0000      -0.793829       -21.6012
  18   2.0000      -0.780758       -21.2455
  19   2.0000      -0.770026       -20.9535
  20   2.0000      -0.734022       -19.9738
  21   2.0000      -0.680623       -18.5207
  22   2.0000      -0.607647       -16.5349
  23   2.0000      -0.602812       -16.4034
  24   2.0000      -0.597745       -16.2655
  25   2.0000      -0.574760       -15.6400
  26   2.0000      -0.521751       -14.1976
  27   2.0000      -0.517908       -14.0930
  28   2.0000      -0.505426       -13.7533
  29   2.0000      -0.491668       -13.3790
  30   2.0000      -0.473726       -12.8907
  31   2.0000      -0.459008       -12.4903
  32   2.0000      -0.451584       -12.2882
  33   2.0000      -0.438561       -11.9339
  34   2.0000      -0.431069       -11.7300
  35   2.0000      -0.412948       -11.2369
  36   2.0000      -0.408316       -11.1108
  37   2.0000      -0.391018       -10.6401
  38   2.0000      -0.385796       -10.4980
  39   2.0000      -0.367873       -10.0103
  40   2.0000      -0.364392        -9.9156
  41   2.0000      -0.360685        -9.8147
  42   2.0000      -0.353543        -9.6204
  43   2.0000      -0.330928        -9.0050
  44   2.0000      -0.316831        -8.6214
  45   2.0000      -0.305991        -8.3264
  46   2.0000      -0.295076        -8.0294
  47   2.0000      -0.271919        -7.3993
  48   2.0000      -0.268578        -7.3084
  49   2.0000      -0.256066        -6.9679
  50   2.0000      -0.243295        -6.6204
  51   0.0000       0.064268         1.7488
  52   0.0000       0.066184         1.8009
  53   0.0000       0.091093         2.4788
  54   0.0000       0.097029         2.6403
  55   0.0000       0.102171         2.7802

MULLIKEN ATOMIC CHARGES
-----------------------
   0 C :    0.318079
   1 C :   -0.303508
   2 C :   -0.307960
   3 C :   -0.003852
   4 O :   -0.494297
   5 H :    0.162185
   6 H :    0.158917
   7 H :    0.150690
   8 H :    0.147420
   9 H :    0.150089
  10 H :    0.147574
  11 H :    0.146429
  12 C :   -0.003894
  13 H :    0.129968
  14 H :    0.144892
  15 O :   -0.536420
  16 C :    0.059084
  17 C :    0.090364
  18 C :   -0.297508
  19 C :   -0.029999
  20 O :   -0.530692
  21 H :    0.163040
  22 O :   -0.603018
  23 H :    0.184431
  24 H :    0.161548
  25 H :    0.146493
  26 H :    0.142516
  27 H :    0.146512
  28 H :    0.360918
Sum of atomic charges:   -0.0000000

LOEWDIN ATOMIC CHARGES
----------------------
   0 C :    0.182117
   1 C :   -0.232373
   2 C :   -0.220107
   3 C :   -0.029976
   4 O :   -0.312588
   5 H :    0.109283
   6 H :    0.124037
   7 H :    0.116963
   8 H :    0.117282
   9 H :    0.110047
  10 H :    0.105312
  11 H :    0.104653
  12 C :   -0.038448
  13 H :    0.090850
  14 H :    0.103217
  15 O :   -0.334277
  16 C :    0.017129
  17 C :    0.039110
  18 C :   -0.241320
  19 C :   -0.038413
  20 O :   -0.333688
  21 H :    0.117523
  22 O :   -0.414247
  23 H :    0.131922
  24 H :    0.126798
  25 H :    0.114071
  26 H :    0.102230
  27 H :    0.102583
  28 H :    0.280312

  Mayer bond orders larger than 0.100000
B(  0-C ,  1-C ) :   0.9346 B(  0-C ,  4-O ) :   0.9184 B(  0-C ,  5-H ) :   0.9311
B(  0-C , 15-O ) :   0.8610 B(  1-C ,  2-C ) :   0.9492 B(  1-C ,  6-H ) :   0.9332
B(  1-C ,  7-H ) :   0.9272 B(  2-C ,  3-C ) :   0.9499 B(  2-C ,  8-H ) :   0.9454
B(  2-C ,  9-H ) :   0.9424 B(  3-C ,  4-O ) :   0.8457 B(  3-C , 10-H ) :   0.9346
B(  3-C , 11-H ) :   0.9391 B( 12-C , 13-H ) :   0.9173 B( 12-C , 14-H ) :   0.9078
B( 12-C , 15-O ) :   0.8301 B( 12-C , 16-C ) :   0.8953 B( 16-C , 17-C ) :   0.9151
B( 16-C , 20-O ) :   0.8414 B( 16-C , 21-H ) :   0.9257 B( 17-C , 18-C ) :   0.9120
B( 17-C , 22-O ) :   0.8880 B( 17-C , 23-H ) :   0.9220 B( 18-C , 19-C ) :   0.9405
B( 18-C , 24-H ) :   0.9379 B( 18-C , 25-H ) :   0.9348 B( 19-C , 20-O ) :   0.8423
B( 19-C , 26-H ) :   0.9366 B( 19-C , 27-H ) :   0.9382 B( 22-O , 28-H ) :   0.7967

FINAL SINGLE POINT ENERGY      -652.856464869384

DIPOLE MOMENT
-------------
                                X             Y             Z
Electronic contribution:     -3.29200      -4.39770      -2.51328
Nuclear contribution   :      4.20315       5.82773       2.70998
                        -----------------------------------------
Total Dipole Moment    :      0.91115       1.43003       0.19670
                        -----------------------------------------
Magnitude (a.u.)       :      1.70701
Magnitude (Debye)      :      4.33886

Rotational constants in cm-1:     0.055680     0.012524     0.011955
Rotational constants in MHz :  1669.249631   375.452315   358.416151

                             ****ORCA TERMINATED NORMALLY****
TOTAL RUN TIME: 0 days 1 hours 34 minutes 18 seconds 115 msec
