                         Program Version 4.2.0 -  RELEASE  -
|  1> # Test redundant internal optimization
|  2> #
|  3> ! RKS B3LYP  Opt TightSCF SmallPrint
|  4>
|  5> %basis
|  6>         Basis "6-31G"
|  7> end
|  8>
|  9> %geom
| 10> Constraints
| 11> { D 4  0  15  12  165.0   C } # D for Dihedral angle
| 12> { D 0  15  12  16  15.0   C } # D for Dihedral angle
| 13> { D 0  4  3  2   C } # D for Dihedral angle
| 14> { D 4  3  2  1   C } # D for Dihedral angle
| 15> { D 3  2  1  0   C } # D for Dihedral angle
| 16> { D 2  1  0  4   C } # D for Dihedral angle
| 17> { D 1  0  4  3   C } # D for Dihedral angle
| 18> { D 16  20  19  18   C } # D for Dihedral angle
| 19> { D 20  19  18  17   C } # D for Dihedral angle
| 20> { D 19  18  17  16   C } # D for Dihedral angle
| 21> { D 18  17  16  20   C } # D for Dihedral angle
| 22> { D 17  16  20  19   C } # D for Dihedral angle
| 23> { D 15  12  16  20   C } # D for Dihedral angle
| 24> end
| 25> end
| 26>
| 27>
| 28> #%pal
| 29> #nprocs 8
| 30> #end
| 31>
| 32> * xyz 0 1
| 33> C  -21.048   26.222   46.251
| 34> C  -20.361   27.558   45.944
| 35> C  -20.329   28.222   47.341
| 36> C  -20.110   27.022   48.296
| 37> O  -20.473   25.807   47.535
| 38> H  -20.833   25.428   45.533
| 39> H  -19.344   27.382   45.576
| 40> H  -20.898   28.157   45.201
| 41> H  -19.543   28.978   47.434
| 42> H  -21.289   28.710   47.548
| 43> H  -20.733   27.082   49.195
| 44> H  -19.064   26.913   48.597
| 45> C  -23.260   27.170   45.210
| 46> H  -24.173   26.644   44.906
| 47> H  -23.538   28.182   45.533
| 48> O  -22.586   26.394   46.375
| 49> C  -22.338   27.307   43.967
| 50> C  -22.036   25.939   43.345
| 51> C  -23.332   25.665   42.545
| 52> C  -23.745   27.075   42.052
| 53> O  -23.022   28.046   42.901
| 54> H  -21.453   27.885   44.240
| 55> O  -20.815   26.046   42.391
| 56> H  -21.824   25.164   44.090
| 57> H  -23.181   24.962   41.721
| 58> H  -24.100   25.246   43.207
| 59> H  -24.822   27.251   42.142
| 60> H  -23.441   27.261   41.018
| 61> H  -21.004   26.817   41.634
| 62> *
| 63>
| 64>                          ****END OF INPUT****
 Total Charge           Charge          ....    0
 Multiplicity           Mult            ....    1
 Number of Electrons    NEL             ....  102
FINAL SINGLE POINT ENERGY      -652.789217706068
FINAL SINGLE POINT ENERGY      -652.826770361801
FINAL SINGLE POINT ENERGY      -652.843892282950
FINAL SINGLE POINT ENERGY      -652.846258327093
FINAL SINGLE POINT ENERGY      -652.846667932866
FINAL SINGLE POINT ENERGY      -652.846756296620
FINAL SINGLE POINT ENERGY      -652.846763223851
FINAL SINGLE POINT ENERGY      -652.846765397173
                    ***********************HURRAY********************

CARTESIAN COORDINATES (ANGSTROEM)
---------------------------------
  C    -20.929879   26.212294   46.367180
  C    -20.013208   27.413067   46.125870
  C    -20.208177   28.240243   47.427250
  C    -20.383557   27.138966   48.494234
  O    -20.729063   25.904725   47.752478
  H    -20.677796   25.313292   45.799700
  H    -18.981704   27.047122   46.056817
  H    -20.222919   27.987177   45.225395
  H    -19.357121   28.895193   47.635413
  H    -21.109075   28.856633   47.350304
  H    -21.184212   27.353691   49.206460
  H    -19.459147   26.927200   49.040641
  C    -23.050877   27.153555   45.136458
  H    -23.967818   26.571444   44.997400
  H    -23.346336   28.156581   45.466706
  O    -22.357794   26.499178   46.246602
  C    -22.357719   27.324653   43.774133
  C    -22.005061   26.028450   43.027876
  C    -23.382807   25.618243   42.442239
  C    -24.043962   26.980171   42.110900
  O    -23.303606   28.009531   42.884414
  H    -21.489884   27.981076   43.839184
  O    -21.018248   26.280824   41.990877
  H    -21.567218   25.256269   43.659690
  H    -23.251422   24.983518   41.562217
  H    -23.960940   25.060981   43.186045
  H    -25.101354   27.019785   42.389164
  H    -23.950965   27.246709   41.053354
  H    -21.283132   27.074430   41.478999

 Multiplicity           Mult            ....    1
 Number of Electrons    NEL             ....  102
 Basis Dimension        Dim             ....  149

ORBITAL ENERGIES
----------------

  NO   OCC          E(Eh)            E(eV)
   0   2.0000     -19.153298      -521.1877
   1   2.0000     -19.145655      -520.9798
   2   2.0000     -19.138601      -520.7878
   3   2.0000     -19.134286      -520.6704
   4   2.0000     -10.282710      -279.8068
   5   2.0000     -10.248323      -278.8710
   6   2.0000     -10.242635      -278.7163
   7   2.0000     -10.238784      -278.6115
   8   2.0000     -10.233486      -278.4673
   9   2.0000     -10.224259      -278.2162
  10   2.0000     -10.195514      -277.4340
  11   2.0000     -10.188853      -277.2528
  12   2.0000     -10.188443      -277.2416
  13   2.0000      -1.050392       -28.5826
  14   2.0000      -1.044414       -28.4200
  15   2.0000      -1.014175       -27.5971
  16   2.0000      -0.985921       -26.8283
  17   2.0000      -0.787144       -21.4193
  18   2.0000      -0.786380       -21.3985
  19   2.0000      -0.772650       -21.0249
  20   2.0000      -0.738689       -20.1007
  21   2.0000      -0.680772       -18.5248
  22   2.0000      -0.611581       -16.6420
  23   2.0000      -0.607121       -16.5206
  24   2.0000      -0.600604       -16.3433
  25   2.0000      -0.577769       -15.7219
  26   2.0000      -0.531737       -14.4693
  27   2.0000      -0.511499       -13.9186
  28   2.0000      -0.503962       -13.7135
  29   2.0000      -0.485776       -13.2186
  30   2.0000      -0.479604       -13.0507
  31   2.0000      -0.463594       -12.6150
  32   2.0000      -0.447720       -12.1831
  33   2.0000      -0.442738       -12.0475
  34   2.0000      -0.425495       -11.5783
  35   2.0000      -0.420413       -11.4400
  36   2.0000      -0.404784       -11.0147
  37   2.0000      -0.401119       -10.9150
  38   2.0000      -0.383221       -10.4280
  39   2.0000      -0.375712       -10.2236
  40   2.0000      -0.366754        -9.9799
  41   2.0000      -0.355049        -9.6614
  42   2.0000      -0.353461        -9.6182
  43   2.0000      -0.339265        -9.2319
  44   2.0000      -0.316536        -8.6134
  45   2.0000      -0.312460        -8.5025
  46   2.0000      -0.299914        -8.1611
  47   2.0000      -0.277676        -7.5560
  48   2.0000      -0.257782        -7.0146
  49   2.0000      -0.253121        -6.8878
  50   2.0000      -0.245826        -6.6893
  51   0.0000       0.056796         1.5455
  52   0.0000       0.070200         1.9102
  53   0.0000       0.080667         2.1951
  54   0.0000       0.085800         2.3347
  55   0.0000       0.097616         2.6563

MULLIKEN ATOMIC CHARGES
-----------------------
   0 C :    0.312012
   1 C :   -0.287562
   2 C :   -0.300570
   3 C :   -0.000568
   4 O :   -0.497349
   5 H :    0.146840
   6 H :    0.151913
   7 H :    0.145380
   8 H :    0.143413
   9 H :    0.157496
  10 H :    0.153709
  11 H :    0.144020
  12 C :    0.015139
  13 H :    0.146124
  14 H :    0.149930
  15 O :   -0.537519
  16 C :    0.017540
  17 C :    0.081236
  18 C :   -0.306430
  19 C :   -0.033906
  20 O :   -0.524636
  21 H :    0.167837
  22 O :   -0.601389
  23 H :    0.165604
  24 H :    0.167187
  25 H :    0.157973
  26 H :    0.153879
  27 H :    0.148475
  28 H :    0.364221
Sum of atomic charges:   -0.0000000

LOEWDIN ATOMIC CHARGES
----------------------
   0 C :    0.187980
   1 C :   -0.232703
   2 C :   -0.216889
   3 C :   -0.026311
   4 O :   -0.300282
   5 H :    0.097120
   6 H :    0.119150
   7 H :    0.113044
   8 H :    0.115189
   9 H :    0.115494
  10 H :    0.109156
  11 H :    0.103017
  12 C :   -0.038784
  13 H :    0.108871
  14 H :    0.107953
  15 O :   -0.348617
  16 C :   -0.000574
  17 C :    0.034579
  18 C :   -0.242205
  19 C :   -0.038696
  20 O :   -0.325896
  21 H :    0.110918
  22 O :   -0.413966
  23 H :    0.119403
  24 H :    0.128730
  25 H :    0.120057
  26 H :    0.107497
  27 H :    0.103650
  28 H :    0.283114

  Mayer bond orders larger than 0.100000
B(  0-C ,  1-C ) :   0.9273 B(  0-C ,  4-O ) :   0.9318 B(  0-C ,  5-H ) :   0.9171
B(  0-C , 15-O ) :   0.8326 B(  1-C ,  2-C ) :   0.9486 B(  1-C ,  6-H ) :   0.9324
B(  1-C ,  7-H ) :   0.9200 B(  2-C ,  3-C ) :   0.9548 B(  2-C ,  8-H ) :   0.9448
B(  2-C ,  9-H ) :   0.9458 B(  3-C ,  4-O ) :   0.8343 B(  3-C , 10-H ) :   0.9347
B(  3-C , 11-H ) :   0.9392 B( 12-C , 13-H ) :   0.9301 B( 12-C , 14-H ) :   0.9188
B( 12-C , 15-O ) :   0.8417 B( 12-C , 16-C ) :   0.8877 B( 16-C , 17-C ) :   0.9003
B( 16-C , 20-O ) :   0.8254 B( 16-C , 21-H ) :   0.9095 B( 17-C , 18-C ) :   0.9139
B( 17-C , 22-O ) :   0.8920 B( 17-C , 23-H ) :   0.9258 B( 18-C , 19-C ) :   0.9408
B( 18-C , 24-H ) :   0.9362 B( 18-C , 25-H ) :   0.9319 B( 19-C , 20-O ) :   0.8391
B( 19-C , 26-H ) :   0.9342 B( 19-C , 27-H ) :   0.9379 B( 22-O , 28-H ) :   0.7955

FINAL SINGLE POINT ENERGY      -652.846765567574

DIPOLE MOMENT
-------------
                                X             Y             Z
Electronic contribution:     -0.43129      -1.70024      -0.32457
Nuclear contribution   :      0.33757       2.27892      -0.24448
                        -----------------------------------------
Total Dipole Moment    :     -0.09372       0.57868      -0.56904
                        -----------------------------------------
Magnitude (a.u.)       :      0.81699
Magnitude (Debye)      :      2.07661

Rotational constants in cm-1:     0.058450     0.013298     0.012901
Rotational constants in MHz :  1752.275259   398.658539   386.768574

                             ****ORCA TERMINATED NORMALLY****
TOTAL RUN TIME: 0 days 0 hours 23 minutes 46 seconds 529 msec
