                         Program Version 4.2.0 -  RELEASE  -
|  1> # Test redundant internal optimization
|  2> #
|  3> ! RKS B3LYP  Opt TightSCF SmallPrint
|  4>
|  5> %basis
|  6>         Basis "6-31G"
|  7> end
|  8>
|  9> %geom
| 10> Constraints
| 11> { D 4  0  15  12  60.0   C } # D for Dihedral angle
| 12> { D 0  15  12  16  75.0   C } # D for Dihedral angle
| 13> { D 0  4  3  2   C } # D for Dihedral angle
| 14> { D 4  3  2  1   C } # D for Dihedral angle
| 15> { D 3  2  1  0   C } # D for Dihedral angle
| 16> { D 2  1  0  4   C } # D for Dihedral angle
| 17> { D 1  0  4  3   C } # D for Dihedral angle
| 18> { D 16  20  19  18   C } # D for Dihedral angle
| 19> { D 20  19  18  17   C } # D for Dihedral angle
| 20> { D 19  18  17  16   C } # D for Dihedral angle
| 21> { D 18  17  16  20   C } # D for Dihedral angle
| 22> { D 17  16  20  19   C } # D for Dihedral angle
| 23> { D 15  12  16  20   C } # D for Dihedral angle
| 24> end
| 25> end
| 26>
| 27>
| 28> #%pal
| 29> #nprocs 8
| 30> #end
| 31>
| 32> * xyz 0 1
| 33> C  -21.048   26.222   46.251
| 34> C  -20.361   27.558   45.944
| 35> C  -20.329   28.222   47.341
| 36> C  -20.110   27.022   48.296
| 37> O  -20.473   25.807   47.535
| 38> H  -20.833   25.428   45.533
| 39> H  -19.344   27.382   45.576
| 40> H  -20.898   28.157   45.201
| 41> H  -19.543   28.978   47.434
| 42> H  -21.289   28.710   47.548
| 43> H  -20.733   27.082   49.195
| 44> H  -19.064   26.913   48.597
| 45> C  -23.051   27.452   47.413
| 46> H  -24.117   27.306   47.626
| 47> H  -22.495   27.337   48.353
| 48> O  -22.586   26.394   46.375
| 49> C  -22.846   28.910   46.918
| 50> C  -23.724   29.211   45.698
| 51> C  -25.101   29.464   46.357
| 52> C  -24.730   30.158   47.692
| 53> O  -23.301   29.865   47.934
| 54> H  -21.781   29.090   46.764
| 55> H  -23.366   30.115   45.191
| 56> O  -23.754   28.051   44.666
| 57> H  -25.761   30.079   45.737
| 58> H  -25.609   28.511   46.544
| 59> H  -25.320   29.786   48.535
| 60> H  -24.832   31.245   47.640
| 61> H  -24.110   27.135   45.152
| 62> *
| 63>
| 64>                          ****END OF INPUT****
 Total Charge           Charge          ....    0
 Multiplicity           Mult            ....    1
 Number of Electrons    NEL             ....  102
FINAL SINGLE POINT ENERGY      -652.744540814415
FINAL SINGLE POINT ENERGY      -652.820636099400
FINAL SINGLE POINT ENERGY      -652.844924018488
FINAL SINGLE POINT ENERGY      -652.852644338327
FINAL SINGLE POINT ENERGY      -652.854438833263
FINAL SINGLE POINT ENERGY      -652.855182726963
FINAL SINGLE POINT ENERGY      -652.855404063837
FINAL SINGLE POINT ENERGY      -652.855458150959
FINAL SINGLE POINT ENERGY      -652.855463798829
FINAL SINGLE POINT ENERGY      -652.855465099280
FINAL SINGLE POINT ENERGY      -652.855457113411
                    ***********************HURRAY********************

CARTESIAN COORDINATES (ANGSTROEM)
---------------------------------
  C    -21.190488   26.293536   46.472653
  C    -20.244219   27.361573   45.906290
  C    -19.766361   28.095505   47.197039
  C    -19.699307   26.939296   48.227384
  O    -20.517822   25.838708   47.660459
  H    -21.260015   25.422112   45.819155
  H    -19.406012   26.850211   45.423234
  H    -20.733849   28.013546   45.177864
  H    -18.789499   28.569768   47.060618
  H    -20.460937   28.870500   47.515354
  H    -20.098109   27.209149   49.209321
  H    -18.686574   26.545010   48.348677
  C    -23.237393   27.567121   47.528836
  H    -24.283944   27.254361   47.550061
  H    -22.833984   27.464626   48.543365
  O    -22.607064   26.587158   46.636152
  C    -23.113838   29.032729   47.086396
  C    -23.826915   29.352521   45.761521
  C    -25.309565   29.457569   46.220436
  C    -25.201647   30.080369   47.627626
  O    -23.788028   29.876136   48.073250
  H    -22.078218   29.359643   47.070218
  H    -23.487641   30.323951   45.389581
  O    -23.574198   28.409550   44.697452
  H    -25.903675   30.066249   45.533520
  H    -25.754037   28.456356   46.246021
  H    -25.869967   29.617892   48.360174
  H    -25.372390   31.160610   47.624762
  H    -23.413302   27.514247   45.078583

 Multiplicity           Mult            ....    1
 Number of Electrons    NEL             ....  102
 Basis Dimension        Dim             ....  149

ORBITAL ENERGIES
----------------

  NO   OCC          E(Eh)            E(eV)
   0   2.0000     -19.158902      -521.3402
   1   2.0000     -19.150533      -521.1125
   2   2.0000     -19.145793      -520.9835
   3   2.0000     -19.128833      -520.5220
   4   2.0000     -10.288439      -279.9627
   5   2.0000     -10.240067      -278.6464
   6   2.0000     -10.238486      -278.6034
   7   2.0000     -10.236885      -278.5598
   8   2.0000     -10.234378      -278.4916
   9   2.0000     -10.232400      -278.4378
  10   2.0000     -10.196567      -277.4627
  11   2.0000     -10.194791      -277.4144
  12   2.0000     -10.186512      -277.1891
  13   2.0000      -1.058852       -28.8128
  14   2.0000      -1.030628       -28.0448
  15   2.0000      -1.008877       -27.4529
  16   2.0000      -1.000529       -27.2258
  17   2.0000      -0.793297       -21.5867
  18   2.0000      -0.780996       -21.2520
  19   2.0000      -0.774193       -21.0669
  20   2.0000      -0.740053       -20.1379
  21   2.0000      -0.686662       -18.6850
  22   2.0000      -0.611459       -16.6387
  23   2.0000      -0.606829       -16.5127
  24   2.0000      -0.603252       -16.4153
  25   2.0000      -0.576715       -15.6932
  26   2.0000      -0.535642       -14.5756
  27   2.0000      -0.509549       -13.8655
  28   2.0000      -0.505828       -13.7643
  29   2.0000      -0.490621       -13.3505
  30   2.0000      -0.475678       -12.9439
  31   2.0000      -0.459380       -12.5004
  32   2.0000      -0.454342       -12.3633
  33   2.0000      -0.435172       -11.8416
  34   2.0000      -0.424110       -11.5406
  35   2.0000      -0.421150       -11.4601
  36   2.0000      -0.418016       -11.3748
  37   2.0000      -0.398970       -10.8565
  38   2.0000      -0.388720       -10.5776
  39   2.0000      -0.372245       -10.1293
  40   2.0000      -0.364333        -9.9140
  41   2.0000      -0.356392        -9.6979
  42   2.0000      -0.351240        -9.5577
  43   2.0000      -0.343077        -9.3356
  44   2.0000      -0.321766        -8.7557
  45   2.0000      -0.320417        -8.7190
  46   2.0000      -0.297042        -8.0829
  47   2.0000      -0.282224        -7.6797
  48   2.0000      -0.265037        -7.2120
  49   2.0000      -0.258745        -7.0408
  50   2.0000      -0.242998        -6.6123
  51   0.0000       0.054526         1.4837
  52   0.0000       0.068867         1.8740
  53   0.0000       0.083040         2.2596
  54   0.0000       0.091865         2.4998
  55   0.0000       0.106740         2.9045

MULLIKEN ATOMIC CHARGES
-----------------------
   0 C :    0.314816
   1 C :   -0.289734
   2 C :   -0.323617
   3 C :   -0.014427
   4 O :   -0.505742
   5 H :    0.172350
   6 H :    0.159370
   7 H :    0.165907
   8 H :    0.149859
   9 H :    0.160710
  10 H :    0.150321
  11 H :    0.151684
  12 C :   -0.039914
  13 H :    0.166374
  14 H :    0.163450
  15 O :   -0.552533
  16 C :    0.046902
  17 C :    0.110466
  18 C :   -0.312139
  19 C :   -0.022499
  20 O :   -0.519642
  21 H :    0.158815
  22 H :    0.150682
  23 O :   -0.630676
  24 H :    0.156127
  25 H :    0.148968
  26 H :    0.146852
  27 H :    0.152579
  28 H :    0.384690
Sum of atomic charges:    0.0000000

LOEWDIN ATOMIC CHARGES
----------------------
   0 C :    0.179824
   1 C :   -0.233102
   2 C :   -0.225874
   3 C :   -0.032131
   4 O :   -0.314006
   5 H :    0.115578
   6 H :    0.125240
   7 H :    0.126286
   8 H :    0.118649
   9 H :    0.112200
  10 H :    0.105070
  11 H :    0.106382
  12 C :   -0.048444
  13 H :    0.117986
  14 H :    0.114659
  15 O :   -0.335070
  16 C :    0.000853
  17 C :    0.039989
  18 C :   -0.241015
  19 C :   -0.032315
  20 O :   -0.324157
  21 H :    0.110256
  22 H :    0.108809
  23 O :   -0.427445
  24 H :    0.123337
  25 H :    0.112734
  26 H :    0.104317
  27 H :    0.107655
  28 H :    0.283737

  Mayer bond orders larger than 0.100000
B(  0-C ,  1-C ) :   0.9173 B(  0-C ,  4-O ) :   0.9191 B(  0-C ,  5-H ) :   0.9347
B(  0-C , 15-O ) :   0.8453 B(  1-C ,  2-C ) :   0.9551 B(  1-C ,  6-H ) :   0.9317
B(  1-C ,  7-H ) :   0.9237 B(  2-C ,  3-C ) :   0.9461 B(  2-C ,  8-H ) :   0.9445
B(  2-C ,  9-H ) :   0.9218 B(  3-C ,  4-O ) :   0.8360 B(  3-C , 10-H ) :   0.9338
B(  3-C , 11-H ) :   0.9389 B( 12-C , 13-H ) :   0.9371 B( 12-C , 14-H ) :   0.9253
B( 12-C , 15-O ) :   0.8008 B( 12-C , 16-C ) :   0.8784 B( 16-C , 17-C ) :   0.9026
B( 16-C , 20-O ) :   0.8508 B( 16-C , 21-H ) :   0.9069 B( 17-C , 18-C ) :   0.9045
B( 17-C , 22-H ) :   0.9351 B( 17-C , 23-O ) :   0.9250 B( 18-C , 19-C ) :   0.9406
B( 18-C , 24-H ) :   0.9432 B( 18-C , 25-H ) :   0.9418 B( 19-C , 20-O ) :   0.8317
B( 19-C , 26-H ) :   0.9332 B( 19-C , 27-H ) :   0.9382 B( 23-O , 28-H ) :   0.7319

FINAL SINGLE POINT ENERGY      -652.855454103078

DIPOLE MOMENT
-------------
                                X             Y             Z
Electronic contribution:     -0.80992      -3.00585      -0.14360
Nuclear contribution   :      1.08578       3.56337       0.35811
                        -----------------------------------------
Total Dipole Moment    :      0.27586       0.55752       0.21450
                        -----------------------------------------
Magnitude (a.u.)       :      0.65798
Magnitude (Debye)      :      1.67245

Rotational constants in cm-1:     0.050781     0.015982     0.014727
Rotational constants in MHz :  1522.371959   479.125061   441.490431

                             ****ORCA TERMINATED NORMALLY****
TOTAL RUN TIME: 0 days 3 hours 35 minutes 43 seconds 179 msec
