                         Program Version 4.2.0 -  RELEASE  -
|  1> # Test redundant internal optimization
|  2> #
|  3> ! RKS B3LYP  Opt TightSCF SmallPrint
|  4>
|  5> %basis
|  6>         Basis "6-31G"
|  7> end
|  8>
|  9> %geom
| 10> Constraints
| 11> { D 4  0  15  12  225.0   C } # D for Dihedral angle
| 12> { D 0  15  12  16  150.0   C } # D for Dihedral angle
| 13> { D 0  4  3  2   C } # D for Dihedral angle
| 14> { D 4  3  2  1   C } # D for Dihedral angle
| 15> { D 3  2  1  0   C } # D for Dihedral angle
| 16> { D 2  1  0  4   C } # D for Dihedral angle
| 17> { D 1  0  4  3   C } # D for Dihedral angle
| 18> { D 16  20  19  18   C } # D for Dihedral angle
| 19> { D 20  19  18  17   C } # D for Dihedral angle
| 20> { D 19  18  17  16   C } # D for Dihedral angle
| 21> { D 18  17  16  20   C } # D for Dihedral angle
| 22> { D 17  16  20  19   C } # D for Dihedral angle
| 23> { D 15  12  16  20   C } # D for Dihedral angle
| 24> end
| 25> end
| 26>
| 27>
| 28> #%pal
| 29> #nprocs 8
| 30> #end
| 31>
| 32> * xyz 0 1
| 33> C  -21.048   26.222   46.251
| 34> C  -20.361   27.558   45.944
| 35> C  -20.329   28.222   47.341
| 36> C  -20.110   27.022   48.296
| 37> O  -20.473   25.807   47.535
| 38> H  -20.833   25.428   45.533
| 39> H  -19.344   27.382   45.576
| 40> H  -20.898   28.157   45.201
| 41> H  -19.543   28.978   47.434
| 42> H  -21.289   28.710   47.548
| 43> H  -20.733   27.082   49.195
| 44> H  -19.064   26.913   48.597
| 45> C  -23.415   25.773   45.218
| 46> H  -23.543   26.519   44.423
| 47> H  -22.893   24.906   44.794
| 48> O  -22.586   26.394   46.375
| 49> C  -24.823   25.300   45.675
| 50> C  -25.688   26.482   46.127
| 51> C  -26.154   27.066   44.772
| 52> C  -26.321   25.806   43.885
| 53> O  -25.561   24.723   44.546
| 54> H  -24.711   24.510   46.420
| 55> H  -26.544   26.120   46.708
| 56> O  -24.910   27.512   46.992
| 57> H  -27.080   27.643   44.855
| 58> H  -25.382   27.728   44.363
| 59> H  -25.931   25.952   42.873
| 60> H  -27.361   25.477   43.820
| 61> H  -24.048   27.887   46.430
| 62> *
| 63>
| 64>                          ****END OF INPUT****
 Total Charge           Charge          ....    0
 Multiplicity           Mult            ....    1
 Number of Electrons    NEL             ....  102
FINAL SINGLE POINT ENERGY      -652.830840531044
FINAL SINGLE POINT ENERGY      -652.854785735180
FINAL SINGLE POINT ENERGY      -652.860969166040
FINAL SINGLE POINT ENERGY      -652.863327409324
FINAL SINGLE POINT ENERGY      -652.864759851369
FINAL SINGLE POINT ENERGY      -652.865628263534
FINAL SINGLE POINT ENERGY      -652.865999912560
FINAL SINGLE POINT ENERGY      -652.866078170623
FINAL SINGLE POINT ENERGY      -652.866088771023
                    ***********************HURRAY********************

CARTESIAN COORDINATES (ANGSTROEM)
---------------------------------
  C    -21.083394   26.186182   46.186391
  C    -20.391385   27.517796   45.904201
  C    -20.488366   28.226268   47.276416
  C    -20.339901   27.062094   48.278317
  O    -20.628405   25.826259   47.497291
  H    -20.829458   25.364469   45.510792
  H    -19.345608   27.330922   45.633776
  H    -20.868248   28.077502   45.095529
  H    -19.716638   28.990278   47.408639
  H    -21.465287   28.708909   47.379755
  H    -21.041365   27.115386   49.114193
  H    -19.321727   26.955493   48.662559
  C    -23.307319   25.753058   45.108874
  H    -23.388251   26.463081   44.275349
  H    -22.811602   24.844257   44.746674
  O    -22.533135   26.351367   46.198887
  C    -24.686920   25.386379   45.665503
  C    -25.531012   26.577649   46.149300
  C    -26.090471   27.134030   44.807335
  C    -26.305597   25.860662   43.963670
  O    -25.489439   24.784759   44.603392
  H    -24.562814   24.626809   46.442160
  H    -26.358750   26.192234   46.756364
  O    -24.836464   27.569143   46.931017
  H    -27.010529   27.705477   44.956321
  H    -25.345981   27.804998   44.365177
  H    -25.986543   25.969312   42.922288
  H    -27.342906   25.513393   43.979921
  H    -23.868485   27.380836   46.906907

 Multiplicity           Mult            ....    1
 Number of Electrons    NEL             ....  102
 Basis Dimension        Dim             ....  149

ORBITAL ENERGIES
----------------

  NO   OCC          E(Eh)            E(eV)
   0   2.0000     -19.163377      -521.4620
   1   2.0000     -19.150055      -521.0995
   2   2.0000     -19.140163      -520.8303
   3   2.0000     -19.112042      -520.0651
   4   2.0000     -10.293566      -280.1022
   5   2.0000     -10.241795      -278.6934
   6   2.0000     -10.233690      -278.4729
   7   2.0000     -10.232564      -278.4422
   8   2.0000     -10.229873      -278.3690
   9   2.0000     -10.226787      -278.2850
  10   2.0000     -10.195430      -277.4318
  11   2.0000     -10.194113      -277.3959
  12   2.0000     -10.179254      -276.9916
  13   2.0000      -1.065823       -29.0025
  14   2.0000      -1.025713       -27.9111
  15   2.0000      -1.008586       -27.4450
  16   2.0000      -0.991524       -26.9808
  17   2.0000      -0.796244       -21.6669
  18   2.0000      -0.773955       -21.0604
  19   2.0000      -0.767934       -20.8966
  20   2.0000      -0.736652       -20.0453
  21   2.0000      -0.680113       -18.5068
  22   2.0000      -0.608220       -16.5505
  23   2.0000      -0.602836       -16.4040
  24   2.0000      -0.594306       -16.1719
  25   2.0000      -0.581657       -15.8277
  26   2.0000      -0.529426       -14.4064
  27   2.0000      -0.523032       -14.2324
  28   2.0000      -0.500209       -13.6114
  29   2.0000      -0.488583       -13.2950
  30   2.0000      -0.474590       -12.9143
  31   2.0000      -0.457979       -12.4623
  32   2.0000      -0.448313       -12.1992
  33   2.0000      -0.437555       -11.9065
  34   2.0000      -0.427036       -11.6202
  35   2.0000      -0.418168       -11.3789
  36   2.0000      -0.407681       -11.0936
  37   2.0000      -0.387711       -10.5501
  38   2.0000      -0.382189       -10.3999
  39   2.0000      -0.368384       -10.0242
  40   2.0000      -0.364425        -9.9165
  41   2.0000      -0.363014        -9.8781
  42   2.0000      -0.348412        -9.4808
  43   2.0000      -0.342331        -9.3153
  44   2.0000      -0.324345        -8.8259
  45   2.0000      -0.320070        -8.7096
  46   2.0000      -0.286682        -7.8010
  47   2.0000      -0.279377        -7.6022
  48   2.0000      -0.262612        -7.1460
  49   2.0000      -0.248989        -6.7753
  50   2.0000      -0.241738        -6.5780
  51   0.0000       0.053216         1.4481
  52   0.0000       0.079225         2.1558
  53   0.0000       0.090114         2.4521
  54   0.0000       0.096351         2.6218
  55   0.0000       0.102866         2.7991

MULLIKEN ATOMIC CHARGES
-----------------------
   0 C :    0.304380
   1 C :   -0.260210
   2 C :   -0.306832
   3 C :   -0.008792
   4 O :   -0.498294
   5 H :    0.147356
   6 H :    0.149909
   7 H :    0.148700
   8 H :    0.148606
   9 H :    0.165304
  10 H :    0.160663
  11 H :    0.147429
  12 C :   -0.016990
  13 H :    0.141667
  14 H :    0.154819
  15 O :   -0.559563
  16 C :    0.052018
  17 C :    0.119056
  18 C :   -0.304369
  19 C :   -0.023005
  20 O :   -0.520314
  21 H :    0.167199
  22 H :    0.147127
  23 O :   -0.644614
  24 H :    0.153207
  25 H :    0.145698
  26 H :    0.141971
  27 H :    0.150509
  28 H :    0.397364
Sum of atomic charges:    0.0000000

LOEWDIN ATOMIC CHARGES
----------------------
   0 C :    0.182138
   1 C :   -0.223751
   2 C :   -0.217465
   3 C :   -0.026860
   4 O :   -0.306570
   5 H :    0.103307
   6 H :    0.116686
   7 H :    0.118708
   8 H :    0.117937
   9 H :    0.119278
  10 H :    0.112256
  11 H :    0.105681
  12 C :   -0.041479
  13 H :    0.097286
  14 H :    0.110433
  15 O :   -0.344546
  16 C :    0.016766
  17 C :    0.042233
  18 C :   -0.237593
  19 C :   -0.033182
  20 O :   -0.323942
  21 H :    0.118995
  22 H :    0.104812
  23 O :   -0.437313
  24 H :    0.121886
  25 H :    0.110934
  26 H :    0.101636
  27 H :    0.106340
  28 H :    0.285391

  Mayer bond orders larger than 0.100000
B(  0-C ,  1-C ) :   0.9405 B(  0-C ,  4-O ) :   0.9493 B(  0-C ,  5-H ) :   0.9195
B(  0-C , 15-O ) :   0.7945 B(  1-C ,  2-C ) :   0.9536 B(  1-C ,  6-H ) :   0.9341
B(  1-C ,  7-H ) :   0.9378 B(  2-C ,  3-C ) :   0.9528 B(  2-C ,  8-H ) :   0.9445
B(  2-C ,  9-H ) :   0.9426 B(  3-C ,  4-O ) :   0.8303 B(  3-C , 10-H ) :   0.9336
B(  3-C , 11-H ) :   0.9394 B( 12-C , 13-H ) :   0.9229 B( 12-C , 14-H ) :   0.9209
B( 12-C , 15-O ) :   0.7905 B( 12-C , 16-C ) :   0.9021 B( 16-C , 17-C ) :   0.9168
B( 16-C , 20-O ) :   0.8557 B( 16-C , 21-H ) :   0.9274 B( 17-C , 18-C ) :   0.9024
B( 17-C , 22-H ) :   0.9283 B( 17-C , 23-O ) :   0.9351 B( 18-C , 19-C ) :   0.9395
B( 18-C , 24-H ) :   0.9441 B( 18-C , 25-H ) :   0.9428 B( 19-C , 20-O ) :   0.8316
B( 19-C , 26-H ) :   0.9342 B( 19-C , 27-H ) :   0.9383 B( 23-O , 28-H ) :   0.7185

FINAL SINGLE POINT ENERGY      -652.866091050798

DIPOLE MOMENT
-------------
                                X             Y             Z
Electronic contribution:     -1.08026      -4.33665       1.71885
Nuclear contribution   :      1.97675       5.02591      -2.50427
                        -----------------------------------------
Total Dipole Moment    :      0.89649       0.68926      -0.78542
                        -----------------------------------------
Magnitude (a.u.)       :      1.37683
Magnitude (Debye)      :      3.49963

Rotational constants in cm-1:     0.059870     0.013060     0.012259
Rotational constants in MHz :  1794.869901   391.539299   367.523907

                             ****ORCA TERMINATED NORMALLY****
TOTAL RUN TIME: 0 days 1 hours 33 minutes 11 seconds 152 msec
