                         Program Version 4.2.0 -  RELEASE  -
|  1> # Test redundant internal optimization
|  2> #
|  3> ! RKS B3LYP  Opt TightSCF SmallPrint
|  4>
|  5> %basis
|  6>         Basis "6-31G"
|  7> end
|  8>
|  9> %geom
| 10> Constraints
| 11> { D 4  0  15  12  330.0   C } # D for Dihedral angle
| 12> { D 0  15  12  16  225.0   C } # D for Dihedral angle
| 13> { D 0  4  3  2   C } # D for Dihedral angle
| 14> { D 4  3  2  1   C } # D for Dihedral angle
| 15> { D 3  2  1  0   C } # D for Dihedral angle
| 16> { D 2  1  0  4   C } # D for Dihedral angle
| 17> { D 1  0  4  3   C } # D for Dihedral angle
| 18> { D 16  20  19  18   C } # D for Dihedral angle
| 19> { D 20  19  18  17   C } # D for Dihedral angle
| 20> { D 19  18  17  16   C } # D for Dihedral angle
| 21> { D 18  17  16  20   C } # D for Dihedral angle
| 22> { D 17  16  20  19   C } # D for Dihedral angle
| 23> { D 15  12  16  20   C } # D for Dihedral angle
| 24> end
| 25> end
| 26>
| 27>
| 28> #%pal
| 29> #nprocs 8
| 30> #end
| 31>
| 32> * xyz 0 1
| 33> C  -21.048   26.222   46.251
| 34> C  -20.361   27.558   45.944
| 35> C  -20.329   28.222   47.341
| 36> C  -20.110   27.022   48.296
| 37> O  -20.473   25.807   47.535
| 38> H  -20.833   25.428   45.533
| 39> H  -19.344   27.382   45.576
| 40> H  -20.898   28.157   45.201
| 41> H  -19.543   28.978   47.434
| 42> H  -21.289   28.710   47.548
| 43> H  -20.733   27.082   49.195
| 44> H  -19.064   26.913   48.597
| 45> C  -23.271   25.476   47.424
| 46> H  -22.576   24.679   47.716
| 47> H  -23.533   26.048   48.323
| 48> O  -22.586   26.394   46.375
| 49> C  -24.571   24.816   46.887
| 50> C  -24.272   23.859   45.728
| 51> C  -23.764   22.605   46.481
| 52> C  -24.621   22.599   47.772
| 53> O  -25.175   23.962   47.915
| 54> H  -25.298   25.597   46.653
| 55> O  -25.579   23.540   44.951
| 56> H  -23.538   24.256   45.019
| 57> H  -23.879   21.686   45.899
| 58> H  -22.701   22.718   46.723
| 59> H  -24.034   22.354   48.663
| 60> H  -25.468   21.911   47.707
| 61> H  -26.330   23.139   45.641
| 62> *
| 63>
| 64>                          ****END OF INPUT****
 Total Charge           Charge          ....    0
 Multiplicity           Mult            ....    1
 Number of Electrons    NEL             ....  102
FINAL SINGLE POINT ENERGY      -652.839218508615
FINAL SINGLE POINT ENERGY      -652.861576918981
FINAL SINGLE POINT ENERGY      -652.865131968085
FINAL SINGLE POINT ENERGY      -652.865736081542
FINAL SINGLE POINT ENERGY      -652.865827238923
FINAL SINGLE POINT ENERGY      -652.865843172379
                    ***********************HURRAY********************

CARTESIAN COORDINATES (ANGSTROEM)
---------------------------------
  C    -21.081842   26.131601   46.322433
  C    -20.521159   27.501939   45.945283
  C    -20.449252   28.200869   47.320148
  C    -20.080126   27.053770   48.285416
  O    -20.407674   25.793996   47.555523
  H    -20.856250   25.317181   45.627293
  H    -19.523493   27.376255   45.509259
  H    -21.161145   28.023274   45.230421
  H    -19.714808   29.011858   47.341467
  H    -21.429180   28.617289   47.571344
  H    -20.645832   27.074084   49.220222
  H    -19.010863   27.009464   48.510381
  C    -23.183999   25.449908   47.489500
  H    -22.503848   24.679953   47.865808
  H    -23.464862   26.092508   48.330765
  O    -22.523378   26.259814   46.466706
  C    -24.443693   24.831131   46.882134
  C    -24.193799   23.859367   45.720033
  C    -23.778595   22.569003   46.475106
  C    -24.649845   22.613934   47.755784
  O    -25.116498   24.014442   47.900067
  H    -25.142202   25.617675   46.584143
  O    -25.405722   23.660782   44.940076
  H    -23.447632   24.218145   45.013194
  H    -23.968859   21.684663   45.861354
  H    -22.710972   22.595065   46.718514
  H    -24.097639   22.327112   48.656143
  H    -25.542165   21.984768   47.679548
  H    -26.165667   23.550148   45.549934

 Multiplicity           Mult            ....    1
 Number of Electrons    NEL             ....  102
 Basis Dimension        Dim             ....  149

ORBITAL ENERGIES
----------------

  NO   OCC          E(Eh)            E(eV)
   0   2.0000     -19.151297      -521.1333
   1   2.0000     -19.142763      -520.9011
   2   2.0000     -19.141888      -520.8772
   3   2.0000     -19.133155      -520.6396
   4   2.0000     -10.282663      -279.8055
   5   2.0000     -10.234198      -278.4867
   6   2.0000     -10.232447      -278.4391
   7   2.0000     -10.229364      -278.3551
   8   2.0000     -10.228566      -278.3334
   9   2.0000     -10.224613      -278.2259
  10   2.0000     -10.189930      -277.2821
  11   2.0000     -10.187826      -277.2248
  12   2.0000     -10.185646      -277.1655
  13   2.0000      -1.057331       -28.7715
  14   2.0000      -1.033383       -28.1198
  15   2.0000      -1.002023       -27.2664
  16   2.0000      -0.994262       -27.0553
  17   2.0000      -0.793614       -21.5953
  18   2.0000      -0.776371       -21.1261
  19   2.0000      -0.765748       -20.8371
  20   2.0000      -0.732847       -19.9418
  21   2.0000      -0.672075       -18.2881
  22   2.0000      -0.604446       -16.4478
  23   2.0000      -0.600634       -16.3441
  24   2.0000      -0.592128       -16.1126
  25   2.0000      -0.577068       -15.7028
  26   2.0000      -0.518963       -14.1217
  27   2.0000      -0.518669       -14.1137
  28   2.0000      -0.498956       -13.5773
  29   2.0000      -0.490620       -13.3504
  30   2.0000      -0.471313       -12.8251
  31   2.0000      -0.456951       -12.4343
  32   2.0000      -0.449237       -12.2244
  33   2.0000      -0.434474       -11.8226
  34   2.0000      -0.419924       -11.4267
  35   2.0000      -0.412527       -11.2254
  36   2.0000      -0.406240       -11.0544
  37   2.0000      -0.390239       -10.6189
  38   2.0000      -0.375578       -10.2200
  39   2.0000      -0.365040        -9.9332
  40   2.0000      -0.362521        -9.8647
  41   2.0000      -0.354794        -9.6544
  42   2.0000      -0.351344        -9.5606
  43   2.0000      -0.338484        -9.2106
  44   2.0000      -0.327062        -8.8998
  45   2.0000      -0.305502        -8.3131
  46   2.0000      -0.301143        -8.1945
  47   2.0000      -0.269013        -7.3202
  48   2.0000      -0.267820        -7.2877
  49   2.0000      -0.259954        -7.0737
  50   2.0000      -0.239878        -6.5274
  51   0.0000       0.067602         1.8395
  52   0.0000       0.073219         1.9924
  53   0.0000       0.096111         2.6153
  54   0.0000       0.098117         2.6699
  55   0.0000       0.103813         2.8249

MULLIKEN ATOMIC CHARGES
-----------------------
   0 C :    0.294554
   1 C :   -0.258466
   2 C :   -0.301927
   3 C :   -0.012532
   4 O :   -0.514813
   5 H :    0.147244
   6 H :    0.144588
   7 H :    0.164020
   8 H :    0.145487
   9 H :    0.161631
  10 H :    0.148490
  11 H :    0.149377
  12 C :   -0.013247
  13 H :    0.158338
  14 H :    0.147660
  15 O :   -0.540510
  16 C :    0.059528
  17 C :    0.090996
  18 C :   -0.305983
  19 C :   -0.027180
  20 O :   -0.527778
  21 H :    0.164500
  22 O :   -0.603588
  23 H :    0.164295
  24 H :    0.160652
  25 H :    0.150900
  26 H :    0.145154
  27 H :    0.146280
  28 H :    0.362329
Sum of atomic charges:   -0.0000000

LOEWDIN ATOMIC CHARGES
----------------------
   0 C :    0.178036
   1 C :   -0.215391
   2 C :   -0.216869
   3 C :   -0.029785
   4 O :   -0.325255
   5 H :    0.096669
   6 H :    0.113852
   7 H :    0.127699
   8 H :    0.116306
   9 H :    0.118889
  10 H :    0.105684
  11 H :    0.106356
  12 C :   -0.042768
  13 H :    0.110621
  14 H :    0.107218
  15 O :   -0.343409
  16 C :    0.014449
  17 C :    0.037948
  18 C :   -0.243839
  19 C :   -0.037893
  20 O :   -0.331483
  21 H :    0.117226
  22 O :   -0.415069
  23 H :    0.121634
  24 H :    0.125751
  25 H :    0.115801
  26 H :    0.103675
  27 H :    0.102485
  28 H :    0.281465

  Mayer bond orders larger than 0.100000
B(  0-C ,  1-C ) :   0.9455 B(  0-C ,  4-O ) :   0.9065 B(  0-C ,  5-H ) :   0.9222
B(  0-C , 15-O ) :   0.8461 B(  1-C ,  2-C ) :   0.9534 B(  1-C ,  6-H ) :   0.9373
B(  1-C ,  7-H ) :   0.9349 B(  2-C ,  3-C ) :   0.9563 B(  2-C ,  8-H ) :   0.9444
B(  2-C ,  9-H ) :   0.9445 B(  3-C ,  4-O ) :   0.8276 B(  3-C , 10-H ) :   0.9352
B(  3-C , 11-H ) :   0.9404 B( 12-C , 13-H ) :   0.9152 B( 12-C , 14-H ) :   0.9275
B( 12-C , 15-O ) :   0.8130 B( 12-C , 16-C ) :   0.9001 B( 16-C , 17-C ) :   0.9110
B( 16-C , 20-O ) :   0.8410 B( 16-C , 21-H ) :   0.9256 B( 17-C , 18-C ) :   0.9119
B( 17-C , 22-O ) :   0.8909 B( 17-C , 23-H ) :   0.9269 B( 18-C , 19-C ) :   0.9427
B( 18-C , 24-H ) :   0.9380 B( 18-C , 25-H ) :   0.9337 B( 19-C , 20-O ) :   0.8431
B( 19-C , 26-H ) :   0.9357 B( 19-C , 27-H ) :   0.9379 B( 22-O , 28-H ) :   0.7960

FINAL SINGLE POINT ENERGY      -652.865845333143

DIPOLE MOMENT
-------------
                                X             Y             Z
Electronic contribution:     -3.89302      -1.46525      -1.14081
Nuclear contribution   :      4.78621       1.69593       1.58761
                        -----------------------------------------
Total Dipole Moment    :      0.89319       0.23068       0.44681
                        -----------------------------------------
Magnitude (a.u.)       :      1.02501
Magnitude (Debye)      :      2.60536

Rotational constants in cm-1:     0.058946     0.012819     0.012080
Rotational constants in MHz :  1767.166642   384.299516   362.148795

                             ****ORCA TERMINATED NORMALLY****
TOTAL RUN TIME: 0 days 0 hours 24 minutes 28 seconds 256 msec
