                         Program Version 4.2.1 -  RELEASE  -
|  1> # Test redundant internal optimization
|  2> #
|  3> ! RKS B3LYP  Opt TightSCF SmallPrint
|  4>
|  5> %basis
|  6>         Basis "6-31G"
|  7> end
|  8>
|  9> %geom
| 10> Constraints
| 11> { D 4  0  19  14  90.0   C } # D for Dihedral angle
| 12> { D 0  19  14  12  165.0   C } # D for Dihedral angle
| 13> { D 0  4  3  2   C } # D for Dihedral angle
| 14> { D 4  3  2  1   C } # D for Dihedral angle
| 15> { D 3  2  1  0   C } # D for Dihedral angle
| 16> { D 2  1  0  4   C } # D for Dihedral angle
| 17> { D 1  0  4  3   C } # D for Dihedral angle
| 18> { D 14  15  16  17   C } # D for Dihedral angle
| 19> { D 15  16  17  12   C } # D for Dihedral angle
| 20> { D 16  17  12  14   C } # D for Dihedral angle
| 21> { D 17  12  14  15   C } # D for Dihedral angle
| 22> { D 12  14  15  16   C } # D for Dihedral angle
| 23> end
| 24> end
| 25>
| 26>
| 27> #%pal
| 28> #nprocs 8
| 29> #end
| 30>
| 31> * xyz 0 1
| 32> C  -21.048   26.222   46.251
| 33> C  -20.361   27.558   45.944
| 34> C  -20.329   28.222   47.341
| 35> C  -20.110   27.022   48.296
| 36> O  -20.473   25.807   47.535
| 37> H  -20.833   25.428   45.533
| 38> H  -19.344   27.382   45.576
| 39> H  -20.898   28.157   45.201
| 40> H  -19.543   28.978   47.434
| 41> H  -21.289   28.710   47.548
| 42> H  -20.733   27.082   49.195
| 43> H  -19.064   26.913   48.597
| 44> C  -24.392   27.872   46.480
| 45> H  -24.681   28.935   46.481
| 46> C  -22.892   27.702   46.744
| 47> C  -22.821   27.879   48.279
| 48> C  -24.143   27.237   48.769
| 49> O  -25.037   27.165   47.592
| 50> H  -24.745   27.407   45.558
| 51> O  -22.472   26.381   46.366
| 52> H  -22.275   28.428   46.204
| 53> H  -21.939   27.406   48.721
| 54> H  -22.792   28.946   48.535
| 55> H  -24.631   27.825   49.554
| 56> H  -24.003   26.213   49.129
| 57> *
| 58>
| 59>                          ****END OF INPUT****
 Total Charge           Charge          ....    0
 Multiplicity           Mult            ....    1
 Number of Electrons    NEL             ....   86
FINAL SINGLE POINT ENERGY      -538.364947094332
FINAL SINGLE POINT ENERGY      -538.419880987205
FINAL SINGLE POINT ENERGY      -538.423707164322
FINAL SINGLE POINT ENERGY      -538.424452400827
FINAL SINGLE POINT ENERGY      -538.424610359068
FINAL SINGLE POINT ENERGY      -538.424690598106
FINAL SINGLE POINT ENERGY      -538.424702117755
FINAL SINGLE POINT ENERGY      -538.424703343704
                    ***********************HURRAY********************

CARTESIAN COORDINATES (ANGSTROEM)
---------------------------------
  C    -21.080487   26.360504   46.354207
  C    -20.177110   27.521193   45.911944
  C    -19.834063   28.202265   47.268873
  C    -19.750156   26.993476   48.237439
  O    -20.449768   25.875375   47.564150
  H    -21.046468   25.511428   45.669453
  H    -19.276558   27.101474   45.453102
  H    -20.651414   28.193199   45.191165
  H    -18.891975   28.757731   47.229467
  H    -20.619859   28.901963   47.567521
  H    -20.220035   27.185774   49.207239
  H    -18.719507   26.667595   48.406053
  C    -24.569837   27.785603   46.455293
  H    -25.017907   28.790426   46.435321
  C    -23.095698   27.861101   46.851570
  C    -23.191292   28.004941   48.383552
  C    -24.421302   27.140505   48.746107
  O    -25.182022   26.953353   47.491050
  H    -24.720829   27.287653   45.497031
  O    -22.501341   26.590659   46.449151
  H    -22.579151   28.700722   46.371659
  H    -22.289367   27.666645   48.894197
  H    -23.359248   29.058501   48.639440
  H    -25.066641   27.619090   49.491297
  H    -24.135964   26.145825   49.096718

 Multiplicity           Mult            ....    1
 Number of Electrons    NEL             ....   86
 Basis Dimension        Dim             ....  127

ORBITAL ENERGIES
----------------

  NO   OCC          E(Eh)            E(eV)
   0   2.0000     -19.142957      -520.9063
   1   2.0000     -19.142185      -520.8853
   2   2.0000     -19.125258      -520.4247
   3   2.0000     -10.279745      -279.7261
   4   2.0000     -10.243593      -278.7423
   5   2.0000     -10.232163      -278.4313
   6   2.0000     -10.220956      -278.1264
   7   2.0000     -10.217885      -278.0428
   8   2.0000     -10.197663      -277.4925
   9   2.0000     -10.196186      -277.4523
  10   2.0000     -10.186720      -277.1948
  11   2.0000      -1.051815       -28.6213
  12   2.0000      -1.013902       -27.5897
  13   2.0000      -0.991831       -26.9891
  14   2.0000      -0.792495       -21.5649
  15   2.0000      -0.787519       -21.4295
  16   2.0000      -0.742703       -20.2100
  17   2.0000      -0.724209       -19.7067
  18   2.0000      -0.624206       -16.9855
  19   2.0000      -0.607648       -16.5349
  20   2.0000      -0.598312       -16.2809
  21   2.0000      -0.563124       -15.3234
  22   2.0000      -0.524373       -14.2689
  23   2.0000      -0.508939       -13.8489
  24   2.0000      -0.488478       -13.2922
  25   2.0000      -0.482352       -13.1255
  26   2.0000      -0.452924       -12.3247
  27   2.0000      -0.448068       -12.1925
  28   2.0000      -0.428980       -11.6731
  29   2.0000      -0.419095       -11.4042
  30   2.0000      -0.409518       -11.1436
  31   2.0000      -0.388305       -10.5663
  32   2.0000      -0.380987       -10.3672
  33   2.0000      -0.368608       -10.0303
  34   2.0000      -0.365534        -9.9467
  35   2.0000      -0.361918        -9.8483
  36   2.0000      -0.349208        -9.5024
  37   2.0000      -0.318422        -8.6647
  38   2.0000      -0.302327        -8.2267
  39   2.0000      -0.291043        -7.9197
  40   2.0000      -0.269318        -7.3285
  41   2.0000      -0.256889        -6.9903
  42   2.0000      -0.230719        -6.2782
  43   0.0000       0.066070         1.7978
  44   0.0000       0.086833         2.3628
  45   0.0000       0.093411         2.5418
  46   0.0000       0.110899         3.0177
  47   0.0000       0.114492         3.1155

MULLIKEN ATOMIC CHARGES
-----------------------
   0 C :    0.309578
   1 C :   -0.294696
   2 C :   -0.314228
   3 C :   -0.012657
   4 O :   -0.500502
   5 H :    0.168122
   6 H :    0.159495
   7 H :    0.149309
   8 H :    0.147482
   9 H :    0.150226
  10 H :    0.141930
  11 H :    0.148197
  12 C :    0.012508
  13 H :    0.121574
  14 C :    0.059075
  15 C :   -0.295064
  16 C :    0.000181
  17 O :   -0.517819
  18 H :    0.165368
  19 O :   -0.514281
  20 H :    0.125092
  21 H :    0.161686
  22 H :    0.133743
  23 H :    0.133460
  24 H :    0.162223
Sum of atomic charges:    0.0000000

LOEWDIN ATOMIC CHARGES
----------------------
   0 C :    0.174824
   1 C :   -0.230747
   2 C :   -0.224291
   3 C :   -0.034978
   4 O :   -0.319802
   5 H :    0.113662
   6 H :    0.124275
   7 H :    0.116695
   8 H :    0.116749
   9 H :    0.109134
  10 H :    0.098295
  11 H :    0.105247
  12 C :   -0.032123
  13 H :    0.089638
  14 C :    0.035168
  15 C :   -0.236966
  16 C :   -0.026844
  17 O :   -0.326598
  18 H :    0.122704
  19 O :   -0.311036
  20 H :    0.093843
  21 H :    0.123813
  22 H :    0.109191
  23 H :    0.097429
  24 H :    0.112720

  Mayer bond orders larger than 0.100000
B(  0-C ,  1-C ) :   0.9211 B(  0-C ,  4-O ) :   0.8971 B(  0-C ,  5-H ) :   0.9362
B(  0-C , 19-O ) :   0.9058 B(  1-C ,  2-C ) :   0.9535 B(  1-C ,  6-H ) :   0.9351
B(  1-C ,  7-H ) :   0.9333 B(  2-C ,  3-C ) :   0.9481 B(  2-C ,  8-H ) :   0.9453
B(  2-C ,  9-H ) :   0.9395 B(  3-C ,  4-O ) :   0.8509 B(  3-C , 10-H ) :   0.9247
B(  3-C , 11-H ) :   0.9381 B( 12-C , 13-H ) :   0.9151 B( 12-C , 14-C ) :   0.9356
B( 12-C , 17-O ) :   0.8744 B( 12-C , 18-H ) :   0.9306 B( 14-C , 15-C ) :   0.9303
B( 14-C , 19-O ) :   0.8354 B( 14-C , 20-H ) :   0.9132 B( 15-C , 16-C ) :   0.9439
B( 15-C , 21-H ) :   0.9287 B( 15-C , 22-H ) :   0.9368 B( 16-C , 17-O ) :   0.8576
B( 16-C , 23-H ) :   0.9331 B( 16-C , 24-H ) :   0.9341

FINAL SINGLE POINT ENERGY      -538.424702242961

DIPOLE MOMENT
-------------
                                X             Y             Z
Electronic contribution:     -2.94937      -4.78246      -1.53843
Nuclear contribution   :      4.13177       6.40154       1.52381
                        -----------------------------------------
Total Dipole Moment    :      1.18240       1.61908      -0.01462
                        -----------------------------------------
Magnitude (a.u.)       :      2.00492
Magnitude (Debye)      :      5.09609

Rotational constants in cm-1:     0.074216     0.023648     0.022254
Rotational constants in MHz :  2224.925786   708.942274   667.156445

                             ****ORCA TERMINATED NORMALLY****
TOTAL RUN TIME: 0 days 0 hours 9 minutes 44 seconds 436 msec
