                         Program Version 4.2.0 -  RELEASE  -
|  1> # Test redundant internal optimization
|  2> #
|  3> ! RKS B3LYP  Opt TightSCF SmallPrint
|  4>
|  5> %basis
|  6>         Basis "6-31G"
|  7> end
|  8>
|  9> %geom
| 10> Constraints
| 11> { D 4  0  15  12  165.0   C } # D for Dihedral angle
| 12> { D 0  15  12  16  30.0   C } # D for Dihedral angle
| 13> { D 0  4  3  2   C } # D for Dihedral angle
| 14> { D 4  3  2  1   C } # D for Dihedral angle
| 15> { D 3  2  1  0   C } # D for Dihedral angle
| 16> { D 2  1  0  4   C } # D for Dihedral angle
| 17> { D 1  0  4  3   C } # D for Dihedral angle
| 18> { D 16  20  19  18   C } # D for Dihedral angle
| 19> { D 20  19  18  17   C } # D for Dihedral angle
| 20> { D 19  18  17  16   C } # D for Dihedral angle
| 21> { D 18  17  16  20   C } # D for Dihedral angle
| 22> { D 17  16  20  19   C } # D for Dihedral angle
| 23> { D 15  12  16  20   C } # D for Dihedral angle
| 24> end
| 25> end
| 26>
| 27>
| 28> #%pal
| 29> #nprocs 8
| 30> #end
| 31>
| 32> * xyz 0 1
| 33> C  -21.048   26.222   46.251
| 34> C  -20.361   27.558   45.944
| 35> C  -20.329   28.222   47.341
| 36> C  -20.110   27.022   48.296
| 37> O  -20.473   25.807   47.535
| 38> H  -20.833   25.428   45.533
| 39> H  -19.344   27.382   45.576
| 40> H  -20.898   28.157   45.201
| 41> H  -19.543   28.978   47.434
| 42> H  -21.289   28.710   47.548
| 43> H  -20.733   27.082   49.195
| 44> H  -19.064   26.913   48.597
| 45> C  -23.260   27.170   45.210
| 46> H  -24.289   26.812   45.084
| 47> H  -23.296   28.244   45.435
| 48> O  -22.586   26.394   46.375
| 49> C  -22.512   26.994   43.860
| 50> C  -23.135   27.863   42.761
| 51> C  -22.540   29.254   43.086
| 52> C  -21.118   28.916   43.602
| 53> O  -21.134   27.484   43.969
| 54> H  -22.456   25.931   43.617
| 55> O  -22.662   27.377   41.364
| 56> H  -24.230   27.856   42.777
| 57> H  -22.521   29.921   42.219
| 58> H  -23.129   29.742   43.872
| 59> H  -20.839   29.508   44.480
| 60> H  -20.353   29.043   42.830
| 61> H  -21.567   27.376   41.326
| 62> *
| 63>
| 64>                          ****END OF INPUT****
 Total Charge           Charge          ....    0
 Multiplicity           Mult            ....    1
 Number of Electrons    NEL             ....  102
FINAL SINGLE POINT ENERGY      -652.738675396931
FINAL SINGLE POINT ENERGY      -652.820083310443
FINAL SINGLE POINT ENERGY      -652.841475549245
FINAL SINGLE POINT ENERGY      -652.846046100570
FINAL SINGLE POINT ENERGY      -652.846811368131
FINAL SINGLE POINT ENERGY      -652.846969691182
FINAL SINGLE POINT ENERGY      -652.846982425053
FINAL SINGLE POINT ENERGY      -652.846972791894
FINAL SINGLE POINT ENERGY      -652.846970320135
                    ***********************HURRAY********************

CARTESIAN COORDINATES (ANGSTROEM)
---------------------------------
  C    -20.831111   26.162229   46.374926
  C    -19.931648   27.391877   46.251626
  C    -20.216029   28.138611   47.581903
  C    -20.423690   26.976136   48.576236
  O    -20.699171   25.780130   47.750890
  H    -20.550012   25.305606   45.759775
  H    -18.889309   27.049482   46.224679
  H    -20.121828   27.972572   45.354894
  H    -19.394570   28.799477   47.875269
  H    -21.126892   28.739884   47.492533
  H    -21.266459   27.134005   49.254614
  H    -19.525465   26.753837   49.161460
  C    -22.954703   27.139331   45.143011
  H    -23.945566   26.673174   45.118582
  H    -23.088586   28.187191   45.458062
  O    -22.262101   26.441650   46.212415
  C    -22.416495   27.126185   43.700821
  C    -23.307576   27.931788   42.741219
  C    -22.731024   29.366188   42.903722
  C    -21.217540   29.113063   43.109311
  O    -21.079243   27.684696   43.502251
  H    -22.347730   26.085492   43.363024
  O    -23.178319   27.451181   41.376814
  H    -24.372346   27.868172   42.968085
  H    -22.946896   29.969372   42.018341
  H    -23.175232   29.857662   43.775893
  H    -20.783192   29.740871   43.893776
  H    -20.636217   29.247316   42.192738
  H    -22.233049   27.278821   41.181130

 Multiplicity           Mult            ....    1
 Number of Electrons    NEL             ....  102
 Basis Dimension        Dim             ....  149

ORBITAL ENERGIES
----------------

  NO   OCC          E(Eh)            E(eV)
   0   2.0000     -19.159849      -521.3660
   1   2.0000     -19.148550      -521.0585
   2   2.0000     -19.130621      -520.5707
   3   2.0000     -19.127988      -520.4990
   4   2.0000     -10.273014      -279.5429
   5   2.0000     -10.253738      -279.0184
   6   2.0000     -10.245875      -278.8044
   7   2.0000     -10.244714      -278.7728
   8   2.0000     -10.237916      -278.5879
   9   2.0000     -10.217683      -278.0373
  10   2.0000     -10.200721      -277.5757
  11   2.0000     -10.180362      -277.0217
  12   2.0000     -10.170279      -276.7474
  13   2.0000      -1.051600       -28.6155
  14   2.0000      -1.041035       -28.3280
  15   2.0000      -1.018286       -27.7090
  16   2.0000      -0.979974       -26.6665
  17   2.0000      -0.795807       -21.6550
  18   2.0000      -0.777608       -21.1598
  19   2.0000      -0.774077       -21.0637
  20   2.0000      -0.731433       -19.9033
  21   2.0000      -0.679361       -18.4863
  22   2.0000      -0.616151       -16.7663
  23   2.0000      -0.610540       -16.6136
  24   2.0000      -0.591543       -16.0967
  25   2.0000      -0.566002       -15.4017
  26   2.0000      -0.532329       -14.4854
  27   2.0000      -0.517205       -14.0739
  28   2.0000      -0.496395       -13.5076
  29   2.0000      -0.485267       -13.2048
  30   2.0000      -0.478259       -13.0141
  31   2.0000      -0.459292       -12.4980
  32   2.0000      -0.449485       -12.2311
  33   2.0000      -0.445301       -12.1172
  34   2.0000      -0.427775       -11.6404
  35   2.0000      -0.413231       -11.2446
  36   2.0000      -0.409398       -11.1403
  37   2.0000      -0.396084       -10.7780
  38   2.0000      -0.383919       -10.4470
  39   2.0000      -0.371380       -10.1058
  40   2.0000      -0.362406        -9.8616
  41   2.0000      -0.356507        -9.7010
  42   2.0000      -0.346041        -9.4163
  43   2.0000      -0.338810        -9.2195
  44   2.0000      -0.320009        -8.7079
  45   2.0000      -0.305555        -8.3146
  46   2.0000      -0.292285        -7.9535
  47   2.0000      -0.281858        -7.6698
  48   2.0000      -0.255233        -6.9452
  49   2.0000      -0.250856        -6.8261
  50   2.0000      -0.240038        -6.5318
  51   0.0000       0.051203         1.3933
  52   0.0000       0.076828         2.0906
  53   0.0000       0.085479         2.3260
  54   0.0000       0.089190         2.4270
  55   0.0000       0.099055         2.6954

MULLIKEN ATOMIC CHARGES
-----------------------
   0 C :    0.315433
   1 C :   -0.285415
   2 C :   -0.307310
   3 C :    0.002819
   4 O :   -0.496812
   5 H :    0.145720
   6 H :    0.138368
   7 H :    0.182124
   8 H :    0.136835
   9 H :    0.146627
  10 H :    0.148446
  11 H :    0.140604
  12 C :    0.018216
  13 H :    0.155878
  14 H :    0.119885
  15 O :   -0.543299
  16 C :    0.046196
  17 C :    0.076203
  18 C :   -0.297286
  19 C :   -0.032257
  20 O :   -0.524417
  21 H :    0.167456
  22 O :   -0.599958
  23 H :    0.160794
  24 H :    0.169019
  25 H :    0.149346
  26 H :    0.146045
  27 H :    0.154520
  28 H :    0.366222
Sum of atomic charges:   -0.0000000

LOEWDIN ATOMIC CHARGES
----------------------
   0 C :    0.196194
   1 C :   -0.237898
   2 C :   -0.220880
   3 C :   -0.027098
   4 O :   -0.302585
   5 H :    0.101213
   6 H :    0.113376
   7 H :    0.131088
   8 H :    0.111616
   9 H :    0.109456
  10 H :    0.106086
  11 H :    0.101128
  12 C :   -0.036975
  13 H :    0.119290
  14 H :    0.087794
  15 O :   -0.349054
  16 C :    0.000667
  17 C :    0.038420
  18 C :   -0.240480
  19 C :   -0.038408
  20 O :   -0.327412
  21 H :    0.116397
  22 O :   -0.411308
  23 H :    0.119412
  24 H :    0.129807
  25 H :    0.115498
  26 H :    0.103598
  27 H :    0.106805
  28 H :    0.284253

  Mayer bond orders larger than 0.100000
B(  0-C ,  1-C ) :   0.9363 B(  0-C ,  4-O ) :   0.9344 B(  0-C ,  5-H ) :   0.9265
B(  0-C , 15-O ) :   0.8111 B(  1-C ,  2-C ) :   0.9460 B(  1-C ,  6-H ) :   0.9353
B(  1-C ,  7-H ) :   0.9031 B(  2-C ,  3-C ) :   0.9535 B(  2-C ,  8-H ) :   0.9455
B(  2-C ,  9-H ) :   0.9475 B(  3-C ,  4-O ) :   0.8373 B(  3-C , 10-H ) :   0.9358
B(  3-C , 11-H ) :   0.9395 B( 12-C , 13-H ) :   0.9209 B( 12-C , 14-H ) :   0.9190
B( 12-C , 15-O ) :   0.8624 B( 12-C , 16-C ) :   0.8911 B( 16-C , 17-C ) :   0.8915
B( 16-C , 20-O ) :   0.8427 B( 16-C , 21-H ) :   0.9231 B( 17-C , 18-C ) :   0.9105
B( 17-C , 22-O ) :   0.8941 B( 17-C , 23-H ) :   0.9322 B( 18-C , 19-C ) :   0.9433
B( 18-C , 24-H ) :   0.9361 B( 18-C , 25-H ) :   0.9321 B( 19-C , 20-O ) :   0.8345
B( 19-C , 26-H ) :   0.9313 B( 19-C , 27-H ) :   0.9380 B( 22-O , 28-H ) :   0.7941

FINAL SINGLE POINT ENERGY      -652.846970461100

DIPOLE MOMENT
-------------
                                X             Y             Z
Electronic contribution:     -1.36990      -5.72786      -1.53173
Nuclear contribution   :      1.70688       7.28427       1.07309
                        -----------------------------------------
Total Dipole Moment    :      0.33698       1.55640      -0.45864
                        -----------------------------------------
Magnitude (a.u.)       :      1.65720
Magnitude (Debye)      :      4.21226

Rotational constants in cm-1:     0.062079     0.013754     0.012708
Rotational constants in MHz :  1861.078834   412.320253   380.963838

                             ****ORCA TERMINATED NORMALLY****
TOTAL RUN TIME: 0 days 0 hours 44 minutes 4 seconds 99 msec
