                         Program Version 4.2.0 -  RELEASE  -
|  1> # Test redundant internal optimization
|  2> #
|  3> ! RKS B3LYP  Opt TightSCF SmallPrint
|  4>
|  5> %basis
|  6>         Basis "6-31G"
|  7> end
|  8>
|  9> %geom
| 10> Constraints
| 11> { D 4  0  15  12  135.0   C } # D for Dihedral angle
| 12> { D 0  15  12  16  300.0   C } # D for Dihedral angle
| 13> { D 0  4  3  2   C } # D for Dihedral angle
| 14> { D 4  3  2  1   C } # D for Dihedral angle
| 15> { D 3  2  1  0   C } # D for Dihedral angle
| 16> { D 2  1  0  4   C } # D for Dihedral angle
| 17> { D 1  0  4  3   C } # D for Dihedral angle
| 18> { D 16  20  19  18   C } # D for Dihedral angle
| 19> { D 20  19  18  17   C } # D for Dihedral angle
| 20> { D 19  18  17  16   C } # D for Dihedral angle
| 21> { D 18  17  16  20   C } # D for Dihedral angle
| 22> { D 17  16  20  19   C } # D for Dihedral angle
| 23> { D 15  12  16  20   C } # D for Dihedral angle
| 24> end
| 25> end
| 26>
| 27>
| 28> #%pal
| 29> #nprocs 8
| 30> #end
| 31>
| 32> * xyz 0 1
| 33> C  -21.048   26.222   46.251
| 34> C  -20.361   27.558   45.944
| 35> C  -20.329   28.222   47.341
| 36> C  -20.110   27.022   48.296
| 37> O  -20.473   25.807   47.535
| 38> H  -20.833   25.428   45.533
| 39> H  -19.344   27.382   45.576
| 40> H  -20.898   28.157   45.201
| 41> H  -19.543   28.978   47.434
| 42> H  -21.289   28.710   47.548
| 43> H  -20.733   27.082   49.195
| 44> H  -19.064   26.913   48.597
| 45> C  -23.162   27.680   45.721
| 46> H  -22.939   27.670   44.646
| 47> H  -24.252   27.719   45.844
| 48> O  -22.586   26.394   46.375
| 49> C  -22.570   28.981   46.330
| 50> C  -23.243   30.226   45.744
| 51> C  -24.568   30.272   46.541
| 52> C  -24.154   29.755   47.941
| 53> O  -22.864   29.054   47.766
| 54> H  -21.483   28.963   46.227
| 55> O  -22.383   31.486   46.038
| 56> H  -23.400   30.161   44.662
| 57> H  -25.007   31.274   46.580
| 58> H  -25.306   29.601   46.084
| 59> H  -24.886   29.057   48.364
| 60> H  -23.985   30.567   48.654
| 61> H  -22.213   31.571   47.117
| 62> *
| 63>
| 64>                          ****END OF INPUT****
 Total Charge           Charge          ....    0
 Multiplicity           Mult            ....    1
 Number of Electrons    NEL             ....  102
FINAL SINGLE POINT ENERGY      -652.744856173505
FINAL SINGLE POINT ENERGY      -652.817277967054
FINAL SINGLE POINT ENERGY      -652.838856562458
FINAL SINGLE POINT ENERGY      -652.843383145334
FINAL SINGLE POINT ENERGY      -652.844071205676
FINAL SINGLE POINT ENERGY      -652.844207422252
FINAL SINGLE POINT ENERGY      -652.844219728628
FINAL SINGLE POINT ENERGY      -652.844222433118
                    ***********************HURRAY********************

CARTESIAN COORDINATES (ANGSTROEM)
---------------------------------
  C    -21.045023   26.278439   46.238165
  C    -19.990241   27.364827   45.993757
  C    -19.833676   27.999888   47.410315
  C    -20.017191   26.773134   48.335264
  O    -20.675857   25.734183   47.512154
  H    -20.977522   25.445132   45.533336
  H    -19.059102   26.871201   45.696201
  H    -20.255490   28.081316   45.210951
  H    -18.852012   28.467493   47.538009
  H    -20.598832   28.745515   47.623813
  H    -20.649732   26.989732   49.199857
  H    -19.067652   26.348771   48.674160
  C    -23.084980   27.858969   45.754697
  H    -22.961060   27.918766   44.658829
  H    -24.141811   27.662389   45.955331
  O    -22.452526   26.650263   46.247089
  C    -22.707009   29.230904   46.320382
  C    -23.561124   30.351117   45.705539
  C    -24.860056   30.268437   46.558191
  C    -24.325250   29.880752   47.961142
  O    -22.958620   29.342043   47.758296
  H    -21.653608   29.454064   46.160421
  O    -22.900411   31.638490   45.846519
  H    -23.738449   30.238923   44.635420
  H    -25.386419   31.226082   46.551112
  H    -25.532006   29.501520   46.158512
  H    -24.935472   29.117461   48.452140
  H    -24.235907   30.742315   48.630434
  H    -22.568965   31.729871   46.764962

 Multiplicity           Mult            ....    1
 Number of Electrons    NEL             ....  102
 Basis Dimension        Dim             ....  149

ORBITAL ENERGIES
----------------

  NO   OCC          E(Eh)            E(eV)
   0   2.0000     -19.150850      -521.1211
   1   2.0000     -19.147523      -521.0306
   2   2.0000     -19.132600      -520.6245
   3   2.0000     -19.132573      -520.6238
   4   2.0000     -10.276533      -279.6387
   5   2.0000     -10.250592      -278.9328
   6   2.0000     -10.240240      -278.6511
   7   2.0000     -10.238282      -278.5978
   8   2.0000     -10.238134      -278.5938
   9   2.0000     -10.218076      -278.0480
  10   2.0000     -10.197119      -277.4777
  11   2.0000     -10.190438      -277.2959
  12   2.0000     -10.182648      -277.0840
  13   2.0000      -1.047292       -28.4983
  14   2.0000      -1.041045       -28.3283
  15   2.0000      -1.014249       -27.5991
  16   2.0000      -0.986888       -26.8546
  17   2.0000      -0.792577       -21.5671
  18   2.0000      -0.782569       -21.2948
  19   2.0000      -0.773853       -21.0576
  20   2.0000      -0.734001       -19.9732
  21   2.0000      -0.680730       -18.5236
  22   2.0000      -0.612792       -16.6749
  23   2.0000      -0.609987       -16.5986
  24   2.0000      -0.594987       -16.1904
  25   2.0000      -0.573987       -15.6190
  26   2.0000      -0.529245       -14.4015
  27   2.0000      -0.508297       -13.8315
  28   2.0000      -0.497910       -13.5488
  29   2.0000      -0.494701       -13.4615
  30   2.0000      -0.473261       -12.8781
  31   2.0000      -0.461651       -12.5622
  32   2.0000      -0.453614       -12.3435
  33   2.0000      -0.439252       -11.9526
  34   2.0000      -0.431877       -11.7520
  35   2.0000      -0.412150       -11.2152
  36   2.0000      -0.407137       -11.0788
  37   2.0000      -0.401038       -10.9128
  38   2.0000      -0.380728       -10.3601
  39   2.0000      -0.378358       -10.2956
  40   2.0000      -0.362173        -9.8552
  41   2.0000      -0.353290        -9.6135
  42   2.0000      -0.350035        -9.5249
  43   2.0000      -0.339178        -9.2295
  44   2.0000      -0.316464        -8.6114
  45   2.0000      -0.304990        -8.2992
  46   2.0000      -0.287287        -7.8175
  47   2.0000      -0.278891        -7.5890
  48   2.0000      -0.264795        -7.2054
  49   2.0000      -0.252972        -6.8837
  50   2.0000      -0.238831        -6.4989
  51   0.0000       0.057190         1.5562
  52   0.0000       0.079618         2.1665
  53   0.0000       0.082107         2.2343
  54   0.0000       0.088841         2.4175
  55   0.0000       0.094591         2.5740

MULLIKEN ATOMIC CHARGES
-----------------------
   0 C :    0.326378
   1 C :   -0.306530
   2 C :   -0.324640
   3 C :   -0.002788
   4 O :   -0.495664
   5 H :    0.151831
   6 H :    0.154341
   7 H :    0.140167
   8 H :    0.137433
   9 H :    0.190728
  10 H :    0.158207
  11 H :    0.139637
  12 C :    0.017812
  13 H :    0.119753
  14 H :    0.157241
  15 O :   -0.530511
  16 C :    0.038943
  17 C :    0.073575
  18 C :   -0.300424
  19 C :   -0.029870
  20 O :   -0.522694
  21 H :    0.162603
  22 O :   -0.599858
  23 H :    0.156367
  24 H :    0.165122
  25 H :    0.150459
  26 H :    0.158937
  27 H :    0.148767
  28 H :    0.364677
Sum of atomic charges:   -0.0000000

LOEWDIN ATOMIC CHARGES
----------------------
   0 C :    0.187482
   1 C :   -0.234091
   2 C :   -0.228574
   3 C :   -0.026577
   4 O :   -0.307290
   5 H :    0.101938
   6 H :    0.122024
   7 H :    0.110115
   8 H :    0.112591
   9 H :    0.127210
  10 H :    0.110739
  11 H :    0.100548
  12 C :   -0.033895
  13 H :    0.090387
  14 H :    0.117369
  15 O :   -0.333250
  16 C :   -0.005521
  17 C :    0.036452
  18 C :   -0.241087
  19 C :   -0.036994
  20 O :   -0.329643
  21 H :    0.114552
  22 O :   -0.413009
  23 H :    0.117197
  24 H :    0.127732
  25 H :    0.115839
  26 H :    0.110788
  27 H :    0.103676
  28 H :    0.283292

  Mayer bond orders larger than 0.100000
B(  0-C ,  1-C ) :   0.9281 B(  0-C ,  4-O ) :   0.9313 B(  0-C ,  5-H ) :   0.9305
B(  0-C , 15-O ) :   0.8543 B(  1-C ,  2-C ) :   0.9524 B(  1-C ,  6-H ) :   0.9326
B(  1-C ,  7-H ) :   0.9291 B(  2-C ,  3-C ) :   0.9500 B(  2-C ,  8-H ) :   0.9460
B(  2-C ,  9-H ) :   0.9160 B(  3-C ,  4-O ) :   0.8379 B(  3-C , 10-H ) :   0.9335
B(  3-C , 11-H ) :   0.9401 B( 12-C , 13-H ) :   0.9091 B( 12-C , 14-H ) :   0.9356
B( 12-C , 15-O ) :   0.8731 B( 12-C , 16-C ) :   0.8724 B( 16-C , 17-C ) :   0.8904
B( 16-C , 20-O ) :   0.8439 B( 16-C , 21-H ) :   0.9113 B( 17-C , 18-C ) :   0.9132
B( 17-C , 22-O ) :   0.8943 B( 17-C , 23-H ) :   0.9312 B( 18-C , 19-C ) :   0.9397
B( 18-C , 24-H ) :   0.9368 B( 18-C , 25-H ) :   0.9324 B( 19-C , 20-O ) :   0.8398
B( 19-C , 26-H ) :   0.9329 B( 19-C , 27-H ) :   0.9371 B( 22-O , 28-H ) :   0.7942

FINAL SINGLE POINT ENERGY      -652.844222812152

DIPOLE MOMENT
-------------
                                X             Y             Z
Electronic contribution:     -0.49194      -2.51297       0.22478
Nuclear contribution   :      0.37869       3.45710      -0.48372
                        -----------------------------------------
Total Dipole Moment    :     -0.11325       0.94412      -0.25894
                        -----------------------------------------
Magnitude (a.u.)       :      0.98552
Magnitude (Debye)      :      2.50499

Rotational constants in cm-1:     0.050550     0.015073     0.014762
Rotational constants in MHz :  1515.454100   451.891666   442.544254

                             ****ORCA TERMINATED NORMALLY****
TOTAL RUN TIME: 0 days 0 hours 22 minutes 15 seconds 610 msec
