                         Program Version 4.2.0 -  RELEASE  -
|  1> # Test redundant internal optimization
|  2> #
|  3> ! RKS B3LYP  Opt TightSCF SmallPrint
|  4>
|  5> %basis
|  6>         Basis "6-31G"
|  7> end
|  8>
|  9> %geom
| 10> Constraints
| 11> { D 4  0  15  12  15.0   C } # D for Dihedral angle
| 12> { D 0  15  12  16  180.0   C } # D for Dihedral angle
| 13> { D 0  4  3  2   C } # D for Dihedral angle
| 14> { D 4  3  2  1   C } # D for Dihedral angle
| 15> { D 3  2  1  0   C } # D for Dihedral angle
| 16> { D 2  1  0  4   C } # D for Dihedral angle
| 17> { D 1  0  4  3   C } # D for Dihedral angle
| 18> { D 16  20  19  18   C } # D for Dihedral angle
| 19> { D 20  19  18  17   C } # D for Dihedral angle
| 20> { D 19  18  17  16   C } # D for Dihedral angle
| 21> { D 18  17  16  20   C } # D for Dihedral angle
| 22> { D 17  16  20  19   C } # D for Dihedral angle
| 23> { D 15  12  16  20   C } # D for Dihedral angle
| 24> end
| 25> end
| 26>
| 27>
| 28> #%pal
| 29> #nprocs 8
| 30> #end
| 31>
| 32> * xyz 0 1
| 33> C  -21.048   26.222   46.251
| 34> C  -20.361   27.558   45.944
| 35> C  -20.329   28.222   47.341
| 36> C  -20.110   27.022   48.296
| 37> O  -20.473   25.807   47.535
| 38> H  -20.833   25.428   45.533
| 39> H  -19.344   27.382   45.576
| 40> H  -20.898   28.157   45.201
| 41> H  -19.543   28.978   47.434
| 42> H  -21.289   28.710   47.548
| 43> H  -20.733   27.082   49.195
| 44> H  -19.064   26.913   48.597
| 45> C  -23.128   26.462   47.829
| 46> H  -22.864   25.538   48.358
| 47> H  -22.677   27.306   48.368
| 48> O  -22.586   26.394   46.375
| 49> C  -24.671   26.634   47.888
| 50> C  -25.390   25.412   47.305
| 51> C  -25.303   24.408   48.480
| 52> C  -25.430   25.317   49.729
| 53> O  -25.128   26.693   49.280
| 54> H  -24.943   27.583   47.422
| 55> O  -26.870   25.764   46.993
| 56> H  -24.925   25.035   46.388
| 57> H  -26.082   23.641   48.441
| 58> H  -24.331   23.900   48.468
| 59> H  -24.730   25.037   50.523
| 60> H  -26.444   25.325   50.137
| 61> H  -27.358   26.144   47.899
| 62> *
| 63>
| 64>                          ****END OF INPUT****
 Total Charge           Charge          ....    0
 Multiplicity           Mult            ....    1
 Number of Electrons    NEL             ....  102
FINAL SINGLE POINT ENERGY      -652.833841418012
FINAL SINGLE POINT ENERGY      -652.857222032248
FINAL SINGLE POINT ENERGY      -652.861706006606
FINAL SINGLE POINT ENERGY      -652.862396766568
FINAL SINGLE POINT ENERGY      -652.862488753084
FINAL SINGLE POINT ENERGY      -652.862504432735
                    ***********************HURRAY********************

CARTESIAN COORDINATES (ANGSTROEM)
---------------------------------
  C    -21.179369   26.245673   46.399913
  C    -20.547567   27.564685   45.948198
  C    -20.267155   28.263801   47.302210
  C    -19.894602   27.086240   48.231816
  O    -20.404936   25.860334   47.555978
  H    -21.087156   25.434040   45.675620
  H    -19.613951   27.352128   45.414396
  H    -21.211211   28.134966   45.294692
  H    -19.463661   29.003729   47.235170
  H    -21.166846   28.777867   47.655805
  H    -20.346861   27.154100   49.224855
  H    -18.813773   26.955084   48.337020
  C    -23.095376   26.442984   48.019319
  H    -22.799029   25.547536   48.577968
  H    -22.706152   27.319576   48.551048
  O    -22.608948   26.373754   46.649535
  C    -24.614144   26.571911   47.926592
  C    -25.330328   25.376686   47.282464
  C    -25.372797   24.368439   48.458661
  C    -25.564207   25.276832   49.698911
  O    -25.176122   26.648114   49.280138
  H    -24.873369   27.502228   47.413975
  O    -26.666567   25.751058   46.844463
  H    -24.819699   25.003145   46.397232
  H    -26.187921   23.652448   48.325096
  H    -24.431951   23.810623   48.514992
  H    -24.942975   24.975609   50.547724
  H    -26.606391   25.325456   50.029255
  H    -27.091937   26.294951   47.540953

 Multiplicity           Mult            ....    1
 Number of Electrons    NEL             ....  102
 Basis Dimension        Dim             ....  149

ORBITAL ENERGIES
----------------

  NO   OCC          E(Eh)            E(eV)
   0   2.0000     -19.152662      -521.1704
   1   2.0000     -19.142893      -520.9046
   2   2.0000     -19.142120      -520.8836
   3   2.0000     -19.131290      -520.5889
   4   2.0000     -10.281961      -279.7864
   5   2.0000     -10.235092      -278.5110
   6   2.0000     -10.231404      -278.4107
   7   2.0000     -10.230140      -278.3763
   8   2.0000     -10.229288      -278.3531
   9   2.0000     -10.229140      -278.3491
  10   2.0000     -10.194559      -277.4081
  11   2.0000     -10.188523      -277.2438
  12   2.0000     -10.184114      -277.1238
  13   2.0000      -1.057709       -28.7817
  14   2.0000      -1.033284       -28.1171
  15   2.0000      -1.001126       -27.2420
  16   2.0000      -0.995850       -27.0985
  17   2.0000      -0.793372       -21.5888
  18   2.0000      -0.778238       -21.1769
  19   2.0000      -0.768140       -20.9022
  20   2.0000      -0.733249       -19.9527
  21   2.0000      -0.673351       -18.3228
  22   2.0000      -0.606866       -16.5137
  23   2.0000      -0.601229       -16.3603
  24   2.0000      -0.593019       -16.1369
  25   2.0000      -0.576094       -15.6763
  26   2.0000      -0.522174       -14.2091
  27   2.0000      -0.515188       -14.0190
  28   2.0000      -0.502546       -13.6750
  29   2.0000      -0.489736       -13.3264
  30   2.0000      -0.473000       -12.8710
  31   2.0000      -0.457140       -12.4394
  32   2.0000      -0.447344       -12.1729
  33   2.0000      -0.437282       -11.8991
  34   2.0000      -0.420527       -11.4431
  35   2.0000      -0.417252       -11.3540
  36   2.0000      -0.404926       -11.0186
  37   2.0000      -0.389171       -10.5899
  38   2.0000      -0.378224       -10.2920
  39   2.0000      -0.364244        -9.9116
  40   2.0000      -0.363713        -9.8971
  41   2.0000      -0.357735        -9.7345
  42   2.0000      -0.350694        -9.5429
  43   2.0000      -0.338968        -9.2238
  44   2.0000      -0.325148        -8.8477
  45   2.0000      -0.313208        -8.5228
  46   2.0000      -0.301993        -8.2177
  47   2.0000      -0.269102        -7.3226
  48   2.0000      -0.264055        -7.1853
  49   2.0000      -0.250801        -6.8246
  50   2.0000      -0.245559        -6.6820
  51   0.0000       0.067590         1.8392
  52   0.0000       0.068954         1.8763
  53   0.0000       0.095321         2.5938
  54   0.0000       0.097088         2.6419
  55   0.0000       0.101205         2.7539

MULLIKEN ATOMIC CHARGES
-----------------------
   0 C :    0.300866
   1 C :   -0.256557
   2 C :   -0.313906
   3 C :   -0.019380
   4 O :   -0.510858
   5 H :    0.160764
   6 H :    0.146774
   7 H :    0.160424
   8 H :    0.149640
   9 H :    0.156684
  10 H :    0.148717
  11 H :    0.153081
  12 C :    0.004388
  13 H :    0.148426
  14 H :    0.136048
  15 O :   -0.547456
  16 C :    0.054490
  17 C :    0.092642
  18 C :   -0.300279
  19 C :   -0.031795
  20 O :   -0.530383
  21 H :    0.163106
  22 O :   -0.603835
  23 H :    0.175535
  24 H :    0.161682
  25 H :    0.149133
  26 H :    0.146287
  27 H :    0.145150
  28 H :    0.360609
Sum of atomic charges:   -0.0000000

LOEWDIN ATOMIC CHARGES
----------------------
   0 C :    0.181896
   1 C :   -0.222783
   2 C :   -0.221121
   3 C :   -0.033908
   4 O :   -0.318570
   5 H :    0.108784
   6 H :    0.115319
   7 H :    0.125295
   8 H :    0.118533
   9 H :    0.113760
  10 H :    0.104170
  11 H :    0.108047
  12 C :   -0.037173
  13 H :    0.102368
  14 H :    0.097035
  15 O :   -0.343519
  16 C :    0.018689
  17 C :    0.039140
  18 C :   -0.241715
  19 C :   -0.038687
  20 O :   -0.332704
  21 H :    0.116824
  22 O :   -0.415459
  23 H :    0.127669
  24 H :    0.126375
  25 H :    0.115708
  26 H :    0.103700
  27 H :    0.102126
  28 H :    0.280201

  Mayer bond orders larger than 0.100000
B(  0-C ,  1-C ) :   0.9250 B(  0-C ,  4-O ) :   0.9148 B(  0-C ,  5-H ) :   0.9328
B(  0-C , 15-O ) :   0.8448 B(  1-C ,  2-C ) :   0.9518 B(  1-C ,  6-H ) :   0.9346
B(  1-C ,  7-H ) :   0.9362 B(  2-C ,  3-C ) :   0.9521 B(  2-C ,  8-H ) :   0.9440
B(  2-C ,  9-H ) :   0.9428 B(  3-C ,  4-O ) :   0.8293 B(  3-C , 10-H ) :   0.9319
B(  3-C , 11-H ) :   0.9395 B( 12-C , 13-H ) :   0.9179 B( 12-C , 14-H ) :   0.9101
B( 12-C , 15-O ) :   0.8131 B( 12-C , 16-C ) :   0.9043 B( 16-C , 17-C ) :   0.9133
B( 16-C , 20-O ) :   0.8444 B( 16-C , 21-H ) :   0.9255 B( 17-C , 18-C ) :   0.9123
B( 17-C , 22-O ) :   0.8873 B( 17-C , 23-H ) :   0.9237 B( 18-C , 19-C ) :   0.9421
B( 18-C , 24-H ) :   0.9376 B( 18-C , 25-H ) :   0.9341 B( 19-C , 20-O ) :   0.8436
B( 19-C , 26-H ) :   0.9353 B( 19-C , 27-H ) :   0.9384 B( 22-O , 28-H ) :   0.7970

FINAL SINGLE POINT ENERGY      -652.862505622066

DIPOLE MOMENT
-------------
                                X             Y             Z
Electronic contribution:     -3.22494      -1.15793      -1.45616
Nuclear contribution   :      4.10121       1.47715       1.94255
                        -----------------------------------------
Total Dipole Moment    :      0.87627       0.31922       0.48639
                        -----------------------------------------
Magnitude (a.u.)       :      1.05182
Magnitude (Debye)      :      2.67351

Rotational constants in cm-1:     0.057263     0.012933     0.012219
Rotational constants in MHz :  1716.695165   387.707124   366.315505

                             ****ORCA TERMINATED NORMALLY****
TOTAL RUN TIME: 0 days 0 hours 14 minutes 36 seconds 42 msec
