                         Program Version 4.2.0 -  RELEASE  -
|  1> # Test redundant internal optimization
|  2> #
|  3> ! RKS B3LYP  Opt TightSCF SmallPrint
|  4>
|  5> %basis
|  6>         Basis "6-31G"
|  7> end
|  8>
|  9> %geom
| 10> Constraints
| 11> { D 4  0  15  12  315.0   C } # D for Dihedral angle
| 12> { D 0  15  12  16  270.0   C } # D for Dihedral angle
| 13> { D 0  4  3  2   C } # D for Dihedral angle
| 14> { D 4  3  2  1   C } # D for Dihedral angle
| 15> { D 3  2  1  0   C } # D for Dihedral angle
| 16> { D 2  1  0  4   C } # D for Dihedral angle
| 17> { D 1  0  4  3   C } # D for Dihedral angle
| 18> { D 16  20  19  18   C } # D for Dihedral angle
| 19> { D 20  19  18  17   C } # D for Dihedral angle
| 20> { D 19  18  17  16   C } # D for Dihedral angle
| 21> { D 18  17  16  20   C } # D for Dihedral angle
| 22> { D 17  16  20  19   C } # D for Dihedral angle
| 23> { D 15  12  16  20   C } # D for Dihedral angle
| 24> end
| 25> end
| 26>
| 27>
| 28> #%pal
| 29> #nprocs 8
| 30> #end
| 31>
| 32> * xyz 0 1
| 33> C  -21.048   26.222   46.251
| 34> C  -20.361   27.558   45.944
| 35> C  -20.329   28.222   47.341
| 36> C  -20.110   27.022   48.296
| 37> O  -20.473   25.807   47.535
| 38> H  -20.833   25.428   45.533
| 39> H  -19.344   27.382   45.576
| 40> H  -20.898   28.157   45.201
| 41> H  -19.543   28.978   47.434
| 42> H  -21.289   28.710   47.548
| 43> H  -20.733   27.082   49.195
| 44> H  -19.064   26.913   48.597
| 45> C  -23.319   25.255   47.135
| 46> H  -22.645   24.832   47.891
| 47> H  -24.208   25.645   47.648
| 48> O  -22.586   26.394   46.375
| 49> C  -23.781   24.106   46.196
| 50> C  -24.657   24.638   45.056
| 51> C  -23.596   25.212   44.086
| 52> C  -22.407   24.233   44.247
| 53> O  -22.629   23.505   45.516
| 54> H  -24.245   23.320   46.793
| 55> H  -25.204   23.813   44.586
| 56> O  -25.685   25.705   45.522
| 57> H  -23.952   25.270   43.052
| 58> H  -23.309   26.223   44.398
| 59> H  -21.442   24.748   44.292
| 60> H  -22.371   23.484   43.449
| 61> H  -25.159   26.540   45.996
| 62> *
| 63>
| 64>                          ****END OF INPUT****
 Total Charge           Charge          ....    0
 Multiplicity           Mult            ....    1
 Number of Electrons    NEL             ....  102
FINAL SINGLE POINT ENERGY      -652.828860776224
FINAL SINGLE POINT ENERGY      -652.854695788477
FINAL SINGLE POINT ENERGY      -652.862675004452
FINAL SINGLE POINT ENERGY      -652.865767401956
FINAL SINGLE POINT ENERGY      -652.866140046219
FINAL SINGLE POINT ENERGY      -652.866203021353
FINAL SINGLE POINT ENERGY      -652.866209633350
                    ***********************HURRAY********************

CARTESIAN COORDINATES (ANGSTROEM)
---------------------------------
  C    -20.984598   26.267236   46.308842
  C    -20.377902   27.650370   46.076800
  C    -20.365809   28.233166   47.507531
  C    -20.071188   27.001177   48.389495
  O    -20.383434   25.815253   47.542367
  H    -20.750377   25.500409   45.570837
  H    -19.360956   27.535774   45.684951
  H    -20.964766   28.247574   45.375195
  H    -19.617278   29.021275   47.634142
  H    -21.349846   28.649335   47.741645
  H    -20.683852   26.959785   49.293498
  H    -19.016177   26.913879   48.663873
  C    -23.161632   25.369389   47.099491
  H    -22.519816   24.948861   47.879500
  H    -24.026780   25.850087   47.566662
  O    -22.428163   26.441632   46.422235
  C    -23.661712   24.245592   46.191939
  C    -24.665898   24.665242   45.103112
  C    -23.719359   25.070190   43.931290
  C    -22.551874   24.070648   44.078003
  O    -22.630047   23.520145   45.457476
  H    -24.118777   23.505771   46.862521
  H    -25.293814   23.815791   44.827037
  O    -25.594388   25.699916   45.505535
  H    -24.212533   25.005864   42.957383
  H    -23.380257   26.097610   44.094707
  H    -21.571853   24.533631   43.928038
  H    -22.642289   23.218660   43.397064
  H    -25.114624   26.549736   45.597831

 Multiplicity           Mult            ....    1
 Number of Electrons    NEL             ....  102
 Basis Dimension        Dim             ....  149

ORBITAL ENERGIES
----------------

  NO   OCC          E(Eh)            E(eV)
   0   2.0000     -19.147756      -521.0369
   1   2.0000     -19.146811      -521.0112
   2   2.0000     -19.139749      -520.8190
   3   2.0000     -19.138284      -520.7792
   4   2.0000     -10.279413      -279.7171
   5   2.0000     -10.236318      -278.5444
   6   2.0000     -10.229389      -278.3558
   7   2.0000     -10.227440      -278.3028
   8   2.0000     -10.227188      -278.2959
   9   2.0000     -10.222862      -278.1782
  10   2.0000     -10.188925      -277.2547
  11   2.0000     -10.188809      -277.2516
  12   2.0000     -10.183420      -277.1049
  13   2.0000      -1.056367       -28.7452
  14   2.0000      -1.027583       -27.9620
  15   2.0000      -1.010404       -27.4945
  16   2.0000      -0.992927       -27.0189
  17   2.0000      -0.792447       -21.5636
  18   2.0000      -0.772621       -21.0241
  19   2.0000      -0.765843       -20.8396
  20   2.0000      -0.733093       -19.9485
  21   2.0000      -0.676323       -18.4037
  22   2.0000      -0.604233       -16.4420
  23   2.0000      -0.603714       -16.4279
  24   2.0000      -0.598483       -16.2856
  25   2.0000      -0.562456       -15.3052
  26   2.0000      -0.527823       -14.3628
  27   2.0000      -0.508495       -13.8369
  28   2.0000      -0.497246       -13.5307
  29   2.0000      -0.489994       -13.3334
  30   2.0000      -0.464630       -12.6432
  31   2.0000      -0.461518       -12.5586
  32   2.0000      -0.438840       -11.9414
  33   2.0000      -0.437588       -11.9074
  34   2.0000      -0.424192       -11.5429
  35   2.0000      -0.410634       -11.1739
  36   2.0000      -0.403446       -10.9783
  37   2.0000      -0.392738       -10.6869
  38   2.0000      -0.381079       -10.3697
  39   2.0000      -0.366339        -9.9686
  40   2.0000      -0.360434        -9.8079
  41   2.0000      -0.356784        -9.7086
  42   2.0000      -0.347980        -9.4690
  43   2.0000      -0.334382        -9.0990
  44   2.0000      -0.326952        -8.8968
  45   2.0000      -0.308960        -8.4072
  46   2.0000      -0.298677        -8.1274
  47   2.0000      -0.274730        -7.4758
  48   2.0000      -0.263266        -7.1638
  49   2.0000      -0.260824        -7.0974
  50   2.0000      -0.236471        -6.4347
  51   0.0000       0.069882         1.9016
  52   0.0000       0.077866         2.1188
  53   0.0000       0.094682         2.5764
  54   0.0000       0.099386         2.7044
  55   0.0000       0.104999         2.8572

MULLIKEN ATOMIC CHARGES
-----------------------
   0 C :    0.290441
   1 C :   -0.264098
   2 C :   -0.297946
   3 C :   -0.010496
   4 O :   -0.508328
   5 H :    0.167971
   6 H :    0.146875
   7 H :    0.153867
   8 H :    0.143534
   9 H :    0.159876
  10 H :    0.147642
  11 H :    0.147770
  12 C :   -0.054301
  13 H :    0.178835
  14 H :    0.147052
  15 O :   -0.544069
  16 C :    0.095581
  17 C :    0.090968
  18 C :   -0.314964
  19 C :   -0.010118
  20 O :   -0.519882
  21 H :    0.149387
  22 H :    0.162427
  23 O :   -0.607558
  24 H :    0.146263
  25 H :    0.158031
  26 H :    0.130406
  27 H :    0.148133
  28 H :    0.366704
Sum of atomic charges:   -0.0000000

LOEWDIN ATOMIC CHARGES
----------------------
   0 C :    0.175566
   1 C :   -0.216212
   2 C :   -0.216151
   3 C :   -0.029531
   4 O :   -0.317767
   5 H :    0.105737
   6 H :    0.115042
   7 H :    0.122412
   8 H :    0.114811
   9 H :    0.118018
  10 H :    0.105316
  11 H :    0.105631
  12 C :   -0.059469
  13 H :    0.122096
  14 H :    0.113017
  15 O :   -0.346584
  16 C :    0.009666
  17 C :    0.036544
  18 C :   -0.243066
  19 C :   -0.028318
  20 O :   -0.323174
  21 H :    0.114485
  22 H :    0.116351
  23 O :   -0.410727
  24 H :    0.116902
  25 H :    0.117220
  26 H :    0.093921
  27 H :    0.104404
  28 H :    0.283859

  Mayer bond orders larger than 0.100000
B(  0-C ,  1-C ) :   0.9462 B(  0-C ,  4-O ) :   0.9038 B(  0-C ,  5-H ) :   0.9060
B(  0-C , 15-O ) :   0.8335 B(  1-C ,  2-C ) :   0.9542 B(  1-C ,  6-H ) :   0.9389
B(  1-C ,  7-H ) :   0.9361 B(  2-C ,  3-C ) :   0.9556 B(  2-C ,  8-H ) :   0.9449
B(  2-C ,  9-H ) :   0.9446 B(  3-C ,  4-O ) :   0.8325 B(  3-C , 10-H ) :   0.9355
B(  3-C , 11-H ) :   0.9404 B( 12-C , 13-H ) :   0.9101 B( 12-C , 14-H ) :   0.9221
B( 12-C , 15-O ) :   0.8484 B( 12-C , 16-C ) :   0.8958 B( 16-C , 17-C ) :   0.8846
B( 16-C , 20-O ) :   0.8720 B( 16-C , 21-H ) :   0.9232 B( 17-C , 18-C ) :   0.9289
B( 17-C , 22-H ) :   0.9364 B( 17-C , 23-O ) :   0.9016 B( 18-C , 19-C ) :   0.9427
B( 18-C , 24-H ) :   0.9416 B( 18-C , 25-H ) :   0.9307 B( 19-C , 20-O ) :   0.8431
B( 19-C , 26-H ) :   0.9238 B( 19-C , 27-H ) :   0.9389 B( 23-O , 28-H ) :   0.7916

FINAL SINGLE POINT ENERGY      -652.866208915908

DIPOLE MOMENT
-------------
                                X             Y             Z
Electronic contribution:     -2.49382      -3.84441       0.69131
Nuclear contribution   :      3.09426       4.87045      -0.91300
                        -----------------------------------------
Total Dipole Moment    :      0.60044       1.02604      -0.22169
                        -----------------------------------------
Magnitude (a.u.)       :      1.20931
Magnitude (Debye)      :      3.07382

Rotational constants in cm-1:     0.050682     0.015619     0.014939
Rotational constants in MHz :  1519.420203   468.256585   447.858759

                             ****ORCA TERMINATED NORMALLY****
TOTAL RUN TIME: 0 days 0 hours 18 minutes 7 seconds 707 msec
