                         Program Version 4.2.0 -  RELEASE  -
|  1> # Test redundant internal optimization
|  2> #
|  3> ! RKS B3LYP  Opt TightSCF SmallPrint
|  4>
|  5> %basis
|  6>         Basis "6-31G"
|  7> end
|  8>
|  9> %geom
| 10> Constraints
| 11> { D 4  0  15  12  105.0   C } # D for Dihedral angle
| 12> { D 0  15  12  16  120.0   C } # D for Dihedral angle
| 13> { D 0  4  3  2   C } # D for Dihedral angle
| 14> { D 4  3  2  1   C } # D for Dihedral angle
| 15> { D 3  2  1  0   C } # D for Dihedral angle
| 16> { D 2  1  0  4   C } # D for Dihedral angle
| 17> { D 1  0  4  3   C } # D for Dihedral angle
| 18> { D 16  20  19  18   C } # D for Dihedral angle
| 19> { D 20  19  18  17   C } # D for Dihedral angle
| 20> { D 19  18  17  16   C } # D for Dihedral angle
| 21> { D 18  17  16  20   C } # D for Dihedral angle
| 22> { D 17  16  20  19   C } # D for Dihedral angle
| 23> { D 15  12  16  20   C } # D for Dihedral angle
| 24> end
| 25> end
| 26>
| 27>
| 28> #%pal
| 29> #nprocs 8
| 30> #end
| 31>
| 32> * xyz 0 1
| 33> C  -21.048   26.222   46.251
| 34> C  -20.361   27.558   45.944
| 35> C  -20.329   28.222   47.341
| 36> C  -20.110   27.022   48.296
| 37> O  -20.473   25.807   47.535
| 38> H  -20.833   25.428   45.533
| 39> H  -19.344   27.382   45.576
| 40> H  -20.898   28.157   45.201
| 41> H  -19.543   28.978   47.434
| 42> H  -21.289   28.710   47.548
| 43> H  -20.733   27.082   49.195
| 44> H  -19.064   26.913   48.597
| 45> C  -23.085   27.864   46.420
| 46> H  -23.610   28.039   47.367
| 47> H  -22.237   28.559   46.365
| 48> O  -22.586   26.394   46.375
| 49> C  -24.053   28.206   45.254
| 50> C  -25.350   27.396   45.352
| 51> C  -26.129   28.181   46.434
| 52> C  -25.723   29.651   46.163
| 53> O  -24.492   29.603   45.345
| 54> H  -23.523   28.099   44.306
| 55> O  -26.105   27.434   43.995
| 56> H  -25.184   26.348   45.624
| 57> H  -27.211   28.029   46.372
| 58> H  -25.804   27.868   47.433
| 59> H  -25.520   30.207   47.084
| 60> H  -26.475   30.192   45.582
| 61> H  -26.284   28.476   43.702
| 62> *
| 63>
| 64>                          ****END OF INPUT****
 Total Charge           Charge          ....    0
 Multiplicity           Mult            ....    1
 Number of Electrons    NEL             ....  102
FINAL SINGLE POINT ENERGY      -652.815099935037
FINAL SINGLE POINT ENERGY      -652.842179928751
FINAL SINGLE POINT ENERGY      -652.853843434308
FINAL SINGLE POINT ENERGY      -652.855796362023
FINAL SINGLE POINT ENERGY      -652.856121585927
FINAL SINGLE POINT ENERGY      -652.856168327192
FINAL SINGLE POINT ENERGY      -652.856162455393
                    ***********************HURRAY********************

CARTESIAN COORDINATES (ANGSTROEM)
---------------------------------
  C    -21.238813   26.393868   46.331225
  C    -20.265818   27.512646   45.935816
  C    -19.949843   28.172506   47.310896
  C    -19.963827   26.956707   48.271580
  O    -20.684887   25.877530   47.559491
  H    -21.241879   25.547238   45.643270
  H    -19.365648   27.050907   45.518261
  H    -20.666130   28.210554   45.195059
  H    -18.981362   28.682090   47.310002
  H    -20.710047   28.907758   47.588216
  H    -20.473024   27.163141   49.217558
  H    -18.958592   26.580720   48.482789
  C    -23.174328   28.076858   46.545909
  H    -23.704513   28.165765   47.501080
  H    -22.399908   28.846044   46.512872
  O    -22.643268   26.725811   46.449645
  C    -24.116717   28.306877   45.362860
  C    -25.349998   27.394766   45.322478
  C    -26.289100   28.094027   46.336750
  C    -25.979942   29.598034   46.130763
  O    -24.670153   29.664893   45.431557
  H    -23.551459   28.235491   44.428410
  O    -25.925884   27.363025   43.986225
  H    -25.120508   26.360586   45.572634
  H    -27.332838   27.842653   46.132912
  H    -26.053527   27.773264   47.357172
  H    -25.908746   30.152304   47.071344
  H    -26.712839   30.094988   45.487167
  H    -25.962401   28.275951   43.630059

 Multiplicity           Mult            ....    1
 Number of Electrons    NEL             ....  102
 Basis Dimension        Dim             ....  149

ORBITAL ENERGIES
----------------

  NO   OCC          E(Eh)            E(eV)
   0   2.0000     -19.146452      -521.0014
   1   2.0000     -19.145137      -520.9657
   2   2.0000     -19.139950      -520.8245
   3   2.0000     -19.134709      -520.6819
   4   2.0000     -10.282432      -279.7992
   5   2.0000     -10.234581      -278.4971
   6   2.0000     -10.234495      -278.4948
   7   2.0000     -10.233190      -278.4593
   8   2.0000     -10.232959      -278.4530
   9   2.0000     -10.229419      -278.3566
  10   2.0000     -10.197003      -277.4746
  11   2.0000     -10.196432      -277.4590
  12   2.0000     -10.187169      -277.2070
  13   2.0000      -1.051963       -28.6254
  14   2.0000      -1.036074       -28.1930
  15   2.0000      -1.004048       -27.3215
  16   2.0000      -0.997424       -27.1413
  17   2.0000      -0.792043       -21.5526
  18   2.0000      -0.781836       -21.2748
  19   2.0000      -0.770907       -20.9775
  20   2.0000      -0.734616       -19.9899
  21   2.0000      -0.681670       -18.5492
  22   2.0000      -0.607704       -16.5365
  23   2.0000      -0.603518       -16.4225
  24   2.0000      -0.600578       -16.3426
  25   2.0000      -0.573610       -15.6087
  26   2.0000      -0.527576       -14.3561
  27   2.0000      -0.513968       -13.9858
  28   2.0000      -0.504386       -13.7250
  29   2.0000      -0.491214       -13.3666
  30   2.0000      -0.474145       -12.9021
  31   2.0000      -0.461075       -12.5465
  32   2.0000      -0.449127       -12.2214
  33   2.0000      -0.439410       -11.9570
  34   2.0000      -0.429677       -11.6921
  35   2.0000      -0.414076       -11.2676
  36   2.0000      -0.408469       -11.1150
  37   2.0000      -0.392183       -10.6718
  38   2.0000      -0.386486       -10.5168
  39   2.0000      -0.368007       -10.0140
  40   2.0000      -0.364195        -9.9102
  41   2.0000      -0.359360        -9.7787
  42   2.0000      -0.356689        -9.7060
  43   2.0000      -0.330395        -8.9905
  44   2.0000      -0.317275        -8.6335
  45   2.0000      -0.308230        -8.3874
  46   2.0000      -0.293888        -7.9971
  47   2.0000      -0.278381        -7.5751
  48   2.0000      -0.266732        -7.2582
  49   2.0000      -0.258029        -7.0213
  50   2.0000      -0.242144        -6.5891
  51   0.0000       0.063203         1.7198
  52   0.0000       0.069728         1.8974
  53   0.0000       0.090144         2.4530
  54   0.0000       0.095018         2.5856
  55   0.0000       0.101708         2.7676

MULLIKEN ATOMIC CHARGES
-----------------------
   0 C :    0.314986
   1 C :   -0.304850
   2 C :   -0.314675
   3 C :   -0.006239
   4 O :   -0.496390
   5 H :    0.166377
   6 H :    0.161287
   7 H :    0.153389
   8 H :    0.148008
   9 H :    0.154264
  10 H :    0.147045
  11 H :    0.147378
  12 C :   -0.014869
  13 H :    0.141548
  14 H :    0.147910
  15 O :   -0.532946
  16 C :    0.059326
  17 C :    0.091213
  18 C :   -0.295577
  19 C :   -0.038098
  20 O :   -0.528776
  21 H :    0.156041
  22 O :   -0.604133
  23 H :    0.180710
  24 H :    0.162828
  25 H :    0.146675
  26 H :    0.147965
  27 H :    0.148326
  28 H :    0.361275
Sum of atomic charges:   -0.0000000

LOEWDIN ATOMIC CHARGES
----------------------
   0 C :    0.179211
   1 C :   -0.233134
   2 C :   -0.223477
   3 C :   -0.031272
   4 O :   -0.316160
   5 H :    0.111771
   6 H :    0.125869
   7 H :    0.118019
   8 H :    0.117162
   9 H :    0.110373
  10 H :    0.104540
  11 H :    0.104709
  12 C :   -0.041472
  13 H :    0.102965
  14 H :    0.106728
  15 O :   -0.327974
  16 C :    0.010790
  17 C :    0.038345
  18 C :   -0.240085
  19 C :   -0.040097
  20 O :   -0.334510
  21 H :    0.112570
  22 O :   -0.415573
  23 H :    0.130488
  24 H :    0.127127
  25 H :    0.114990
  26 H :    0.104379
  27 H :    0.103105
  28 H :    0.280613

  Mayer bond orders larger than 0.100000
B(  0-C ,  1-C ) :   0.9295 B(  0-C ,  4-O ) :   0.9122 B(  0-C ,  5-H ) :   0.9334
B(  0-C , 15-O ) :   0.8772 B(  1-C ,  2-C ) :   0.9513 B(  1-C ,  6-H ) :   0.9336
B(  1-C ,  7-H ) :   0.9306 B(  2-C ,  3-C ) :   0.9462 B(  2-C ,  8-H ) :   0.9453
B(  2-C ,  9-H ) :   0.9374 B(  3-C ,  4-O ) :   0.8475 B(  3-C , 10-H ) :   0.9344
B(  3-C , 11-H ) :   0.9392 B( 12-C , 13-H ) :   0.9320 B( 12-C , 14-H ) :   0.9039
B( 12-C , 15-O ) :   0.8295 B( 12-C , 16-C ) :   0.8881 B( 16-C , 17-C ) :   0.9159
B( 16-C , 20-O ) :   0.8422 B( 16-C , 21-H ) :   0.9273 B( 17-C , 18-C ) :   0.9125
B( 17-C , 22-O ) :   0.8874 B( 17-C , 23-H ) :   0.9223 B( 18-C , 19-C ) :   0.9421
B( 18-C , 24-H ) :   0.9376 B( 18-C , 25-H ) :   0.9346 B( 19-C , 20-O ) :   0.8433
B( 19-C , 26-H ) :   0.9351 B( 19-C , 27-H ) :   0.9373 B( 22-O , 28-H ) :   0.7968

FINAL SINGLE POINT ENERGY      -652.856160713999

DIPOLE MOMENT
-------------
                                X             Y             Z
Electronic contribution:     -2.01177      -3.15870      -2.56314
Nuclear contribution   :      2.52497       4.34086       3.01456
                        -----------------------------------------
Total Dipole Moment    :      0.51320       1.18215       0.45141
                        -----------------------------------------
Magnitude (a.u.)       :      1.36552
Magnitude (Debye)      :      3.47087

Rotational constants in cm-1:     0.059113     0.012312     0.011737
Rotational constants in MHz :  1772.163901   369.118369   351.880309

                             ****ORCA TERMINATED NORMALLY****
TOTAL RUN TIME: 0 days 0 hours 42 minutes 36 seconds 583 msec
