                         Program Version 4.2.0 -  RELEASE  -
|  1> # Test redundant internal optimization
|  2> #
|  3> ! RKS B3LYP  Opt TightSCF SmallPrint
|  4>
|  5> %basis
|  6>         Basis "6-31G"
|  7> end
|  8>
|  9> %geom
| 10> Constraints
| 11> { D 4  0  15  12  270.0   C } # D for Dihedral angle
| 12> { D 0  15  12  16  105.0   C } # D for Dihedral angle
| 13> { D 0  4  3  2   C } # D for Dihedral angle
| 14> { D 4  3  2  1   C } # D for Dihedral angle
| 15> { D 3  2  1  0   C } # D for Dihedral angle
| 16> { D 2  1  0  4   C } # D for Dihedral angle
| 17> { D 1  0  4  3   C } # D for Dihedral angle
| 18> { D 16  20  19  18   C } # D for Dihedral angle
| 19> { D 20  19  18  17   C } # D for Dihedral angle
| 20> { D 19  18  17  16   C } # D for Dihedral angle
| 21> { D 18  17  16  20   C } # D for Dihedral angle
| 22> { D 17  16  20  19   C } # D for Dihedral angle
| 23> { D 15  12  16  20   C } # D for Dihedral angle
| 24> end
| 25> end
| 26>
| 27>
| 28> #%pal
| 29> #nprocs 8
| 30> #end
| 31>
| 32> * xyz 0 1
| 33> C  -21.048   26.222   46.251
| 34> C  -20.361   27.558   45.944
| 35> C  -20.329   28.222   47.341
| 36> C  -20.110   27.022   48.296
| 37> O  -20.473   25.807   47.535
| 38> H  -20.833   25.428   45.533
| 39> H  -19.344   27.382   45.576
| 40> H  -20.898   28.157   45.201
| 41> H  -19.543   28.978   47.434
| 42> H  -21.289   28.710   47.548
| 43> H  -20.733   27.082   49.195
| 44> H  -19.064   26.913   48.597
| 45> C  -23.420   25.119   46.072
| 46> H  -24.261   25.383   45.420
| 47> H  -22.805   24.372   45.553
| 48> O  -22.586   26.394   46.375
| 49> C  -23.987   24.453   47.357
| 50> C  -24.704   23.138   47.032
| 51> C  -23.514   22.164   46.867
| 52> C  -22.494   22.676   47.915
| 53> O  -22.896   24.058   48.254
| 54> H  -24.598   25.180   47.896
| 55> O  -25.601   22.711   48.226
| 56> H  -25.330   23.200   46.135
| 57> H  -23.794   21.119   47.034
| 58> H  -23.100   22.243   45.855
| 59> H  -21.467   22.685   47.531
| 60> H  -22.520   22.096   48.842
| 61> H  -24.995   22.643   49.136
| 62> *
| 63>
| 64>                          ****END OF INPUT****
 Total Charge           Charge          ....    0
 Multiplicity           Mult            ....    1
 Number of Electrons    NEL             ....  102
FINAL SINGLE POINT ENERGY      -652.833332995018
FINAL SINGLE POINT ENERGY      -652.856582114334
FINAL SINGLE POINT ENERGY      -652.860919817578
FINAL SINGLE POINT ENERGY      -652.861639396873
FINAL SINGLE POINT ENERGY      -652.861731348947
FINAL SINGLE POINT ENERGY      -652.861743417962
                    ***********************HURRAY********************

CARTESIAN COORDINATES (ANGSTROEM)
---------------------------------
  C    -21.029430   26.176163   46.217682
  C    -20.500870   27.587804   45.966154
  C    -20.479992   28.182065   47.395381
  C    -20.098170   26.964198   48.266946
  O    -20.372520   25.769039   47.432898
  H    -20.779825   25.424891   45.460846
  H    -19.486195   27.527243   45.554853
  H    -21.133469   28.146464   45.273764
  H    -19.770403   29.008625   47.498176
  H    -21.478385   28.545003   47.655752
  H    -20.687076   26.889401   49.183758
  H    -19.032510   26.935880   48.514801
  C    -23.278531   25.123018   46.057287
  H    -24.120970   25.468566   45.445463
  H    -22.693953   24.400946   45.467090
  O    -22.468241   26.292020   46.340223
  C    -23.828084   24.467550   47.328714
  C    -24.647051   23.200514   47.045269
  C    -23.535904   22.123816   46.921486
  C    -22.484446   22.593669   47.959059
  O    -22.781320   24.017677   48.242118
  H    -24.416453   25.209694   47.877182
  O    -25.551629   22.910447   48.146788
  H    -25.283599   23.268491   46.161633
  H    -23.937612   21.130789   47.137051
  H    -23.122756   22.115065   45.906874
  H    -21.456616   22.517651   47.593527
  H    -22.560415   22.052245   48.907451
  H    -25.080578   23.066067   48.992777

 Multiplicity           Mult            ....    1
 Number of Electrons    NEL             ....  102
 Basis Dimension        Dim             ....  149

ORBITAL ENERGIES
----------------

  NO   OCC          E(Eh)            E(eV)
   0   2.0000     -19.140397      -520.8367
   1   2.0000     -19.136720      -520.7366
   2   2.0000     -19.136106      -520.7199
   3   2.0000     -19.130210      -520.5595
   4   2.0000     -10.274919      -279.5948
   5   2.0000     -10.240923      -278.6697
   6   2.0000     -10.233070      -278.4560
   7   2.0000     -10.229998      -278.3724
   8   2.0000     -10.225501      -278.2500
   9   2.0000     -10.216596      -278.0077
  10   2.0000     -10.187680      -277.2209
  11   2.0000     -10.179342      -276.9940
  12   2.0000     -10.178810      -276.9795
  13   2.0000      -1.047624       -28.5073
  14   2.0000      -1.032800       -28.1039
  15   2.0000      -1.003124       -27.2964
  16   2.0000      -0.990088       -26.9417
  17   2.0000      -0.786272       -21.3955
  18   2.0000      -0.777577       -21.1589
  19   2.0000      -0.762844       -20.7580
  20   2.0000      -0.726522       -19.7697
  21   2.0000      -0.671128       -18.2623
  22   2.0000      -0.601343       -16.3634
  23   2.0000      -0.591778       -16.1031
  24   2.0000      -0.591097       -16.0846
  25   2.0000      -0.581117       -15.8130
  26   2.0000      -0.522490       -14.2177
  27   2.0000      -0.510023       -13.8784
  28   2.0000      -0.490877       -13.3574
  29   2.0000      -0.481436       -13.1005
  30   2.0000      -0.472497       -12.8573
  31   2.0000      -0.454888       -12.3781
  32   2.0000      -0.450295       -12.2532
  33   2.0000      -0.432932       -11.7807
  34   2.0000      -0.422930       -11.5085
  35   2.0000      -0.406515       -11.0618
  36   2.0000      -0.394472       -10.7341
  37   2.0000      -0.390495       -10.6259
  38   2.0000      -0.372242       -10.1292
  39   2.0000      -0.368823       -10.0362
  40   2.0000      -0.351160        -9.5555
  41   2.0000      -0.349548        -9.5117
  42   2.0000      -0.342639        -9.3237
  43   2.0000      -0.332316        -9.0428
  44   2.0000      -0.316736        -8.6188
  45   2.0000      -0.301780        -8.2119
  46   2.0000      -0.297395        -8.0925
  47   2.0000      -0.269646        -7.3375
  48   2.0000      -0.266025        -7.2389
  49   2.0000      -0.249868        -6.7993
  50   2.0000      -0.230983        -6.2854
  51   0.0000       0.067251         1.8300
  52   0.0000       0.085857         2.3363
  53   0.0000       0.089270         2.4292
  54   0.0000       0.102298         2.7837
  55   0.0000       0.110916         3.0182

MULLIKEN ATOMIC CHARGES
-----------------------
   0 C :    0.293703
   1 C :   -0.260167
   2 C :   -0.298850
   3 C :   -0.000314
   4 O :   -0.494910
   5 H :    0.133103
   6 H :    0.141161
   7 H :    0.151235
   8 H :    0.137547
   9 H :    0.162386
  10 H :    0.155250
  11 H :    0.137184
  12 C :   -0.008076
  13 H :    0.143895
  14 H :    0.119837
  15 O :   -0.514205
  16 C :    0.074840
  17 C :    0.073414
  18 C :   -0.288661
  19 C :   -0.030450
  20 O :   -0.501608
  21 H :    0.163346
  22 O :   -0.603867
  23 H :    0.148418
  24 H :    0.160921
  25 H :    0.138206
  26 H :    0.156458
  27 H :    0.144104
  28 H :    0.366100
Sum of atomic charges:   -0.0000000

LOEWDIN ATOMIC CHARGES
----------------------
   0 C :    0.175504
   1 C :   -0.217772
   2 C :   -0.216270
   3 C :   -0.026355
   4 O :   -0.315028
   5 H :    0.092696
   6 H :    0.111561
   7 H :    0.120762
   8 H :    0.111656
   9 H :    0.119199
  10 H :    0.109887
  11 H :    0.099955
  12 C :   -0.040181
  13 H :    0.108692
  14 H :    0.091980
  15 O :   -0.322503
  16 C :    0.009396
  17 C :    0.033206
  18 C :   -0.240005
  19 C :   -0.037661
  20 O :   -0.314921
  21 H :    0.117657
  22 O :   -0.415791
  23 H :    0.113472
  24 H :    0.126052
  25 H :    0.109797
  26 H :    0.109577
  27 H :    0.101597
  28 H :    0.283839

  Mayer bond orders larger than 0.100000
B(  0-C ,  1-C ) :   0.9466 B(  0-C ,  4-O ) :   0.9301 B(  0-C ,  5-H ) :   0.9194
B(  0-C , 15-O ) :   0.8502 B(  1-C ,  2-C ) :   0.9596 B(  1-C ,  6-H ) :   0.9404
B(  1-C ,  7-H ) :   0.9374 B(  2-C ,  3-C ) :   0.9541 B(  2-C ,  8-H ) :   0.9455
B(  2-C ,  9-H ) :   0.9442 B(  3-C ,  4-O ) :   0.8388 B(  3-C , 10-H ) :   0.9336
B(  3-C , 11-H ) :   0.9402 B( 12-C , 13-H ) :   0.9259 B( 12-C , 14-H ) :   0.9203
B( 12-C , 15-O ) :   0.8617 B( 12-C , 16-C ) :   0.8847 B( 16-C , 17-C ) :   0.8948
B( 16-C , 20-O ) :   0.8750 B( 16-C , 21-H ) :   0.9260 B( 17-C , 18-C ) :   0.9098
B( 17-C , 22-O ) :   0.8900 B( 17-C , 23-H ) :   0.9334 B( 18-C , 19-C ) :   0.9383
B( 18-C , 24-H ) :   0.9377 B( 18-C , 25-H ) :   0.9345 B( 19-C , 20-O ) :   0.8497
B( 19-C , 26-H ) :   0.9322 B( 19-C , 27-H ) :   0.9377 B( 22-O , 28-H ) :   0.7933

FINAL SINGLE POINT ENERGY      -652.861745550584

DIPOLE MOMENT
-------------
                                X             Y             Z
Electronic contribution:     -2.67215      -1.33037       1.69300
Nuclear contribution   :      3.22131       1.37919      -2.34834
                        -----------------------------------------
Total Dipole Moment    :      0.54917       0.04882      -0.65534
                        -----------------------------------------
Magnitude (a.u.)       :      0.85641
Magnitude (Debye)      :      2.17681

Rotational constants in cm-1:     0.061546     0.013606     0.012843
Rotational constants in MHz :  1845.102705   407.893944   385.030314

                             ****ORCA TERMINATED NORMALLY****
TOTAL RUN TIME: 0 days 1 hours 26 minutes 56 seconds 288 msec
