                         Program Version 4.2.0 -  RELEASE  -
|  1> # Test redundant internal optimization
|  2> #
|  3> ! RKS B3LYP  Opt TightSCF SmallPrint
|  4>
|  5> %basis
|  6>         Basis "6-31G"
|  7> end
|  8>
|  9> %geom
| 10> Constraints
| 11> { D 4  0  15  12  120.0   C } # D for Dihedral angle
| 12> { D 0  15  12  16  240.0   C } # D for Dihedral angle
| 13> { D 0  4  3  2   C } # D for Dihedral angle
| 14> { D 4  3  2  1   C } # D for Dihedral angle
| 15> { D 3  2  1  0   C } # D for Dihedral angle
| 16> { D 2  1  0  4   C } # D for Dihedral angle
| 17> { D 1  0  4  3   C } # D for Dihedral angle
| 18> { D 16  20  19  18   C } # D for Dihedral angle
| 19> { D 20  19  18  17   C } # D for Dihedral angle
| 20> { D 19  18  17  16   C } # D for Dihedral angle
| 21> { D 18  17  16  20   C } # D for Dihedral angle
| 22> { D 17  16  20  19   C } # D for Dihedral angle
| 23> { D 15  12  16  20   C } # D for Dihedral angle
| 24> end
| 25> end
| 26>
| 27>
| 28> #%pal
| 29> #nprocs 8
| 30> #end
| 31>
| 32> * xyz 0 1
| 33> C  -21.048   26.222   46.251
| 34> C  -20.361   27.558   45.944
| 35> C  -20.329   28.222   47.341
| 36> C  -20.110   27.022   48.296
| 37> O  -20.473   25.807   47.535
| 38> H  -20.833   25.428   45.533
| 39> H  -19.344   27.382   45.576
| 40> H  -20.898   28.157   45.201
| 41> H  -19.543   28.978   47.434
| 42> H  -21.289   28.710   47.548
| 43> H  -20.733   27.082   49.195
| 44> H  -19.064   26.913   48.597
| 45> C  -23.119   27.818   46.058
| 46> H  -22.278   28.467   45.784
| 47> H  -23.817   27.787   45.211
| 48> O  -22.586   26.394   46.375
| 49> C  -23.862   28.463   47.260
| 50> C  -25.001   27.565   47.757
| 51> C  -24.231   26.518   48.597
| 52> C  -23.078   27.345   49.219
| 53> O  -22.965   28.581   48.414
| 54> H  -24.170   29.474   46.990
| 55> O  -25.970   28.381   48.655
| 56> H  -25.581   27.114   46.945
| 57> H  -24.857   26.038   49.356
| 58> H  -23.833   25.731   47.945
| 59> H  -22.121   26.813   49.197
| 60> H  -23.290   27.649   50.248
| 61> H  -25.411   28.842   49.477
| 62> *
| 63>
| 64>                          ****END OF INPUT****
 Total Charge           Charge          ....    0
 Multiplicity           Mult            ....    1
 Number of Electrons    NEL             ....  102
FINAL SINGLE POINT ENERGY      -652.803981385169
FINAL SINGLE POINT ENERGY      -652.837277379509
FINAL SINGLE POINT ENERGY      -652.853345653949
FINAL SINGLE POINT ENERGY      -652.856751360174
FINAL SINGLE POINT ENERGY      -652.857374368939
FINAL SINGLE POINT ENERGY      -652.857496012570
FINAL SINGLE POINT ENERGY      -652.857512291143
FINAL SINGLE POINT ENERGY      -652.857518437938
                    ***********************HURRAY********************

CARTESIAN COORDINATES (ANGSTROEM)
---------------------------------
  C    -21.081817   26.387256   46.248022
  C    -20.186807   27.572204   45.867001
  C    -19.946679   28.251729   47.244149
  C    -19.888433   27.048349   48.211351
  O    -20.518754   25.910985   47.485920
  H    -20.984763   25.542382   45.561811
  H    -19.251394   27.162828   45.471645
  H    -20.604858   28.239456   45.109456
  H    -19.024767   28.840772   47.261188
  H    -20.784101   28.902891   47.510786
  H    -20.423103   27.229079   49.144524
  H    -18.864892   26.735499   48.438009
  C    -23.169633   27.870616   46.107602
  H    -22.438769   28.640474   45.846024
  H    -23.856799   27.752707   45.259341
  O    -22.524483   26.585705   46.329956
  C    -23.958913   28.357452   47.323667
  C    -25.126307   27.479863   47.797166
  C    -24.402172   26.472653   48.724968
  C    -23.285772   27.320468   49.373349
  O    -23.125028   28.530502   48.515416
  H    -24.343013   29.354072   47.069227
  O    -26.118535   28.279206   48.500993
  H    -25.671659   27.002081   46.983130
  H    -25.094296   26.045021   49.455752
  H    -23.964806   25.675718   48.120380
  H    -22.341399   26.779239   49.411434
  H    -23.542523   27.679523   50.375622
  H    -25.670526   28.812271   49.191111

 Multiplicity           Mult            ....    1
 Number of Electrons    NEL             ....  102
 Basis Dimension        Dim             ....  149

ORBITAL ENERGIES
----------------

  NO   OCC          E(Eh)            E(eV)
   0   2.0000     -19.145752      -520.9824
   1   2.0000     -19.144702      -520.9538
   2   2.0000     -19.142975      -520.9068
   3   2.0000     -19.134338      -520.6718
   4   2.0000     -10.282100      -279.7902
   5   2.0000     -10.236951      -278.5616
   6   2.0000     -10.235400      -278.5194
   7   2.0000     -10.233716      -278.4736
   8   2.0000     -10.225191      -278.2416
   9   2.0000     -10.223270      -278.1893
  10   2.0000     -10.194755      -277.4134
  11   2.0000     -10.186416      -277.1865
  12   2.0000     -10.174363      -276.8585
  13   2.0000      -1.050939       -28.5975
  14   2.0000      -1.032673       -28.1005
  15   2.0000      -1.003920       -27.3181
  16   2.0000      -0.995004       -27.0754
  17   2.0000      -0.788726       -21.4623
  18   2.0000      -0.779416       -21.2090
  19   2.0000      -0.765716       -20.8362
  20   2.0000      -0.735085       -20.0027
  21   2.0000      -0.679760       -18.4972
  22   2.0000      -0.605747       -16.4832
  23   2.0000      -0.600859       -16.3502
  24   2.0000      -0.595919       -16.2158
  25   2.0000      -0.567924       -15.4540
  26   2.0000      -0.526241       -14.3197
  27   2.0000      -0.506917       -13.7939
  28   2.0000      -0.497485       -13.5372
  29   2.0000      -0.494646       -13.4600
  30   2.0000      -0.470343       -12.7987
  31   2.0000      -0.459702       -12.5091
  32   2.0000      -0.446312       -12.1448
  33   2.0000      -0.439692       -11.9646
  34   2.0000      -0.425224       -11.5709
  35   2.0000      -0.411514       -11.1979
  36   2.0000      -0.403267       -10.9735
  37   2.0000      -0.386341       -10.5129
  38   2.0000      -0.382800       -10.4165
  39   2.0000      -0.364086        -9.9073
  40   2.0000      -0.360279        -9.8037
  41   2.0000      -0.357645        -9.7320
  42   2.0000      -0.350620        -9.5408
  43   2.0000      -0.327241        -8.9047
  44   2.0000      -0.317983        -8.6528
  45   2.0000      -0.307366        -8.3639
  46   2.0000      -0.293258        -7.9800
  47   2.0000      -0.277513        -7.5515
  48   2.0000      -0.265364        -7.2209
  49   2.0000      -0.256927        -6.9913
  50   2.0000      -0.241632        -6.5751
  51   0.0000       0.065561         1.7840
  52   0.0000       0.080991         2.2039
  53   0.0000       0.096837         2.6351
  54   0.0000       0.099348         2.7034
  55   0.0000       0.104761         2.8507

MULLIKEN ATOMIC CHARGES
-----------------------
   0 C :    0.325596
   1 C :   -0.309814
   2 C :   -0.315792
   3 C :   -0.008022
   4 O :   -0.504154
   5 H :    0.159010
   6 H :    0.157830
   7 H :    0.146951
   8 H :    0.141063
   9 H :    0.184421
  10 H :    0.145234
  11 H :    0.143988
  12 C :   -0.012785
  13 H :    0.141044
  14 H :    0.142983
  15 O :   -0.534527
  16 C :    0.082053
  17 C :    0.079263
  18 C :   -0.290509
  19 C :   -0.034944
  20 O :   -0.534700
  21 H :    0.149872
  22 O :   -0.603777
  23 H :    0.153055
  24 H :    0.148255
  25 H :    0.186899
  26 H :    0.165654
  27 H :    0.134725
  28 H :    0.361128
Sum of atomic charges:   -0.0000000

LOEWDIN ATOMIC CHARGES
----------------------
   0 C :    0.182087
   1 C :   -0.232189
   2 C :   -0.226007
   3 C :   -0.029506
   4 O :   -0.316984
   5 H :    0.104884
   6 H :    0.123371
   7 H :    0.114876
   8 H :    0.114303
   9 H :    0.125546
  10 H :    0.103173
  11 H :    0.102458
  12 C :   -0.037254
  13 H :    0.104085
  14 H :    0.105645
  15 O :   -0.332593
  16 C :    0.008449
  17 C :    0.039094
  18 C :   -0.239647
  19 C :   -0.036470
  20 O :   -0.336087
  21 H :    0.113194
  22 O :   -0.417200
  23 H :    0.117180
  24 H :    0.119106
  25 H :    0.136675
  26 H :    0.112859
  27 H :    0.095953
  28 H :    0.281000

  Mayer bond orders larger than 0.100000
B(  0-C ,  1-C ) :   0.9309 B(  0-C ,  4-O ) :   0.9146 B(  0-C ,  5-H ) :   0.9345
B(  0-C , 15-O ) :   0.8610 B(  1-C ,  2-C ) :   0.9515 B(  1-C ,  6-H ) :   0.9332
B(  1-C ,  7-H ) :   0.9282 B(  2-C ,  3-C ) :   0.9535 B(  2-C ,  8-H ) :   0.9448
B(  2-C ,  9-H ) :   0.9229 B(  3-C ,  4-O ) :   0.8371 B(  3-C , 10-H ) :   0.9229
B(  3-C , 11-H ) :   0.9413 B( 12-C , 13-H ) :   0.9097 B( 12-C , 14-H ) :   0.9220
B( 12-C , 15-O ) :   0.8613 B( 12-C , 16-C ) :   0.8887 B( 16-C , 17-C ) :   0.9098
B( 16-C , 20-O ) :   0.8667 B( 16-C , 21-H ) :   0.9184 B( 17-C , 18-C ) :   0.9251
B( 17-C , 22-O ) :   0.8898 B( 17-C , 23-H ) :   0.9361 B( 18-C , 19-C ) :   0.9462
B( 18-C , 24-H ) :   0.9371 B( 18-C , 25-H ) :   0.9165 B( 19-C , 20-O ) :   0.8312
B( 19-C , 26-H ) :   0.9163 B( 19-C , 27-H ) :   0.9382 B( 22-O , 28-H ) :   0.7981

FINAL SINGLE POINT ENERGY      -652.857517783971

DIPOLE MOMENT
-------------
                                X             Y             Z
Electronic contribution:     -3.32445      -1.33503      -0.06370
Nuclear contribution   :      4.18876       1.92713      -0.29461
                        -----------------------------------------
Total Dipole Moment    :      0.86431       0.59210      -0.35831
                        -----------------------------------------
Magnitude (a.u.)       :      1.10725
Magnitude (Debye)      :      2.81441

Rotational constants in cm-1:     0.052838     0.017267     0.016288
Rotational constants in MHz :  1584.045524   517.656532   488.291087

                             ****ORCA TERMINATED NORMALLY****
TOTAL RUN TIME: 0 days 0 hours 39 minutes 7 seconds 10 msec
