                         Program Version 4.2.0 -  RELEASE  -
|  1> # Test redundant internal optimization
|  2> #
|  3> ! RKS B3LYP  Opt TightSCF SmallPrint
|  4>
|  5> %basis
|  6>         Basis "6-31G"
|  7> end
|  8>
|  9> %geom
| 10> Constraints
| 11> { D 4  0  15  12  195.0   C } # D for Dihedral angle
| 12> { D 0  15  12  16  135.0   C } # D for Dihedral angle
| 13> { D 0  4  3  2   C } # D for Dihedral angle
| 14> { D 4  3  2  1   C } # D for Dihedral angle
| 15> { D 3  2  1  0   C } # D for Dihedral angle
| 16> { D 2  1  0  4   C } # D for Dihedral angle
| 17> { D 1  0  4  3   C } # D for Dihedral angle
| 18> { D 16  20  19  18   C } # D for Dihedral angle
| 19> { D 20  19  18  17   C } # D for Dihedral angle
| 20> { D 19  18  17  16   C } # D for Dihedral angle
| 21> { D 18  17  16  20   C } # D for Dihedral angle
| 22> { D 17  16  20  19   C } # D for Dihedral angle
| 23> { D 15  12  16  20   C } # D for Dihedral angle
| 24> end
| 25> end
| 26>
| 27>
| 28> #%pal
| 29> #nprocs 8
| 30> #end
| 31>
| 32> * xyz 0 1
| 33> C  -21.048   26.222   46.251
| 34> C  -20.361   27.558   45.944
| 35> C  -20.329   28.222   47.341
| 36> C  -20.110   27.022   48.296
| 37> O  -20.473   25.807   47.535
| 38> H  -20.833   25.428   45.533
| 39> H  -19.344   27.382   45.576
| 40> H  -20.898   28.157   45.201
| 41> H  -19.543   28.978   47.434
| 42> H  -21.289   28.710   47.548
| 43> H  -20.733   27.082   49.195
| 44> H  -19.064   26.913   48.597
| 45> C  -23.353   26.472   45.026
| 46> H  -23.644   27.513   44.835
| 47> H  -22.712   26.138   44.200
| 48> O  -22.586   26.394   46.375
| 49> C  -24.635   25.595   45.013
| 50> C  -25.666   26.101   46.029
| 51> C  -26.290   27.298   45.273
| 52> C  -26.283   26.825   43.798
| 53> O  -25.319   25.706   43.720
| 54> H  -24.354   24.548   45.137
| 55> O  -26.733   25.004   46.296
| 56> H  -25.221   26.389   46.987
| 57> H  -27.296   27.546   45.627
| 58> H  -25.663   28.189   45.396
| 59> H  -25.973   27.614   43.105
| 60> H  -27.254   26.436   43.479
| 61> H  -27.194   24.700   45.349
| 62> *
| 63>
| 64>                          ****END OF INPUT****
 Total Charge           Charge          ....    0
 Multiplicity           Mult            ....    1
 Number of Electrons    NEL             ....  102
FINAL SINGLE POINT ENERGY      -652.835431942247
FINAL SINGLE POINT ENERGY      -652.858345009581
FINAL SINGLE POINT ENERGY      -652.861688169634
FINAL SINGLE POINT ENERGY      -652.862300894541
FINAL SINGLE POINT ENERGY      -652.862396796719
FINAL SINGLE POINT ENERGY      -652.862407982008
                    ***********************HURRAY********************

CARTESIAN COORDINATES (ANGSTROEM)
---------------------------------
  C    -21.138992   26.210373   46.164481
  C    -20.379718   27.511429   45.916481
  C    -20.438282   28.188068   47.307361
  C    -20.348871   26.990453   48.275446
  O    -20.701354   25.794531   47.462925
  H    -20.924006   25.398392   45.461638
  H    -19.345176   27.279071   45.637125
  H    -20.820486   28.122668   45.123368
  H    -19.629398   28.909055   47.458107
  H    -21.393443   28.708368   47.425553
  H    -21.046149   27.057452   49.113850
  H    -19.336931   26.821655   48.654675
  C    -23.265815   26.528935   44.944303
  H    -23.496164   27.579034   44.723212
  H    -22.641770   26.140695   44.127982
  O    -22.579115   26.431492   46.224942
  C    -24.536842   25.683813   45.026660
  C    -25.559787   26.150659   46.072188
  C    -26.259308   27.314656   45.327201
  C    -26.276672   26.835087   43.854564
  O    -25.262399   25.754819   43.752321
  H    -24.264400   24.637615   45.189145
  O    -26.494147   25.082264   46.392826
  H    -25.100718   26.439303   47.016048
  H    -27.260132   27.485660   45.730523
  H    -25.682631   28.239521   45.438704
  H    -26.024028   27.627870   43.143495
  H    -27.238637   26.401135   43.565179
  H    -26.755632   24.624926   45.565698

 Multiplicity           Mult            ....    1
 Number of Electrons    NEL             ....  102
 Basis Dimension        Dim             ....  149

ORBITAL ENERGIES
----------------

  NO   OCC          E(Eh)            E(eV)
   0   2.0000     -19.144879      -520.9586
   1   2.0000     -19.144772      -520.9557
   2   2.0000     -19.143022      -520.9081
   3   2.0000     -19.132525      -520.6225
   4   2.0000     -10.282991      -279.8144
   5   2.0000     -10.234409      -278.4924
   6   2.0000     -10.233716      -278.4736
   7   2.0000     -10.232058      -278.4285
   8   2.0000     -10.231725      -278.4194
   9   2.0000     -10.227019      -278.2913
  10   2.0000     -10.189692      -277.2756
  11   2.0000     -10.189153      -277.2609
  12   2.0000     -10.186624      -277.1921
  13   2.0000      -1.056408       -28.7463
  14   2.0000      -1.035036       -28.1648
  15   2.0000      -1.002617       -27.2826
  16   2.0000      -0.997720       -27.1493
  17   2.0000      -0.789902       -21.4943
  18   2.0000      -0.778971       -21.1969
  19   2.0000      -0.767947       -20.8969
  20   2.0000      -0.732078       -19.9209
  21   2.0000      -0.676527       -18.4092
  22   2.0000      -0.603641       -16.4259
  23   2.0000      -0.603023       -16.4091
  24   2.0000      -0.594271       -16.1709
  25   2.0000      -0.579811       -15.7775
  26   2.0000      -0.521993       -14.2041
  27   2.0000      -0.518407       -14.1066
  28   2.0000      -0.498806       -13.5732
  29   2.0000      -0.491125       -13.3642
  30   2.0000      -0.471168       -12.8211
  31   2.0000      -0.455871       -12.4049
  32   2.0000      -0.455153       -12.3853
  33   2.0000      -0.443067       -12.0565
  34   2.0000      -0.425474       -11.5777
  35   2.0000      -0.413948       -11.2641
  36   2.0000      -0.401399       -10.9226
  37   2.0000      -0.391028       -10.6404
  38   2.0000      -0.377308       -10.2671
  39   2.0000      -0.366892        -9.9837
  40   2.0000      -0.361285        -9.8311
  41   2.0000      -0.358285        -9.7494
  42   2.0000      -0.355209        -9.6657
  43   2.0000      -0.332215        -9.0400
  44   2.0000      -0.316309        -8.6072
  45   2.0000      -0.311681        -8.4813
  46   2.0000      -0.301008        -8.1908
  47   2.0000      -0.274365        -7.4658
  48   2.0000      -0.261126        -7.1056
  49   2.0000      -0.257317        -7.0019
  50   2.0000      -0.243259        -6.6194
  51   0.0000       0.066025         1.7966
  52   0.0000       0.071842         1.9549
  53   0.0000       0.095042         2.5862
  54   0.0000       0.097790         2.6610
  55   0.0000       0.104561         2.8452

MULLIKEN ATOMIC CHARGES
-----------------------
   0 C :    0.299874
   1 C :   -0.270726
   2 C :   -0.297851
   3 C :   -0.002455
   4 O :   -0.501698
   5 H :    0.143075
   6 H :    0.146670
   7 H :    0.143418
   8 H :    0.143339
   9 H :    0.158202
  10 H :    0.156403
  11 H :    0.143413
  12 C :   -0.020071
  13 H :    0.133278
  14 H :    0.142177
  15 O :   -0.514677
  16 C :    0.061845
  17 C :    0.094430
  18 C :   -0.297633
  19 C :   -0.032168
  20 O :   -0.528721
  21 H :    0.165251
  22 O :   -0.602664
  23 H :    0.178262
  24 H :    0.161947
  25 H :    0.142519
  26 H :    0.146178
  27 H :    0.146217
  28 H :    0.362164
Sum of atomic charges:   -0.0000000

LOEWDIN ATOMIC CHARGES
----------------------
   0 C :    0.180784
   1 C :   -0.230552
   2 C :   -0.216619
   3 C :   -0.024573
   4 O :   -0.302017
   5 H :    0.097884
   6 H :    0.115028
   7 H :    0.114243
   8 H :    0.115028
   9 H :    0.117207
  10 H :    0.110507
  11 H :    0.103417
  12 C :   -0.043417
  13 H :    0.095195
  14 H :    0.104355
  15 O :   -0.338474
  16 C :    0.015006
  17 C :    0.039882
  18 C :   -0.241299
  19 C :   -0.038546
  20 O :   -0.333382
  21 H :    0.119028
  22 O :   -0.414321
  23 H :    0.129364
  24 H :    0.126779
  25 H :    0.112454
  26 H :    0.103281
  27 H :    0.102687
  28 H :    0.281067

  Mayer bond orders larger than 0.100000
B(  0-C ,  1-C ) :   0.9278 B(  0-C ,  4-O ) :   0.9435 B(  0-C ,  5-H ) :   0.9189
B(  0-C , 15-O ) :   0.8262 B(  1-C ,  2-C ) :   0.9527 B(  1-C ,  6-H ) :   0.9339
B(  1-C ,  7-H ) :   0.9366 B(  2-C ,  3-C ) :   0.9556 B(  2-C ,  8-H ) :   0.9450
B(  2-C ,  9-H ) :   0.9449 B(  3-C ,  4-O ) :   0.8337 B(  3-C , 10-H ) :   0.9343
B(  3-C , 11-H ) :   0.9397 B( 12-C , 13-H ) :   0.9247 B( 12-C , 14-H ) :   0.9164
B( 12-C , 15-O ) :   0.8307 B( 12-C , 16-C ) :   0.8961 B( 16-C , 17-C ) :   0.9166
B( 16-C , 20-O ) :   0.8408 B( 16-C , 21-H ) :   0.9258 B( 17-C , 18-C ) :   0.9113
B( 17-C , 22-O ) :   0.8907 B( 17-C , 23-H ) :   0.9238 B( 18-C , 19-C ) :   0.9413
B( 18-C , 24-H ) :   0.9381 B( 18-C , 25-H ) :   0.9356 B( 19-C , 20-O ) :   0.8425
B( 19-C , 26-H ) :   0.9355 B( 19-C , 27-H ) :   0.9384 B( 22-O , 28-H ) :   0.7959

FINAL SINGLE POINT ENERGY      -652.862410113014

DIPOLE MOMENT
-------------
                                X             Y             Z
Electronic contribution:     -1.96932      -5.88396       0.28705
Nuclear contribution   :      2.46560       7.32421      -0.97133
                        -----------------------------------------
Total Dipole Moment    :      0.49628       1.44026      -0.68428
                        -----------------------------------------
Magnitude (a.u.)       :      1.66999
Magnitude (Debye)      :      4.24478

Rotational constants in cm-1:     0.058102     0.011900     0.011329
Rotational constants in MHz :  1741.868986   356.754740   339.633332

                             ****ORCA TERMINATED NORMALLY****
TOTAL RUN TIME: 0 days 0 hours 41 minutes 18 seconds 186 msec
