                         Program Version 4.2.0 -  RELEASE  -
|  1> # Test redundant internal optimization
|  2> #
|  3> ! RKS B3LYP  Opt TightSCF SmallPrint
|  4>
|  5> %basis
|  6>         Basis "6-31G"
|  7> end
|  8>
|  9> %geom
| 10> Constraints
| 11> { D 4  0  15  12  210.0   C } # D for Dihedral angle
| 12> { D 0  15  12  16  195.0   C } # D for Dihedral angle
| 13> { D 0  4  3  2   C } # D for Dihedral angle
| 14> { D 4  3  2  1   C } # D for Dihedral angle
| 15> { D 3  2  1  0   C } # D for Dihedral angle
| 16> { D 2  1  0  4   C } # D for Dihedral angle
| 17> { D 1  0  4  3   C } # D for Dihedral angle
| 18> { D 16  20  19  18   C } # D for Dihedral angle
| 19> { D 20  19  18  17   C } # D for Dihedral angle
| 20> { D 19  18  17  16   C } # D for Dihedral angle
| 21> { D 18  17  16  20   C } # D for Dihedral angle
| 22> { D 17  16  20  19   C } # D for Dihedral angle
| 23> { D 15  12  16  20   C } # D for Dihedral angle
| 24> end
| 25> end
| 26>
| 27>
| 28> #%pal
| 29> #nprocs 8
| 30> #end
| 31>
| 32> * xyz 0 1
| 33> C  -21.048   26.222   46.251
| 34> C  -20.361   27.558   45.944
| 35> C  -20.329   28.222   47.341
| 36> C  -20.110   27.022   48.296
| 37> O  -20.473   25.807   47.535
| 38> H  -20.833   25.428   45.533
| 39> H  -19.344   27.382   45.576
| 40> H  -20.898   28.157   45.201
| 41> H  -19.543   28.978   47.434
| 42> H  -21.289   28.710   47.548
| 43> H  -20.733   27.082   49.195
| 44> H  -19.064   26.913   48.597
| 45> C  -23.389   26.110   45.076
| 46> H  -22.885   26.588   44.227
| 47> H  -23.438   25.031   44.883
| 48> O  -22.586   26.394   46.375
| 49> C  -24.847   26.645   45.142
| 50> C  -25.589   26.088   46.362
| 51> C  -25.045   26.987   47.498
| 52> C  -24.863   28.360   46.804
| 53> O  -24.851   28.097   45.348
| 54> H  -25.340   26.456   44.187
| 55> H  -26.669   26.230   46.241
| 56> O  -25.317   24.579   46.606
| 57> H  -25.720   27.040   48.358
| 58> H  -24.080   26.603   47.852
| 59> H  -23.928   28.853   47.088
| 60> H  -25.697   29.040   47.001
| 61> H  -24.241   24.414   46.729
| 62> *
| 63>
| 64>                          ****END OF INPUT****
 Total Charge           Charge          ....    0
 Multiplicity           Mult            ....    1
 Number of Electrons    NEL             ....  102
FINAL SINGLE POINT ENERGY      -652.834358639704
FINAL SINGLE POINT ENERGY      -652.857757250349
FINAL SINGLE POINT ENERGY      -652.862071949476
FINAL SINGLE POINT ENERGY      -652.863454390696
FINAL SINGLE POINT ENERGY      -652.863589580741
FINAL SINGLE POINT ENERGY      -652.863609824597
                    ***********************HURRAY********************

CARTESIAN COORDINATES (ANGSTROEM)
---------------------------------
  C    -21.063253   26.213438   46.177369
  C    -20.377685   27.547858   45.894205
  C    -20.382294   28.211499   47.290706
  C    -20.182737   27.015511   48.244959
  O    -20.530360   25.806767   47.447131
  H    -20.850222   25.411595   45.462998
  H    -19.353373   27.364340   45.548958
  H    -20.900621   28.140969   45.139157
  H    -19.598684   28.967246   47.399074
  H    -21.349975   28.690861   47.466247
  H    -20.829215   27.049781   49.125151
  H    -19.143550   26.890282   48.562006
  C    -23.262950   26.115920   45.086845
  H    -22.778660   26.606254   44.231117
  H    -23.305216   25.034577   44.893433
  O    -22.505524   26.381830   46.304620
  C    -24.679781   26.664114   45.205776
  C    -25.510663   26.078548   46.360275
  C    -25.084325   26.984220   47.556331
  C    -24.880857   28.357814   46.883957
  O    -24.739330   28.102370   45.426104
  H    -25.168146   26.482489   44.240429
  H    -26.575742   26.182898   46.141889
  O    -25.306347   24.662416   46.580259
  H    -25.843811   27.008090   48.343925
  H    -24.144801   26.608667   47.966930
  H    -23.983053   28.871972   47.238857
  H    -25.745368   29.018702   47.004543
  H    -24.433457   24.524973   47.004750

 Multiplicity           Mult            ....    1
 Number of Electrons    NEL             ....  102
 Basis Dimension        Dim             ....  149

ORBITAL ENERGIES
----------------

  NO   OCC          E(Eh)            E(eV)
   0   2.0000     -19.150020      -521.0985
   1   2.0000     -19.146606      -521.0056
   2   2.0000     -19.136823      -520.7394
   3   2.0000     -19.134653      -520.6804
   4   2.0000     -10.285578      -279.8848
   5   2.0000     -10.234877      -278.5051
   6   2.0000     -10.233891      -278.4783
   7   2.0000     -10.231298      -278.4078
   8   2.0000     -10.230319      -278.3811
   9   2.0000     -10.222400      -278.1657
  10   2.0000     -10.190519      -277.2981
  11   2.0000     -10.189863      -277.2803
  12   2.0000     -10.177381      -276.9406
  13   2.0000      -1.059629       -28.8340
  14   2.0000      -1.026442       -27.9309
  15   2.0000      -1.008251       -27.4359
  16   2.0000      -0.999221       -27.1902
  17   2.0000      -0.791191       -21.5294
  18   2.0000      -0.772992       -21.0342
  19   2.0000      -0.765328       -20.8256
  20   2.0000      -0.734491       -19.9865
  21   2.0000      -0.678410       -18.4605
  22   2.0000      -0.604659       -16.4536
  23   2.0000      -0.601465       -16.3667
  24   2.0000      -0.595608       -16.2073
  25   2.0000      -0.573366       -15.6021
  26   2.0000      -0.529482       -14.4079
  27   2.0000      -0.506379       -13.7793
  28   2.0000      -0.498772       -13.5723
  29   2.0000      -0.488226       -13.2853
  30   2.0000      -0.475617       -12.9422
  31   2.0000      -0.459782       -12.5113
  32   2.0000      -0.445505       -12.1228
  33   2.0000      -0.433444       -11.7946
  34   2.0000      -0.423014       -11.5108
  35   2.0000      -0.412525       -11.2254
  36   2.0000      -0.402168       -10.9435
  37   2.0000      -0.399609       -10.8739
  38   2.0000      -0.376384       -10.2419
  39   2.0000      -0.374816       -10.1993
  40   2.0000      -0.360679        -9.8146
  41   2.0000      -0.356003        -9.6873
  42   2.0000      -0.351225        -9.5573
  43   2.0000      -0.325029        -8.8445
  44   2.0000      -0.318650        -8.6709
  45   2.0000      -0.312715        -8.5094
  46   2.0000      -0.305165        -8.3040
  47   2.0000      -0.269374        -7.3300
  48   2.0000      -0.263062        -7.1583
  49   2.0000      -0.256008        -6.9663
  50   2.0000      -0.239894        -6.5278
  51   0.0000       0.064296         1.7496
  52   0.0000       0.077195         2.1006
  53   0.0000       0.090326         2.4579
  54   0.0000       0.095519         2.5992
  55   0.0000       0.106000         2.8844

MULLIKEN ATOMIC CHARGES
-----------------------
   0 C :    0.295022
   1 C :   -0.261692
   2 C :   -0.306968
   3 C :   -0.004078
   4 O :   -0.506454
   5 H :    0.142619
   6 H :    0.145447
   7 H :    0.157079
   8 H :    0.145309
   9 H :    0.165575
  10 H :    0.150556
  11 H :    0.145123
  12 C :   -0.020878
  13 H :    0.139387
  14 H :    0.142488
  15 O :   -0.528880
  16 C :    0.089704
  17 C :    0.087531
  18 C :   -0.315295
  19 C :   -0.009216
  20 O :   -0.523146
  21 H :    0.147962
  22 H :    0.161231
  23 O :   -0.610446
  24 H :    0.144481
  25 H :    0.173240
  26 H :    0.143307
  27 H :    0.141835
  28 H :    0.369156
Sum of atomic charges:    0.0000000

LOEWDIN ATOMIC CHARGES
----------------------
   0 C :    0.178493
   1 C :   -0.225700
   2 C :   -0.216834
   3 C :   -0.026038
   4 O :   -0.309345
   5 H :    0.098915
   6 H :    0.114318
   7 H :    0.122253
   8 H :    0.116228
   9 H :    0.117833
  10 H :    0.107259
  11 H :    0.104207
  12 C :   -0.049054
  13 H :    0.100429
  14 H :    0.101913
  15 O :   -0.343586
  16 C :    0.019843
  17 C :    0.038124
  18 C :   -0.243948
  19 C :   -0.025109
  20 O :   -0.324532
  21 H :    0.114156
  22 H :    0.115582
  23 O :   -0.412881
  24 H :    0.114998
  25 H :    0.125583
  26 H :    0.100596
  27 H :    0.100732
  28 H :    0.285563

  Mayer bond orders larger than 0.100000
B(  0-C ,  1-C ) :   0.9349 B(  0-C ,  4-O ) :   0.9366 B(  0-C ,  5-H ) :   0.9195
B(  0-C , 15-O ) :   0.8225 B(  1-C ,  2-C ) :   0.9531 B(  1-C ,  6-H ) :   0.9340
B(  1-C ,  7-H ) :   0.9338 B(  2-C ,  3-C ) :   0.9551 B(  2-C ,  8-H ) :   0.9445
B(  2-C ,  9-H ) :   0.9396 B(  3-C ,  4-O ) :   0.8344 B(  3-C , 10-H ) :   0.9349
B(  3-C , 11-H ) :   0.9395 B( 12-C , 13-H ) :   0.9192 B( 12-C , 14-H ) :   0.9023
B( 12-C , 15-O ) :   0.8317 B( 12-C , 16-C ) :   0.9147 B( 16-C , 17-C ) :   0.8860
B( 16-C , 20-O ) :   0.8809 B( 16-C , 21-H ) :   0.9288 B( 17-C , 18-C ) :   0.9331
B( 17-C , 22-H ) :   0.9364 B( 17-C , 23-O ) :   0.9037 B( 18-C , 19-C ) :   0.9446
B( 18-C , 24-H ) :   0.9409 B( 18-C , 25-H ) :   0.9251 B( 19-C , 20-O ) :   0.8377
B( 19-C , 26-H ) :   0.9292 B( 19-C , 27-H ) :   0.9375 B( 23-O , 28-H ) :   0.7896

FINAL SINGLE POINT ENERGY      -652.863610168269

DIPOLE MOMENT
-------------
                                X             Y             Z
Electronic contribution:     -2.44911      -3.70408      -1.53237
Nuclear contribution   :      3.28094       4.40785       1.63079
                        -----------------------------------------
Total Dipole Moment    :      0.83183       0.70378       0.09842
                        -----------------------------------------
Magnitude (a.u.)       :      1.09404
Magnitude (Debye)      :      2.78084

Rotational constants in cm-1:     0.044771     0.016448     0.015477
Rotational constants in MHz :  1342.196901   493.111111   463.991976

                             ****ORCA TERMINATED NORMALLY****
TOTAL RUN TIME: 0 days 0 hours 30 minutes 38 seconds 538 msec
