                         Program Version 4.2.0 -  RELEASE  -
|  1> # Test redundant internal optimization
|  2> #
|  3> ! RKS B3LYP  Opt TightSCF SmallPrint
|  4>
|  5> %basis
|  6>         Basis "6-31G"
|  7> end
|  8>
|  9> %geom
| 10> Constraints
| 11> { D 4  0  15  12  255.0   C } # D for Dihedral angle
| 12> { D 0  15  12  16  345.0   C } # D for Dihedral angle
| 13> { D 0  4  3  2   C } # D for Dihedral angle
| 14> { D 4  3  2  1   C } # D for Dihedral angle
| 15> { D 3  2  1  0   C } # D for Dihedral angle
| 16> { D 2  1  0  4   C } # D for Dihedral angle
| 17> { D 1  0  4  3   C } # D for Dihedral angle
| 18> { D 16  20  19  18   C } # D for Dihedral angle
| 19> { D 20  19  18  17   C } # D for Dihedral angle
| 20> { D 19  18  17  16   C } # D for Dihedral angle
| 21> { D 18  17  16  20   C } # D for Dihedral angle
| 22> { D 17  16  20  19   C } # D for Dihedral angle
| 23> { D 15  12  16  20   C } # D for Dihedral angle
| 24> end
| 25> end
| 26>
| 27>
| 28> #%pal
| 29> #nprocs 8
| 30> #end
| 31>
| 32> * xyz 0 1
| 33> C  -21.048   26.222   46.251
| 34> C  -20.361   27.558   45.944
| 35> C  -20.329   28.222   47.341
| 36> C  -20.110   27.022   48.296
| 37> O  -20.473   25.807   47.535
| 38> H  -20.833   25.428   45.533
| 39> H  -19.344   27.382   45.576
| 40> H  -20.898   28.157   45.201
| 41> H  -19.543   28.978   47.434
| 42> H  -21.289   28.710   47.548
| 43> H  -20.733   27.082   49.195
| 44> H  -19.064   26.913   48.597
| 45> C  -23.431   25.260   45.734
| 46> H  -23.846   24.625   46.526
| 47> H  -24.266   25.681   45.159
| 48> O  -22.586   26.394   46.375
| 49> C  -22.602   24.362   44.774
| 50> C  -23.490   23.329   44.072
| 51> C  -24.144   24.181   42.959
| 52> C  -23.017   25.169   42.565
| 53> O  -22.044   25.162   43.678
| 54> H  -21.759   23.936   45.321
| 55> H  -22.873   22.534   43.638
| 56> O  -24.532   22.676   45.020
| 57> H  -24.487   23.581   42.110
| 58> H  -25.009   24.723   43.358
| 59> H  -23.387   26.190   42.418
| 60> H  -22.480   24.853   41.665
| 61> H  -25.164   23.452   45.466
| 62> *
| 63>
| 64>                          ****END OF INPUT****
 Total Charge           Charge          ....    0
 Multiplicity           Mult            ....    1
 Number of Electrons    NEL             ....  102
FINAL SINGLE POINT ENERGY      -652.822935517844
FINAL SINGLE POINT ENERGY      -652.846952673494
FINAL SINGLE POINT ENERGY      -652.852337119912
FINAL SINGLE POINT ENERGY      -652.854585115106
FINAL SINGLE POINT ENERGY      -652.854843899328
FINAL SINGLE POINT ENERGY      -652.854912193284
FINAL SINGLE POINT ENERGY      -652.854917599308
FINAL SINGLE POINT ENERGY      -652.854918465686
                    ***********************HURRAY********************

CARTESIAN COORDINATES (ANGSTROEM)
---------------------------------
  C    -20.888663   26.213878   46.216907
  C    -20.351607   27.629608   45.998944
  C    -20.457178   28.233854   47.420838
  C    -20.140684   27.025366   48.331536
  O    -20.331458   25.819621   47.492274
  H    -20.566302   25.484461   45.478250
  H    -19.305777   27.574185   45.674447
  H    -20.929203   28.172582   45.249081
  H    -19.766104   29.067226   47.579328
  H    -21.477457   28.588891   47.592838
  H    -20.801713   26.960097   49.200035
  H    -19.099803   27.011920   48.670101
  C    -23.214573   25.309697   45.716111
  H    -23.651663   24.727115   46.538361
  H    -24.013803   25.883302   45.232064
  O    -22.330581   26.313687   46.293090
  C    -22.593599   24.327316   44.724958
  C    -23.619893   23.351196   44.120450
  C    -24.248415   24.210732   42.979246
  C    -23.046785   25.048453   42.486927
  O    -22.020878   24.999842   43.560936
  H    -21.775703   23.780729   45.201750
  H    -23.089611   22.494454   43.699456
  O    -24.564647   22.772024   45.047378
  H    -24.686947   23.592359   42.191971
  H    -25.041518   24.847746   43.391964
  H    -23.304784   26.093362   42.291196
  H    -22.587097   24.624222   41.589951
  H    -25.235554   23.431073   45.318612

 Multiplicity           Mult            ....    1
 Number of Electrons    NEL             ....  102
 Basis Dimension        Dim             ....  149

ORBITAL ENERGIES
----------------

  NO   OCC          E(Eh)            E(eV)
   0   2.0000     -19.154238      -521.2133
   1   2.0000     -19.147212      -521.0221
   2   2.0000     -19.132543      -520.6230
   3   2.0000     -19.126067      -520.4467
   4   2.0000     -10.265816      -279.3471
   5   2.0000     -10.251469      -278.9567
   6   2.0000     -10.237768      -278.5838
   7   2.0000     -10.237732      -278.5828
   8   2.0000     -10.230944      -278.3981
   9   2.0000     -10.214264      -277.9442
  10   2.0000     -10.201245      -277.5900
  11   2.0000     -10.174561      -276.8639
  12   2.0000     -10.172202      -276.7997
  13   2.0000      -1.044152       -28.4128
  14   2.0000      -1.036345       -28.2004
  15   2.0000      -1.022564       -27.8254
  16   2.0000      -0.982292       -26.7295
  17   2.0000      -0.789375       -21.4800
  18   2.0000      -0.777693       -21.1621
  19   2.0000      -0.765853       -20.8399
  20   2.0000      -0.728257       -19.8169
  21   2.0000      -0.679688       -18.4953
  22   2.0000      -0.618575       -16.8323
  23   2.0000      -0.604004       -16.4358
  24   2.0000      -0.586805       -15.9678
  25   2.0000      -0.558886       -15.2081
  26   2.0000      -0.537486       -14.6257
  27   2.0000      -0.512935       -13.9577
  28   2.0000      -0.494600       -13.4587
  29   2.0000      -0.476848       -12.9757
  30   2.0000      -0.470649       -12.8070
  31   2.0000      -0.453668       -12.3449
  32   2.0000      -0.437745       -11.9116
  33   2.0000      -0.435208       -11.8426
  34   2.0000      -0.432573       -11.7709
  35   2.0000      -0.422602       -11.4996
  36   2.0000      -0.406800       -11.0696
  37   2.0000      -0.392753       -10.6873
  38   2.0000      -0.385459       -10.4889
  39   2.0000      -0.366403        -9.9703
  40   2.0000      -0.356773        -9.7083
  41   2.0000      -0.345120        -9.3912
  42   2.0000      -0.338833        -9.2201
  43   2.0000      -0.334638        -9.1060
  44   2.0000      -0.323561        -8.8045
  45   2.0000      -0.308678        -8.3996
  46   2.0000      -0.296306        -8.0629
  47   2.0000      -0.277482        -7.5507
  48   2.0000      -0.260136        -7.0787
  49   2.0000      -0.245699        -6.6858
  50   2.0000      -0.234868        -6.3911
  51   0.0000       0.047299         1.2871
  52   0.0000       0.074048         2.0149
  53   0.0000       0.085733         2.3329
  54   0.0000       0.095454         2.5974
  55   0.0000       0.102293         2.7835

MULLIKEN ATOMIC CHARGES
-----------------------
   0 C :    0.272002
   1 C :   -0.246488
   2 C :   -0.298085
   3 C :    0.001366
   4 O :   -0.509716
   5 H :    0.174786
   6 H :    0.139737
   7 H :    0.149434
   8 H :    0.134710
   9 H :    0.159025
  10 H :    0.144551
  11 H :    0.136685
  12 C :    0.030803
  13 H :    0.141232
  14 H :    0.129928
  15 O :   -0.539100
  16 C :    0.040990
  17 C :    0.089053
  18 C :   -0.322990
  19 C :   -0.006550
  20 O :   -0.523372
  21 H :    0.173506
  22 H :    0.169729
  23 O :   -0.596358
  24 H :    0.160220
  25 H :    0.135496
  26 H :    0.149069
  27 H :    0.151952
  28 H :    0.358384
Sum of atomic charges:   -0.0000000

LOEWDIN ATOMIC CHARGES
----------------------
   0 C :    0.172734
   1 C :   -0.214362
   2 C :   -0.217298
   3 C :   -0.027264
   4 O :   -0.327423
   5 H :    0.112334
   6 H :    0.110942
   7 H :    0.120466
   8 H :    0.110338
   9 H :    0.117543
  10 H :    0.103776
  11 H :    0.099414
  12 C :   -0.040272
  13 H :    0.104513
  14 H :    0.098754
  15 O :   -0.329123
  16 C :    0.001084
  17 C :    0.040042
  18 C :   -0.240397
  19 C :   -0.027240
  20 O :   -0.328297
  21 H :    0.120018
  22 H :    0.120422
  23 O :   -0.402773
  24 H :    0.123991
  25 H :    0.105207
  26 H :    0.105479
  27 H :    0.107654
  28 H :    0.279739

  Mayer bond orders larger than 0.100000
B(  0-C ,  1-C ) :   0.9458 B(  0-C ,  4-O ) :   0.9089 B(  0-C ,  5-H ) :   0.9016
B(  0-C , 15-O ) :   0.8448 B(  1-C ,  2-C ) :   0.9571 B(  1-C ,  6-H ) :   0.9404
B(  1-C ,  7-H ) :   0.9390 B(  2-C ,  3-C ) :   0.9544 B(  2-C ,  8-H ) :   0.9462
B(  2-C ,  9-H ) :   0.9444 B(  3-C ,  4-O ) :   0.8433 B(  3-C , 10-H ) :   0.9357
B(  3-C , 11-H ) :   0.9404 B( 12-C , 13-H ) :   0.9053 B( 12-C , 14-H ) :   0.9317
B( 12-C , 15-O ) :   0.8530 B( 12-C , 16-C ) :   0.9029 B( 16-C , 17-C ) :   0.8705
B( 16-C , 20-O ) :   0.8386 B( 16-C , 21-H ) :   0.9226 B( 17-C , 18-C ) :   0.9214
B( 17-C , 22-H ) :   0.9329 B( 17-C , 23-O ) :   0.9068 B( 18-C , 19-C ) :   0.9393
B( 18-C , 24-H ) :   0.9419 B( 18-C , 25-H ) :   0.9405 B( 19-C , 20-O ) :   0.8394
B( 19-C , 26-H ) :   0.9317 B( 19-C , 27-H ) :   0.9383 B( 23-O , 28-H ) :   0.7963

FINAL SINGLE POINT ENERGY      -652.854918438151

DIPOLE MOMENT
-------------
                                X             Y             Z
Electronic contribution:     -0.00313      -3.97908       0.83838
Nuclear contribution   :     -0.73850       4.58927      -1.71073
                        -----------------------------------------
Total Dipole Moment    :     -0.74162       0.61019      -0.87234
                        -----------------------------------------
Magnitude (a.u.)       :      1.29743
Magnitude (Debye)      :      3.29781

Rotational constants in cm-1:     0.059642     0.013040     0.011768
Rotational constants in MHz :  1788.011396   390.931197   352.789442

                             ****ORCA TERMINATED NORMALLY****
TOTAL RUN TIME: 0 days 0 hours 25 minutes 39 seconds 815 msec
