                         Program Version 4.2.0 -  RELEASE  -
|  1> # Test redundant internal optimization
|  2> #
|  3> ! RKS B3LYP  Opt TightSCF SmallPrint
|  4>
|  5> %basis
|  6>         Basis "6-31G"
|  7> end
|  8>
|  9> %geom
| 10> Constraints
| 11> { D 4  0  15  12  60.0   C } # D for Dihedral angle
| 12> { D 0  15  12  16  135.0   C } # D for Dihedral angle
| 13> { D 0  4  3  2   C } # D for Dihedral angle
| 14> { D 4  3  2  1   C } # D for Dihedral angle
| 15> { D 3  2  1  0   C } # D for Dihedral angle
| 16> { D 2  1  0  4   C } # D for Dihedral angle
| 17> { D 1  0  4  3   C } # D for Dihedral angle
| 18> { D 16  20  19  18   C } # D for Dihedral angle
| 19> { D 20  19  18  17   C } # D for Dihedral angle
| 20> { D 19  18  17  16   C } # D for Dihedral angle
| 21> { D 18  17  16  20   C } # D for Dihedral angle
| 22> { D 17  16  20  19   C } # D for Dihedral angle
| 23> { D 15  12  16  20   C } # D for Dihedral angle
| 24> end
| 25> end
| 26>
| 27>
| 28> #%pal
| 29> #nprocs 8
| 30> #end
| 31>
| 32> * xyz 0 1
| 33> C  -21.048   26.222   46.251
| 34> C  -20.361   27.558   45.944
| 35> C  -20.329   28.222   47.341
| 36> C  -20.110   27.022   48.296
| 37> O  -20.473   25.807   47.535
| 38> H  -20.833   25.428   45.533
| 39> H  -19.344   27.382   45.576
| 40> H  -20.898   28.157   45.201
| 41> H  -19.543   28.978   47.434
| 42> H  -21.289   28.710   47.548
| 43> H  -20.733   27.082   49.195
| 44> H  -19.064   26.913   48.597
| 45> C  -23.051   27.452   47.413
| 46> H  -23.428   26.940   48.307
| 47> H  -22.210   28.091   47.713
| 48> O  -22.586   26.394   46.375
| 49> C  -24.175   28.375   46.868
| 50> C  -25.456   27.583   46.581
| 51> C  -26.055   27.432   48.000
| 52> C  -25.671   28.766   48.687
| 53> O  -24.575   29.352   47.887
| 54> H  -23.792   28.940   46.016
| 55> O  -26.402   28.413   45.671
| 56> H  -25.267   26.620   46.095
| 57> H  -27.137   27.265   47.987
| 58> H  -25.591   26.583   48.516
| 59> H  -25.327   28.624   49.717
| 60> H  -26.493   29.488   48.686
| 61> H  -26.606   29.383   46.139
| 62> *
| 63>
| 64>                          ****END OF INPUT****
 Total Charge           Charge          ....    0
 Multiplicity           Mult            ....    1
 Number of Electrons    NEL             ....  102
FINAL SINGLE POINT ENERGY      -652.797566085376
FINAL SINGLE POINT ENERGY      -652.835323542225
FINAL SINGLE POINT ENERGY      -652.854162702089
FINAL SINGLE POINT ENERGY      -652.857274855800
FINAL SINGLE POINT ENERGY      -652.857682739172
FINAL SINGLE POINT ENERGY      -652.857774849518
FINAL SINGLE POINT ENERGY      -652.857788989457
FINAL SINGLE POINT ENERGY      -652.857791133589
FINAL SINGLE POINT ENERGY      -652.857790242025
                    ***********************HURRAY********************

CARTESIAN COORDINATES (ANGSTROEM)
---------------------------------
  C    -21.241378   26.396351   46.422067
  C    -20.375391   27.562625   45.920985
  C    -19.908450   28.219109   47.255714
  C    -19.744294   26.993291   48.190258
  O    -20.508492   25.888033   47.560335
  H    -21.284183   25.574353   45.705119
  H    -19.521402   27.149893   45.373919
  H    -20.921248   28.244149   45.263415
  H    -18.965117   28.762584   47.139474
  H    -20.647597   28.931306   47.629770
  H    -20.130915   27.163359   49.199766
  H    -18.704439   26.660639   48.258116
  C    -23.146704   27.559201   47.664047
  H    -23.523032   26.976127   48.512908
  H    -22.383940   28.242365   48.038984
  O    -22.642965   26.631910   46.657920
  C    -24.262178   28.380656   47.018816
  C    -25.483180   27.569811   46.562273
  C    -26.247746   27.380059   47.896285
  C    -25.980585   28.706028   48.651844
  O    -24.801437   29.331135   47.998766
  H    -23.852894   28.966552   46.190232
  O    -26.267114   28.318417   45.591109
  H    -25.213353   26.636416   46.071618
  H    -27.309719   27.201992   47.710735
  H    -25.845687   26.520843   48.443549
  H    -25.759356   28.556167   49.713232
  H    -26.809757   29.415596   48.564835
  H    -26.364449   29.243032   45.902906

 Multiplicity           Mult            ....    1
 Number of Electrons    NEL             ....  102
 Basis Dimension        Dim             ....  149

ORBITAL ENERGIES
----------------

  NO   OCC          E(Eh)            E(eV)
   0   2.0000     -19.146378      -520.9994
   1   2.0000     -19.145787      -520.9833
   2   2.0000     -19.144378      -520.9450
   3   2.0000     -19.134569      -520.6781
   4   2.0000     -10.281138      -279.7640
   5   2.0000     -10.234636      -278.4986
   6   2.0000     -10.233184      -278.4591
   7   2.0000     -10.232547      -278.4418
   8   2.0000     -10.232194      -278.4322
   9   2.0000     -10.232124      -278.4302
  10   2.0000     -10.195694      -277.4389
  11   2.0000     -10.192688      -277.3571
  12   2.0000     -10.186772      -277.1962
  13   2.0000      -1.053829       -28.6762
  14   2.0000      -1.035853       -28.1870
  15   2.0000      -1.003984       -27.3198
  16   2.0000      -0.998208       -27.1626
  17   2.0000      -0.790821       -21.5193
  18   2.0000      -0.782302       -21.2875
  19   2.0000      -0.771120       -20.9832
  20   2.0000      -0.733863       -19.9694
  21   2.0000      -0.679406       -18.4876
  22   2.0000      -0.607343       -16.5266
  23   2.0000      -0.604128       -16.4392
  24   2.0000      -0.598358       -16.2821
  25   2.0000      -0.575655       -15.6644
  26   2.0000      -0.526781       -14.3344
  27   2.0000      -0.512149       -13.9363
  28   2.0000      -0.504094       -13.7171
  29   2.0000      -0.491028       -13.3615
  30   2.0000      -0.472804       -12.8656
  31   2.0000      -0.460050       -12.5186
  32   2.0000      -0.446068       -12.1381
  33   2.0000      -0.440578       -11.9887
  34   2.0000      -0.426850       -11.6152
  35   2.0000      -0.417720       -11.3667
  36   2.0000      -0.409528       -11.1438
  37   2.0000      -0.392217       -10.6728
  38   2.0000      -0.383774       -10.4430
  39   2.0000      -0.367806       -10.0085
  40   2.0000      -0.362877        -9.8744
  41   2.0000      -0.359814        -9.7910
  42   2.0000      -0.349713        -9.5162
  43   2.0000      -0.331115        -9.0101
  44   2.0000      -0.319078        -8.6825
  45   2.0000      -0.313577        -8.5329
  46   2.0000      -0.302250        -8.2246
  47   2.0000      -0.274195        -7.4612
  48   2.0000      -0.265923        -7.2361
  49   2.0000      -0.257467        -7.0060
  50   2.0000      -0.243150        -6.6164
  51   0.0000       0.063860         1.7377
  52   0.0000       0.066535         1.8105
  53   0.0000       0.091359         2.4860
  54   0.0000       0.095766         2.6059
  55   0.0000       0.102246         2.7823

MULLIKEN ATOMIC CHARGES
-----------------------
   0 C :    0.301950
   1 C :   -0.273995
   2 C :   -0.322227
   3 C :   -0.013521
   4 O :   -0.504781
   5 H :    0.167829
   6 H :    0.156939
   7 H :    0.151584
   8 H :    0.147203
   9 H :    0.157880
  10 H :    0.146310
  11 H :    0.150506
  12 C :   -0.010494
  13 H :    0.145236
  14 H :    0.142068
  15 O :   -0.531349
  16 C :    0.061949
  17 C :    0.090875
  18 C :   -0.299668
  19 C :   -0.038946
  20 O :   -0.529299
  21 H :    0.156859
  22 O :   -0.603188
  23 H :    0.179224
  24 H :    0.162861
  25 H :    0.148830
  26 H :    0.149898
  27 H :    0.148321
  28 H :    0.361146
Sum of atomic charges:    0.0000000

LOEWDIN ATOMIC CHARGES
----------------------
   0 C :    0.176476
   1 C :   -0.228468
   2 C :   -0.225228
   3 C :   -0.034619
   4 O :   -0.321235
   5 H :    0.113882
   6 H :    0.122374
   7 H :    0.119917
   8 H :    0.116575
   9 H :    0.111113
  10 H :    0.103374
  11 H :    0.106338
  12 C :   -0.039922
  13 H :    0.103119
  14 H :    0.105008
  15 O :   -0.325384
  16 C :    0.014263
  17 C :    0.039070
  18 C :   -0.241464
  19 C :   -0.040394
  20 O :   -0.334190
  21 H :    0.113382
  22 O :   -0.415149
  23 H :    0.129567
  24 H :    0.127140
  25 H :    0.115956
  26 H :    0.104937
  27 H :    0.102979
  28 H :    0.280585

  Mayer bond orders larger than 0.100000
B(  0-C ,  1-C ) :   0.9161 B(  0-C ,  4-O ) :   0.9054 B(  0-C ,  5-H ) :   0.9361
B(  0-C , 15-O ) :   0.8922 B(  1-C ,  2-C ) :   0.9543 B(  1-C ,  6-H ) :   0.9346
B(  1-C ,  7-H ) :   0.9367 B(  2-C ,  3-C ) :   0.9465 B(  2-C ,  8-H ) :   0.9440
B(  2-C ,  9-H ) :   0.9363 B(  3-C ,  4-O ) :   0.8444 B(  3-C , 10-H ) :   0.9336
B(  3-C , 11-H ) :   0.9384 B( 12-C , 13-H ) :   0.9290 B( 12-C , 14-H ) :   0.9058
B( 12-C , 15-O ) :   0.8164 B( 12-C , 16-C ) :   0.8964 B( 16-C , 17-C ) :   0.9142
B( 16-C , 20-O ) :   0.8441 B( 16-C , 21-H ) :   0.9268 B( 17-C , 18-C ) :   0.9130
B( 17-C , 22-O ) :   0.8903 B( 17-C , 23-H ) :   0.9235 B( 18-C , 19-C ) :   0.9420
B( 18-C , 24-H ) :   0.9375 B( 18-C , 25-H ) :   0.9341 B( 19-C , 20-O ) :   0.8413
B( 19-C , 26-H ) :   0.9347 B( 19-C , 27-H ) :   0.9377 B( 22-O , 28-H ) :   0.7968

FINAL SINGLE POINT ENERGY      -652.857779886035

DIPOLE MOMENT
-------------
                                X             Y             Z
Electronic contribution:     -2.33438      -1.58316      -2.07512
Nuclear contribution   :      2.87837       2.20713       2.66318
                        -----------------------------------------
Total Dipole Moment    :      0.54399       0.62398       0.58806
                        -----------------------------------------
Magnitude (a.u.)       :      1.01543
Magnitude (Debye)      :      2.58101

Rotational constants in cm-1:     0.056535     0.012741     0.012234
Rotational constants in MHz :  1694.886548   381.980306   366.774774

                             ****ORCA TERMINATED NORMALLY****
TOTAL RUN TIME: 0 days 0 hours 42 minutes 22 seconds 494 msec
