                         Program Version 4.2.0 -  RELEASE  -
|  1> # Test redundant internal optimization
|  2> #
|  3> ! RKS B3LYP  Opt TightSCF SmallPrint
|  4>
|  5> %basis
|  6>         Basis "6-31G"
|  7> end
|  8>
|  9> %geom
| 10> Constraints
| 11> { D 4  0  15  12  300.0   C } # D for Dihedral angle
| 12> { D 0  15  12  16  150.0   C } # D for Dihedral angle
| 13> { D 0  4  3  2   C } # D for Dihedral angle
| 14> { D 4  3  2  1   C } # D for Dihedral angle
| 15> { D 3  2  1  0   C } # D for Dihedral angle
| 16> { D 2  1  0  4   C } # D for Dihedral angle
| 17> { D 1  0  4  3   C } # D for Dihedral angle
| 18> { D 16  20  19  18   C } # D for Dihedral angle
| 19> { D 20  19  18  17   C } # D for Dihedral angle
| 20> { D 19  18  17  16   C } # D for Dihedral angle
| 21> { D 18  17  16  20   C } # D for Dihedral angle
| 22> { D 17  16  20  19   C } # D for Dihedral angle
| 23> { D 15  12  16  20   C } # D for Dihedral angle
| 24> end
| 25> end
| 26>
| 27>
| 28> #%pal
| 29> #nprocs 8
| 30> #end
| 31>
| 32> * xyz 0 1
| 33> C  -21.048   26.222   46.251
| 34> C  -20.361   27.558   45.944
| 35> C  -20.329   28.222   47.341
| 36> C  -20.110   27.022   48.296
| 37> O  -20.473   25.807   47.535
| 38> H  -20.833   25.428   45.533
| 39> H  -19.344   27.382   45.576
| 40> H  -20.898   28.157   45.201
| 41> H  -19.543   28.978   47.434
| 42> H  -21.289   28.710   47.548
| 43> H  -20.733   27.082   49.195
| 44> H  -19.064   26.913   48.597
| 45> C  -23.362   25.116   46.798
| 46> H  -23.644   24.551   45.901
| 47> H  -22.730   24.473   47.424
| 48> O  -22.586   26.394   46.375
| 49> C  -24.653   25.436   47.601
| 50> C  -24.346   26.304   48.827
| 51> C  -24.210   27.708   48.190
| 52> C  -25.257   27.679   47.047
| 53> O  -25.567   26.254   46.798
| 54> H  -25.173   24.503   47.827
| 55> O  -25.539   26.266   49.819
| 56> H  -23.442   25.992   49.361
| 57> H  -24.394   28.518   48.903
| 58> H  -23.200   27.842   47.784
| 59> H  -24.883   28.132   46.123
| 60> H  -26.194   28.168   47.327
| 61> H  -26.456   26.576   49.305
| 62> *
| 63>
| 64>                          ****END OF INPUT****
 Total Charge           Charge          ....    0
 Multiplicity           Mult            ....    1
 Number of Electrons    NEL             ....  102
FINAL SINGLE POINT ENERGY      -652.838905231986
FINAL SINGLE POINT ENERGY      -652.862322964746
FINAL SINGLE POINT ENERGY      -652.866139460568
FINAL SINGLE POINT ENERGY      -652.867739281225
FINAL SINGLE POINT ENERGY      -652.867881919088
FINAL SINGLE POINT ENERGY      -652.867901563316
FINAL SINGLE POINT ENERGY      -652.867901486273
                    ***********************HURRAY********************

CARTESIAN COORDINATES (ANGSTROEM)
---------------------------------
  C    -21.083600   26.145685   46.280419
  C    -20.399747   27.465487   45.921854
  C    -20.347579   28.176186   47.293247
  C    -20.119130   27.013570   48.285413
  O    -20.501361   25.775317   47.553816
  H    -20.869687   25.310256   45.605145
  H    -19.392632   27.255074   45.546809
  H    -20.954206   28.023935   45.164833
  H    -19.548413   28.922557   47.346595
  H    -21.295934   28.683425   47.490299
  H    -20.726895   27.093117   49.190618
  H    -19.069039   26.895806   48.566732
  C    -23.258517   25.176520   46.795765
  H    -23.531831   24.591947   45.907898
  H    -22.623371   24.567328   47.449506
  O    -22.510560   26.358106   46.354292
  C    -24.532428   25.545450   47.547739
  C    -24.374666   26.364235   48.837297
  C    -24.312437   27.813581   48.286204
  C    -25.279989   27.766169   47.076426
  O    -25.455730   26.336682   46.733152
  H    -25.047325   24.602713   47.772616
  O    -25.516075   26.159091   49.716763
  H    -23.501511   26.085711   49.428547
  H    -24.616907   28.534152   49.050464
  H    -23.298663   28.033172   47.952642
  H    -24.879459   28.289031   46.203881
  H    -26.272629   28.166175   47.309498
  H    -26.340680   26.242524   49.192529

 Multiplicity           Mult            ....    1
 Number of Electrons    NEL             ....  102
 Basis Dimension        Dim             ....  149

ORBITAL ENERGIES
----------------

  NO   OCC          E(Eh)            E(eV)
   0   2.0000     -19.149801      -521.0926
   1   2.0000     -19.148851      -521.0667
   2   2.0000     -19.135649      -520.7075
   3   2.0000     -19.134195      -520.6679
   4   2.0000     -10.283136      -279.8184
   5   2.0000     -10.235733      -278.5284
   6   2.0000     -10.232795      -278.4485
   7   2.0000     -10.232192      -278.4321
   8   2.0000     -10.227501      -278.3045
   9   2.0000     -10.221842      -278.1505
  10   2.0000     -10.192629      -277.3555
  11   2.0000     -10.191260      -277.3183
  12   2.0000     -10.177461      -276.9428
  13   2.0000      -1.060026       -28.8448
  14   2.0000      -1.031313       -28.0635
  15   2.0000      -1.003131       -27.2966
  16   2.0000      -0.995574       -27.0909
  17   2.0000      -0.795246       -21.6398
  18   2.0000      -0.775678       -21.1073
  19   2.0000      -0.763677       -20.7807
  20   2.0000      -0.734573       -19.9887
  21   2.0000      -0.672779       -18.3072
  22   2.0000      -0.606344       -16.4994
  23   2.0000      -0.597600       -16.2615
  24   2.0000      -0.595453       -16.2031
  25   2.0000      -0.577066       -15.7028
  26   2.0000      -0.524029       -14.2596
  27   2.0000      -0.508235       -13.8298
  28   2.0000      -0.500523       -13.6199
  29   2.0000      -0.488684       -13.2978
  30   2.0000      -0.471343       -12.8259
  31   2.0000      -0.462338       -12.5809
  32   2.0000      -0.447978       -12.1901
  33   2.0000      -0.434138       -11.8135
  34   2.0000      -0.420984       -11.4556
  35   2.0000      -0.411263       -11.1910
  36   2.0000      -0.408791       -11.1238
  37   2.0000      -0.386313       -10.5121
  38   2.0000      -0.377527       -10.2730
  39   2.0000      -0.366159        -9.9637
  40   2.0000      -0.363385        -9.8882
  41   2.0000      -0.355477        -9.6730
  42   2.0000      -0.350888        -9.5481
  43   2.0000      -0.340966        -9.2781
  44   2.0000      -0.323835        -8.8120
  45   2.0000      -0.304006        -8.2724
  46   2.0000      -0.301345        -8.2000
  47   2.0000      -0.272328        -7.4104
  48   2.0000      -0.265271        -7.2184
  49   2.0000      -0.260616        -7.0917
  50   2.0000      -0.240019        -6.5313
  51   0.0000       0.062741         1.7073
  52   0.0000       0.078545         2.1373
  53   0.0000       0.092611         2.5201
  54   0.0000       0.102071         2.7775
  55   0.0000       0.105614         2.8739

MULLIKEN ATOMIC CHARGES
-----------------------
   0 C :    0.287747
   1 C :   -0.264867
   2 C :   -0.306920
   3 C :   -0.008112
   4 O :   -0.513720
   5 H :    0.147838
   6 H :    0.149518
   7 H :    0.160287
   8 H :    0.145716
   9 H :    0.161955
  10 H :    0.146473
  11 H :    0.148238
  12 C :   -0.007004
  13 H :    0.147256
  14 H :    0.160047
  15 O :   -0.524895
  16 C :    0.063607
  17 C :    0.074010
  18 C :   -0.301837
  19 C :   -0.016392
  20 O :   -0.525573
  21 H :    0.155957
  22 O :   -0.604163
  23 H :    0.153470
  24 H :    0.147583
  25 H :    0.173605
  26 H :    0.151353
  27 H :    0.135344
  28 H :    0.363479
Sum of atomic charges:   -0.0000000

LOEWDIN ATOMIC CHARGES
----------------------
   0 C :    0.171712
   1 C :   -0.212743
   2 C :   -0.217203
   3 C :   -0.029010
   4 O :   -0.330316
   5 H :    0.097002
   6 H :    0.117086
   7 H :    0.126166
   8 H :    0.115778
   9 H :    0.114599
  10 H :    0.103961
  11 H :    0.106040
  12 C :   -0.044299
  13 H :    0.106452
  14 H :    0.114629
  15 O :   -0.329959
  16 C :    0.013633
  17 C :    0.039328
  18 C :   -0.243378
  19 C :   -0.032473
  20 O :   -0.330060
  21 H :    0.116397
  22 O :   -0.417224
  23 H :    0.116203
  24 H :    0.118212
  25 H :    0.122889
  26 H :    0.108208
  27 H :    0.096012
  28 H :    0.282356

  Mayer bond orders larger than 0.100000
B(  0-C ,  1-C ) :   0.9478 B(  0-C ,  4-O ) :   0.8958 B(  0-C ,  5-H ) :   0.9198
B(  0-C , 15-O ) :   0.8662 B(  1-C ,  2-C ) :   0.9558 B(  1-C ,  6-H ) :   0.9394
B(  1-C ,  7-H ) :   0.9356 B(  2-C ,  3-C ) :   0.9547 B(  2-C ,  8-H ) :   0.9442
B(  2-C ,  9-H ) :   0.9362 B(  3-C ,  4-O ) :   0.8353 B(  3-C , 10-H ) :   0.9337
B(  3-C , 11-H ) :   0.9399 B( 12-C , 13-H ) :   0.9210 B( 12-C , 14-H ) :   0.9012
B( 12-C , 15-O ) :   0.8309 B( 12-C , 16-C ) :   0.9143 B( 16-C , 17-C ) :   0.9084
B( 16-C , 20-O ) :   0.8693 B( 16-C , 21-H ) :   0.9201 B( 17-C , 18-C ) :   0.9243
B( 17-C , 22-O ) :   0.8898 B( 17-C , 23-H ) :   0.9338 B( 18-C , 19-C ) :   0.9462
B( 18-C , 24-H ) :   0.9377 B( 18-C , 25-H ) :   0.9076 B( 19-C , 20-O ) :   0.8406
B( 19-C , 26-H ) :   0.9340 B( 19-C , 27-H ) :   0.9372 B( 22-O , 28-H ) :   0.7955

FINAL SINGLE POINT ENERGY      -652.867899510084

DIPOLE MOMENT
-------------
                                X             Y             Z
Electronic contribution:     -3.65835      -4.41269      -0.29851
Nuclear contribution   :      4.51729       5.13945      -0.02707
                        -----------------------------------------
Total Dipole Moment    :      0.85894       0.72676      -0.32559
                        -----------------------------------------
Magnitude (a.u.)       :      1.17131
Magnitude (Debye)      :      2.97724

Rotational constants in cm-1:     0.047102     0.016194     0.015663
Rotational constants in MHz :  1412.076532   485.488650   469.555490

                             ****ORCA TERMINATED NORMALLY****
TOTAL RUN TIME: 0 days 0 hours 19 minutes 40 seconds 811 msec
