                         Program Version 4.2.1 -  RELEASE  -
|  1> # Test redundant internal optimization
|  2> #
|  3> ! RKS B3LYP  Opt TightSCF SmallPrint
|  4>
|  5> %basis
|  6>         Basis "6-31G"
|  7> end
|  8>
|  9> %geom
| 10> Constraints
| 11> { D 4  0  19  14  315.0   C } # D for Dihedral angle
| 12> { D 0  19  14  12  60.0   C } # D for Dihedral angle
| 13> { D 0  4  3  2   C } # D for Dihedral angle
| 14> { D 4  3  2  1   C } # D for Dihedral angle
| 15> { D 3  2  1  0   C } # D for Dihedral angle
| 16> { D 2  1  0  4   C } # D for Dihedral angle
| 17> { D 1  0  4  3   C } # D for Dihedral angle
| 18> { D 14  15  16  17   C } # D for Dihedral angle
| 19> { D 15  16  17  12   C } # D for Dihedral angle
| 20> { D 16  17  12  14   C } # D for Dihedral angle
| 21> { D 17  12  14  15   C } # D for Dihedral angle
| 22> { D 12  14  15  16   C } # D for Dihedral angle
| 23> end
| 24> end
| 25>
| 26>
| 27> #%pal
| 28> #nprocs 8
| 29> #end
| 30>
| 31> * xyz 0 1
| 32> C  -21.048   26.222   46.251
| 33> C  -20.361   27.558   45.944
| 34> C  -20.329   28.222   47.341
| 35> C  -20.110   27.022   48.296
| 36> O  -20.473   25.807   47.535
| 37> H  -20.833   25.428   45.533
| 38> H  -19.344   27.382   45.576
| 39> H  -20.898   28.157   45.201
| 40> H  -19.543   28.978   47.434
| 41> H  -21.289   28.710   47.548
| 42> H  -20.733   27.082   49.195
| 43> H  -19.064   26.913   48.597
| 44> C  -22.584   25.216   48.500
| 45> H  -22.848   24.252   48.963
| 46> C  -23.132   25.318   47.072
| 47> C  -24.615   25.670   47.328
| 48> C  -24.551   26.568   48.589
| 49> O  -23.233   26.321   49.215
| 50> H  -21.507   25.371   48.584
| 51> O  -22.472   26.381   46.366
| 52> H  -23.008   24.393   46.497
| 53> H  -25.085   26.176   46.479
| 54> H  -25.190   24.758   47.533
| 55> H  -25.341   26.335   49.312
| 56> H  -24.597   27.634   48.346
| 57> *
| 58>
| 59>                          ****END OF INPUT****
 Total Charge           Charge          ....    0
 Multiplicity           Mult            ....    1
 Number of Electrons    NEL             ....   86
FINAL SINGLE POINT ENERGY      -538.404039768986
FINAL SINGLE POINT ENERGY      -538.433228732479
FINAL SINGLE POINT ENERGY      -538.436017057106
FINAL SINGLE POINT ENERGY      -538.436543269688
FINAL SINGLE POINT ENERGY      -538.436634489585
FINAL SINGLE POINT ENERGY      -538.436657192484
                    ***********************HURRAY********************

CARTESIAN COORDINATES (ANGSTROEM)
---------------------------------
  C    -20.934907   26.185622   46.279319
  C    -20.487483   27.608453   45.942620
  C    -20.422512   28.257046   47.343813
  C    -19.940212   27.103880   48.249570
  O    -20.198510   25.850821   47.477620
  H    -20.668818   25.413225   45.549005
  H    -19.497621   27.573913   45.472952
  H    -21.186989   28.106418   45.268196
  H    -19.749982   29.119600   47.377371
  H    -21.422261   28.580777   47.644800
  H    -20.490235   27.048823   49.191695
  H    -18.864574   27.127425   48.444936
  C    -22.742099   25.014244   48.624447
  H    -23.228473   24.101512   49.002792
  C    -23.121880   25.199956   47.154366
  C    -24.548459   25.768259   47.270995
  C    -24.482986   26.643717   48.545259
  O    -23.285536   26.201449   49.294875
  H    -21.674004   24.974367   48.809173
  O    -22.374838   26.232795   46.432974
  H    -23.075408   24.254248   46.596307
  H    -24.814162   26.334016   46.375442
  H    -25.262762   24.945567   47.392370
  H    -25.367290   26.524675   49.181427
  H    -24.345998   27.703193   48.312676

 Multiplicity           Mult            ....    1
 Number of Electrons    NEL             ....   86
 Basis Dimension        Dim             ....  127

ORBITAL ENERGIES
----------------

  NO   OCC          E(Eh)            E(eV)
   0   2.0000     -19.142951      -520.9062
   1   2.0000     -19.139345      -520.8080
   2   2.0000     -19.127102      -520.4749
   3   2.0000     -10.277569      -279.6669
   4   2.0000     -10.237769      -278.5839
   5   2.0000     -10.221429      -278.1392
   6   2.0000     -10.217966      -278.0450
   7   2.0000     -10.211456      -277.8678
   8   2.0000     -10.182261      -277.0734
   9   2.0000     -10.182064      -277.0680
  10   2.0000     -10.181012      -277.0394
  11   2.0000      -1.050539       -28.5866
  12   2.0000      -1.009599       -27.4726
  13   2.0000      -0.987069       -26.8595
  14   2.0000      -0.791725       -21.5439
  15   2.0000      -0.773692       -21.0532
  16   2.0000      -0.734367       -19.9831
  17   2.0000      -0.717740       -19.5307
  18   2.0000      -0.611248       -16.6329
  19   2.0000      -0.597437       -16.2571
  20   2.0000      -0.589539       -16.0422
  21   2.0000      -0.567338       -15.4380
  22   2.0000      -0.512426       -13.9438
  23   2.0000      -0.501316       -13.6415
  24   2.0000      -0.481138       -13.0924
  25   2.0000      -0.479730       -13.0541
  26   2.0000      -0.448403       -12.2017
  27   2.0000      -0.443174       -12.0594
  28   2.0000      -0.423128       -11.5139
  29   2.0000      -0.407780       -11.0962
  30   2.0000      -0.399935       -10.8828
  31   2.0000      -0.382204       -10.4003
  32   2.0000      -0.366267        -9.9666
  33   2.0000      -0.362536        -9.8651
  34   2.0000      -0.354582        -9.6487
  35   2.0000      -0.353232        -9.6119
  36   2.0000      -0.339376        -9.2349
  37   2.0000      -0.325389        -8.8543
  38   2.0000      -0.304009        -8.2725
  39   2.0000      -0.296308        -8.0630
  40   2.0000      -0.260922        -7.1000
  41   2.0000      -0.252201        -6.8627
  42   2.0000      -0.232845        -6.3360
  43   0.0000       0.081358         2.2139
  44   0.0000       0.095976         2.6116
  45   0.0000       0.102557         2.7907
  46   0.0000       0.113606         3.0914
  47   0.0000       0.124955         3.4002

MULLIKEN ATOMIC CHARGES
-----------------------
   0 C :    0.306635
   1 C :   -0.263194
   2 C :   -0.297963
   3 C :   -0.020685
   4 O :   -0.519222
   5 H :    0.142484
   6 H :    0.142948
   7 H :    0.158566
   8 H :    0.139696
   9 H :    0.168091
  10 H :    0.168542
  11 H :    0.144023
  12 C :   -0.018591
  13 H :    0.116126
  14 C :    0.084453
  15 C :   -0.289187
  16 C :   -0.002567
  17 O :   -0.530206
  18 H :    0.197083
  19 O :   -0.538622
  20 H :    0.125079
  21 H :    0.161503
  22 H :    0.140202
  23 H :    0.133960
  24 H :    0.150847
Sum of atomic charges:    0.0000000

LOEWDIN ATOMIC CHARGES
----------------------
   0 C :    0.179075
   1 C :   -0.214932
   2 C :   -0.215133
   3 C :   -0.032144
   4 O :   -0.327580
   5 H :    0.094847
   6 H :    0.112641
   7 H :    0.124858
   8 H :    0.113455
   9 H :    0.121742
  10 H :    0.115545
  11 H :    0.103509
  12 C :   -0.054536
  13 H :    0.089190
  14 C :    0.044919
  15 C :   -0.223344
  16 C :   -0.030245
  17 O :   -0.337794
  18 H :    0.133571
  19 O :   -0.334453
  20 H :    0.095351
  21 H :    0.127492
  22 H :    0.111179
  23 H :    0.097309
  24 H :    0.105477

  Mayer bond orders larger than 0.100000
B(  0-C ,  1-C ) :   0.9459 B(  0-C ,  4-O ) :   0.9013 B(  0-C ,  5-H ) :   0.9239
B(  0-C , 19-O ) :   0.8486 B(  1-C ,  2-C ) :   0.9569 B(  1-C ,  6-H ) :   0.9392
B(  1-C ,  7-H ) :   0.9363 B(  2-C ,  3-C ) :   0.9588 B(  2-C ,  8-H ) :   0.9448
B(  2-C ,  9-H ) :   0.9414 B(  3-C ,  4-O ) :   0.8204 B(  3-C , 10-H ) :   0.9256
B(  3-C , 11-H ) :   0.9403 B( 12-C , 13-H ) :   0.9119 B( 12-C , 14-C ) :   0.9160
B( 12-C , 17-O ) :   0.8576 B( 12-C , 18-H ) :   0.9059 B( 14-C , 15-C ) :   0.9596
B( 14-C , 19-O ) :   0.8285 B( 14-C , 20-H ) :   0.9220 B( 15-C , 16-C ) :   0.9466
B( 15-C , 21-H ) :   0.9366 B( 15-C , 22-H ) :   0.9422 B( 16-C , 17-O ) :   0.8574
B( 16-C , 23-H ) :   0.9334 B( 16-C , 24-H ) :   0.9363

FINAL SINGLE POINT ENERGY      -538.436658810210

DIPOLE MOMENT
-------------
                                X             Y             Z
Electronic contribution:      0.78563      -2.37143       0.09473
Nuclear contribution   :     -0.91327       2.51027      -0.66520
                        -----------------------------------------
Total Dipole Moment    :     -0.12765       0.13883      -0.57048
                        -----------------------------------------
Magnitude (a.u.)       :      0.60084
Magnitude (Debye)      :      1.52722

Rotational constants in cm-1:     0.065741     0.027033     0.025321
Rotational constants in MHz :  1970.860123   810.416751   759.103246

                             ****ORCA TERMINATED NORMALLY****
TOTAL RUN TIME: 0 days 0 hours 17 minutes 21 seconds 354 msec
