                         Program Version 4.2.0 -  RELEASE  -
|  1> # Test redundant internal optimization
|  2> #
|  3> ! RKS B3LYP  Opt TightSCF SmallPrint
|  4>
|  5> %basis
|  6>         Basis "6-31G"
|  7> end
|  8>
|  9> %geom
| 10> Constraints
| 11> { D 4  0  15  12  180.0   C } # D for Dihedral angle
| 12> { D 0  15  12  16  90.0   C } # D for Dihedral angle
| 13> { D 0  4  3  2   C } # D for Dihedral angle
| 14> { D 4  3  2  1   C } # D for Dihedral angle
| 15> { D 3  2  1  0   C } # D for Dihedral angle
| 16> { D 2  1  0  4   C } # D for Dihedral angle
| 17> { D 1  0  4  3   C } # D for Dihedral angle
| 18> { D 16  20  19  18   C } # D for Dihedral angle
| 19> { D 20  19  18  17   C } # D for Dihedral angle
| 20> { D 19  18  17  16   C } # D for Dihedral angle
| 21> { D 18  17  16  20   C } # D for Dihedral angle
| 22> { D 17  16  20  19   C } # D for Dihedral angle
| 23> { D 15  12  16  20   C } # D for Dihedral angle
| 24> end
| 25> end
| 26>
| 27>
| 28> #%pal
| 29> #nprocs 8
| 30> #end
| 31>
| 32> * xyz 0 1
| 33> C  -21.048   26.222   46.251
| 34> C  -20.361   27.558   45.944
| 35> C  -20.329   28.222   47.341
| 36> C  -20.110   27.022   48.296
| 37> O  -20.473   25.807   47.535
| 38> H  -20.833   25.428   45.533
| 39> H  -19.344   27.382   45.576
| 40> H  -20.898   28.157   45.201
| 41> H  -19.543   28.978   47.434
| 42> H  -21.289   28.710   47.548
| 43> H  -20.733   27.082   49.195
| 44> H  -19.064   26.913   48.597
| 45> C  -23.309   26.834   45.072
| 46> H  -24.192   27.431   45.332
| 47> H  -22.645   27.453   44.455
| 48> O  -22.586   26.394   46.375
| 49> C  -23.771   25.629   44.206
| 50> C  -24.836   24.799   44.931
| 51> C  -26.107   25.650   44.702
| 52> C  -25.889   26.233   43.283
| 53> O  -24.445   26.100   42.992
| 54> H  -22.895   25.062   43.886
| 55> H  -24.936   23.817   44.454
| 56> O  -24.519   24.581   46.436
| 57> H  -27.029   25.064   44.775
| 58> H  -26.161   26.453   45.446
| 59> H  -26.173   27.288   43.215
| 60> H  -26.426   25.672   42.514
| 61> H  -24.415   25.551   46.934
| 62> *
| 63>
| 64>                          ****END OF INPUT****
 Total Charge           Charge          ....    0
 Multiplicity           Mult            ....    1
 Number of Electrons    NEL             ....  102
FINAL SINGLE POINT ENERGY      -652.827424172719
FINAL SINGLE POINT ENERGY      -652.852106050060
FINAL SINGLE POINT ENERGY      -652.858777535632
FINAL SINGLE POINT ENERGY      -652.861232142872
FINAL SINGLE POINT ENERGY      -652.862590143535
FINAL SINGLE POINT ENERGY      -652.863385599314
FINAL SINGLE POINT ENERGY      -652.863673483902
FINAL SINGLE POINT ENERGY      -652.863743417510
FINAL SINGLE POINT ENERGY      -652.863749643329
                    ***********************HURRAY********************

CARTESIAN COORDINATES (ANGSTROEM)
---------------------------------
  C    -21.099865   26.229421   46.185992
  C    -20.308879   27.507359   45.919055
  C    -20.372829   28.218939   47.292953
  C    -20.323853   27.044055   48.289297
  O    -20.691274   25.836589   47.497519
  H    -20.900271   25.395226   45.508929
  H    -19.278201   27.233422   45.665928
  H    -20.703999   28.118292   45.103583
  H    -19.547280   28.922337   47.436091
  H    -21.314592   28.767472   47.385805
  H    -21.031838   27.143395   49.115046
  H    -19.321996   26.858642   48.685971
  C    -23.248557   26.907037   45.038458
  H    -24.072590   27.536912   45.383384
  H    -22.602903   27.509705   44.391113
  O    -22.547255   26.481856   46.257971
  C    -23.761282   25.688265   44.260541
  C    -24.807855   24.845003   45.008761
  C    -26.102441   25.678406   44.784839
  C    -25.912460   26.248997   43.364511
  O    -24.454043   26.135637   43.053204
  H    -22.914043   25.081747   43.924166
  H    -24.907025   23.880011   44.498915
  O    -24.526832   24.570271   46.393416
  H    -27.000518   25.062023   44.878223
  H    -26.157815   26.465382   45.544885
  H    -26.208099   27.298767   43.273344
  H    -26.437324   25.667299   42.601693
  H    -23.803080   25.159533   46.715409

 Multiplicity           Mult            ....    1
 Number of Electrons    NEL             ....  102
 Basis Dimension        Dim             ....  149

ORBITAL ENERGIES
----------------

  NO   OCC          E(Eh)            E(eV)
   0   2.0000     -19.162472      -521.4374
   1   2.0000     -19.152168      -521.1570
   2   2.0000     -19.141457      -520.8655
   3   2.0000     -19.110470      -520.0223
   4   2.0000     -10.293697      -280.1057
   5   2.0000     -10.240433      -278.6563
   6   2.0000     -10.234991      -278.5083
   7   2.0000     -10.233652      -278.4718
   8   2.0000     -10.229649      -278.3629
   9   2.0000     -10.227395      -278.3016
  10   2.0000     -10.198686      -277.5204
  11   2.0000     -10.195714      -277.4395
  12   2.0000     -10.179166      -276.9892
  13   2.0000      -1.066586       -29.0233
  14   2.0000      -1.025961       -27.9178
  15   2.0000      -1.007033       -27.4028
  16   2.0000      -0.989891       -26.9363
  17   2.0000      -0.796884       -21.6843
  18   2.0000      -0.773646       -21.0520
  19   2.0000      -0.767702       -20.8902
  20   2.0000      -0.740236       -20.1428
  21   2.0000      -0.682877       -18.5820
  22   2.0000      -0.610839       -16.6218
  23   2.0000      -0.604467       -16.4484
  24   2.0000      -0.595642       -16.2082
  25   2.0000      -0.575105       -15.6494
  26   2.0000      -0.533377       -14.5139
  27   2.0000      -0.520735       -14.1699
  28   2.0000      -0.502650       -13.6778
  29   2.0000      -0.488993       -13.3062
  30   2.0000      -0.473966       -12.8973
  31   2.0000      -0.463698       -12.6179
  32   2.0000      -0.449002       -12.2180
  33   2.0000      -0.430023       -11.7015
  34   2.0000      -0.426464       -11.6047
  35   2.0000      -0.419905       -11.4262
  36   2.0000      -0.410175       -11.1614
  37   2.0000      -0.388305       -10.5663
  38   2.0000      -0.386089       -10.5060
  39   2.0000      -0.372068       -10.1245
  40   2.0000      -0.365798        -9.9539
  41   2.0000      -0.363267        -9.8850
  42   2.0000      -0.347705        -9.4615
  43   2.0000      -0.341886        -9.3032
  44   2.0000      -0.324466        -8.8292
  45   2.0000      -0.318268        -8.6605
  46   2.0000      -0.289335        -7.8732
  47   2.0000      -0.277225        -7.5437
  48   2.0000      -0.269885        -7.3439
  49   2.0000      -0.245381        -6.6772
  50   2.0000      -0.239184        -6.5085
  51   0.0000       0.057759         1.5717
  52   0.0000       0.076864         2.0916
  53   0.0000       0.091101         2.4790
  54   0.0000       0.093339         2.5399
  55   0.0000       0.102177         2.7804

MULLIKEN ATOMIC CHARGES
-----------------------
   0 C :    0.306795
   1 C :   -0.281668
   2 C :   -0.297376
   3 C :   -0.004657
   4 O :   -0.499447
   5 H :    0.154574
   6 H :    0.155275
   7 H :    0.149519
   8 H :    0.147057
   9 H :    0.160693
  10 H :    0.159683
  11 H :    0.148184
  12 C :   -0.050335
  13 H :    0.163427
  14 H :    0.152921
  15 O :   -0.540695
  16 C :    0.052683
  17 C :    0.126020
  18 C :   -0.305477
  19 C :   -0.019541
  20 O :   -0.522154
  21 H :    0.149832
  22 H :    0.147406
  23 O :   -0.640833
  24 H :    0.152217
  25 H :    0.146756
  26 H :    0.139425
  27 H :    0.151203
  28 H :    0.398514
Sum of atomic charges:    0.0000000

LOEWDIN ATOMIC CHARGES
----------------------
   0 C :    0.182249
   1 C :   -0.229236
   2 C :   -0.215793
   3 C :   -0.024186
   4 O :   -0.299270
   5 H :    0.102908
   6 H :    0.119957
   7 H :    0.116477
   8 H :    0.117021
   9 H :    0.118022
  10 H :    0.112476
  11 H :    0.106152
  12 C :   -0.053582
  13 H :    0.115802
  14 H :    0.108042
  15 O :   -0.340946
  16 C :    0.007049
  17 C :    0.042499
  18 C :   -0.237973
  19 C :   -0.032066
  20 O :   -0.326734
  21 H :    0.108593
  22 H :    0.105027
  23 O :   -0.433894
  24 H :    0.121953
  25 H :    0.111803
  26 H :    0.100947
  27 H :    0.106886
  28 H :    0.289818

  Mayer bond orders larger than 0.100000
B(  0-C ,  1-C ) :   0.9352 B(  0-C ,  4-O ) :   0.9494 B(  0-C ,  5-H ) :   0.9201
B(  0-C , 15-O ) :   0.7880 B(  1-C ,  2-C ) :   0.9484 B(  1-C ,  6-H ) :   0.9333
B(  1-C ,  7-H ) :   0.9289 B(  2-C ,  3-C ) :   0.9558 B(  2-C ,  8-H ) :   0.9443
B(  2-C ,  9-H ) :   0.9449 B(  3-C ,  4-O ) :   0.8266 B(  3-C , 10-H ) :   0.9343
B(  3-C , 11-H ) :   0.9394 B( 12-C , 13-H ) :   0.9356 B( 12-C , 14-H ) :   0.9193
B( 12-C , 15-O ) :   0.8047 B( 12-C , 16-C ) :   0.8835 B( 16-C , 17-C ) :   0.9115
B( 16-C , 20-O ) :   0.8544 B( 16-C , 21-H ) :   0.9318 B( 17-C , 18-C ) :   0.9017
B( 17-C , 22-H ) :   0.9299 B( 17-C , 23-O ) :   0.9386 B( 18-C , 19-C ) :   0.9404
B( 18-C , 24-H ) :   0.9448 B( 18-C , 25-H ) :   0.9427 B( 19-C , 20-O ) :   0.8307
B( 19-C , 26-H ) :   0.9348 B( 19-C , 27-H ) :   0.9383 B( 23-O , 28-H ) :   0.7202

FINAL SINGLE POINT ENERGY      -652.863751747107

DIPOLE MOMENT
-------------
                                X             Y             Z
Electronic contribution:     -0.17114      -4.25648       0.01852
Nuclear contribution   :      0.79864       5.69592      -0.33037
                        -----------------------------------------
Total Dipole Moment    :      0.62750       1.43944      -0.31185
                        -----------------------------------------
Magnitude (a.u.)       :      1.60094
Magnitude (Debye)      :      4.06926

Rotational constants in cm-1:     0.061031     0.013245     0.011965
Rotational constants in MHz :  1829.652958   397.087026   358.712359

                             ****ORCA TERMINATED NORMALLY****
TOTAL RUN TIME: 0 days 0 hours 37 minutes 33 seconds 540 msec
