                         Program Version 4.2.0 -  RELEASE  -
|  1> # Test redundant internal optimization
|  2> #
|  3> ! RKS B3LYP  Opt TightSCF SmallPrint
|  4>
|  5> %basis
|  6>         Basis "6-31G"
|  7> end
|  8>
|  9> %geom
| 10> Constraints
| 11> { D 4  0  15  12  255.0   C } # D for Dihedral angle
| 12> { D 0  15  12  16  255.0   C } # D for Dihedral angle
| 13> { D 0  4  3  2   C } # D for Dihedral angle
| 14> { D 4  3  2  1   C } # D for Dihedral angle
| 15> { D 3  2  1  0   C } # D for Dihedral angle
| 16> { D 2  1  0  4   C } # D for Dihedral angle
| 17> { D 1  0  4  3   C } # D for Dihedral angle
| 18> { D 16  20  19  18   C } # D for Dihedral angle
| 19> { D 20  19  18  17   C } # D for Dihedral angle
| 20> { D 19  18  17  16   C } # D for Dihedral angle
| 21> { D 18  17  16  20   C } # D for Dihedral angle
| 22> { D 17  16  20  19   C } # D for Dihedral angle
| 23> { D 15  12  16  20   C } # D for Dihedral angle
| 24> end
| 25> end
| 26>
| 27>
| 28> #%pal
| 29> #nprocs 8
| 30> #end
| 31>
| 32> * xyz 0 1
| 33> C  -21.048   26.222   46.251
| 34> C  -20.361   27.558   45.944
| 35> C  -20.329   28.222   47.341
| 36> C  -20.110   27.022   48.296
| 37> O  -20.473   25.807   47.535
| 38> H  -20.833   25.428   45.533
| 39> H  -19.344   27.382   45.576
| 40> H  -20.898   28.157   45.201
| 41> H  -19.543   28.978   47.434
| 42> H  -21.289   28.710   47.548
| 43> H  -20.733   27.082   49.195
| 44> H  -19.064   26.913   48.597
| 45> C  -23.431   25.260   45.734
| 46> H  -22.787   24.392   45.542
| 47> H  -24.234   24.947   46.414
| 48> O  -22.586   26.394   46.375
| 49> C  -24.088   25.686   44.392
| 50> C  -23.030   25.978   43.322
| 51> C  -22.648   24.552   42.860
| 52> C  -23.989   23.781   42.955
| 53> O  -24.872   24.580   43.831
| 54> H  -24.782   26.507   44.578
| 55> H  -23.477   26.546   42.497
| 56> O  -21.817   26.781   43.867
| 57> H  -22.226   24.532   41.851
| 58> H  -21.906   24.122   43.543
| 59> H  -23.868   22.781   43.383
| 60> H  -24.489   23.693   41.987
| 61> H  -21.354   26.231   44.694
| 62> *
| 63>
| 64>                          ****END OF INPUT****
 Total Charge           Charge          ....    0
 Multiplicity           Mult            ....    1
 Number of Electrons    NEL             ....  102
FINAL SINGLE POINT ENERGY      -652.793243198945
FINAL SINGLE POINT ENERGY      -652.835358734102
FINAL SINGLE POINT ENERGY      -652.851651176367
FINAL SINGLE POINT ENERGY      -652.854447798310
FINAL SINGLE POINT ENERGY      -652.855069911585
FINAL SINGLE POINT ENERGY      -652.855163123734
FINAL SINGLE POINT ENERGY      -652.855181543152
FINAL SINGLE POINT ENERGY      -652.855182623930
                    ***********************HURRAY********************

CARTESIAN COORDINATES (ANGSTROEM)
---------------------------------
  C    -20.996031   26.170868   46.308055
  C    -20.352431   27.533153   46.045223
  C    -20.412024   28.189974   47.446107
  C    -20.189381   26.993484   48.397754
  O    -20.472459   25.777135   47.595052
  H    -20.729426   25.361244   45.616708
  H    -19.310733   27.391658   45.731061
  H    -20.888873   28.098889   45.282499
  H    -19.658595   28.972576   47.574829
  H    -21.401919   28.628581   47.601234
  H    -20.856380   27.003653   49.263368
  H    -19.153404   26.908425   48.739511
  C    -23.300219   25.346727   45.770221
  H    -22.752752   24.398113   45.658115
  H    -24.110083   25.173303   46.482936
  O    -22.424216   26.349880   46.357274
  C    -23.944649   25.738125   44.424427
  C    -23.050286   25.981812   43.191763
  C    -22.699830   24.521803   42.750561
  C    -23.999947   23.756002   43.083063
  O    -24.767914   24.594579   44.034121
  H    -24.620608   26.582495   44.584027
  H    -23.671368   26.453752   42.425322
  O    -21.918977   26.864681   43.318087
  H    -22.429194   24.466231   41.693354
  H    -21.850155   24.152216   43.340192
  H    -23.816964   22.778337   43.539948
  H    -24.631703   23.617026   42.200574
  H    -21.198479   26.439277   43.820615

 Multiplicity           Mult            ....    1
 Number of Electrons    NEL             ....  102
 Basis Dimension        Dim             ....  149

ORBITAL ENERGIES
----------------

  NO   OCC          E(Eh)            E(eV)
   0   2.0000     -19.151828      -521.1477
   1   2.0000     -19.145638      -520.9793
   2   2.0000     -19.143236      -520.9139
   3   2.0000     -19.138801      -520.7932
   4   2.0000     -10.285578      -279.8848
   5   2.0000     -10.248015      -278.8627
   6   2.0000     -10.235737      -278.5286
   7   2.0000     -10.233890      -278.4783
   8   2.0000     -10.232010      -278.4271
   9   2.0000     -10.223679      -278.2004
  10   2.0000     -10.198681      -277.5202
  11   2.0000     -10.184156      -277.1250
  12   2.0000     -10.183798      -277.1152
  13   2.0000      -1.054397       -28.6916
  14   2.0000      -1.037653       -28.2360
  15   2.0000      -1.022636       -27.8273
  16   2.0000      -0.995305       -27.0836
  17   2.0000      -0.788368       -21.4526
  18   2.0000      -0.782787       -21.3007
  19   2.0000      -0.767603       -20.8876
  20   2.0000      -0.732791       -19.9403
  21   2.0000      -0.682460       -18.5707
  22   2.0000      -0.616167       -16.7667
  23   2.0000      -0.600469       -16.3396
  24   2.0000      -0.595064       -16.1925
  25   2.0000      -0.580458       -15.7951
  26   2.0000      -0.531159       -14.4536
  27   2.0000      -0.522862       -14.2278
  28   2.0000      -0.499045       -13.5797
  29   2.0000      -0.489492       -13.3198
  30   2.0000      -0.468125       -12.7383
  31   2.0000      -0.457046       -12.4369
  32   2.0000      -0.440919       -11.9980
  33   2.0000      -0.436896       -11.8885
  34   2.0000      -0.435389       -11.8475
  35   2.0000      -0.418305       -11.3826
  36   2.0000      -0.414281       -11.2732
  37   2.0000      -0.401571       -10.9273
  38   2.0000      -0.379983       -10.3399
  39   2.0000      -0.370747       -10.0885
  40   2.0000      -0.358409        -9.7528
  41   2.0000      -0.353746        -9.6259
  42   2.0000      -0.349988        -9.5237
  43   2.0000      -0.335268        -9.1231
  44   2.0000      -0.320833        -8.7303
  45   2.0000      -0.316930        -8.6241
  46   2.0000      -0.303860        -8.2684
  47   2.0000      -0.274054        -7.4574
  48   2.0000      -0.270660        -7.3650
  49   2.0000      -0.258076        -7.0226
  50   2.0000      -0.237432        -6.4608
  51   0.0000       0.041618         1.1325
  52   0.0000       0.070818         1.9271
  53   0.0000       0.082890         2.2556
  54   0.0000       0.089293         2.4298
  55   0.0000       0.100921         2.7462

MULLIKEN ATOMIC CHARGES
-----------------------
   0 C :    0.270188
   1 C :   -0.277634
   2 C :   -0.300551
   3 C :   -0.001787
   4 O :   -0.507920
   5 H :    0.121649
   6 H :    0.138937
   7 H :    0.181294
   8 H :    0.141909
   9 H :    0.167582
  10 H :    0.152170
  11 H :    0.140166
  12 C :   -0.022762
  13 H :    0.127809
  14 H :    0.174573
  15 O :   -0.513415
  16 C :    0.082299
  17 C :    0.090248
  18 C :   -0.327256
  19 C :   -0.016482
  20 O :   -0.517250
  21 H :    0.162372
  22 H :    0.170372
  23 O :   -0.599306
  24 H :    0.159340
  25 H :    0.135011
  26 H :    0.147904
  27 H :    0.155072
  28 H :    0.365469
Sum of atomic charges:   -0.0000000

LOEWDIN ATOMIC CHARGES
----------------------
   0 C :    0.163937
   1 C :   -0.231195
   2 C :   -0.213692
   3 C :   -0.026265
   4 O :   -0.321326
   5 H :    0.084313
   6 H :    0.110495
   7 H :    0.132526
   8 H :    0.114240
   9 H :    0.121738
  10 H :    0.108031
  11 H :    0.101626
  12 C :   -0.041130
  13 H :    0.094711
  14 H :    0.123494
  15 O :   -0.329373
  16 C :    0.013779
  17 C :    0.035143
  18 C :   -0.243322
  19 C :   -0.031409
  20 O :   -0.319700
  21 H :    0.116867
  22 H :    0.119406
  23 O :   -0.398397
  24 H :    0.124016
  25 H :    0.103245
  26 H :    0.104092
  27 H :    0.108094
  28 H :    0.276056

  Mayer bond orders larger than 0.100000
B(  0-C ,  1-C ) :   0.9346 B(  0-C ,  4-O ) :   0.9239 B(  0-C ,  5-H ) :   0.9124
B(  0-C , 15-O ) :   0.8545 B(  1-C ,  2-C ) :   0.9558 B(  1-C ,  6-H ) :   0.9371
B(  1-C ,  7-H ) :   0.9176 B(  2-C ,  3-C ) :   0.9541 B(  2-C ,  8-H ) :   0.9450
B(  2-C ,  9-H ) :   0.9433 B(  3-C ,  4-O ) :   0.8355 B(  3-C , 10-H ) :   0.9351
B(  3-C , 11-H ) :   0.9401 B( 12-C , 13-H ) :   0.9253 B( 12-C , 14-H ) :   0.9315
B( 12-C , 15-O ) :   0.8362 B( 12-C , 16-C ) :   0.8915 B( 16-C , 17-C ) :   0.8843
B( 16-C , 20-O ) :   0.8330 B( 16-C , 21-H ) :   0.9303 B( 17-C , 18-C ) :   0.9224
B( 17-C , 22-H ) :   0.9306 B( 17-C , 23-O ) :   0.9084 B( 18-C , 19-C ) :   0.9396
B( 18-C , 24-H ) :   0.9416 B( 18-C , 25-H ) :   0.9404 B( 19-C , 20-O ) :   0.8376
B( 19-C , 26-H ) :   0.9317 B( 19-C , 27-H ) :   0.9372 B( 23-O , 28-H ) :   0.7734

FINAL SINGLE POINT ENERGY      -652.855182275418

DIPOLE MOMENT
-------------
                                X             Y             Z
Electronic contribution:     -2.99188      -0.83099       0.44301
Nuclear contribution   :      3.70195       0.66588      -0.92853
                        -----------------------------------------
Total Dipole Moment    :      0.71007      -0.16511      -0.48552
                        -----------------------------------------
Magnitude (a.u.)       :      0.87589
Magnitude (Debye)      :      2.22635

Rotational constants in cm-1:     0.058877     0.013945     0.012807
Rotational constants in MHz :  1765.081414   418.045723   383.940943

                             ****ORCA TERMINATED NORMALLY****
TOTAL RUN TIME: 0 days 0 hours 25 minutes 30 seconds 240 msec
