                         Program Version 4.2.0 -  RELEASE  -
|  1> # Test redundant internal optimization
|  2> #
|  3> ! RKS B3LYP  Opt TightSCF SmallPrint
|  4>
|  5> %basis
|  6>         Basis "6-31G"
|  7> end
|  8>
|  9> %geom
| 10> Constraints
| 11> { D 4  0  15  12  0.0   C } # D for Dihedral angle
| 12> { D 0  15  12  16  255.0   C } # D for Dihedral angle
| 13> { D 0  4  3  2   C } # D for Dihedral angle
| 14> { D 4  3  2  1   C } # D for Dihedral angle
| 15> { D 3  2  1  0   C } # D for Dihedral angle
| 16> { D 2  1  0  4   C } # D for Dihedral angle
| 17> { D 1  0  4  3   C } # D for Dihedral angle
| 18> { D 16  20  19  18   C } # D for Dihedral angle
| 19> { D 20  19  18  17   C } # D for Dihedral angle
| 20> { D 19  18  17  16   C } # D for Dihedral angle
| 21> { D 18  17  16  20   C } # D for Dihedral angle
| 22> { D 17  16  20  19   C } # D for Dihedral angle
| 23> { D 15  12  16  20   C } # D for Dihedral angle
| 24> end
| 25> end
| 26>
| 27>
| 28> #%pal
| 29> #nprocs 8
| 30> #end
| 31>
| 32> * xyz 0 1
| 33> C  -21.048   26.222   46.251
| 34> C  -20.361   27.558   45.944
| 35> C  -20.329   28.222   47.341
| 36> C  -20.110   27.022   48.296
| 37> O  -20.473   25.807   47.535
| 38> H  -20.833   25.428   45.533
| 39> H  -19.344   27.382   45.576
| 40> H  -20.898   28.157   45.201
| 41> H  -19.543   28.978   47.434
| 42> H  -21.289   28.710   47.548
| 43> H  -20.733   27.082   49.195
| 44> H  -19.064   26.913   48.597
| 45> C  -23.172   26.101   47.783
| 46> H  -22.358   26.087   48.518
| 47> H  -23.883   26.884   48.074
| 48> O  -22.586   26.394   46.375
| 49> C  -23.915   24.738   47.853
| 50> C  -25.015   24.649   46.787
| 51> C  -24.195   24.311   45.519
| 52> C  -23.060   23.409   46.063
| 53> O  -23.003   23.639   47.523
| 54> H  -24.262   24.571   48.874
| 55> O  -25.994   23.493   47.129
| 56> H  -25.593   25.573   46.686
| 57> H  -24.791   23.813   44.748
| 58> H  -23.782   25.229   45.082
| 59> H  -22.086   23.648   45.623
| 60> H  -23.264   22.344   45.913
| 61> H  -25.437   22.556   47.235
| 62> *
| 63>
| 64>                          ****END OF INPUT****
 Total Charge           Charge          ....    0
 Multiplicity           Mult            ....    1
 Number of Electrons    NEL             ....  102
FINAL SINGLE POINT ENERGY      -652.830339614800
FINAL SINGLE POINT ENERGY      -652.853180251979
FINAL SINGLE POINT ENERGY      -652.857763254549
FINAL SINGLE POINT ENERGY      -652.859790764830
FINAL SINGLE POINT ENERGY      -652.859962065604
FINAL SINGLE POINT ENERGY      -652.859992120430
                    ***********************HURRAY********************

CARTESIAN COORDINATES (ANGSTROEM)
---------------------------------
  C    -21.047310   26.282180   46.344975
  C    -20.429481   27.642486   46.021217
  C    -20.285531   28.269335   47.428678
  C    -19.948027   27.055425   48.320517
  O    -20.358990   25.854792   47.534736
  H    -20.869674   25.510018   45.593595
  H    -19.448533   27.490647   45.555966
  H    -21.057384   28.229866   45.348050
  H    -19.510163   29.040477   47.468505
  H    -21.232903   28.726945   47.732305
  H    -20.482556   27.052055   49.274220
  H    -18.876330   26.947197   48.508391
  C    -23.163918   26.105747   47.735649
  H    -22.428149   26.073789   48.543186
  H    -23.876010   26.918773   47.920328
  O    -22.501304   26.404803   46.474405
  C    -23.906288   24.765091   47.730957
  C    -25.029792   24.606435   46.694954
  C    -24.240169   24.156110   45.438103
  C    -23.106727   23.284488   46.032827
  O    -23.019378   23.632660   47.470102
  H    -24.312473   24.619912   48.740254
  O    -25.993733   23.603911   47.129107
  H    -25.613766   25.513729   46.537015
  H    -24.886271   23.605404   44.748830
  H    -23.829988   25.034904   44.936396
  H    -22.137192   23.472691   45.562475
  H    -23.320058   22.211518   45.975201
  H    -25.508902   22.808613   47.435054

 Multiplicity           Mult            ....    1
 Number of Electrons    NEL             ....  102
 Basis Dimension        Dim             ....  149

ORBITAL ENERGIES
----------------

  NO   OCC          E(Eh)            E(eV)
   0   2.0000     -19.152501      -521.1660
   1   2.0000     -19.141672      -520.8714
   2   2.0000     -19.134588      -520.6786
   3   2.0000     -19.130592      -520.5699
   4   2.0000     -10.282355      -279.7971
   5   2.0000     -10.234369      -278.4913
   6   2.0000     -10.231873      -278.4234
   7   2.0000     -10.228868      -278.3417
   8   2.0000     -10.227353      -278.3004
   9   2.0000     -10.221546      -278.1424
  10   2.0000     -10.193541      -277.3803
  11   2.0000     -10.188310      -277.2380
  12   2.0000     -10.173736      -276.8414
  13   2.0000      -1.056701       -28.7543
  14   2.0000      -1.028840       -27.9961
  15   2.0000      -0.999994       -27.2112
  16   2.0000      -0.991492       -26.9799
  17   2.0000      -0.793494       -21.5921
  18   2.0000      -0.774097       -21.0643
  19   2.0000      -0.762547       -20.7500
  20   2.0000      -0.734790       -19.9947
  21   2.0000      -0.671638       -18.2762
  22   2.0000      -0.606891       -16.5143
  23   2.0000      -0.601217       -16.3600
  24   2.0000      -0.593528       -16.1507
  25   2.0000      -0.565224       -15.3805
  26   2.0000      -0.525774       -14.3070
  27   2.0000      -0.508220       -13.8294
  28   2.0000      -0.494455       -13.4548
  29   2.0000      -0.485204       -13.2031
  30   2.0000      -0.473568       -12.8864
  31   2.0000      -0.461270       -12.5518
  32   2.0000      -0.447121       -12.1668
  33   2.0000      -0.436358       -11.8739
  34   2.0000      -0.419212       -11.4073
  35   2.0000      -0.411760       -11.2046
  36   2.0000      -0.395211       -10.7542
  37   2.0000      -0.384545       -10.4640
  38   2.0000      -0.375843       -10.2272
  39   2.0000      -0.368422       -10.0253
  40   2.0000      -0.362757        -9.8711
  41   2.0000      -0.358000        -9.7417
  42   2.0000      -0.348737        -9.4896
  43   2.0000      -0.332427        -9.0458
  44   2.0000      -0.323060        -8.7909
  45   2.0000      -0.307903        -8.3785
  46   2.0000      -0.294726        -8.0199
  47   2.0000      -0.267864        -7.2889
  48   2.0000      -0.264817        -7.2060
  49   2.0000      -0.257494        -7.0068
  50   2.0000      -0.232973        -6.3395
  51   0.0000       0.068464         1.8630
  52   0.0000       0.078334         2.1316
  53   0.0000       0.096108         2.6152
  54   0.0000       0.102367         2.7856
  55   0.0000       0.106910         2.9092

MULLIKEN ATOMIC CHARGES
-----------------------
   0 C :    0.306521
   1 C :   -0.258353
   2 C :   -0.306061
   3 C :   -0.022185
   4 O :   -0.499228
   5 H :    0.154691
   6 H :    0.145716
   7 H :    0.158740
   8 H :    0.148785
   9 H :    0.154338
  10 H :    0.146871
  11 H :    0.153501
  12 C :   -0.017379
  13 H :    0.163602
  14 H :    0.136463
  15 O :   -0.544157
  16 C :    0.079401
  17 C :    0.077785
  18 C :   -0.288637
  19 C :   -0.025470
  20 O :   -0.520003
  21 H :    0.148029
  22 O :   -0.606087
  23 H :    0.149518
  24 H :    0.147879
  25 H :    0.171005
  26 H :    0.143936
  27 H :    0.138838
  28 H :    0.361943
Sum of atomic charges:    0.0000000

LOEWDIN ATOMIC CHARGES
----------------------
   0 C :    0.184364
   1 C :   -0.220971
   2 C :   -0.219536
   3 C :   -0.033335
   4 O :   -0.308209
   5 H :    0.101937
   6 H :    0.114284
   7 H :    0.124784
   8 H :    0.118031
   9 H :    0.114388
  10 H :    0.102751
  11 H :    0.108458
  12 C :   -0.041624
  13 H :    0.115504
  14 H :    0.104377
  15 O :   -0.344918
  16 C :    0.008696
  17 C :    0.038102
  18 C :   -0.242664
  19 C :   -0.034131
  20 O :   -0.325601
  21 H :    0.112676
  22 O :   -0.419246
  23 H :    0.114932
  24 H :    0.118312
  25 H :    0.128230
  26 H :    0.101704
  27 H :    0.097453
  28 H :    0.281252

  Mayer bond orders larger than 0.100000
B(  0-C ,  1-C ) :   0.9302 B(  0-C ,  4-O ) :   0.9239 B(  0-C ,  5-H ) :   0.9246
B(  0-C , 15-O ) :   0.8288 B(  1-C ,  2-C ) :   0.9543 B(  1-C ,  6-H ) :   0.9350
B(  1-C ,  7-H ) :   0.9361 B(  2-C ,  3-C ) :   0.9511 B(  2-C ,  8-H ) :   0.9447
B(  2-C ,  9-H ) :   0.9457 B(  3-C ,  4-O ) :   0.8310 B(  3-C , 10-H ) :   0.9311
B(  3-C , 11-H ) :   0.9403 B( 12-C , 13-H ) :   0.9087 B( 12-C , 14-H ) :   0.9252
B( 12-C , 15-O ) :   0.8587 B( 12-C , 16-C ) :   0.8867 B( 16-C , 17-C ) :   0.9120
B( 16-C , 20-O ) :   0.8750 B( 16-C , 21-H ) :   0.9188 B( 17-C , 18-C ) :   0.9245
B( 17-C , 22-O ) :   0.8884 B( 17-C , 23-H ) :   0.9359 B( 18-C , 19-C ) :   0.9434
B( 18-C , 24-H ) :   0.9373 B( 18-C , 25-H ) :   0.9203 B( 19-C , 20-O ) :   0.8438
B( 19-C , 26-H ) :   0.9306 B( 19-C , 27-H ) :   0.9372 B( 22-O , 28-H ) :   0.7962

FINAL SINGLE POINT ENERGY      -652.859993419914

DIPOLE MOMENT
-------------
                                X             Y             Z
Electronic contribution:     -2.49727      -4.08418       1.23357
Nuclear contribution   :      3.31847       5.11257      -1.38419
                        -----------------------------------------
Total Dipole Moment    :      0.82120       1.02840      -0.15062
                        -----------------------------------------
Magnitude (a.u.)       :      1.32463
Magnitude (Debye)      :      3.36695

Rotational constants in cm-1:     0.063389     0.014116     0.014039
Rotational constants in MHz :  1900.353457   423.183031   420.890025

                             ****ORCA TERMINATED NORMALLY****
TOTAL RUN TIME: 0 days 0 hours 41 minutes 14 seconds 560 msec
