                         Program Version 4.2.0 -  RELEASE  -
|  1> # Test redundant internal optimization
|  2> #
|  3> ! RKS B3LYP  Opt TightSCF SmallPrint
|  4>
|  5> %basis
|  6>         Basis "6-31G"
|  7> end
|  8>
|  9> %geom
| 10> Constraints
| 11> { D 4  0  15  12  165.0   C } # D for Dihedral angle
| 12> { D 0  15  12  16  150.0   C } # D for Dihedral angle
| 13> { D 0  4  3  2   C } # D for Dihedral angle
| 14> { D 4  3  2  1   C } # D for Dihedral angle
| 15> { D 3  2  1  0   C } # D for Dihedral angle
| 16> { D 2  1  0  4   C } # D for Dihedral angle
| 17> { D 1  0  4  3   C } # D for Dihedral angle
| 18> { D 16  20  19  18   C } # D for Dihedral angle
| 19> { D 20  19  18  17   C } # D for Dihedral angle
| 20> { D 19  18  17  16   C } # D for Dihedral angle
| 21> { D 18  17  16  20   C } # D for Dihedral angle
| 22> { D 17  16  20  19   C } # D for Dihedral angle
| 23> { D 15  12  16  20   C } # D for Dihedral angle
| 24> end
| 25> end
| 26>
| 27>
| 28> #%pal
| 29> #nprocs 8
| 30> #end
| 31>
| 32> * xyz 0 1
| 33> C  -21.048   26.222   46.251
| 34> C  -20.361   27.558   45.944
| 35> C  -20.329   28.222   47.341
| 36> C  -20.110   27.022   48.296
| 37> O  -20.473   25.807   47.535
| 38> H  -20.833   25.428   45.533
| 39> H  -19.344   27.382   45.576
| 40> H  -20.898   28.157   45.201
| 41> H  -19.543   28.978   47.434
| 42> H  -21.289   28.710   47.548
| 43> H  -20.733   27.082   49.195
| 44> H  -19.064   26.913   48.597
| 45> C  -23.260   27.170   45.210
| 46> H  -23.268   28.242   45.446
| 47> H  -22.697   27.029   44.278
| 48> O  -22.586   26.394   46.375
| 49> C  -24.723   26.715   44.953
| 50> C  -25.317   27.418   43.727
| 51> C  -24.696   26.602   42.567
| 52> C  -24.641   25.164   43.139
| 53> O  -24.764   25.290   44.607
| 54> H  -25.303   26.839   45.870
| 55> H  -26.408   27.320   43.728
| 56> O  -24.962   28.928   43.658
| 57> H  -25.283   26.662   41.645
| 58> H  -23.687   26.969   42.347
| 59> H  -23.701   24.653   42.901
| 60> H  -25.476   24.546   42.798
| 61> H  -23.873   29.052   43.654
| 62> *
| 63>
| 64>                          ****END OF INPUT****
 Total Charge           Charge          ....    0
 Multiplicity           Mult            ....    1
 Number of Electrons    NEL             ....  102
FINAL SINGLE POINT ENERGY      -652.821356142108
FINAL SINGLE POINT ENERGY      -652.844970541940
FINAL SINGLE POINT ENERGY      -652.849586076607
FINAL SINGLE POINT ENERGY      -652.850357935255
FINAL SINGLE POINT ENERGY      -652.850497158409
FINAL SINGLE POINT ENERGY      -652.850521372009
FINAL SINGLE POINT ENERGY      -652.850524822578
                    ***********************HURRAY********************

CARTESIAN COORDINATES (ANGSTROEM)
---------------------------------
  C    -21.045147   26.263353   46.184583
  C    -20.249207   27.551119   45.975250
  C    -20.330603   28.213793   47.375214
  C    -20.294897   26.998718   48.325141
  O    -20.650927   25.823874   47.489976
  H    -20.823362   25.454266   45.482035
  H    -19.213260   27.288795   45.730486
  H    -20.632155   28.191018   45.175919
  H    -19.507725   28.911707   47.556063
  H    -21.274376   28.758783   47.478100
  H    -21.011870   27.072234   49.146450
  H    -19.297108   26.803827   48.729128
  C    -23.087380   27.235174   45.145239
  H    -23.108472   28.307213   45.385694
  H    -22.514078   27.097875   44.213779
  O    -22.487919   26.478459   46.226372
  C    -24.516287   26.725872   44.959131
  C    -25.286743   27.405131   43.814842
  C    -24.800275   26.593430   42.576498
  C    -24.634998   25.168280   43.147264
  O    -24.566775   25.307018   44.624503
  H    -25.033603   26.820964   45.918149
  H    -26.358808   27.262752   43.966816
  O    -25.120226   28.840684   43.713209
  H    -25.509071   26.641858   41.745339
  H    -23.842068   26.999935   42.225503
  H    -23.728168   24.668261   42.791715
  H    -25.496279   24.530383   42.925712
  H    -24.248214   29.059223   43.325891

 Multiplicity           Mult            ....    1
 Number of Electrons    NEL             ....  102
 Basis Dimension        Dim             ....  149

ORBITAL ENERGIES
----------------

  NO   OCC          E(Eh)            E(eV)
   0   2.0000     -19.152573      -521.1680
   1   2.0000     -19.137991      -520.7712
   2   2.0000     -19.136535      -520.7316
   3   2.0000     -19.135145      -520.6938
   4   2.0000     -10.277827      -279.6739
   5   2.0000     -10.246633      -278.8251
   6   2.0000     -10.233267      -278.4614
   7   2.0000     -10.231222      -278.4057
   8   2.0000     -10.229947      -278.3710
   9   2.0000     -10.224111      -278.2122
  10   2.0000     -10.197863      -277.4980
  11   2.0000     -10.190229      -277.2902
  12   2.0000     -10.189139      -277.2606
  13   2.0000      -1.051485       -28.6124
  14   2.0000      -1.035114       -28.1669
  15   2.0000      -1.016477       -27.6598
  16   2.0000      -0.990514       -26.9533
  17   2.0000      -0.787680       -21.4339
  18   2.0000      -0.784036       -21.3347
  19   2.0000      -0.769013       -20.9259
  20   2.0000      -0.731235       -19.8979
  21   2.0000      -0.683696       -18.6043
  22   2.0000      -0.613093       -16.6831
  23   2.0000      -0.603057       -16.4100
  24   2.0000      -0.590669       -16.0729
  25   2.0000      -0.574455       -15.6317
  26   2.0000      -0.529483       -14.4080
  27   2.0000      -0.508648       -13.8410
  28   2.0000      -0.502587       -13.6761
  29   2.0000      -0.494117       -13.4456
  30   2.0000      -0.470819       -12.8116
  31   2.0000      -0.461217       -12.5503
  32   2.0000      -0.447080       -12.1657
  33   2.0000      -0.438276       -11.9261
  34   2.0000      -0.430210       -11.7066
  35   2.0000      -0.413081       -11.2405
  36   2.0000      -0.411401       -11.1948
  37   2.0000      -0.398026       -10.8308
  38   2.0000      -0.380390       -10.3509
  39   2.0000      -0.376271       -10.2388
  40   2.0000      -0.362642        -9.8680
  41   2.0000      -0.355524        -9.6743
  42   2.0000      -0.351053        -9.5526
  43   2.0000      -0.332038        -9.0352
  44   2.0000      -0.315799        -8.5933
  45   2.0000      -0.311479        -8.4758
  46   2.0000      -0.297775        -8.1029
  47   2.0000      -0.272484        -7.4147
  48   2.0000      -0.257747        -7.0137
  49   2.0000      -0.252144        -6.8612
  50   2.0000      -0.238423        -6.4878
  51   0.0000       0.046462         1.2643
  52   0.0000       0.070604         1.9212
  53   0.0000       0.084733         2.3057
  54   0.0000       0.091966         2.5025
  55   0.0000       0.106753         2.9049

MULLIKEN ATOMIC CHARGES
-----------------------
   0 C :    0.311240
   1 C :   -0.287994
   2 C :   -0.300063
   3 C :    0.000567
   4 O :   -0.497442
   5 H :    0.146954
   6 H :    0.149183
   7 H :    0.137184
   8 H :    0.143256
   9 H :    0.157266
  10 H :    0.156279
  11 H :    0.141838
  12 C :   -0.019713
  13 H :    0.134755
  14 H :    0.110461
  15 O :   -0.502247
  16 C :    0.098732
  17 C :    0.078573
  18 C :   -0.325390
  19 C :   -0.013241
  20 O :   -0.500252
  21 H :    0.168854
  22 H :    0.172325
  23 O :   -0.599955
  24 H :    0.160758
  25 H :    0.127775
  26 H :    0.143002
  27 H :    0.152875
  28 H :    0.354421
Sum of atomic charges:    0.0000000

LOEWDIN ATOMIC CHARGES
----------------------
   0 C :    0.184334
   1 C :   -0.235670
   2 C :   -0.217139
   3 C :   -0.025172
   4 O :   -0.300034
   5 H :    0.100421
   6 H :    0.117079
   7 H :    0.110597
   8 H :    0.114765
   9 H :    0.115462
  10 H :    0.110511
  11 H :    0.102616
  12 C :   -0.053476
  13 H :    0.097092
  14 H :    0.083146
  15 O :   -0.324037
  16 C :    0.022115
  17 C :    0.033904
  18 C :   -0.242583
  19 C :   -0.031243
  20 O :   -0.309392
  21 H :    0.122524
  22 H :    0.121313
  23 O :   -0.408037
  24 H :    0.123540
  25 H :    0.101256
  26 H :    0.102006
  27 H :    0.107366
  28 H :    0.276737

  Mayer bond orders larger than 0.100000
B(  0-C ,  1-C ) :   0.9268 B(  0-C ,  4-O ) :   0.9393 B(  0-C ,  5-H ) :   0.9208
B(  0-C , 15-O ) :   0.8387 B(  1-C ,  2-C ) :   0.9506 B(  1-C ,  6-H ) :   0.9341
B(  1-C ,  7-H ) :   0.9304 B(  2-C ,  3-C ) :   0.9553 B(  2-C ,  8-H ) :   0.9451
B(  2-C ,  9-H ) :   0.9449 B(  3-C ,  4-O ) :   0.8367 B(  3-C , 10-H ) :   0.9340
B(  3-C , 11-H ) :   0.9397 B( 12-C , 13-H ) :   0.9024 B( 12-C , 14-H ) :   0.9153
B( 12-C , 15-O ) :   0.8534 B( 12-C , 16-C ) :   0.8979 B( 16-C , 17-C ) :   0.8715
B( 16-C , 20-O ) :   0.8722 B( 16-C , 21-H ) :   0.9286 B( 17-C , 18-C ) :   0.9234
B( 17-C , 22-H ) :   0.9319 B( 17-C , 23-O ) :   0.8952 B( 18-C , 19-C ) :   0.9380
B( 18-C , 24-H ) :   0.9411 B( 18-C , 25-H ) :   0.9411 B( 19-C , 20-O ) :   0.8526
B( 19-C , 26-H ) :   0.9316 B( 19-C , 27-H ) :   0.9368 B( 23-O , 28-H ) :   0.7993

FINAL SINGLE POINT ENERGY      -652.850525006309

DIPOLE MOMENT
-------------
                                X             Y             Z
Electronic contribution:     -3.05705      -3.31771       2.16325
Nuclear contribution   :      3.88582       4.37792      -3.46727
                        -----------------------------------------
Total Dipole Moment    :      0.82877       1.06022      -1.30401
                        -----------------------------------------
Magnitude (a.u.)       :      1.87386
Magnitude (Debye)      :      4.76298

Rotational constants in cm-1:     0.055722     0.012695     0.011475
Rotational constants in MHz :  1670.503936   380.590661   344.024675

                             ****ORCA TERMINATED NORMALLY****
TOTAL RUN TIME: 0 days 0 hours 21 minutes 50 seconds 913 msec
