                         Program Version 4.2.0 -  RELEASE  -
|  1> # Test redundant internal optimization
|  2> #
|  3> ! RKS B3LYP  Opt TightSCF SmallPrint
|  4>
|  5> %basis
|  6>         Basis "6-31G"
|  7> end
|  8>
|  9> %geom
| 10> Constraints
| 11> { D 4  0  15  12  300.0   C } # D for Dihedral angle
| 12> { D 0  15  12  16  120.0   C } # D for Dihedral angle
| 13> { D 0  4  3  2   C } # D for Dihedral angle
| 14> { D 4  3  2  1   C } # D for Dihedral angle
| 15> { D 3  2  1  0   C } # D for Dihedral angle
| 16> { D 2  1  0  4   C } # D for Dihedral angle
| 17> { D 1  0  4  3   C } # D for Dihedral angle
| 18> { D 16  20  19  18   C } # D for Dihedral angle
| 19> { D 20  19  18  17   C } # D for Dihedral angle
| 20> { D 19  18  17  16   C } # D for Dihedral angle
| 21> { D 18  17  16  20   C } # D for Dihedral angle
| 22> { D 17  16  20  19   C } # D for Dihedral angle
| 23> { D 15  12  16  20   C } # D for Dihedral angle
| 24> end
| 25> end
| 26>
| 27>
| 28> #%pal
| 29> #nprocs 8
| 30> #end
| 31>
| 32> * xyz 0 1
| 33> C  -21.048   26.222   46.251
| 34> C  -20.361   27.558   45.944
| 35> C  -20.329   28.222   47.341
| 36> C  -20.110   27.022   48.296
| 37> O  -20.473   25.807   47.535
| 38> H  -20.833   25.428   45.533
| 39> H  -19.344   27.382   45.576
| 40> H  -20.898   28.157   45.201
| 41> H  -19.543   28.978   47.434
| 42> H  -21.289   28.710   47.548
| 43> H  -20.733   27.082   49.195
| 44> H  -19.064   26.913   48.597
| 45> C  -23.362   25.116   46.798
| 46> H  -24.076   24.849   46.009
| 47> H  -22.670   24.275   46.933
| 48> O  -22.586   26.394   46.375
| 49> C  -24.146   25.302   48.126
| 50> C  -24.803   23.991   48.572
| 51> C  -23.607   23.240   49.204
| 52> C  -22.781   24.378   49.854
| 53> O  -23.229   25.636   49.221
| 54> H  -24.837   26.141   48.019
| 55> O  -25.895   24.278   49.638
| 56> H  -25.264   23.438   47.746
| 57> H  -23.918   22.482   49.931
| 58> H  -23.024   22.736   48.424
| 59> H  -21.704   24.259   49.692
| 60> H  -22.970   24.471   50.927
| 61> H  -25.456   24.831   50.476
| 62> *
| 63>
| 64>                          ****END OF INPUT****
 Total Charge           Charge          ....    0
 Multiplicity           Mult            ....    1
 Number of Electrons    NEL             ....  102
FINAL SINGLE POINT ENERGY      -652.839549609189
FINAL SINGLE POINT ENERGY      -652.863705546277
FINAL SINGLE POINT ENERGY      -652.867776523190
FINAL SINGLE POINT ENERGY      -652.868510647991
FINAL SINGLE POINT ENERGY      -652.868611548410
FINAL SINGLE POINT ENERGY      -652.868625044447
FINAL SINGLE POINT ENERGY      -652.868627798533
                    ***********************HURRAY********************

CARTESIAN COORDINATES (ANGSTROEM)
---------------------------------
  C    -21.085963   26.158928   46.241255
  C    -20.526187   27.560612   46.003985
  C    -20.500246   28.135768   47.436974
  C    -20.149633   26.908768   48.305903
  O    -20.444590   25.718340   47.459304
  H    -20.853317   25.403905   45.483514
  H    -19.514575   27.480362   45.589539
  H    -21.148343   28.138586   45.317439
  H    -19.775072   28.947647   47.550592
  H    -21.492899   28.512639   47.697267
  H    -20.761197   26.841720   49.205929
  H    -19.086547   26.852017   48.558559
  C    -23.248818   25.107830   46.757407
  H    -23.985824   24.902810   45.969826
  H    -22.560769   24.257667   46.832567
  O    -22.517817   26.308027   46.384225
  C    -23.977629   25.331329   48.084744
  C    -24.727481   24.084961   48.576950
  C    -23.589843   23.282258   49.262025
  C    -22.699318   24.391206   49.875522
  O    -23.056978   25.650665   49.177613
  H    -24.645584   26.191723   47.983353
  O    -25.778066   24.441828   49.516906
  H    -25.230082   23.529599   47.783579
  H    -24.000289   22.599289   50.010387
  H    -23.037795   22.692233   48.522983
  H    -21.632339   24.206512   49.724599
  H    -22.893169   24.545766   50.942027
  H    -25.432628   25.115006   50.141028

 Multiplicity           Mult            ....    1
 Number of Electrons    NEL             ....  102
 Basis Dimension        Dim             ....  149

ORBITAL ENERGIES
----------------

  NO   OCC          E(Eh)            E(eV)
   0   2.0000     -19.140570      -520.8414
   1   2.0000     -19.139357      -520.8084
   2   2.0000     -19.137416      -520.7556
   3   2.0000     -19.135303      -520.6981
   4   2.0000     -10.274217      -279.5757
   5   2.0000     -10.241695      -278.6907
   6   2.0000     -10.231608      -278.4162
   7   2.0000     -10.228879      -278.3420
   8   2.0000     -10.226951      -278.2895
   9   2.0000     -10.214273      -277.9445
  10   2.0000     -10.188056      -277.2311
  11   2.0000     -10.179290      -276.9926
  12   2.0000     -10.176533      -276.9175
  13   2.0000      -1.050088       -28.5743
  14   2.0000      -1.033621       -28.1263
  15   2.0000      -1.004380       -27.3306
  16   2.0000      -0.987878       -26.8815
  17   2.0000      -0.787363       -21.4252
  18   2.0000      -0.778002       -21.1705
  19   2.0000      -0.762798       -20.7568
  20   2.0000      -0.725496       -19.7418
  21   2.0000      -0.669680       -18.2229
  22   2.0000      -0.602536       -16.3958
  23   2.0000      -0.592249       -16.1159
  24   2.0000      -0.588030       -16.0011
  25   2.0000      -0.579276       -15.7629
  26   2.0000      -0.522960       -14.2305
  27   2.0000      -0.510678       -13.8963
  28   2.0000      -0.488807       -13.3011
  29   2.0000      -0.480770       -13.0824
  30   2.0000      -0.476542       -12.9674
  31   2.0000      -0.453898       -12.3512
  32   2.0000      -0.449394       -12.2286
  33   2.0000      -0.433987       -11.8094
  34   2.0000      -0.420836       -11.4515
  35   2.0000      -0.401456       -10.9242
  36   2.0000      -0.396714       -10.7951
  37   2.0000      -0.391079       -10.6418
  38   2.0000      -0.372944       -10.1483
  39   2.0000      -0.370354       -10.0779
  40   2.0000      -0.353333        -9.6147
  41   2.0000      -0.348064        -9.4713
  42   2.0000      -0.341684        -9.2977
  43   2.0000      -0.329772        -8.9736
  44   2.0000      -0.324927        -8.8417
  45   2.0000      -0.306733        -8.3466
  46   2.0000      -0.293245        -7.9796
  47   2.0000      -0.270373        -7.3572
  48   2.0000      -0.267981        -7.2921
  49   2.0000      -0.250251        -6.8097
  50   2.0000      -0.237482        -6.4622
  51   0.0000       0.067879         1.8471
  52   0.0000       0.090479         2.4621
  53   0.0000       0.092314         2.5120
  54   0.0000       0.101129         2.7518
  55   0.0000       0.109517         2.9801

MULLIKEN ATOMIC CHARGES
-----------------------
   0 C :    0.286252
   1 C :   -0.263175
   2 C :   -0.297859
   3 C :   -0.007096
   4 O :   -0.517747
   5 H :    0.140604
   6 H :    0.141300
   7 H :    0.156491
   8 H :    0.135998
   9 H :    0.167830
  10 H :    0.170484
  11 H :    0.133292
  12 C :   -0.008016
  13 H :    0.137403
  14 H :    0.142627
  15 O :   -0.516032
  16 C :    0.074755
  17 C :    0.073880
  18 C :   -0.296558
  19 C :   -0.035862
  20 O :   -0.515185
  21 H :    0.166519
  22 O :   -0.601613
  23 H :    0.150422
  24 H :    0.162067
  25 H :    0.146378
  26 H :    0.166254
  27 H :    0.142479
  28 H :    0.364109
Sum of atomic charges:   -0.0000000

LOEWDIN ATOMIC CHARGES
----------------------
   0 C :    0.173397
   1 C :   -0.215063
   2 C :   -0.214562
   3 C :   -0.030284
   4 O :   -0.331736
   5 H :    0.094059
   6 H :    0.112053
   7 H :    0.123795
   8 H :    0.111021
   9 H :    0.122127
  10 H :    0.116711
  11 H :    0.097971
  12 C :   -0.044147
  13 H :    0.104041
  14 H :    0.104726
  15 O :   -0.324458
  16 C :    0.014645
  17 C :    0.033952
  18 C :   -0.240198
  19 C :   -0.041184
  20 O :   -0.322703
  21 H :    0.118690
  22 O :   -0.414598
  23 H :    0.114552
  24 H :    0.126086
  25 H :    0.114019
  26 H :    0.113770
  27 H :    0.100354
  28 H :    0.282965

  Mayer bond orders larger than 0.100000
B(  0-C ,  1-C ) :   0.9523 B(  0-C ,  4-O ) :   0.9067 B(  0-C ,  5-H ) :   0.9209
B(  0-C , 15-O ) :   0.8608 B(  1-C ,  2-C ) :   0.9569 B(  1-C ,  6-H ) :   0.9406
B(  1-C ,  7-H ) :   0.9364 B(  2-C ,  3-C ) :   0.9605 B(  2-C ,  8-H ) :   0.9453
B(  2-C ,  9-H ) :   0.9423 B(  3-C ,  4-O ) :   0.8247 B(  3-C , 10-H ) :   0.9227
B(  3-C , 11-H ) :   0.9402 B( 12-C , 13-H ) :   0.9227 B( 12-C , 14-H ) :   0.9188
B( 12-C , 15-O ) :   0.8428 B( 12-C , 16-C ) :   0.8941 B( 16-C , 17-C ) :   0.8968
B( 16-C , 20-O ) :   0.8654 B( 16-C , 21-H ) :   0.9262 B( 17-C , 18-C ) :   0.9099
B( 17-C , 22-O ) :   0.8921 B( 17-C , 23-H ) :   0.9336 B( 18-C , 19-C ) :   0.9448
B( 18-C , 24-H ) :   0.9374 B( 18-C , 25-H ) :   0.9339 B( 19-C , 20-O ) :   0.8398
B( 19-C , 26-H ) :   0.9263 B( 19-C , 27-H ) :   0.9373 B( 22-O , 28-H ) :   0.7948

FINAL SINGLE POINT ENERGY      -652.868627958717

DIPOLE MOMENT
-------------
                                X             Y             Z
Electronic contribution:     -3.12281      -0.49999      -0.23011
Nuclear contribution   :      3.74412       0.34532       0.12925
                        -----------------------------------------
Total Dipole Moment    :      0.62132      -0.15468      -0.10086
                        -----------------------------------------
Magnitude (a.u.)       :      0.64818
Magnitude (Debye)      :      1.64754

Rotational constants in cm-1:     0.057281     0.015519     0.014319
Rotational constants in MHz :  1717.253815   465.245218   429.275360

                             ****ORCA TERMINATED NORMALLY****
TOTAL RUN TIME: 0 days 0 hours 20 minutes 23 seconds 791 msec
