                         Program Version 4.2.0 -  RELEASE  -
|  1> # Test redundant internal optimization
|  2> #
|  3> ! RKS B3LYP  Opt TightSCF SmallPrint
|  4>
|  5> %basis
|  6>         Basis "6-31G"
|  7> end
|  8>
|  9> %geom
| 10> Constraints
| 11> { D 4  0  15  12  255.0   C } # D for Dihedral angle
| 12> { D 0  15  12  16  30.0   C } # D for Dihedral angle
| 13> { D 0  4  3  2   C } # D for Dihedral angle
| 14> { D 4  3  2  1   C } # D for Dihedral angle
| 15> { D 3  2  1  0   C } # D for Dihedral angle
| 16> { D 2  1  0  4   C } # D for Dihedral angle
| 17> { D 1  0  4  3   C } # D for Dihedral angle
| 18> { D 16  20  19  18   C } # D for Dihedral angle
| 19> { D 20  19  18  17   C } # D for Dihedral angle
| 20> { D 19  18  17  16   C } # D for Dihedral angle
| 21> { D 18  17  16  20   C } # D for Dihedral angle
| 22> { D 17  16  20  19   C } # D for Dihedral angle
| 23> { D 15  12  16  20   C } # D for Dihedral angle
| 24> end
| 25> end
| 26>
| 27>
| 28> #%pal
| 29> #nprocs 8
| 30> #end
| 31>
| 32> * xyz 0 1
| 33> C  -21.048   26.222   46.251
| 34> C  -20.361   27.558   45.944
| 35> C  -20.329   28.222   47.341
| 36> C  -20.110   27.022   48.296
| 37> O  -20.473   25.807   47.535
| 38> H  -20.833   25.428   45.533
| 39> H  -19.344   27.382   45.576
| 40> H  -20.898   28.157   45.201
| 41> H  -19.543   28.978   47.434
| 42> H  -21.289   28.710   47.548
| 43> H  -20.733   27.082   49.195
| 44> H  -19.064   26.913   48.597
| 45> C  -23.431   25.260   45.734
| 46> H  -24.377   25.160   46.280
| 47> H  -23.663   25.498   44.687
| 48> O  -22.586   26.394   46.375
| 49> C  -22.707   23.885   45.756
| 50> C  -22.494   23.391   47.191
| 51> C  -23.894   22.833   47.542
| 52> C  -24.384   22.243   46.195
| 53> O  -23.548   22.853   45.140
| 54> H  -21.795   23.952   45.160
| 55> O  -21.431   22.259   47.213
| 56> H  -22.168   24.182   47.875
| 57> H  -23.865   22.084   48.339
| 58> H  -24.552   23.647   47.870
| 59> H  -25.436   22.472   45.996
| 60> H  -24.241   21.161   46.136
| 61> H  -21.736   21.454   46.534
| 62> *
| 63>
| 64>                          ****END OF INPUT****
 Total Charge           Charge          ....    0
 Multiplicity           Mult            ....    1
 Number of Electrons    NEL             ....  102
FINAL SINGLE POINT ENERGY      -652.831986889909
FINAL SINGLE POINT ENERGY      -652.855147137426
FINAL SINGLE POINT ENERGY      -652.858991420502
FINAL SINGLE POINT ENERGY      -652.860704164666
FINAL SINGLE POINT ENERGY      -652.860847788404
FINAL SINGLE POINT ENERGY      -652.860878306660
                    ***********************HURRAY********************

CARTESIAN COORDINATES (ANGSTROEM)
---------------------------------
  C    -20.922412   26.189581   46.237347
  C    -20.369637   27.586530   45.946757
  C    -20.496237   28.272670   47.328973
  C    -20.206764   27.119240   48.316121
  O    -20.392165   25.864683   47.544484
  H    -20.584735   25.407960   45.555954
  H    -19.318789   27.507229   45.644752
  H    -20.930459   28.093316   45.159039
  H    -19.801423   29.108870   47.450405
  H    -21.516304   28.644706   47.460234
  H    -20.885192   27.108337   49.173046
  H    -19.172867   27.115258   48.673892
  C    -23.216576   25.233984   45.736107
  H    -24.138069   25.293458   46.320517
  H    -23.462311   25.472530   44.693625
  O    -22.361997   26.286977   46.283244
  C    -22.669417   23.798907   45.764560
  C    -22.416489   23.195931   47.153808
  C    -23.852265   22.813861   47.593440
  C    -24.526874   22.375668   46.269246
  O    -23.694456   22.928784   45.168501
  H    -21.783292   23.696217   45.133123
  O    -21.560895   22.021969   47.046125
  H    -21.901797   23.874246   47.833184
  H    -23.825418   22.016753   48.341108
  H    -24.359994   23.678539   48.033921
  H    -25.548519   22.752906   46.164202
  H    -24.541219   21.288501   46.142782
  H    -21.876428   21.461391   46.305502

 Multiplicity           Mult            ....    1
 Number of Electrons    NEL             ....  102
 Basis Dimension        Dim             ....  149

ORBITAL ENERGIES
----------------

  NO   OCC          E(Eh)            E(eV)
   0   2.0000     -19.146482      -521.0023
   1   2.0000     -19.142245      -520.8870
   2   2.0000     -19.139648      -520.8163
   3   2.0000     -19.131938      -520.6065
   4   2.0000     -10.280471      -279.7458
   5   2.0000     -10.235032      -278.5094
   6   2.0000     -10.232106      -278.4298
   7   2.0000     -10.231852      -278.4228
   8   2.0000     -10.231455      -278.4121
   9   2.0000     -10.224076      -278.2113
  10   2.0000     -10.186304      -277.1834
  11   2.0000     -10.184305      -277.1290
  12   2.0000     -10.184021      -277.1213
  13   2.0000      -1.051762       -28.6199
  14   2.0000      -1.035090       -28.1662
  15   2.0000      -1.001709       -27.2579
  16   2.0000      -0.992573       -27.0093
  17   2.0000      -0.787697       -21.4343
  18   2.0000      -0.775740       -21.1090
  19   2.0000      -0.765169       -20.8213
  20   2.0000      -0.734244       -19.9798
  21   2.0000      -0.674263       -18.3476
  22   2.0000      -0.607062       -16.5190
  23   2.0000      -0.600992       -16.3538
  24   2.0000      -0.596542       -16.2327
  25   2.0000      -0.568952       -15.4820
  26   2.0000      -0.523225       -14.2377
  27   2.0000      -0.519527       -14.1371
  28   2.0000      -0.494721       -13.4621
  29   2.0000      -0.482459       -13.1284
  30   2.0000      -0.464987       -12.6529
  31   2.0000      -0.460151       -12.5214
  32   2.0000      -0.452297       -12.3076
  33   2.0000      -0.431115       -11.7312
  34   2.0000      -0.423293       -11.5184
  35   2.0000      -0.412932       -11.2364
  36   2.0000      -0.400421       -10.8960
  37   2.0000      -0.390703       -10.6316
  38   2.0000      -0.373447       -10.1620
  39   2.0000      -0.366507        -9.9732
  40   2.0000      -0.361392        -9.8340
  41   2.0000      -0.355135        -9.6637
  42   2.0000      -0.348841        -9.4924
  43   2.0000      -0.332915        -9.0591
  44   2.0000      -0.319269        -8.6878
  45   2.0000      -0.305728        -8.3193
  46   2.0000      -0.305575        -8.3151
  47   2.0000      -0.266345        -7.2476
  48   2.0000      -0.265548        -7.2259
  49   2.0000      -0.254885        -6.9358
  50   2.0000      -0.239444        -6.5156
  51   0.0000       0.063969         1.7407
  52   0.0000       0.075512         2.0548
  53   0.0000       0.094149         2.5619
  54   0.0000       0.098831         2.6893
  55   0.0000       0.101655         2.7662

MULLIKEN ATOMIC CHARGES
-----------------------
   0 C :    0.275932
   1 C :   -0.249165
   2 C :   -0.298107
   3 C :   -0.001772
   4 O :   -0.504269
   5 H :    0.149999
   6 H :    0.144054
   7 H :    0.151016
   8 H :    0.140190
   9 H :    0.163904
  10 H :    0.148508
  11 H :    0.143281
  12 C :    0.012873
  13 H :    0.146962
  14 H :    0.148274
  15 O :   -0.532528
  16 C :    0.023771
  17 C :    0.075659
  18 C :   -0.303903
  19 C :   -0.035369
  20 O :   -0.528629
  21 H :    0.160481
  22 O :   -0.601050
  23 H :    0.200045
  24 H :    0.165238
  25 H :    0.148685
  26 H :    0.148012
  27 H :    0.148433
  28 H :    0.359476
Sum of atomic charges:   -0.0000000

LOEWDIN ATOMIC CHARGES
----------------------
   0 C :    0.171011
   1 C :   -0.215324
   2 C :   -0.215536
   3 C :   -0.027280
   4 O :   -0.322702
   5 H :    0.101498
   6 H :    0.112844
   7 H :    0.121166
   8 H :    0.113338
   9 H :    0.120015
  10 H :    0.106121
  11 H :    0.103058
  12 C :   -0.036737
  13 H :    0.110423
  14 H :    0.104785
  15 O :   -0.333190
  16 C :    0.000700
  17 C :    0.032184
  18 C :   -0.242402
  19 C :   -0.039410
  20 O :   -0.329409
  21 H :    0.110851
  22 O :   -0.413678
  23 H :    0.137450
  24 H :    0.127708
  25 H :    0.115522
  26 H :    0.104662
  27 H :    0.103348
  28 H :    0.278983

  Mayer bond orders larger than 0.100000
B(  0-C ,  1-C ) :   0.9446 B(  0-C ,  4-O ) :   0.9055 B(  0-C ,  5-H ) :   0.9145
B(  0-C , 15-O ) :   0.8507 B(  1-C ,  2-C ) :   0.9578 B(  1-C ,  6-H ) :   0.9386
B(  1-C ,  7-H ) :   0.9383 B(  2-C ,  3-C ) :   0.9537 B(  2-C ,  8-H ) :   0.9455
B(  2-C ,  9-H ) :   0.9435 B(  3-C ,  4-O ) :   0.8348 B(  3-C , 10-H ) :   0.9356
B(  3-C , 11-H ) :   0.9399 B( 12-C , 13-H ) :   0.9363 B( 12-C , 14-H ) :   0.9204
B( 12-C , 15-O ) :   0.8355 B( 12-C , 16-C ) :   0.8902 B( 16-C , 17-C ) :   0.9046
B( 16-C , 20-O ) :   0.8282 B( 16-C , 21-H ) :   0.9222 B( 17-C , 18-C ) :   0.9100
B( 17-C , 22-O ) :   0.8861 B( 17-C , 23-H ) :   0.9052 B( 18-C , 19-C ) :   0.9416
B( 18-C , 24-H ) :   0.9369 B( 18-C , 25-H ) :   0.9341 B( 19-C , 20-O ) :   0.8399
B( 19-C , 26-H ) :   0.9355 B( 19-C , 27-H ) :   0.9379 B( 22-O , 28-H ) :   0.7970

FINAL SINGLE POINT ENERGY      -652.860881061093

DIPOLE MOMENT
-------------
                                X             Y             Z
Electronic contribution:      0.36924      -3.66970      -1.71352
Nuclear contribution   :     -0.74933       4.30429       1.67383
                        -----------------------------------------
Total Dipole Moment    :     -0.38009       0.63459      -0.03969
                        -----------------------------------------
Magnitude (a.u.)       :      0.74078
Magnitude (Debye)      :      1.88290

Rotational constants in cm-1:     0.056510     0.014195     0.012937
Rotational constants in MHz :  1694.127598   425.569322   387.840183

                             ****ORCA TERMINATED NORMALLY****
TOTAL RUN TIME: 0 days 0 hours 27 minutes 14 seconds 583 msec
