                         Program Version 4.2.0 -  RELEASE  -
|  1> # Test redundant internal optimization
|  2> #
|  3> ! RKS B3LYP  Opt TightSCF SmallPrint
|  4>
|  5> %basis
|  6>         Basis "6-31G"
|  7> end
|  8>
|  9> %geom
| 10> Constraints
| 11> { D 4  0  15  12  255.0   C } # D for Dihedral angle
| 12> { D 0  15  12  16  240.0   C } # D for Dihedral angle
| 13> { D 0  4  3  2   C } # D for Dihedral angle
| 14> { D 4  3  2  1   C } # D for Dihedral angle
| 15> { D 3  2  1  0   C } # D for Dihedral angle
| 16> { D 2  1  0  4   C } # D for Dihedral angle
| 17> { D 1  0  4  3   C } # D for Dihedral angle
| 18> { D 16  20  19  18   C } # D for Dihedral angle
| 19> { D 20  19  18  17   C } # D for Dihedral angle
| 20> { D 19  18  17  16   C } # D for Dihedral angle
| 21> { D 18  17  16  20   C } # D for Dihedral angle
| 22> { D 17  16  20  19   C } # D for Dihedral angle
| 23> { D 15  12  16  20   C } # D for Dihedral angle
| 24> end
| 25> end
| 26>
| 27>
| 28> #%pal
| 29> #nprocs 8
| 30> #end
| 31>
| 32> * xyz 0 1
| 33> C  -21.048   26.222   46.251
| 34> C  -20.361   27.558   45.944
| 35> C  -20.329   28.222   47.341
| 36> C  -20.110   27.022   48.296
| 37> O  -20.473   25.807   47.535
| 38> H  -20.833   25.428   45.533
| 39> H  -19.344   27.382   45.576
| 40> H  -20.898   28.157   45.201
| 41> H  -19.543   28.978   47.434
| 42> H  -21.289   28.710   47.548
| 43> H  -20.733   27.082   49.195
| 44> H  -19.064   26.913   48.597
| 45> C  -23.431   25.260   45.734
| 46> H  -22.759   24.509   45.300
| 47> H  -24.052   24.767   46.493
| 48> O  -22.586   26.394   46.375
| 49> C  -24.376   25.775   44.613
| 50> C  -25.276   24.653   44.084
| 51> C  -26.364   24.579   45.181
| 52> C  -26.525   26.057   45.616
| 53> O  -25.315   26.767   45.150
| 54> H  -23.782   26.278   43.847
| 55> O  -25.898   25.065   42.722
| 56> H  -24.745   23.704   43.948
| 57> H  -27.303   24.146   44.820
| 58> H  -26.013   23.966   46.019
| 59> H  -26.609   26.168   46.703
| 60> H  -27.385   26.541   45.144
| 61> H  -26.435   26.014   42.834
| 62> *
| 63>
| 64>                          ****END OF INPUT****
 Total Charge           Charge          ....    0
 Multiplicity           Mult            ....    1
 Number of Electrons    NEL             ....  102
FINAL SINGLE POINT ENERGY      -652.832956432159
FINAL SINGLE POINT ENERGY      -652.855894858214
FINAL SINGLE POINT ENERGY      -652.859940879879
FINAL SINGLE POINT ENERGY      -652.860628688380
FINAL SINGLE POINT ENERGY      -652.860711747970
FINAL SINGLE POINT ENERGY      -652.860721535462
FINAL SINGLE POINT ENERGY      -652.860722543601
                    ***********************HURRAY********************

CARTESIAN COORDINATES (ANGSTROEM)
---------------------------------
  C    -21.076858   26.144731   46.190357
  C    -20.520565   27.536316   45.887392
  C    -20.527617   28.194348   47.288107
  C    -20.186863   27.014658   48.225796
  O    -20.456326   25.782661   47.443406
  H    -20.816597   25.360959   45.471295
  H    -19.497168   27.442915   45.504806
  H    -21.129249   28.071817   45.156251
  H    -19.809430   29.015502   47.372416
  H    -21.527639   28.581528   47.503572
  H    -20.799200   26.996535   49.130715
  H    -19.128868   26.984072   48.503883
  C    -23.340073   25.192448   45.783809
  H    -22.713972   24.405234   45.335824
  H    -23.901557   24.748868   46.614483
  O    -22.511580   26.253090   46.325070
  C    -24.286621   25.750874   44.721281
  C    -25.239692   24.702656   44.128591
  C    -26.367486   24.661568   45.193809
  C    -26.449031   26.132671   45.671942
  O    -25.178364   26.779949   45.262651
  H    -23.697212   26.237315   43.937755
  O    -25.736984   25.129573   42.830916
  H    -24.777646   23.730207   43.951975
  H    -27.300424   24.301933   44.752821
  H    -26.092311   23.988746   46.013488
  H    -26.558429   26.220447   46.757105
  H    -27.262243   26.686297   45.192965
  H    -25.988997   26.076083   42.881517

 Multiplicity           Mult            ....    1
 Number of Electrons    NEL             ....  102
 Basis Dimension        Dim             ....  149

ORBITAL ENERGIES
----------------

  NO   OCC          E(Eh)            E(eV)
   0   2.0000     -19.142064      -520.8820
   1   2.0000     -19.140730      -520.8458
   2   2.0000     -19.140031      -520.8267
   3   2.0000     -19.134223      -520.6687
   4   2.0000     -10.277731      -279.6713
   5   2.0000     -10.244864      -278.7769
   6   2.0000     -10.234957      -278.5073
   7   2.0000     -10.234811      -278.5034
   8   2.0000     -10.231120      -278.4029
   9   2.0000     -10.220146      -278.1043
  10   2.0000     -10.191398      -277.3220
  11   2.0000     -10.180765      -277.0327
  12   2.0000     -10.180026      -277.0126
  13   2.0000      -1.050470       -28.5847
  14   2.0000      -1.036969       -28.2174
  15   2.0000      -1.007582       -27.4177
  16   2.0000      -0.991614       -26.9832
  17   2.0000      -0.788717       -21.4621
  18   2.0000      -0.780274       -21.2323
  19   2.0000      -0.767193       -20.8764
  20   2.0000      -0.729197       -19.8425
  21   2.0000      -0.674468       -18.3532
  22   2.0000      -0.606578       -16.5058
  23   2.0000      -0.597216       -16.2511
  24   2.0000      -0.592689       -16.1279
  25   2.0000      -0.581306       -15.8181
  26   2.0000      -0.527670       -14.3586
  27   2.0000      -0.512210       -13.9379
  28   2.0000      -0.494470       -13.4552
  29   2.0000      -0.488278       -13.2867
  30   2.0000      -0.472450       -12.8560
  31   2.0000      -0.456977       -12.4350
  32   2.0000      -0.449563       -12.2332
  33   2.0000      -0.443330       -12.0636
  34   2.0000      -0.425022       -11.5654
  35   2.0000      -0.411344       -11.1932
  36   2.0000      -0.397283       -10.8106
  37   2.0000      -0.394404       -10.7323
  38   2.0000      -0.374122       -10.1804
  39   2.0000      -0.366077        -9.9615
  40   2.0000      -0.361194        -9.8286
  41   2.0000      -0.352134        -9.5821
  42   2.0000      -0.346383        -9.4256
  43   2.0000      -0.332150        -9.0383
  44   2.0000      -0.317272        -8.6334
  45   2.0000      -0.309752        -8.4288
  46   2.0000      -0.299878        -8.1601
  47   2.0000      -0.273047        -7.4300
  48   2.0000      -0.268016        -7.2931
  49   2.0000      -0.252747        -6.8776
  50   2.0000      -0.236403        -6.4329
  51   0.0000       0.064366         1.7515
  52   0.0000       0.080516         2.1909
  53   0.0000       0.088868         2.4182
  54   0.0000       0.099363         2.7038
  55   0.0000       0.101582         2.7642

MULLIKEN ATOMIC CHARGES
-----------------------
   0 C :    0.276085
   1 C :   -0.252669
   2 C :   -0.300022
   3 C :   -0.000681
   4 O :   -0.505590
   5 H :    0.136906
   6 H :    0.141160
   7 H :    0.153474
   8 H :    0.138757
   9 H :    0.169161
  10 H :    0.148797
  11 H :    0.139311
  12 C :    0.001485
  13 H :    0.124766
  14 H :    0.145800
  15 O :   -0.505484
  16 C :    0.075256
  17 C :    0.074723
  18 C :   -0.298752
  19 C :   -0.029688
  20 O :   -0.510827
  21 H :    0.157179
  22 O :   -0.601287
  23 H :    0.150223
  24 H :    0.162378
  25 H :    0.147347
  26 H :    0.151451
  27 H :    0.145401
  28 H :    0.365343
Sum of atomic charges:    0.0000000

LOEWDIN ATOMIC CHARGES
----------------------
   0 C :    0.172971
   1 C :   -0.218539
   2 C :   -0.216189
   3 C :   -0.026921
   4 O :   -0.324254
   5 H :    0.095013
   6 H :    0.111708
   7 H :    0.121907
   8 H :    0.112572
   9 H :    0.122649
  10 H :    0.106431
  11 H :    0.100878
  12 C :   -0.035687
  13 H :    0.097447
  14 H :    0.105506
  15 O :   -0.317616
  16 C :    0.011285
  17 C :    0.033973
  18 C :   -0.241358
  19 C :   -0.038466
  20 O :   -0.322295
  21 H :    0.114726
  22 O :   -0.413884
  23 H :    0.114527
  24 H :    0.126597
  25 H :    0.114071
  26 H :    0.106915
  27 H :    0.102345
  28 H :    0.283685

  Mayer bond orders larger than 0.100000
B(  0-C ,  1-C ) :   0.9456 B(  0-C ,  4-O ) :   0.9244 B(  0-C ,  5-H ) :   0.9166
B(  0-C , 15-O ) :   0.8576 B(  1-C ,  2-C ) :   0.9587 B(  1-C ,  6-H ) :   0.9386
B(  1-C ,  7-H ) :   0.9367 B(  2-C ,  3-C ) :   0.9544 B(  2-C ,  8-H ) :   0.9453
B(  2-C ,  9-H ) :   0.9426 B(  3-C ,  4-O ) :   0.8386 B(  3-C , 10-H ) :   0.9354
B(  3-C , 11-H ) :   0.9401 B( 12-C , 13-H ) :   0.9128 B( 12-C , 14-H ) :   0.9298
B( 12-C , 15-O ) :   0.8487 B( 12-C , 16-C ) :   0.8879 B( 16-C , 17-C ) :   0.8954
B( 16-C , 20-O ) :   0.8667 B( 16-C , 21-H ) :   0.9272 B( 17-C , 18-C ) :   0.9110
B( 17-C , 22-O ) :   0.8928 B( 17-C , 23-H ) :   0.9334 B( 18-C , 19-C ) :   0.9397
B( 18-C , 24-H ) :   0.9376 B( 18-C , 25-H ) :   0.9336 B( 19-C , 20-O ) :   0.8518
B( 19-C , 26-H ) :   0.9337 B( 19-C , 27-H ) :   0.9377 B( 22-O , 28-H ) :   0.7937

FINAL SINGLE POINT ENERGY      -652.860722328734

DIPOLE MOMENT
-------------
                                X             Y             Z
Electronic contribution:     -0.85657      -1.17217      -1.80911
Nuclear contribution   :      0.76794       1.23251       1.93547
                        -----------------------------------------
Total Dipole Moment    :     -0.08863       0.06033       0.12636
                        -----------------------------------------
Magnitude (a.u.)       :      0.16572
Magnitude (Debye)      :      0.42121

Rotational constants in cm-1:     0.065685     0.011037     0.010888
Rotational constants in MHz :  1969.193229   330.895542   326.401242

                             ****ORCA TERMINATED NORMALLY****
TOTAL RUN TIME: 0 days 0 hours 25 minutes 35 seconds 971 msec
