                         Program Version 4.2.0 -  RELEASE  -
|  1> # Test redundant internal optimization
|  2> #
|  3> ! RKS B3LYP  Opt TightSCF SmallPrint
|  4>
|  5> %basis
|  6>         Basis "6-31G"
|  7> end
|  8>
|  9> %geom
| 10> Constraints
| 11> { D 4  0  15  12  60.0   C } # D for Dihedral angle
| 12> { D 0  15  12  16  210.0   C } # D for Dihedral angle
| 13> { D 0  4  3  2   C } # D for Dihedral angle
| 14> { D 4  3  2  1   C } # D for Dihedral angle
| 15> { D 3  2  1  0   C } # D for Dihedral angle
| 16> { D 2  1  0  4   C } # D for Dihedral angle
| 17> { D 1  0  4  3   C } # D for Dihedral angle
| 18> { D 16  20  19  18   C } # D for Dihedral angle
| 19> { D 20  19  18  17   C } # D for Dihedral angle
| 20> { D 19  18  17  16   C } # D for Dihedral angle
| 21> { D 18  17  16  20   C } # D for Dihedral angle
| 22> { D 17  16  20  19   C } # D for Dihedral angle
| 23> { D 15  12  16  20   C } # D for Dihedral angle
| 24> end
| 25> end
| 26>
| 27>
| 28> #%pal
| 29> #nprocs 8
| 30> #end
| 31>
| 32> * xyz 0 1
| 33> C  -21.048   26.222   46.251
| 34> C  -20.361   27.558   45.944
| 35> C  -20.329   28.222   47.341
| 36> C  -20.110   27.022   48.296
| 37> O  -20.473   25.807   47.535
| 38> H  -20.833   25.428   45.533
| 39> H  -19.344   27.382   45.576
| 40> H  -20.898   28.157   45.201
| 41> H  -19.543   28.978   47.434
| 42> H  -21.289   28.710   47.548
| 43> H  -20.733   27.082   49.195
| 44> H  -19.064   26.913   48.597
| 45> C  -23.051   27.452   47.413
| 46> H  -22.310   27.516   48.220
| 47> H  -23.134   28.440   46.944
| 48> O  -22.586   26.394   46.375
| 49> C  -24.430   27.110   48.042
| 50> C  -24.361   25.820   48.867
| 51> C  -23.713   26.321   50.180
| 52> C  -24.301   27.745   50.341
| 53> O  -24.819   28.139   49.013
| 54> H  -25.189   27.106   47.259
| 55> H  -25.372   25.440   49.055
| 56> O  -23.537   24.698   48.178
| 57> H  -23.938   25.677   51.036
| 58> H  -22.623   26.362   50.069
| 59> H  -23.551   28.474   50.664
| 60> H  -25.144   27.773   51.037
| 61> H  -22.521   25.057   47.980
| 62> *
| 63>
| 64>                          ****END OF INPUT****
 Total Charge           Charge          ....    0
 Multiplicity           Mult            ....    1
 Number of Electrons    NEL             ....  102
FINAL SINGLE POINT ENERGY      -652.812846663834
FINAL SINGLE POINT ENERGY      -652.842054369855
FINAL SINGLE POINT ENERGY      -652.856472895474
FINAL SINGLE POINT ENERGY      -652.859201778279
FINAL SINGLE POINT ENERGY      -652.859944571601
FINAL SINGLE POINT ENERGY      -652.860306632742
FINAL SINGLE POINT ENERGY      -652.860459478385
FINAL SINGLE POINT ENERGY      -652.860526542276
FINAL SINGLE POINT ENERGY      -652.860535752279
                    ***********************HURRAY********************

CARTESIAN COORDINATES (ANGSTROEM)
---------------------------------
  C    -21.115824   26.348618   46.408471
  C    -20.316172   27.545340   45.877294
  C    -19.975034   28.312935   47.186387
  C    -19.768524   27.167294   48.208518
  O    -20.413684   25.966755   47.610237
  H    -21.081879   25.483145   45.745396
  H    -19.406842   27.170711   45.396463
  H    -20.878145   28.142193   45.154404
  H    -19.076036   28.928287   47.082960
  H    -20.795344   28.974523   47.477071
  H    -20.221122   27.364209   49.184865
  H    -18.713319   26.917650   48.349288
  C    -23.083840   27.518205   47.523783
  H    -22.396845   27.658909   48.363636
  H    -23.229413   28.476620   47.015161
  O    -22.544522   26.525107   46.584065
  C    -24.432652   27.016800   48.057518
  C    -24.399075   25.723862   48.892470
  C    -23.878920   26.246657   50.265811
  C    -24.517147   27.646724   50.368810
  O    -24.932630   28.030269   48.986484
  H    -25.150807   26.949787   47.235977
  H    -25.430155   25.374298   49.014235
  O    -23.656755   24.620848   48.350321
  H    -24.169916   25.584105   51.085439
  H    -22.783971   26.287324   50.239915
  H    -23.833424   28.410819   50.753209
  H    -25.425846   27.651096   50.977419
  H    -22.977159   24.961909   47.728395

 Multiplicity           Mult            ....    1
 Number of Electrons    NEL             ....  102
 Basis Dimension        Dim             ....  149

ORBITAL ENERGIES
----------------

  NO   OCC          E(Eh)            E(eV)
   0   2.0000     -19.164074      -521.4810
   1   2.0000     -19.158576      -521.3314
   2   2.0000     -19.140352      -520.8355
   3   2.0000     -19.113438      -520.1031
   4   2.0000     -10.292684      -280.0782
   5   2.0000     -10.242552      -278.7140
   6   2.0000     -10.239291      -278.6253
   7   2.0000     -10.233126      -278.4575
   8   2.0000     -10.229630      -278.3624
   9   2.0000     -10.227404      -278.3018
  10   2.0000     -10.203398      -277.6486
  11   2.0000     -10.201143      -277.5872
  12   2.0000     -10.179312      -276.9932
  13   2.0000      -1.068060       -29.0634
  14   2.0000      -1.025918       -27.9167
  15   2.0000      -1.009696       -27.4752
  16   2.0000      -0.994200       -27.0536
  17   2.0000      -0.800227       -21.7753
  18   2.0000      -0.779378       -21.2080
  19   2.0000      -0.768354       -20.9080
  20   2.0000      -0.738942       -20.1076
  21   2.0000      -0.683398       -18.5962
  22   2.0000      -0.615894       -16.7593
  23   2.0000      -0.604493       -16.4491
  24   2.0000      -0.595924       -16.2159
  25   2.0000      -0.577582       -15.7168
  26   2.0000      -0.525526       -14.3003
  27   2.0000      -0.521559       -14.1924
  28   2.0000      -0.512616       -13.9490
  29   2.0000      -0.486924       -13.2499
  30   2.0000      -0.477552       -12.9949
  31   2.0000      -0.463635       -12.6161
  32   2.0000      -0.443219       -12.0606
  33   2.0000      -0.433574       -11.7981
  34   2.0000      -0.426564       -11.6074
  35   2.0000      -0.424062       -11.5393
  36   2.0000      -0.412505       -11.2248
  37   2.0000      -0.392609       -10.6834
  38   2.0000      -0.389579       -10.6010
  39   2.0000      -0.372615       -10.1394
  40   2.0000      -0.367544       -10.0014
  41   2.0000      -0.362533        -9.8650
  42   2.0000      -0.347130        -9.4459
  43   2.0000      -0.339279        -9.2323
  44   2.0000      -0.327267        -8.9054
  45   2.0000      -0.322092        -8.7646
  46   2.0000      -0.297091        -8.0842
  47   2.0000      -0.277977        -7.5641
  48   2.0000      -0.267588        -7.2814
  49   2.0000      -0.249778        -6.7968
  50   2.0000      -0.239543        -6.5183
  51   0.0000       0.052599         1.4313
  52   0.0000       0.065010         1.7690
  53   0.0000       0.086326         2.3491
  54   0.0000       0.094825         2.5803
  55   0.0000       0.101693         2.7672

MULLIKEN ATOMIC CHARGES
-----------------------
   0 C :    0.289620
   1 C :   -0.271875
   2 C :   -0.319788
   3 C :   -0.019274
   4 O :   -0.506135
   5 H :    0.176034
   6 H :    0.159755
   7 H :    0.157413
   8 H :    0.152407
   9 H :    0.156088
  10 H :    0.148185
  11 H :    0.156279
  12 C :   -0.027320
  13 H :    0.143431
  14 H :    0.158189
  15 O :   -0.540916
  16 C :    0.054778
  17 C :    0.116347
  18 C :   -0.314245
  19 C :   -0.022100
  20 O :   -0.520709
  21 H :    0.165021
  22 H :    0.151353
  23 O :   -0.625031
  24 H :    0.153323
  25 H :    0.150087
  26 H :    0.137045
  27 H :    0.152007
  28 H :    0.390032
Sum of atomic charges:    0.0000000

LOEWDIN ATOMIC CHARGES
----------------------
   0 C :    0.169922
   1 C :   -0.224353
   2 C :   -0.224797
   3 C :   -0.034342
   4 O :   -0.320502
   5 H :    0.117117
   6 H :    0.123805
   7 H :    0.123290
   8 H :    0.119600
   9 H :    0.113602
  10 H :    0.102394
  11 H :    0.109545
  12 C :   -0.050131
  13 H :    0.100731
  14 H :    0.110170
  15 O :   -0.327180
  16 C :    0.019841
  17 C :    0.042529
  18 C :   -0.242199
  19 C :   -0.034329
  20 O :   -0.324916
  21 H :    0.117692
  22 H :    0.108119
  23 O :   -0.420627
  24 H :    0.122248
  25 H :    0.111676
  26 H :    0.099050
  27 H :    0.107293
  28 H :    0.284751

  Mayer bond orders larger than 0.100000
B(  0-C ,  1-C ) :   0.9250 B(  0-C ,  4-O ) :   0.9036 B(  0-C ,  5-H ) :   0.9325
B(  0-C , 15-O ) :   0.8638 B(  1-C ,  2-C ) :   0.9538 B(  1-C ,  6-H ) :   0.9346
B(  1-C ,  7-H ) :   0.9362 B(  2-C ,  3-C ) :   0.9476 B(  2-C ,  8-H ) :   0.9442
B(  2-C ,  9-H ) :   0.9401 B(  3-C ,  4-O ) :   0.8351 B(  3-C , 10-H ) :   0.9299
B(  3-C , 11-H ) :   0.9380 B( 12-C , 13-H ) :   0.9112 B( 12-C , 14-H ) :   0.9245
B( 12-C , 15-O ) :   0.7958 B( 12-C , 16-C ) :   0.9051 B( 16-C , 17-C ) :   0.9093
B( 16-C , 20-O ) :   0.8541 B( 16-C , 21-H ) :   0.9283 B( 17-C , 18-C ) :   0.8981
B( 17-C , 22-H ) :   0.9310 B( 17-C , 23-O ) :   0.9456 B( 18-C , 19-C ) :   0.9389
B( 18-C , 24-H ) :   0.9440 B( 18-C , 25-H ) :   0.9417 B( 19-C , 20-O ) :   0.8314
B( 19-C , 26-H ) :   0.9345 B( 19-C , 27-H ) :   0.9381 B( 23-O , 28-H ) :   0.7344

FINAL SINGLE POINT ENERGY      -652.860537826854

DIPOLE MOMENT
-------------
                                X             Y             Z
Electronic contribution:     -3.56405      -3.80204      -2.26274
Nuclear contribution   :      4.78393       5.11390       2.23910
                        -----------------------------------------
Total Dipole Moment    :      1.21988       1.31186      -0.02364
                        -----------------------------------------
Magnitude (a.u.)       :      1.79155
Magnitude (Debye)      :      4.55375

Rotational constants in cm-1:     0.045684     0.016548     0.015755
Rotational constants in MHz :  1369.580320   496.109066   472.336485

                             ****ORCA TERMINATED NORMALLY****
TOTAL RUN TIME: 0 days 0 hours 39 minutes 56 seconds 348 msec
