                         Program Version 4.2.0 -  RELEASE  -
|  1> # Test redundant internal optimization
|  2> #
|  3> ! RKS B3LYP  Opt TightSCF SmallPrint
|  4>
|  5> %basis
|  6>         Basis "6-31G"
|  7> end
|  8>
|  9> %geom
| 10> Constraints
| 11> { D 4  0  15  12  330.0   C } # D for Dihedral angle
| 12> { D 0  15  12  16  345.0   C } # D for Dihedral angle
| 13> { D 0  4  3  2   C } # D for Dihedral angle
| 14> { D 4  3  2  1   C } # D for Dihedral angle
| 15> { D 3  2  1  0   C } # D for Dihedral angle
| 16> { D 2  1  0  4   C } # D for Dihedral angle
| 17> { D 1  0  4  3   C } # D for Dihedral angle
| 18> { D 16  20  19  18   C } # D for Dihedral angle
| 19> { D 20  19  18  17   C } # D for Dihedral angle
| 20> { D 19  18  17  16   C } # D for Dihedral angle
| 21> { D 18  17  16  20   C } # D for Dihedral angle
| 22> { D 17  16  20  19   C } # D for Dihedral angle
| 23> { D 15  12  16  20   C } # D for Dihedral angle
| 24> end
| 25> end
| 26>
| 27>
| 28> #%pal
| 29> #nprocs 8
| 30> #end
| 31>
| 32> * xyz 0 1
| 33> C  -21.048   26.222   46.251
| 34> C  -20.361   27.558   45.944
| 35> C  -20.329   28.222   47.341
| 36> C  -20.110   27.022   48.296
| 37> O  -20.473   25.807   47.535
| 38> H  -20.833   25.428   45.533
| 39> H  -19.344   27.382   45.576
| 40> H  -20.898   28.157   45.201
| 41> H  -19.543   28.978   47.434
| 42> H  -21.289   28.710   47.548
| 43> H  -20.733   27.082   49.195
| 44> H  -19.064   26.913   48.597
| 45> C  -23.271   25.476   47.424
| 46> H  -23.541   26.071   48.305
| 47> H  -24.189   25.038   47.011
| 48> O  -22.586   26.394   46.375
| 49> C  -22.357   24.307   47.887
| 50> C  -23.103   23.358   48.831
| 51> C  -23.937   22.516   47.835
| 52> C  -23.001   22.397   46.607
| 53> O  -21.987   23.463   46.745
| 54> H  -21.432   24.717   48.296
| 55> H  -22.389   22.724   49.370
| 56> O  -23.982   24.101   49.874
| 57> H  -24.222   21.539   48.240
| 58> H  -24.857   23.050   47.570
| 59> H  -23.535   22.530   45.659
| 60> H  -22.466   21.443   46.581
| 61> H  -24.706   24.741   49.358
| 62> *
| 63>
| 64>                          ****END OF INPUT****
 Total Charge           Charge          ....    0
 Multiplicity           Mult            ....    1
 Number of Electrons    NEL             ....  102
FINAL SINGLE POINT ENERGY      -652.808214063034
FINAL SINGLE POINT ENERGY      -652.831545914973
FINAL SINGLE POINT ENERGY      -652.848671929703
FINAL SINGLE POINT ENERGY      -652.851252478985
FINAL SINGLE POINT ENERGY      -652.851809092680
FINAL SINGLE POINT ENERGY      -652.851903557755
FINAL SINGLE POINT ENERGY      -652.851913058862
FINAL SINGLE POINT ENERGY      -652.851914975770
                    ***********************HURRAY********************

CARTESIAN COORDINATES (ANGSTROEM)
---------------------------------
  C    -20.925609   26.269731   46.252709
  C    -20.487454   27.704347   45.954008
  C    -20.362332   28.297596   47.375981
  C    -19.846661   27.106598   48.213491
  O    -20.139543   25.887411   47.407317
  H    -20.688342   25.525676   45.489289
  H    -19.517205   27.684442   45.444373
  H    -21.211127   28.230899   45.328840
  H    -19.685271   29.156358   47.417293
  H    -21.347556   28.619212   47.726373
  H    -20.341510   27.016027   49.184841
  H    -18.763231   27.126167   48.363256
  C    -23.094421   25.432114   47.379776
  H    -23.415922   26.061589   48.221701
  H    -23.986966   25.126292   46.820522
  O    -22.362762   26.288143   46.452217
  C    -22.385743   24.203984   47.960909
  C    -23.307163   23.352113   48.853613
  C    -24.096401   22.516801   47.796026
  C    -23.036670   22.278410   46.696334
  O    -21.962362   23.278934   46.908328
  H    -21.474512   24.505803   48.469790
  H    -22.693892   22.696945   49.475660
  O    -24.128201   24.085925   49.794935
  H    -24.491586   21.587768   48.214303
  H    -24.943079   23.105376   47.419587
  H    -23.440313   22.393755   45.685088
  H    -22.573996   21.289991   46.777918
  H    -24.876170   24.517594   49.334522

 Multiplicity           Mult            ....    1
 Number of Electrons    NEL             ....  102
 Basis Dimension        Dim             ....  149

ORBITAL ENERGIES
----------------

  NO   OCC          E(Eh)            E(eV)
   0   2.0000     -19.147628      -521.0334
   1   2.0000     -19.141069      -520.8550
   2   2.0000     -19.133375      -520.6456
   3   2.0000     -19.130914      -520.5786
   4   2.0000     -10.271692      -279.5069
   5   2.0000     -10.241902      -278.6963
   6   2.0000     -10.227441      -278.3028
   7   2.0000     -10.227424      -278.3024
   8   2.0000     -10.224995      -278.2363
   9   2.0000     -10.220544      -278.1151
  10   2.0000     -10.192707      -277.3577
  11   2.0000     -10.183544      -277.1083
  12   2.0000     -10.179739      -277.0048
  13   2.0000      -1.045119       -28.4391
  14   2.0000      -1.029982       -28.0272
  15   2.0000      -1.011299       -27.5188
  16   2.0000      -0.984151       -26.7801
  17   2.0000      -0.786261       -21.3952
  18   2.0000      -0.778636       -21.1878
  19   2.0000      -0.761069       -20.7097
  20   2.0000      -0.729910       -19.8619
  21   2.0000      -0.676027       -18.3956
  22   2.0000      -0.608812       -16.5666
  23   2.0000      -0.597781       -16.2664
  24   2.0000      -0.595198       -16.1962
  25   2.0000      -0.560996       -15.2655
  26   2.0000      -0.521270       -14.1845
  27   2.0000      -0.508012       -13.8237
  28   2.0000      -0.497046       -13.5253
  29   2.0000      -0.482109       -13.1189
  30   2.0000      -0.462252       -12.5785
  31   2.0000      -0.455273       -12.3886
  32   2.0000      -0.440752       -11.9935
  33   2.0000      -0.425973       -11.5913
  34   2.0000      -0.425562       -11.5801
  35   2.0000      -0.409680       -11.1479
  36   2.0000      -0.406095       -11.0504
  37   2.0000      -0.395358       -10.7582
  38   2.0000      -0.378773       -10.3069
  39   2.0000      -0.366001        -9.9594
  40   2.0000      -0.356162        -9.6917
  41   2.0000      -0.354435        -9.6447
  42   2.0000      -0.343265        -9.3407
  43   2.0000      -0.330373        -8.9899
  44   2.0000      -0.319356        -8.6901
  45   2.0000      -0.311596        -8.4790
  46   2.0000      -0.295649        -8.0450
  47   2.0000      -0.269148        -7.3239
  48   2.0000      -0.258386        -7.0310
  49   2.0000      -0.243345        -6.6218
  50   2.0000      -0.232205        -6.3186
  51   0.0000       0.052439         1.4269
  52   0.0000       0.078411         2.1337
  53   0.0000       0.089722         2.4415
  54   0.0000       0.094841         2.5807
  55   0.0000       0.108735         2.9588

MULLIKEN ATOMIC CHARGES
-----------------------
   0 C :    0.316049
   1 C :   -0.260777
   2 C :   -0.300936
   3 C :   -0.017824
   4 O :   -0.511128
   5 H :    0.164555
   6 H :    0.143911
   7 H :    0.159609
   8 H :    0.141967
   9 H :    0.156293
  10 H :    0.143115
  11 H :    0.149579
  12 C :    0.014880
  13 H :    0.128982
  14 H :    0.132160
  15 O :   -0.556629
  16 C :    0.058564
  17 C :    0.085299
  18 C :   -0.324282
  19 C :   -0.005720
  20 O :   -0.515397
  21 H :    0.197919
  22 H :    0.167099
  23 O :   -0.600821
  24 H :    0.154674
  25 H :    0.132777
  26 H :    0.142063
  27 H :    0.148168
  28 H :    0.355849
Sum of atomic charges:   -0.0000000

LOEWDIN ATOMIC CHARGES
----------------------
   0 C :    0.187261
   1 C :   -0.215922
   2 C :   -0.217239
   3 C :   -0.034187
   4 O :   -0.318005
   5 H :    0.107239
   6 H :    0.113204
   7 H :    0.125667
   8 H :    0.114304
   9 H :    0.116100
  10 H :    0.102136
  11 H :    0.105793
  12 C :   -0.039726
  13 H :    0.097472
  14 H :    0.099369
  15 O :   -0.341831
  16 C :    0.000125
  17 C :    0.036660
  18 C :   -0.242343
  19 C :   -0.029881
  20 O :   -0.320503
  21 H :    0.133602
  22 H :    0.119232
  23 O :   -0.408114
  24 H :    0.121276
  25 H :    0.103351
  26 H :    0.101902
  27 H :    0.105306
  28 H :    0.277750

  Mayer bond orders larger than 0.100000
B(  0-C ,  1-C ) :   0.9382 B(  0-C ,  4-O ) :   0.8890 B(  0-C ,  5-H ) :   0.9225
B(  0-C , 15-O ) :   0.8415 B(  1-C ,  2-C ) :   0.9546 B(  1-C ,  6-H ) :   0.9380
B(  1-C ,  7-H ) :   0.9364 B(  2-C ,  3-C ) :   0.9561 B(  2-C ,  8-H ) :   0.9451
B(  2-C ,  9-H ) :   0.9454 B(  3-C ,  4-O ) :   0.8349 B(  3-C , 10-H ) :   0.9342
B(  3-C , 11-H ) :   0.9399 B( 12-C , 13-H ) :   0.9090 B( 12-C , 14-H ) :   0.9329
B( 12-C , 15-O ) :   0.8427 B( 12-C , 16-C ) :   0.9050 B( 16-C , 17-C ) :   0.8639
B( 16-C , 20-O ) :   0.8448 B( 16-C , 21-H ) :   0.9041 B( 17-C , 18-C ) :   0.9222
B( 17-C , 22-H ) :   0.9339 B( 17-C , 23-O ) :   0.8976 B( 18-C , 19-C ) :   0.9388
B( 18-C , 24-H ) :   0.9423 B( 18-C , 25-H ) :   0.9400 B( 19-C , 20-O ) :   0.8504
B( 19-C , 26-H ) :   0.9322 B( 19-C , 27-H ) :   0.9382 B( 23-O , 28-H ) :   0.7982

FINAL SINGLE POINT ENERGY      -652.851914902375

DIPOLE MOMENT
-------------
                                X             Y             Z
Electronic contribution:      0.38110      -2.20057       0.15348
Nuclear contribution   :     -0.93325       2.48512      -0.27177
                        -----------------------------------------
Total Dipole Moment    :     -0.55214       0.28454      -0.11829
                        -----------------------------------------
Magnitude (a.u.)       :      0.63231
Magnitude (Debye)      :      1.60721

Rotational constants in cm-1:     0.053467     0.014841     0.013700
Rotational constants in MHz :  1602.890006   444.909648   410.716459

                             ****ORCA TERMINATED NORMALLY****
TOTAL RUN TIME: 0 days 0 hours 25 minutes 34 seconds 792 msec
