                         Program Version 4.2.0 -  RELEASE  -
|  1> # Test redundant internal optimization
|  2> #
|  3> ! RKS B3LYP  Opt TightSCF SmallPrint
|  4>
|  5> %basis
|  6>         Basis "6-31G"
|  7> end
|  8>
|  9> %geom
| 10> Constraints
| 11> { D 4  0  15  12  60.0   C } # D for Dihedral angle
| 12> { D 0  15  12  16  270.0   C } # D for Dihedral angle
| 13> { D 0  4  3  2   C } # D for Dihedral angle
| 14> { D 4  3  2  1   C } # D for Dihedral angle
| 15> { D 3  2  1  0   C } # D for Dihedral angle
| 16> { D 2  1  0  4   C } # D for Dihedral angle
| 17> { D 1  0  4  3   C } # D for Dihedral angle
| 18> { D 16  20  19  18   C } # D for Dihedral angle
| 19> { D 20  19  18  17   C } # D for Dihedral angle
| 20> { D 19  18  17  16   C } # D for Dihedral angle
| 21> { D 18  17  16  20   C } # D for Dihedral angle
| 22> { D 17  16  20  19   C } # D for Dihedral angle
| 23> { D 15  12  16  20   C } # D for Dihedral angle
| 24> end
| 25> end
| 26>
| 27>
| 28> #%pal
| 29> #nprocs 8
| 30> #end
| 31>
| 32> * xyz 0 1
| 33> C  -21.048   26.222   46.251
| 34> C  -20.361   27.558   45.944
| 35> C  -20.329   28.222   47.341
| 36> C  -20.110   27.022   48.296
| 37> O  -20.473   25.807   47.535
| 38> H  -20.833   25.428   45.533
| 39> H  -19.344   27.382   45.576
| 40> H  -20.898   28.157   45.201
| 41> H  -19.543   28.978   47.434
| 42> H  -21.289   28.710   47.548
| 43> H  -20.733   27.082   49.195
| 44> H  -19.064   26.913   48.597
| 45> C  -23.051   27.452   47.413
| 46> H  -22.296   28.245   47.484
| 47> H  -23.999   27.907   47.100
| 48> O  -22.586   26.394   46.375
| 49> C  -23.262   26.850   48.830
| 50> C  -23.829   27.893   49.799
| 51> C  -25.327   27.900   49.411
| 52> C  -25.601   26.420   49.042
| 53> O  -24.283   25.798   48.794
| 54> H  -22.332   26.383   49.163
| 55> O  -23.645   27.415   51.265
| 56> H  -23.359   28.877   49.695
| 57> H  -25.974   28.255   50.219
| 58> H  -25.488   28.550   48.543
| 59> H  -26.220   26.319   48.144
| 60> H  -26.070   25.866   49.860
| 61> H  -24.109   26.430   51.393
| 62> *
| 63>
| 64>                          ****END OF INPUT****
 Total Charge           Charge          ....    0
 Multiplicity           Mult            ....    1
 Number of Electrons    NEL             ....  102
FINAL SINGLE POINT ENERGY      -652.787412744286
FINAL SINGLE POINT ENERGY      -652.827079011772
FINAL SINGLE POINT ENERGY      -652.847463577765
FINAL SINGLE POINT ENERGY      -652.851989955573
FINAL SINGLE POINT ENERGY      -652.852699890569
FINAL SINGLE POINT ENERGY      -652.852854150283
FINAL SINGLE POINT ENERGY      -652.852875471178
FINAL SINGLE POINT ENERGY      -652.852882140961
FINAL SINGLE POINT ENERGY      -652.852881501672
                    ***********************HURRAY********************

CARTESIAN COORDINATES (ANGSTROEM)
---------------------------------
  C    -21.162567   26.358854   46.416516
  C    -20.290533   27.516552   45.901864
  C    -19.894813   28.240337   47.225301
  C    -19.755982   27.060118   48.221732
  O    -20.473398   25.914056   47.611499
  H    -21.152905   25.502591   45.739977
  H    -19.405842   27.096114   45.413224
  H    -20.818147   28.157880   45.191357
  H    -18.955778   28.795011   47.128800
  H    -20.662310   28.953171   47.536067
  H    -20.188683   27.271617   49.204803
  H    -18.715810   26.748668   48.352466
  C    -23.144057   27.539807   47.488600
  H    -22.512144   28.427345   47.607624
  H    -24.080729   27.854091   47.017938
  O    -22.580045   26.577811   46.556168
  C    -23.421773   26.909958   48.858966
  C    -24.070324   27.875271   49.861335
  C    -25.565478   27.799370   49.451515
  C    -25.733497   26.320196   49.021547
  O    -24.369800   25.797532   48.768263
  H    -22.495445   26.482938   49.251051
  O    -23.860892   27.423190   51.227652
  H    -23.667464   28.889027   49.830355
  H    -26.209130   28.077930   50.289746
  H    -25.766796   28.483765   48.619740
  H    -26.332695   26.208320   48.112693
  H    -26.175390   25.701618   49.809076
  H    -23.993574   26.451860   51.265124

 Multiplicity           Mult            ....    1
 Number of Electrons    NEL             ....  102
 Basis Dimension        Dim             ....  149

ORBITAL ENERGIES
----------------

  NO   OCC          E(Eh)            E(eV)
   0   2.0000     -19.143908      -520.9322
   1   2.0000     -19.142249      -520.8871
   2   2.0000     -19.138884      -520.7955
   3   2.0000     -19.137294      -520.7522
   4   2.0000     -10.277683      -279.6700
   5   2.0000     -10.242859      -278.7224
   6   2.0000     -10.234114      -278.4844
   7   2.0000     -10.231510      -278.4135
   8   2.0000     -10.229896      -278.3696
   9   2.0000     -10.227921      -278.3159
  10   2.0000     -10.196157      -277.4515
  11   2.0000     -10.191778      -277.3324
  12   2.0000     -10.189579      -277.2726
  13   2.0000      -1.051676       -28.6176
  14   2.0000      -1.034235       -28.1430
  15   2.0000      -1.005340       -27.3567
  16   2.0000      -0.994954       -27.0741
  17   2.0000      -0.790166       -21.5015
  18   2.0000      -0.784879       -21.3576
  19   2.0000      -0.769100       -20.9283
  20   2.0000      -0.734089       -19.9756
  21   2.0000      -0.679337       -18.4857
  22   2.0000      -0.606828       -16.5126
  23   2.0000      -0.605224       -16.4690
  24   2.0000      -0.601577       -16.3697
  25   2.0000      -0.571946       -15.5634
  26   2.0000      -0.520180       -14.1548
  27   2.0000      -0.517781       -14.0895
  28   2.0000      -0.502867       -13.6837
  29   2.0000      -0.489862       -13.3298
  30   2.0000      -0.471634       -12.8338
  31   2.0000      -0.461296       -12.5525
  32   2.0000      -0.448168       -12.1953
  33   2.0000      -0.443412       -12.0659
  34   2.0000      -0.421413       -11.4672
  35   2.0000      -0.419554       -11.4166
  36   2.0000      -0.402843       -10.9619
  37   2.0000      -0.392624       -10.6838
  38   2.0000      -0.382683       -10.4133
  39   2.0000      -0.372623       -10.1396
  40   2.0000      -0.363425        -9.8893
  41   2.0000      -0.362235        -9.8569
  42   2.0000      -0.344655        -9.3785
  43   2.0000      -0.334884        -9.1126
  44   2.0000      -0.316987        -8.6257
  45   2.0000      -0.311351        -8.4723
  46   2.0000      -0.299257        -8.1432
  47   2.0000      -0.270166        -7.3516
  48   2.0000      -0.266802        -7.2601
  49   2.0000      -0.257762        -7.0141
  50   2.0000      -0.235631        -6.4118
  51   0.0000       0.061832         1.6825
  52   0.0000       0.074559         2.0289
  53   0.0000       0.085177         2.3178
  54   0.0000       0.092715         2.5229
  55   0.0000       0.094809         2.5799

MULLIKEN ATOMIC CHARGES
-----------------------
   0 C :    0.297032
   1 C :   -0.273077
   2 C :   -0.316672
   3 C :   -0.016639
   4 O :   -0.502771
   5 H :    0.170007
   6 H :    0.156332
   7 H :    0.150677
   8 H :    0.146826
   9 H :    0.148546
  10 H :    0.144386
  11 H :    0.152013
  12 C :   -0.024354
  13 H :    0.119822
  14 H :    0.151915
  15 O :   -0.503203
  16 C :    0.067048
  17 C :    0.075229
  18 C :   -0.297275
  19 C :   -0.031030
  20 O :   -0.506280
  21 H :    0.182097
  22 O :   -0.603214
  23 H :    0.144122
  24 H :    0.162242
  25 H :    0.142562
  26 H :    0.149756
  27 H :    0.146930
  28 H :    0.366973
Sum of atomic charges:   -0.0000000

LOEWDIN ATOMIC CHARGES
----------------------
   0 C :    0.174260
   1 C :   -0.228226
   2 C :   -0.224066
   3 C :   -0.036168
   4 O :   -0.321236
   5 H :    0.115261
   6 H :    0.122198
   7 H :    0.119785
   8 H :    0.116232
   9 H :    0.106043
  10 H :    0.101232
  11 H :    0.107065
  12 C :   -0.045567
  13 H :    0.093082
  14 H :    0.112012
  15 O :   -0.305181
  16 C :    0.007099
  17 C :    0.032920
  18 C :   -0.241679
  19 C :   -0.039612
  20 O :   -0.317393
  21 H :    0.124701
  22 O :   -0.415490
  23 H :    0.111048
  24 H :    0.126432
  25 H :    0.111690
  26 H :    0.105782
  27 H :    0.102934
  28 H :    0.284845

  Mayer bond orders larger than 0.100000
B(  0-C ,  1-C ) :   0.9141 B(  0-C ,  4-O ) :   0.8918 B(  0-C ,  5-H ) :   0.9362
B(  0-C , 15-O ) :   0.9090 B(  1-C ,  2-C ) :   0.9556 B(  1-C ,  6-H ) :   0.9350
B(  1-C ,  7-H ) :   0.9376 B(  2-C ,  3-C ) :   0.9461 B(  2-C ,  8-H ) :   0.9442
B(  2-C ,  9-H ) :   0.9373 B(  3-C ,  4-O ) :   0.8464 B(  3-C , 10-H ) :   0.9294
B(  3-C , 11-H ) :   0.9393 B( 12-C , 13-H ) :   0.8997 B( 12-C , 14-H ) :   0.9398
B( 12-C , 15-O ) :   0.8593 B( 12-C , 16-C ) :   0.8775 B( 16-C , 17-C ) :   0.8961
B( 16-C , 20-O ) :   0.8630 B( 16-C , 21-H ) :   0.9149 B( 17-C , 18-C ) :   0.9095
B( 17-C , 22-O ) :   0.8934 B( 17-C , 23-H ) :   0.9341 B( 18-C , 19-C ) :   0.9405
B( 18-C , 24-H ) :   0.9378 B( 18-C , 25-H ) :   0.9346 B( 19-C , 20-O ) :   0.8529
B( 19-C , 26-H ) :   0.9336 B( 19-C , 27-H ) :   0.9372 B( 22-O , 28-H ) :   0.7929

FINAL SINGLE POINT ENERGY      -652.852879727041

DIPOLE MOMENT
-------------
                                X             Y             Z
Electronic contribution:     -1.04785      -5.13264       0.75356
Nuclear contribution   :      1.17290       6.46597      -1.13743
                        -----------------------------------------
Total Dipole Moment    :      0.12505       1.33333      -0.38386
                        -----------------------------------------
Magnitude (a.u.)       :      1.39311
Magnitude (Debye)      :      3.54100

Rotational constants in cm-1:     0.051646     0.014891     0.013608
Rotational constants in MHz :  1548.297526   446.410371   407.970593

                             ****ORCA TERMINATED NORMALLY****
TOTAL RUN TIME: 0 days 0 hours 25 minutes 57 seconds 643 msec
