                         Program Version 4.2.0 -  RELEASE  -
|  1> # Test redundant internal optimization
|  2> #
|  3> ! RKS B3LYP  Opt TightSCF SmallPrint
|  4>
|  5> %basis
|  6>         Basis "6-31G"
|  7> end
|  8>
|  9> %geom
| 10> Constraints
| 11> { D 4  0  15  12  330.0   C } # D for Dihedral angle
| 12> { D 0  15  12  16  255.0   C } # D for Dihedral angle
| 13> { D 0  4  3  2   C } # D for Dihedral angle
| 14> { D 4  3  2  1   C } # D for Dihedral angle
| 15> { D 3  2  1  0   C } # D for Dihedral angle
| 16> { D 2  1  0  4   C } # D for Dihedral angle
| 17> { D 1  0  4  3   C } # D for Dihedral angle
| 18> { D 16  20  19  18   C } # D for Dihedral angle
| 19> { D 20  19  18  17   C } # D for Dihedral angle
| 20> { D 19  18  17  16   C } # D for Dihedral angle
| 21> { D 18  17  16  20   C } # D for Dihedral angle
| 22> { D 17  16  20  19   C } # D for Dihedral angle
| 23> { D 15  12  16  20   C } # D for Dihedral angle
| 24> end
| 25> end
| 26>
| 27>
| 28> #%pal
| 29> #nprocs 8
| 30> #end
| 31>
| 32> * xyz 0 1
| 33> C  -21.048   26.222   46.251
| 34> C  -20.361   27.558   45.944
| 35> C  -20.329   28.222   47.341
| 36> C  -20.110   27.022   48.296
| 37> O  -20.473   25.807   47.535
| 38> H  -20.833   25.428   45.533
| 39> H  -19.344   27.382   45.576
| 40> H  -20.898   28.157   45.201
| 41> H  -19.543   28.978   47.434
| 42> H  -21.289   28.710   47.548
| 43> H  -20.733   27.082   49.195
| 44> H  -19.064   26.913   48.597
| 45> C  -23.271   25.476   47.424
| 46> H  -22.507   25.056   48.091
| 47> H  -23.980   26.051   48.033
| 48> O  -22.586   26.394   46.375
| 49> C  -24.051   24.300   46.774
| 50> C  -23.106   23.343   46.039
| 51> C  -22.526   22.514   47.209
| 52> C  -23.721   22.405   48.189
| 53> O  -24.676   23.467   47.807
| 54> H  -24.857   24.702   46.158
| 55> H  -23.676   22.702   45.356
| 56> O  -22.010   24.078   45.219
| 57> H  -22.155   21.535   46.893
| 58> H  -21.692   23.054   47.675
| 59> H  -23.423   22.549   49.233
| 60> H  -24.247   21.450   48.100
| 61> H  -21.427   24.726   45.883
| 62> *
| 63>
| 64>                          ****END OF INPUT****
 Total Charge           Charge          ....    0
 Multiplicity           Mult            ....    1
 Number of Electrons    NEL             ....  102
FINAL SINGLE POINT ENERGY      -652.779559401312
FINAL SINGLE POINT ENERGY      -652.832947438548
FINAL SINGLE POINT ENERGY      -652.852258396017
FINAL SINGLE POINT ENERGY      -652.856159123310
FINAL SINGLE POINT ENERGY      -652.857202535053
FINAL SINGLE POINT ENERGY      -652.857426522430
FINAL SINGLE POINT ENERGY      -652.857490631751
FINAL SINGLE POINT ENERGY      -652.857508947036
FINAL SINGLE POINT ENERGY      -652.857510149731
                    ***********************HURRAY********************

CARTESIAN COORDINATES (ANGSTROEM)
---------------------------------
  C    -20.987487   26.283488   46.302063
  C    -20.446887   27.688958   46.036330
  C    -20.419949   28.290141   47.460008
  C    -20.048257   27.082962   48.348379
  O    -20.332570   25.872528   47.524986
  H    -20.722341   25.546085   45.541799
  H    -19.437551   27.615500   45.615395
  H    -21.084746   28.244198   45.346155
  H    -19.702076   29.110142   47.557271
  H    -21.413557   28.668253   47.716839
  H    -20.633940   27.026182   49.269447
  H    -18.983268   27.043729   48.593779
  C    -23.151813   25.525925   47.346888
  H    -22.456802   25.144442   48.103765
  H    -23.877548   26.173617   47.845645
  O    -22.422883   26.382371   46.417033
  C    -23.939169   24.358494   46.719876
  C    -23.161638   23.244182   45.990883
  C    -22.585893   22.414849   47.185990
  C    -23.715960   22.519526   48.234300
  O    -24.570188   23.663463   47.842263
  H    -24.742879   24.750845   46.091643
  H    -23.889242   22.642170   45.438452
  O    -22.176981   23.624330   45.006542
  H    -22.359946   21.383770   46.903412
  H    -21.662327   22.889299   47.542828
  H    -23.341166   22.686490   49.249198
  H    -24.356102   21.631784   48.239783
  H    -21.312833   23.775280   45.438047

 Multiplicity           Mult            ....    1
 Number of Electrons    NEL             ....  102
 Basis Dimension        Dim             ....  149

ORBITAL ENERGIES
----------------

  NO   OCC          E(Eh)            E(eV)
   0   2.0000     -19.153105      -521.1825
   1   2.0000     -19.142310      -520.8887
   2   2.0000     -19.139167      -520.8032
   3   2.0000     -19.138613      -520.7881
   4   2.0000     -10.281763      -279.7810
   5   2.0000     -10.239558      -278.6325
   6   2.0000     -10.233740      -278.4742
   7   2.0000     -10.229395      -278.3560
   8   2.0000     -10.226182      -278.2686
   9   2.0000     -10.221260      -278.1346
  10   2.0000     -10.190802      -277.3058
  11   2.0000     -10.189462      -277.2694
  12   2.0000     -10.186188      -277.1803
  13   2.0000      -1.057614       -28.7791
  14   2.0000      -1.030192       -28.0329
  15   2.0000      -1.014553       -27.6074
  16   2.0000      -0.993013       -27.0212
  17   2.0000      -0.791935       -21.5497
  18   2.0000      -0.775872       -21.1125
  19   2.0000      -0.764417       -20.8008
  20   2.0000      -0.733535       -19.9605
  21   2.0000      -0.675362       -18.3775
  22   2.0000      -0.611350       -16.6357
  23   2.0000      -0.603998       -16.4356
  24   2.0000      -0.595889       -16.2150
  25   2.0000      -0.563998       -15.3472
  26   2.0000      -0.522144       -14.2083
  27   2.0000      -0.520145       -14.1539
  28   2.0000      -0.499152       -13.5826
  29   2.0000      -0.491425       -13.3724
  30   2.0000      -0.467202       -12.7132
  31   2.0000      -0.455761       -12.4019
  32   2.0000      -0.445892       -12.1333
  33   2.0000      -0.431397       -11.7389
  34   2.0000      -0.423065       -11.5122
  35   2.0000      -0.415083       -11.2950
  36   2.0000      -0.406314       -11.0564
  37   2.0000      -0.404521       -11.0076
  38   2.0000      -0.375704       -10.2234
  39   2.0000      -0.364344        -9.9143
  40   2.0000      -0.360749        -9.8165
  41   2.0000      -0.355832        -9.6827
  42   2.0000      -0.350903        -9.5486
  43   2.0000      -0.333633        -9.0786
  44   2.0000      -0.322854        -8.7853
  45   2.0000      -0.312480        -8.5030
  46   2.0000      -0.296416        -8.0659
  47   2.0000      -0.269594        -7.3360
  48   2.0000      -0.267842        -7.2884
  49   2.0000      -0.262193        -7.1346
  50   2.0000      -0.233748        -6.3606
  51   0.0000       0.054628         1.4865
  52   0.0000       0.078471         2.1353
  53   0.0000       0.088199         2.4000
  54   0.0000       0.095424         2.5966
  55   0.0000       0.104832         2.8526

MULLIKEN ATOMIC CHARGES
-----------------------
   0 C :    0.294854
   1 C :   -0.258977
   2 C :   -0.299523
   3 C :   -0.012709
   4 O :   -0.524116
   5 H :    0.130870
   6 H :    0.142777
   7 H :    0.166642
   8 H :    0.144621
   9 H :    0.161915
  10 H :    0.148374
  11 H :    0.149011
  12 C :   -0.026888
  13 H :    0.152283
  14 H :    0.158734
  15 O :   -0.528198
  16 C :    0.083963
  17 C :    0.100302
  18 C :   -0.340955
  19 C :   -0.008813
  20 O :   -0.521580
  21 H :    0.157910
  22 H :    0.162285
  23 O :   -0.601631
  24 H :    0.154349
  25 H :    0.154487
  26 H :    0.143258
  27 H :    0.149697
  28 H :    0.367058
Sum of atomic charges:   -0.0000000

LOEWDIN ATOMIC CHARGES
----------------------
   0 C :    0.174892
   1 C :   -0.214558
   2 C :   -0.216343
   3 C :   -0.029052
   4 O :   -0.333027
   5 H :    0.088314
   6 H :    0.112571
   7 H :    0.129340
   8 H :    0.115900
   9 H :    0.119186
  10 H :    0.105246
  11 H :    0.106070
  12 C :   -0.050094
  13 H :    0.105863
  14 H :    0.115769
  15 O :   -0.332414
  16 C :    0.017737
  17 C :    0.036421
  18 C :   -0.245678
  19 C :   -0.029842
  20 O :   -0.321779
  21 H :    0.114430
  22 H :    0.115161
  23 O :   -0.403710
  24 H :    0.121408
  25 H :    0.113114
  26 H :    0.102025
  27 H :    0.105514
  28 H :    0.277535

  Mayer bond orders larger than 0.100000
B(  0-C ,  1-C ) :   0.9426 B(  0-C ,  4-O ) :   0.8972 B(  0-C ,  5-H ) :   0.9001
B(  0-C , 15-O ) :   0.8639 B(  1-C ,  2-C ) :   0.9536 B(  1-C ,  6-H ) :   0.9381
B(  1-C ,  7-H ) :   0.9347 B(  2-C ,  3-C ) :   0.9564 B(  2-C ,  8-H ) :   0.9444
B(  2-C ,  9-H ) :   0.9441 B(  3-C ,  4-O ) :   0.8246 B(  3-C , 10-H ) :   0.9353
B(  3-C , 11-H ) :   0.9407 B( 12-C , 13-H ) :   0.9145 B( 12-C , 14-H ) :   0.9354
B( 12-C , 15-O ) :   0.8325 B( 12-C , 16-C ) :   0.8918 B( 16-C , 17-C ) :   0.8831
B( 16-C , 20-O ) :   0.8286 B( 16-C , 21-H ) :   0.9334 B( 17-C , 18-C ) :   0.9298
B( 17-C , 22-H ) :   0.9308 B( 17-C , 23-O ) :   0.9095 B( 18-C , 19-C ) :   0.9401
B( 18-C , 24-H ) :   0.9412 B( 18-C , 25-H ) :   0.9343 B( 19-C , 20-O ) :   0.8403
B( 19-C , 26-H ) :   0.9331 B( 19-C , 27-H ) :   0.9384 B( 23-O , 28-H ) :   0.7764

FINAL SINGLE POINT ENERGY      -652.857510288247

DIPOLE MOMENT
-------------
                                X             Y             Z
Electronic contribution:     -3.07897      -1.79744      -2.39113
Nuclear contribution   :      4.07734       1.97724       3.06832
                        -----------------------------------------
Total Dipole Moment    :      0.99836       0.17980       0.67719
                        -----------------------------------------
Magnitude (a.u.)       :      1.21969
Magnitude (Debye)      :      3.10021

Rotational constants in cm-1:     0.051306     0.015143     0.014370
Rotational constants in MHz :  1538.105489   453.984229   430.810804

                             ****ORCA TERMINATED NORMALLY****
TOTAL RUN TIME: 0 days 0 hours 40 minutes 26 seconds 797 msec
