                         Program Version 4.2.1 -  RELEASE  -
|  1> # Test redundant internal optimization
|  2> #
|  3> ! RKS B3LYP  Opt TightSCF SmallPrint
|  4>
|  5> %basis
|  6>         Basis "6-31G"
|  7> end
|  8>
|  9> %geom
| 10> Constraints
| 11> { D 4  0  19  14  210.0   C } # D for Dihedral angle
| 12> { D 0  19  14  12  105.0   C } # D for Dihedral angle
| 13> { D 0  4  3  2   C } # D for Dihedral angle
| 14> { D 4  3  2  1   C } # D for Dihedral angle
| 15> { D 3  2  1  0   C } # D for Dihedral angle
| 16> { D 2  1  0  4   C } # D for Dihedral angle
| 17> { D 1  0  4  3   C } # D for Dihedral angle
| 18> { D 14  15  16  17   C } # D for Dihedral angle
| 19> { D 15  16  17  12   C } # D for Dihedral angle
| 20> { D 16  17  12  14   C } # D for Dihedral angle
| 21> { D 17  12  14  15   C } # D for Dihedral angle
| 22> { D 12  14  15  16   C } # D for Dihedral angle
| 23> end
| 24> end
| 25>
| 26>
| 27> #%pal
| 28> #nprocs 8
| 29> #end
| 30>
| 31> * xyz 0 1
| 32> C  -21.048   26.222   46.251
| 33> C  -20.361   27.558   45.944
| 34> C  -20.329   28.222   47.341
| 35> C  -20.110   27.022   48.296
| 36> O  -20.473   25.807   47.535
| 37> H  -20.833   25.428   45.533
| 38> H  -19.344   27.382   45.576
| 39> H  -20.898   28.157   45.201
| 40> H  -19.543   28.978   47.434
| 41> H  -21.289   28.710   47.548
| 42> H  -20.733   27.082   49.195
| 43> H  -19.064   26.913   48.597
| 44> C  -23.903   24.757   45.253
| 45> H  -24.217   24.396   44.261
| 46> C  -23.197   26.114   45.155
| 47> C  -24.396   27.081   45.012
| 48> C  -25.485   26.426   45.897
| 49> O  -25.074   25.019   46.097
| 50> H  -23.320   23.979   45.748
| 51> O  -22.472   26.381   46.366
| 52> H  -22.499   26.176   44.313
| 53> H  -24.159   28.102   45.328
| 54> H  -24.723   27.124   43.965
| 55> H  -26.476   26.447   45.430
| 56> H  -25.550   26.886   46.888
| 57> *
| 58>
| 59>                          ****END OF INPUT****
 Total Charge           Charge          ....    0
 Multiplicity           Mult            ....    1
 Number of Electrons    NEL             ....   86
FINAL SINGLE POINT ENERGY      -538.427671745401
FINAL SINGLE POINT ENERGY      -538.429652051630
FINAL SINGLE POINT ENERGY      -538.429891028404
FINAL SINGLE POINT ENERGY      -538.429923326636
FINAL SINGLE POINT ENERGY      -538.429934716460
                    ***********************HURRAY********************

CARTESIAN COORDINATES (ANGSTROEM)
---------------------------------
  C    -20.998897   26.209876   46.229999
  C    -20.319359   27.547379   45.944101
  C    -20.365278   28.233469   47.330522
  C    -20.177731   27.051607   48.305429
  O    -20.493141   25.830048   47.518298
  H    -20.756832   25.401362   45.532668
  H    -19.283380   27.370623   45.630171
  H    -20.825845   28.121742   45.163490
  H    -19.593035   28.999630   47.446947
  H    -21.343960   28.699956   47.476744
  H    -20.847811   27.092080   49.167296
  H    -19.145347   26.942929   48.650571
  C    -23.927784   24.750286   45.221286
  H    -24.281630   24.414960   44.234168
  C    -23.203409   26.091567   45.108115
  C    -24.385409   27.079334   45.034919
  C    -25.445000   26.434933   45.960565
  O    -25.048852   25.019256   46.119562
  H    -23.320362   23.968717   45.681097
  O    -22.443284   26.376111   46.321437
  H    -22.554412   26.152051   44.224554
  H    -24.084292   28.077002   45.362035
  H    -24.747735   27.142414   44.002428
  H    -26.455239   26.481261   45.538922
  H    -25.447977   26.880407   46.958675

 Multiplicity           Mult            ....    1
 Number of Electrons    NEL             ....   86
 Basis Dimension        Dim             ....  127

ORBITAL ENERGIES
----------------

  NO   OCC          E(Eh)            E(eV)
   0   2.0000     -19.139317      -520.8073
   1   2.0000     -19.138040      -520.7725
   2   2.0000     -19.125668      -520.4359
   3   2.0000     -10.280219      -279.7390
   4   2.0000     -10.242343      -278.7083
   5   2.0000     -10.223957      -278.2080
   6   2.0000     -10.219640      -278.0905
   7   2.0000     -10.218498      -278.0595
   8   2.0000     -10.187033      -277.2033
   9   2.0000     -10.186396      -277.1859
  10   2.0000     -10.186248      -277.1819
  11   2.0000      -1.052550       -28.6413
  12   2.0000      -1.013421       -27.5766
  13   2.0000      -0.989087       -26.9144
  14   2.0000      -0.789305       -21.4781
  15   2.0000      -0.779151       -21.2018
  16   2.0000      -0.737837       -20.0776
  17   2.0000      -0.722898       -19.6710
  18   2.0000      -0.609678       -16.5902
  19   2.0000      -0.598462       -16.2850
  20   2.0000      -0.595277       -16.1983
  21   2.0000      -0.577372       -15.7111
  22   2.0000      -0.522979       -14.2310
  23   2.0000      -0.502153       -13.6643
  24   2.0000      -0.486718       -13.2443
  25   2.0000      -0.477647       -12.9974
  26   2.0000      -0.448885       -12.2148
  27   2.0000      -0.440602       -11.9894
  28   2.0000      -0.437006       -11.8915
  29   2.0000      -0.414387       -11.2760
  30   2.0000      -0.408290       -11.1101
  31   2.0000      -0.381523       -10.3818
  32   2.0000      -0.372290       -10.1305
  33   2.0000      -0.362787        -9.8719
  34   2.0000      -0.358010        -9.7419
  35   2.0000      -0.356688        -9.7060
  36   2.0000      -0.349748        -9.5171
  37   2.0000      -0.314334        -8.5535
  38   2.0000      -0.307056        -8.3554
  39   2.0000      -0.300766        -8.1843
  40   2.0000      -0.261348        -7.1116
  41   2.0000      -0.248911        -6.7732
  42   2.0000      -0.230191        -6.2638
  43   0.0000       0.074551         2.0286
  44   0.0000       0.092945         2.5292
  45   0.0000       0.096027         2.6130
  46   0.0000       0.114772         3.1231
  47   0.0000       0.118619         3.2278

MULLIKEN ATOMIC CHARGES
-----------------------
   0 C :    0.291420
   1 C :   -0.260862
   2 C :   -0.299233
   3 C :   -0.000778
   4 O :   -0.501296
   5 H :    0.135885
   6 H :    0.142809
   7 H :    0.141012
   8 H :    0.141618
   9 H :    0.159963
  10 H :    0.156220
  11 H :    0.141122
  12 C :    0.013814
  13 H :    0.118658
  14 C :    0.048353
  15 C :   -0.283444
  16 C :    0.006107
  17 O :   -0.516693
  18 H :    0.164824
  19 O :   -0.501333
  20 H :    0.122107
  21 H :    0.153998
  22 H :    0.138214
  23 H :    0.132284
  24 H :    0.155231
Sum of atomic charges:   -0.0000000

LOEWDIN ATOMIC CHARGES
----------------------
   0 C :    0.178506
   1 C :   -0.227857
   2 C :   -0.216823
   3 C :   -0.024695
   4 O :   -0.305327
   5 H :    0.095063
   6 H :    0.112475
   7 H :    0.113664
   8 H :    0.114176
   9 H :    0.118031
  10 H :    0.110459
  11 H :    0.102109
  12 C :   -0.041629
  13 H :    0.088538
  14 C :    0.034613
  15 C :   -0.225205
  16 C :   -0.026601
  17 O :   -0.326549
  18 H :    0.120852
  19 O :   -0.328705
  20 H :    0.094603
  21 H :    0.123347
  22 H :    0.110871
  23 H :    0.096843
  24 H :    0.109241

  Mayer bond orders larger than 0.100000
B(  0-C ,  1-C ) :   0.9319 B(  0-C ,  4-O ) :   0.9382 B(  0-C ,  5-H ) :   0.9196
B(  0-C , 19-O ) :   0.8372 B(  1-C ,  2-C ) :   0.9544 B(  1-C ,  6-H ) :   0.9341
B(  1-C ,  7-H ) :   0.9382 B(  2-C ,  3-C ) :   0.9551 B(  2-C ,  8-H ) :   0.9450
B(  2-C ,  9-H ) :   0.9438 B(  3-C ,  4-O ) :   0.8360 B(  3-C , 10-H ) :   0.9340
B(  3-C , 11-H ) :   0.9397 B( 12-C , 13-H ) :   0.9101 B( 12-C , 14-C ) :   0.9167
B( 12-C , 17-O ) :   0.8740 B( 12-C , 18-H ) :   0.9322 B( 14-C , 15-C ) :   0.9525
B( 14-C , 19-O ) :   0.8352 B( 14-C , 20-H ) :   0.9190 B( 15-C , 16-C ) :   0.9475
B( 15-C , 21-H ) :   0.9387 B( 15-C , 22-H ) :   0.9409 B( 16-C , 17-O ) :   0.8576
B( 16-C , 23-H ) :   0.9333 B( 16-C , 24-H ) :   0.9356

FINAL SINGLE POINT ENERGY      -538.429936127033

DIPOLE MOMENT
-------------
                                X             Y             Z
Electronic contribution:     -0.82819      -4.41456       1.72027
Nuclear contribution   :      1.43682       5.65200      -2.80423
                        -----------------------------------------
Total Dipole Moment    :      0.60863       1.23744      -1.08395
                        -----------------------------------------
Magnitude (a.u.)       :      1.75404
Magnitude (Debye)      :      4.45841

Rotational constants in cm-1:     0.080340     0.019969     0.019145
Rotational constants in MHz :  2408.519937   598.650633   573.949104

                             ****ORCA TERMINATED NORMALLY****
TOTAL RUN TIME: 0 days 0 hours 5 minutes 50 seconds 455 msec
