                         Program Version 4.2.0 -  RELEASE  -
|  1> # Test redundant internal optimization
|  2> #
|  3> ! RKS B3LYP  Opt TightSCF SmallPrint
|  4>
|  5> %basis
|  6>         Basis "6-31G"
|  7> end
|  8>
|  9> %geom
| 10> Constraints
| 11> { D 4  0  15  12  180.0   C } # D for Dihedral angle
| 12> { D 0  15  12  16  240.0   C } # D for Dihedral angle
| 13> { D 0  4  3  2   C } # D for Dihedral angle
| 14> { D 4  3  2  1   C } # D for Dihedral angle
| 15> { D 3  2  1  0   C } # D for Dihedral angle
| 16> { D 2  1  0  4   C } # D for Dihedral angle
| 17> { D 1  0  4  3   C } # D for Dihedral angle
| 18> { D 16  20  19  18   C } # D for Dihedral angle
| 19> { D 20  19  18  17   C } # D for Dihedral angle
| 20> { D 19  18  17  16   C } # D for Dihedral angle
| 21> { D 18  17  16  20   C } # D for Dihedral angle
| 22> { D 17  16  20  19   C } # D for Dihedral angle
| 23> { D 15  12  16  20   C } # D for Dihedral angle
| 24> end
| 25> end
| 26>
| 27>
| 28> #%pal
| 29> #nprocs 8
| 30> #end
| 31>
| 32> * xyz 0 1
| 33> C  -21.048   26.222   46.251
| 34> C  -20.361   27.558   45.944
| 35> C  -20.329   28.222   47.341
| 36> C  -20.110   27.022   48.296
| 37> O  -20.473   25.807   47.535
| 38> H  -20.833   25.428   45.533
| 39> H  -19.344   27.382   45.576
| 40> H  -20.898   28.157   45.201
| 41> H  -19.543   28.978   47.434
| 42> H  -21.289   28.710   47.548
| 43> H  -20.733   27.082   49.195
| 44> H  -19.064   26.913   48.597
| 45> C  -23.309   26.834   45.072
| 46> H  -22.571   26.938   44.267
| 47> H  -24.044   26.078   44.767
| 48> O  -22.586   26.394   46.375
| 49> C  -24.057   28.186   45.228
| 50> C  -24.852   28.531   43.964
| 51> C  -26.107   27.641   44.129
| 52> C  -26.344   27.649   45.660
| 53> O  -25.075   28.091   46.279
| 54> H  -23.347   28.955   45.539
| 55> H  -25.127   29.592   43.969
| 56> O  -24.072   28.235   42.653
| 57> H  -26.971   28.017   43.571
| 58> H  -25.897   26.625   43.776
| 59> H  -26.607   26.659   46.049
| 60> H  -27.115   28.364   45.960
| 61> H  -23.787   27.177   42.624
| 62> *
| 63>
| 64>                          ****END OF INPUT****
 Total Charge           Charge          ....    0
 Multiplicity           Mult            ....    1
 Number of Electrons    NEL             ....  102
FINAL SINGLE POINT ENERGY      -652.823042425451
FINAL SINGLE POINT ENERGY      -652.846055032617
FINAL SINGLE POINT ENERGY      -652.850376659158
FINAL SINGLE POINT ENERGY      -652.851215115565
FINAL SINGLE POINT ENERGY      -652.851394686387
FINAL SINGLE POINT ENERGY      -652.851432313550
FINAL SINGLE POINT ENERGY      -652.851440360843
FINAL SINGLE POINT ENERGY      -652.851441720877
                    ***********************HURRAY********************

CARTESIAN COORDINATES (ANGSTROEM)
---------------------------------
  C    -21.052993   26.229507   46.198958
  C    -20.354996   27.558304   45.914245
  C    -20.431936   28.265786   47.291486
  C    -20.279948   27.094205   48.282947
  O    -20.584885   25.866262   47.501863
  H    -20.800639   25.412457   45.515002
  H    -19.312905   27.360218   45.636412
  H    -20.814458   28.137482   45.108260
  H    -19.652572   29.023691   47.415263
  H    -21.407012   28.746306   47.411217
  H    -20.973264   27.149360   49.125279
  H    -19.258045   26.979497   48.656184
  C    -23.204147   26.736547   45.068776
  H    -22.509250   26.841421   44.224120
  H    -23.902609   25.920857   44.839856
  O    -22.505261   26.367486   46.289898
  C    -23.955833   28.055916   45.250215
  C    -24.759061   28.483686   44.010378
  C    -26.073804   27.663456   44.180093
  C    -26.268053   27.650301   45.712527
  O    -24.954547   27.997588   46.312090
  H    -23.241799   28.825361   45.557942
  H    -24.968321   29.554263   44.065297
  O    -24.079461   28.305460   42.741912
  H    -26.914690   28.114839   43.646837
  H    -25.928776   26.648482   43.786229
  H    -26.586724   26.675614   46.093799
  H    -26.981655   28.409954   46.045583
  H    -24.135357   27.372693   42.450331

 Multiplicity           Mult            ....    1
 Number of Electrons    NEL             ....  102
 Basis Dimension        Dim             ....  149

ORBITAL ENERGIES
----------------

  NO   OCC          E(Eh)            E(eV)
   0   2.0000     -19.154412      -521.2180
   1   2.0000     -19.138097      -520.7741
   2   2.0000     -19.136467      -520.7297
   3   2.0000     -19.134379      -520.6729
   4   2.0000     -10.276481      -279.6373
   5   2.0000     -10.248531      -278.8767
   6   2.0000     -10.232582      -278.4427
   7   2.0000     -10.231474      -278.4126
   8   2.0000     -10.231269      -278.4070
   9   2.0000     -10.220613      -278.1170
  10   2.0000     -10.199120      -277.5322
  11   2.0000     -10.185527      -277.1623
  12   2.0000     -10.183282      -277.1012
  13   2.0000      -1.049364       -28.5547
  14   2.0000      -1.036587       -28.2070
  15   2.0000      -1.017687       -27.6927
  16   2.0000      -0.988739       -26.9050
  17   2.0000      -0.785583       -21.3768
  18   2.0000      -0.782942       -21.3049
  19   2.0000      -0.768382       -20.9087
  20   2.0000      -0.730328       -19.8732
  21   2.0000      -0.682376       -18.5684
  22   2.0000      -0.614803       -16.7296
  23   2.0000      -0.598289       -16.2803
  24   2.0000      -0.590047       -16.0560
  25   2.0000      -0.576626       -15.6908
  26   2.0000      -0.525608       -14.3025
  27   2.0000      -0.511562       -13.9203
  28   2.0000      -0.503292       -13.6953
  29   2.0000      -0.493010       -13.4155
  30   2.0000      -0.465054       -12.6548
  31   2.0000      -0.454766       -12.3748
  32   2.0000      -0.448861       -12.2141
  33   2.0000      -0.435548       -11.8519
  34   2.0000      -0.427767       -11.6401
  35   2.0000      -0.423894       -11.5347
  36   2.0000      -0.404617       -11.0102
  37   2.0000      -0.402405       -10.9500
  38   2.0000      -0.378017       -10.2864
  39   2.0000      -0.374211       -10.1828
  40   2.0000      -0.357274        -9.7219
  41   2.0000      -0.353187        -9.6107
  42   2.0000      -0.351061        -9.5529
  43   2.0000      -0.331542        -9.0217
  44   2.0000      -0.320222        -8.7137
  45   2.0000      -0.307656        -8.3717
  46   2.0000      -0.297005        -8.0819
  47   2.0000      -0.274972        -7.4824
  48   2.0000      -0.258974        -7.0470
  49   2.0000      -0.253935        -6.9099
  50   2.0000      -0.234780        -6.3887
  51   0.0000       0.047355         1.2886
  52   0.0000       0.077440         2.1073
  53   0.0000       0.081873         2.2279
  54   0.0000       0.090188         2.4542
  55   0.0000       0.099803         2.7158

MULLIKEN ATOMIC CHARGES
-----------------------
   0 C :    0.299164
   1 C :   -0.284293
   2 C :   -0.303481
   3 C :    0.000151
   4 O :   -0.500942
   5 H :    0.138986
   6 H :    0.146838
   7 H :    0.145499
   8 H :    0.141309
   9 H :    0.168983
  10 H :    0.159122
  11 H :    0.140011
  12 C :   -0.028842
  13 H :    0.128778
  14 H :    0.134939
  15 O :   -0.494149
  16 C :    0.094489
  17 C :    0.078290
  18 C :   -0.326403
  19 C :   -0.007749
  20 O :   -0.503146
  21 H :    0.156153
  22 H :    0.169704
  23 O :   -0.601814
  24 H :    0.158307
  25 H :    0.134400
  26 H :    0.148853
  27 H :    0.150066
  28 H :    0.356778
Sum of atomic charges:   -0.0000000

LOEWDIN ATOMIC CHARGES
----------------------
   0 C :    0.181189
   1 C :   -0.234869
   2 C :   -0.217884
   3 C :   -0.023867
   4 O :   -0.301435
   5 H :    0.095177
   6 H :    0.115455
   7 H :    0.113433
   8 H :    0.114068
   9 H :    0.119787
  10 H :    0.112141
  11 H :    0.101543
  12 C :   -0.054038
  13 H :    0.098068
  14 H :    0.099717
  15 O :   -0.323890
  16 C :    0.016016
  17 C :    0.032183
  18 C :   -0.241481
  19 C :   -0.028699
  20 O :   -0.312523
  21 H :    0.112587
  22 H :    0.119937
  23 O :   -0.410119
  24 H :    0.122840
  25 H :    0.104182
  26 H :    0.105866
  27 H :    0.106263
  28 H :    0.278352

  Mayer bond orders larger than 0.100000
B(  0-C ,  1-C ) :   0.9267 B(  0-C ,  4-O ) :   0.9423 B(  0-C ,  5-H ) :   0.9210
B(  0-C , 15-O ) :   0.8386 B(  1-C ,  2-C ) :   0.9508 B(  1-C ,  6-H ) :   0.9332
B(  1-C ,  7-H ) :   0.9310 B(  2-C ,  3-C ) :   0.9554 B(  2-C ,  8-H ) :   0.9448
B(  2-C ,  9-H ) :   0.9395 B(  3-C ,  4-O ) :   0.8332 B(  3-C , 10-H ) :   0.9339
B(  3-C , 11-H ) :   0.9400 B( 12-C , 13-H ) :   0.9031 B( 12-C , 14-H ) :   0.9293
B( 12-C , 15-O ) :   0.8572 B( 12-C , 16-C ) :   0.8937 B( 16-C , 17-C ) :   0.8688
B( 16-C , 20-O ) :   0.8749 B( 16-C , 21-H ) :   0.9295 B( 17-C , 18-C ) :   0.9280
B( 17-C , 22-H ) :   0.9316 B( 17-C , 23-O ) :   0.8935 B( 18-C , 19-C ) :   0.9375
B( 18-C , 24-H ) :   0.9413 B( 18-C , 25-H ) :   0.9400 B( 19-C , 20-O ) :   0.8500
B( 19-C , 26-H ) :   0.9313 B( 19-C , 27-H ) :   0.9374 B( 23-O , 28-H ) :   0.7986

FINAL SINGLE POINT ENERGY      -652.851442027922

DIPOLE MOMENT
-------------
                                X             Y             Z
Electronic contribution:     -0.36282      -2.29989       0.99834
Nuclear contribution   :      0.08642       2.62944      -2.03534
                        -----------------------------------------
Total Dipole Moment    :     -0.27639       0.32955      -1.03701
                        -----------------------------------------
Magnitude (a.u.)       :      1.12267
Magnitude (Debye)      :      2.85359

Rotational constants in cm-1:     0.053850     0.013388     0.012407
Rotational constants in MHz :  1614.396507   401.353972   371.937606

                             ****ORCA TERMINATED NORMALLY****
TOTAL RUN TIME: 0 days 0 hours 26 minutes 14 seconds 824 msec
