                         Program Version 4.2.0 -  RELEASE  -
|  1> # Test redundant internal optimization
|  2> #
|  3> ! RKS B3LYP  Opt TightSCF SmallPrint
|  4>
|  5> %basis
|  6>         Basis "6-31G"
|  7> end
|  8>
|  9> %geom
| 10> Constraints
| 11> { D 4  0  15  12  195.0   C } # D for Dihedral angle
| 12> { D 0  15  12  16  255.0   C } # D for Dihedral angle
| 13> { D 0  4  3  2   C } # D for Dihedral angle
| 14> { D 4  3  2  1   C } # D for Dihedral angle
| 15> { D 3  2  1  0   C } # D for Dihedral angle
| 16> { D 2  1  0  4   C } # D for Dihedral angle
| 17> { D 1  0  4  3   C } # D for Dihedral angle
| 18> { D 16  20  19  18   C } # D for Dihedral angle
| 19> { D 20  19  18  17   C } # D for Dihedral angle
| 20> { D 19  18  17  16   C } # D for Dihedral angle
| 21> { D 18  17  16  20   C } # D for Dihedral angle
| 22> { D 17  16  20  19   C } # D for Dihedral angle
| 23> { D 15  12  16  20   C } # D for Dihedral angle
| 24> end
| 25> end
| 26>
| 27>
| 28> #%pal
| 29> #nprocs 8
| 30> #end
| 31>
| 32> * xyz 0 1
| 33> C  -21.048   26.222   46.251
| 34> C  -20.361   27.558   45.944
| 35> C  -20.329   28.222   47.341
| 36> C  -20.110   27.022   48.296
| 37> O  -20.473   25.807   47.535
| 38> H  -20.833   25.428   45.533
| 39> H  -19.344   27.382   45.576
| 40> H  -20.898   28.157   45.201
| 41> H  -19.543   28.978   47.434
| 42> H  -21.289   28.710   47.548
| 43> H  -20.733   27.082   49.195
| 44> H  -19.064   26.913   48.597
| 45> C  -23.353   26.472   45.026
| 46> H  -22.701   26.117   44.218
| 47> H  -24.245   25.833   45.054
| 48> O  -22.586   26.394   46.375
| 49> C  -23.816   27.915   44.681
| 50> C  -24.666   27.936   43.407
| 51> C  -26.039   27.457   43.937
| 52> C  -26.101   28.072   45.357
| 53> O  -24.713   28.428   45.722
| 54> H  -22.945   28.573   44.656
| 55> O  -24.767   29.386   42.857
| 56> H  -24.269   27.293   42.614
| 57> H  -26.874   27.779   43.306
| 58> H  -26.061   26.362   43.989
| 59> H  -26.499   27.372   46.101
| 60> H  -26.689   28.994   45.388
| 61> H  -25.163   30.048   43.635
| 62> *
| 63>
| 64>                          ****END OF INPUT****
 Total Charge           Charge          ....    0
 Multiplicity           Mult            ....    1
 Number of Electrons    NEL             ....  102
FINAL SINGLE POINT ENERGY      -652.829369154559
FINAL SINGLE POINT ENERGY      -652.851921606432
FINAL SINGLE POINT ENERGY      -652.855766535440
FINAL SINGLE POINT ENERGY      -652.856442301149
FINAL SINGLE POINT ENERGY      -652.856540228471
FINAL SINGLE POINT ENERGY      -652.856549735385
                    ***********************HURRAY********************

CARTESIAN COORDINATES (ANGSTROEM)
---------------------------------
  C    -21.068358   26.249036   46.155075
  C    -20.382170   27.587846   45.892917
  C    -20.435559   28.256443   47.289012
  C    -20.259261   27.060270   48.246516
  O    -20.573739   25.851983   47.438870
  H    -20.829920   25.453180   45.440448
  H    -19.344193   27.402494   45.589733
  H    -20.862152   28.182687   45.112555
  H    -19.660035   29.016816   47.420059
  H    -21.413717   28.724065   47.434566
  H    -20.936668   27.089573   49.102939
  H    -19.229982   26.941318   48.597562
  C    -23.281547   26.443296   45.043581
  H    -22.684241   26.071448   44.195142
  H    -24.131827   25.766288   45.181107
  O    -22.517528   26.377994   46.276732
  C    -23.781277   27.857258   44.731664
  C    -24.642461   27.934890   43.463428
  C    -26.030562   27.485121   43.994570
  C    -26.060023   28.069317   45.429489
  O    -24.653860   28.372907   45.789684
  H    -22.936533   28.548705   44.667808
  O    -24.675859   29.291779   42.940984
  H    -24.276577   27.321517   42.638424
  H    -26.830293   27.871092   43.357466
  H    -26.096890   26.391421   44.006791
  H    -26.471336   27.370050   46.163528
  H    -26.618869   29.008225   45.490007
  H    -24.826561   29.914982   43.683343

 Multiplicity           Mult            ....    1
 Number of Electrons    NEL             ....  102
 Basis Dimension        Dim             ....  149

ORBITAL ENERGIES
----------------

  NO   OCC          E(Eh)            E(eV)
   0   2.0000     -19.143891      -520.9317
   1   2.0000     -19.143293      -520.9155
   2   2.0000     -19.137918      -520.7692
   3   2.0000     -19.137509      -520.7581
   4   2.0000     -10.278704      -279.6978
   5   2.0000     -10.247327      -278.8439
   6   2.0000     -10.237310      -278.5714
   7   2.0000     -10.235723      -278.5282
   8   2.0000     -10.233009      -278.4543
   9   2.0000     -10.221527      -278.1419
  10   2.0000     -10.193936      -277.3911
  11   2.0000     -10.185700      -277.1670
  12   2.0000     -10.182644      -277.0838
  13   2.0000      -1.051782       -28.6204
  14   2.0000      -1.039408       -28.2837
  15   2.0000      -1.009862       -27.4797
  16   2.0000      -0.991366       -26.9764
  17   2.0000      -0.788470       -21.4554
  18   2.0000      -0.783224       -21.3126
  19   2.0000      -0.769403       -20.9365
  20   2.0000      -0.732407       -19.9298
  21   2.0000      -0.676830       -18.4175
  22   2.0000      -0.608575       -16.5602
  23   2.0000      -0.598933       -16.2978
  24   2.0000      -0.596642       -16.2355
  25   2.0000      -0.582369       -15.8471
  26   2.0000      -0.524404       -14.2698
  27   2.0000      -0.513610       -13.9760
  28   2.0000      -0.498746       -13.5716
  29   2.0000      -0.491648       -13.3784
  30   2.0000      -0.473288       -12.8788
  31   2.0000      -0.457119       -12.4388
  32   2.0000      -0.454399       -12.3648
  33   2.0000      -0.445122       -12.1124
  34   2.0000      -0.428213       -11.6523
  35   2.0000      -0.411664       -11.2020
  36   2.0000      -0.400875       -10.9084
  37   2.0000      -0.396880       -10.7996
  38   2.0000      -0.376061       -10.2331
  39   2.0000      -0.374412       -10.1883
  40   2.0000      -0.362751        -9.8710
  41   2.0000      -0.355256        -9.6670
  42   2.0000      -0.351080        -9.5534
  43   2.0000      -0.334735        -9.1086
  44   2.0000      -0.313481        -8.5303
  45   2.0000      -0.308734        -8.4011
  46   2.0000      -0.300723        -8.1831
  47   2.0000      -0.275272        -7.4905
  48   2.0000      -0.264070        -7.1857
  49   2.0000      -0.256331        -6.9751
  50   2.0000      -0.237174        -6.4538
  51   0.0000       0.062762         1.7078
  52   0.0000       0.081309         2.2125
  53   0.0000       0.084424         2.2973
  54   0.0000       0.086781         2.3614
  55   0.0000       0.099753         2.7144

MULLIKEN ATOMIC CHARGES
-----------------------
   0 C :    0.294017
   1 C :   -0.274797
   2 C :   -0.303236
   3 C :   -0.000112
   4 O :   -0.501756
   5 H :    0.137623
   6 H :    0.144408
   7 H :    0.141306
   8 H :    0.140621
   9 H :    0.174714
  10 H :    0.157313
  11 H :    0.140016
  12 C :   -0.018487
  13 H :    0.119017
  14 H :    0.152757
  15 O :   -0.490741
  16 C :    0.064191
  17 C :    0.073381
  18 C :   -0.301950
  19 C :   -0.030506
  20 O :   -0.509476
  21 H :    0.161182
  22 O :   -0.598900
  23 H :    0.151687
  24 H :    0.163894
  25 H :    0.148358
  26 H :    0.154346
  27 H :    0.146470
  28 H :    0.364659
Sum of atomic charges:   -0.0000000

LOEWDIN ATOMIC CHARGES
----------------------
   0 C :    0.180379
   1 C :   -0.231837
   2 C :   -0.217925
   3 C :   -0.023894
   4 O :   -0.302529
   5 H :    0.094660
   6 H :    0.113736
   7 H :    0.111142
   8 H :    0.113883
   9 H :    0.124642
  10 H :    0.111205
  11 H :    0.101426
  12 C :   -0.043873
  13 H :    0.093778
  14 H :    0.111125
  15 O :   -0.322468
  16 C :    0.006645
  17 C :    0.033381
  18 C :   -0.242369
  19 C :   -0.038397
  20 O :   -0.322413
  21 H :    0.112142
  22 O :   -0.413296
  23 H :    0.114886
  24 H :    0.127280
  25 H :    0.114466
  26 H :    0.108265
  27 H :    0.102656
  28 H :    0.283305

  Mayer bond orders larger than 0.100000
B(  0-C ,  1-C ) :   0.9277 B(  0-C ,  4-O ) :   0.9419 B(  0-C ,  5-H ) :   0.9186
B(  0-C , 15-O ) :   0.8389 B(  1-C ,  2-C ) :   0.9531 B(  1-C ,  6-H ) :   0.9329
B(  1-C ,  7-H ) :   0.9295 B(  2-C ,  3-C ) :   0.9557 B(  2-C ,  8-H ) :   0.9449
B(  2-C ,  9-H ) :   0.9397 B(  3-C ,  4-O ) :   0.8328 B(  3-C , 10-H ) :   0.9343
B(  3-C , 11-H ) :   0.9399 B( 12-C , 13-H ) :   0.9118 B( 12-C , 14-H ) :   0.9324
B( 12-C , 15-O ) :   0.8654 B( 12-C , 16-C ) :   0.8790 B( 16-C , 17-C ) :   0.8944
B( 16-C , 20-O ) :   0.8681 B( 16-C , 21-H ) :   0.9179 B( 17-C , 18-C ) :   0.9123
B( 17-C , 22-O ) :   0.8952 B( 17-C , 23-H ) :   0.9329 B( 18-C , 19-C ) :   0.9400
B( 18-C , 24-H ) :   0.9370 B( 18-C , 25-H ) :   0.9337 B( 19-C , 20-O ) :   0.8484
B( 19-C , 26-H ) :   0.9332 B( 19-C , 27-H ) :   0.9374 B( 22-O , 28-H ) :   0.7941

FINAL SINGLE POINT ENERGY      -652.856550985512

DIPOLE MOMENT
-------------
                                X             Y             Z
Electronic contribution:     -0.39707      -1.30716       0.66504
Nuclear contribution   :      0.24388       1.58936      -1.21282
                        -----------------------------------------
Total Dipole Moment    :     -0.15319       0.28220      -0.54779
                        -----------------------------------------
Magnitude (a.u.)       :      0.63496
Magnitude (Debye)      :      1.61393

Rotational constants in cm-1:     0.058934     0.012520     0.012193
Rotational constants in MHz :  1766.793113   375.338323   365.532492

                             ****ORCA TERMINATED NORMALLY****
TOTAL RUN TIME: 0 days 0 hours 20 minutes 57 seconds 782 msec
