                         Program Version 4.2.0 -  RELEASE  -
|  1> # Test redundant internal optimization
|  2> #
|  3> ! RKS B3LYP  Opt TightSCF SmallPrint
|  4>
|  5> %basis
|  6>         Basis "6-31G"
|  7> end
|  8>
|  9> %geom
| 10> Constraints
| 11> { D 4  0  15  12  75.0   C } # D for Dihedral angle
| 12> { D 0  15  12  16  60.0   C } # D for Dihedral angle
| 13> { D 0  4  3  2   C } # D for Dihedral angle
| 14> { D 4  3  2  1   C } # D for Dihedral angle
| 15> { D 3  2  1  0   C } # D for Dihedral angle
| 16> { D 2  1  0  4   C } # D for Dihedral angle
| 17> { D 1  0  4  3   C } # D for Dihedral angle
| 18> { D 16  20  19  18   C } # D for Dihedral angle
| 19> { D 20  19  18  17   C } # D for Dihedral angle
| 20> { D 19  18  17  16   C } # D for Dihedral angle
| 21> { D 18  17  16  20   C } # D for Dihedral angle
| 22> { D 17  16  20  19   C } # D for Dihedral angle
| 23> { D 15  12  16  20   C } # D for Dihedral angle
| 24> end
| 25> end
| 26>
| 27>
| 28> #%pal
| 29> #nprocs 8
| 30> #end
| 31>
| 32> * xyz 0 1
| 33> C  -21.048   26.222   46.251
| 34> C  -20.361   27.558   45.944
| 35> C  -20.329   28.222   47.341
| 36> C  -20.110   27.022   48.296
| 37> O  -20.473   25.807   47.535
| 38> H  -20.833   25.428   45.533
| 39> H  -19.344   27.382   45.576
| 40> H  -20.898   28.157   45.201
| 41> H  -19.543   28.978   47.434
| 42> H  -21.289   28.710   47.548
| 43> H  -20.733   27.082   49.195
| 44> H  -19.064   26.913   48.597
| 45> C  -23.049   27.675   47.122
| 46> H  -24.146   27.694   47.161
| 47> H  -22.669   27.677   48.152
| 48> O  -22.586   26.394   46.375
| 49> C  -22.562   28.980   46.435
| 50> C  -23.186   29.143   45.044
| 51> C  -24.597   29.672   45.394
| 52> C  -24.342   30.558   46.639
| 53> O  -23.026   30.155   47.179
| 54> H  -21.471   29.005   46.447
| 55> O  -22.392   30.198   44.225
| 56> H  -23.211   28.211   44.471
| 57> H  -25.057   30.229   44.572
| 58> H  -25.261   28.835   45.644
| 59> H  -25.105   30.423   47.413
| 60> H  -24.277   31.620   46.389
| 61> H  -22.354   31.143   44.780
| 62> *
| 63>
| 64>                          ****END OF INPUT****
 Total Charge           Charge          ....    0
 Multiplicity           Mult            ....    1
 Number of Electrons    NEL             ....  102
FINAL SINGLE POINT ENERGY      -652.734416690702
FINAL SINGLE POINT ENERGY      -652.818650308167
FINAL SINGLE POINT ENERGY      -652.841662111266
FINAL SINGLE POINT ENERGY      -652.848174820258
FINAL SINGLE POINT ENERGY      -652.849099618526
FINAL SINGLE POINT ENERGY      -652.849300221978
FINAL SINGLE POINT ENERGY      -652.849319996753
FINAL SINGLE POINT ENERGY      -652.849321974418
                    ***********************HURRAY********************

CARTESIAN COORDINATES (ANGSTROEM)
---------------------------------
  C    -21.170775   26.303313   46.469692
  C    -20.126355   27.302291   45.941583
  C    -19.683350   28.041742   47.246139
  C    -19.751720   26.902580   48.298391
  O    -20.594147   25.841569   47.710038
  H    -21.240028   25.416001   45.838353
  H    -19.290310   26.727723   45.531019
  H    -20.505946   27.972511   45.166081
  H    -18.673661   28.454829   47.160607
  H    -20.350264   28.860879   47.509702
  H    -20.190204   27.222514   49.248589
  H    -18.770959   26.458497   48.492822
  C    -23.217013   27.824588   47.135403
  H    -24.279900   27.627223   46.974948
  H    -23.043484   27.855637   48.220258
  O    -22.570676   26.656134   46.552523
  C    -22.836401   29.193815   46.558364
  C    -23.214080   29.396273   45.082507
  C    -24.728596   29.711926   45.187976
  C    -24.833370   30.513289   46.510792
  O    -23.588135   30.233563   47.272094
  H    -21.787191   29.424775   46.713075
  O    -22.454230   30.487056   44.493110
  H    -23.001851   28.524742   44.463376
  H    -25.066924   30.280706   44.317887
  H    -25.305523   28.783063   45.234420
  H    -25.694466   30.221644   47.119827
  H    -24.871899   31.594696   46.346430
  H    -22.474544   31.259422   45.096993

 Multiplicity           Mult            ....    1
 Number of Electrons    NEL             ....  102
 Basis Dimension        Dim             ....  149

ORBITAL ENERGIES
----------------

  NO   OCC          E(Eh)            E(eV)
   0   2.0000     -19.150992      -521.1250
   1   2.0000     -19.144115      -520.9378
   2   2.0000     -19.142346      -520.8897
   3   2.0000     -19.139820      -520.8210
   4   2.0000     -10.280403      -279.7440
   5   2.0000     -10.243489      -278.7395
   6   2.0000     -10.237184      -278.5679
   7   2.0000     -10.236752      -278.5562
   8   2.0000     -10.234708      -278.5006
   9   2.0000     -10.227541      -278.3055
  10   2.0000     -10.193427      -277.3772
  11   2.0000     -10.192566      -277.3538
  12   2.0000     -10.192061      -277.3401
  13   2.0000      -1.048777       -28.5387
  14   2.0000      -1.041310       -28.3355
  15   2.0000      -1.011884       -27.5348
  16   2.0000      -0.994629       -27.0652
  17   2.0000      -0.787534       -21.4299
  18   2.0000      -0.786626       -21.4052
  19   2.0000      -0.774099       -21.0643
  20   2.0000      -0.737253       -20.0617
  21   2.0000      -0.681925       -18.5561
  22   2.0000      -0.612678       -16.6718
  23   2.0000      -0.608403       -16.5555
  24   2.0000      -0.602705       -16.4004
  25   2.0000      -0.574012       -15.6197
  26   2.0000      -0.531458       -14.4617
  27   2.0000      -0.504777       -13.7357
  28   2.0000      -0.504478       -13.7275
  29   2.0000      -0.489975       -13.3329
  30   2.0000      -0.476777       -12.9738
  31   2.0000      -0.465228       -12.6595
  32   2.0000      -0.451280       -12.2800
  33   2.0000      -0.436340       -11.8734
  34   2.0000      -0.431208       -11.7338
  35   2.0000      -0.416566       -11.3353
  36   2.0000      -0.412494       -11.2245
  37   2.0000      -0.398520       -10.8443
  38   2.0000      -0.385862       -10.4998
  39   2.0000      -0.374030       -10.1779
  40   2.0000      -0.360432        -9.8079
  41   2.0000      -0.356724        -9.7070
  42   2.0000      -0.351191        -9.5564
  43   2.0000      -0.337796        -9.1919
  44   2.0000      -0.314938        -8.5699
  45   2.0000      -0.313754        -8.5377
  46   2.0000      -0.297665        -8.0999
  47   2.0000      -0.276917        -7.5353
  48   2.0000      -0.272947        -7.4273
  49   2.0000      -0.254392        -6.9224
  50   2.0000      -0.244109        -6.6425
  51   0.0000       0.056909         1.5486
  52   0.0000       0.067898         1.8476
  53   0.0000       0.083380         2.2689
  54   0.0000       0.093561         2.5459
  55   0.0000       0.099123         2.6973

MULLIKEN ATOMIC CHARGES
-----------------------
   0 C :    0.313655
   1 C :   -0.296282
   2 C :   -0.318334
   3 C :   -0.009587
   4 O :   -0.504560
   5 H :    0.167846
   6 H :    0.158837
   7 H :    0.162926
   8 H :    0.147275
   9 H :    0.157336
  10 H :    0.145495
  11 H :    0.146796
  12 C :   -0.009316
  13 H :    0.156181
  14 H :    0.152624
  15 O :   -0.534737
  16 C :    0.034289
  17 C :    0.086420
  18 C :   -0.300919
  19 C :   -0.036324
  20 O :   -0.525398
  21 H :    0.163247
  22 O :   -0.605804
  23 H :    0.168241
  24 H :    0.162532
  25 H :    0.154275
  26 H :    0.150375
  27 H :    0.150158
  28 H :    0.362752
Sum of atomic charges:   -0.0000000

LOEWDIN ATOMIC CHARGES
----------------------
   0 C :    0.179947
   1 C :   -0.233118
   2 C :   -0.225128
   3 C :   -0.032532
   4 O :   -0.318690
   5 H :    0.113727
   6 H :    0.125203
   7 H :    0.123281
   8 H :    0.117279
   9 H :    0.110459
  10 H :    0.102696
  11 H :    0.103517
  12 C :   -0.037233
  13 H :    0.115346
  14 H :    0.107066
  15 O :   -0.330233
  16 C :   -0.002559
  17 C :    0.033379
  18 C :   -0.240610
  19 C :   -0.039891
  20 O :   -0.328878
  21 H :    0.112087
  22 O :   -0.415398
  23 H :    0.121872
  24 H :    0.127248
  25 H :    0.118656
  26 H :    0.106104
  27 H :    0.104098
  28 H :    0.282304

  Mayer bond orders larger than 0.100000
B(  0-C ,  1-C ) :   0.9143 B(  0-C ,  4-O ) :   0.9019 B(  0-C ,  5-H ) :   0.9360
B(  0-C , 15-O ) :   0.8932 B(  1-C ,  2-C ) :   0.9549 B(  1-C ,  6-H ) :   0.9320
B(  1-C ,  7-H ) :   0.9278 B(  2-C ,  3-C ) :   0.9437 B(  2-C ,  8-H ) :   0.9451
B(  2-C ,  9-H ) :   0.9225 B(  3-C ,  4-O ) :   0.8454 B(  3-C , 10-H ) :   0.9346
B(  3-C , 11-H ) :   0.9388 B( 12-C , 13-H ) :   0.9388 B( 12-C , 14-H ) :   0.9170
B( 12-C , 15-O ) :   0.8397 B( 12-C , 16-C ) :   0.8745 B( 16-C , 17-C ) :   0.9039
B( 16-C , 20-O ) :   0.8355 B( 16-C , 21-H ) :   0.9003 B( 17-C , 18-C ) :   0.9165
B( 17-C , 22-O ) :   0.8844 B( 17-C , 23-H ) :   0.9254 B( 18-C , 19-C ) :   0.9433
B( 18-C , 24-H ) :   0.9371 B( 18-C , 25-H ) :   0.9322 B( 19-C , 20-O ) :   0.8430
B( 19-C , 26-H ) :   0.9343 B( 19-C , 27-H ) :   0.9372 B( 22-O , 28-H ) :   0.7966

FINAL SINGLE POINT ENERGY      -652.849319577425

DIPOLE MOMENT
-------------
                                X             Y             Z
Electronic contribution:     -0.89341      -2.00718       0.32286
Nuclear contribution   :      0.84616       2.83692      -0.45365
                        -----------------------------------------
Total Dipole Moment    :     -0.04725       0.82975      -0.13079
                        -----------------------------------------
Magnitude (a.u.)       :      0.84132
Magnitude (Debye)      :      2.13846

Rotational constants in cm-1:     0.051060     0.015072     0.014414
Rotational constants in MHz :  1530.746363   451.849088   432.133480

                             ****ORCA TERMINATED NORMALLY****
TOTAL RUN TIME: 0 days 0 hours 42 minutes 44 seconds 788 msec
