                         Program Version 4.2.1 -  RELEASE  -
|  1> # Test redundant internal optimization
|  2> #
|  3> ! RKS B3LYP  Opt TightSCF SmallPrint
|  4>
|  5> %basis
|  6>         Basis "6-31G"
|  7> end
|  8>
|  9> %geom
| 10> Constraints
| 11> { D 4  0  19  14  240.0   C } # D for Dihedral angle
| 12> { D 0  19  14  12  255.0   C } # D for Dihedral angle
| 13> { D 0  4  3  2   C } # D for Dihedral angle
| 14> { D 4  3  2  1   C } # D for Dihedral angle
| 15> { D 3  2  1  0   C } # D for Dihedral angle
| 16> { D 2  1  0  4   C } # D for Dihedral angle
| 17> { D 1  0  4  3   C } # D for Dihedral angle
| 18> { D 14  15  16  17   C } # D for Dihedral angle
| 19> { D 15  16  17  12   C } # D for Dihedral angle
| 20> { D 16  17  12  14   C } # D for Dihedral angle
| 21> { D 17  12  14  15   C } # D for Dihedral angle
| 22> { D 12  14  15  16   C } # D for Dihedral angle
| 23> end
| 24> end
| 25>
| 26>
| 27> #%pal
| 28> #nprocs 8
| 29> #end
| 30>
| 31> * xyz 0 1
| 32> C  -21.048   26.222   46.251
| 33> C  -20.361   27.558   45.944
| 34> C  -20.329   28.222   47.341
| 35> C  -20.110   27.022   48.296
| 36> O  -20.473   25.807   47.535
| 37> H  -20.833   25.428   45.533
| 38> H  -19.344   27.382   45.576
| 39> H  -20.898   28.157   45.201
| 40> H  -19.543   28.978   47.434
| 41> H  -21.289   28.710   47.548
| 42> H  -20.733   27.082   49.195
| 43> H  -19.064   26.913   48.597
| 44> C  -23.800   26.345   44.327
| 45> H  -24.610   25.803   43.815
| 46> C  -23.235   25.530   45.496
| 47> C  -22.312   24.529   44.764
| 48> C  -21.754   25.362   43.583
| 49> O  -22.656   26.525   43.426
| 50> H  -24.152   27.342   44.598
| 51> O  -22.472   26.381   46.366
| 52> H  -24.012   25.036   46.090
| 53> H  -21.520   24.133   45.406
| 54> H  -22.897   23.678   44.393
| 55> H  -21.730   24.798   42.644
| 56> H  -20.754   25.756   43.785
| 57> *
| 58>
| 59>                          ****END OF INPUT****
 Total Charge           Charge          ....    0
 Multiplicity           Mult            ....    1
 Number of Electrons    NEL             ....   86
FINAL SINGLE POINT ENERGY      -538.403757004094
FINAL SINGLE POINT ENERGY      -538.426698088422
FINAL SINGLE POINT ENERGY      -538.428368348744
FINAL SINGLE POINT ENERGY      -538.428653240813
FINAL SINGLE POINT ENERGY      -538.428682977219
FINAL SINGLE POINT ENERGY      -538.428688303742
                    ***********************HURRAY********************

CARTESIAN COORDINATES (ANGSTROEM)
---------------------------------
  C    -20.805795   26.283364   46.262331
  C    -20.268118   27.700287   46.060883
  C    -20.422416   28.303746   47.477059
  C    -20.131269   27.099270   48.400359
  O    -20.290129   25.890856   47.553841
  H    -20.444934   25.545221   45.548052
  H    -19.211092   27.651785   45.772586
  H    -20.823076   28.236748   45.288804
  H    -19.741201   29.140800   47.655631
  H    -21.449235   28.654894   47.616019
  H    -20.821426   27.030039   49.245322
  H    -19.102134   27.089101   48.772694
  C    -23.703287   26.391270   44.336765
  H    -24.643891   25.964799   43.958997
  C    -23.111347   25.518950   45.445333
  C    -22.450495   24.391644   44.632079
  C    -21.938733   25.113570   43.359484
  O    -22.677376   26.395295   43.284067
  H    -23.860573   27.422119   44.653585
  O    -22.249231   26.334045   46.299273
  H    -23.884624   25.131164   46.116317
  H    -21.668445   23.860705   45.181514
  H    -23.224888   23.660778   44.375622
  H    -22.133565   24.535365   42.449165
  H    -20.871722   25.353185   43.398218

 Multiplicity           Mult            ....    1
 Number of Electrons    NEL             ....   86
 Basis Dimension        Dim             ....  127

ORBITAL ENERGIES
----------------

  NO   OCC          E(Eh)            E(eV)
   0   2.0000     -19.136889      -520.7412
   1   2.0000     -19.136070      -520.7189
   2   2.0000     -19.132366      -520.6182
   3   2.0000     -10.275457      -279.6094
   4   2.0000     -10.243804      -278.7481
   5   2.0000     -10.230030      -278.3733
   6   2.0000     -10.222345      -278.1641
   7   2.0000     -10.219092      -278.0756
   8   2.0000     -10.195485      -277.4333
   9   2.0000     -10.179262      -276.9918
  10   2.0000     -10.177334      -276.9393
  11   2.0000      -1.047451       -28.5026
  12   2.0000      -1.017335       -27.6831
  13   2.0000      -0.985913       -26.8281
  14   2.0000      -0.790886       -21.5211
  15   2.0000      -0.775189       -21.0940
  16   2.0000      -0.748555       -20.3692
  17   2.0000      -0.717871       -19.5343
  18   2.0000      -0.616699       -16.7812
  19   2.0000      -0.605804       -16.4848
  20   2.0000      -0.591962       -16.1081
  21   2.0000      -0.565688       -15.3932
  22   2.0000      -0.526698       -14.3322
  23   2.0000      -0.504024       -13.7152
  24   2.0000      -0.481693       -13.1075
  25   2.0000      -0.478017       -13.0075
  26   2.0000      -0.454342       -12.3633
  27   2.0000      -0.435686       -11.8556
  28   2.0000      -0.430838       -11.7237
  29   2.0000      -0.418430       -11.3861
  30   2.0000      -0.401219       -10.9177
  31   2.0000      -0.392346       -10.6763
  32   2.0000      -0.372618       -10.1395
  33   2.0000      -0.370123       -10.0716
  34   2.0000      -0.359764        -9.7897
  35   2.0000      -0.350325        -9.5328
  36   2.0000      -0.343048        -9.3348
  37   2.0000      -0.315375        -8.5818
  38   2.0000      -0.307660        -8.3718
  39   2.0000      -0.296635        -8.0718
  40   2.0000      -0.260400        -7.0858
  41   2.0000      -0.250768        -6.8237
  42   2.0000      -0.234726        -6.3872
  43   0.0000       0.074353         2.0232
  44   0.0000       0.094058         2.5595
  45   0.0000       0.100791         2.7427
  46   0.0000       0.107452         2.9239
  47   0.0000       0.112512         3.0616

MULLIKEN ATOMIC CHARGES
-----------------------
   0 C :    0.288493
   1 C :   -0.252120
   2 C :   -0.298256
   3 C :   -0.001082
   4 O :   -0.508213
   5 H :    0.138582
   6 H :    0.137828
   7 H :    0.160530
   8 H :    0.137894
   9 H :    0.160145
  10 H :    0.148600
  11 H :    0.138221
  12 C :   -0.002338
  13 H :    0.123589
  14 C :    0.099084
  15 C :   -0.339543
  16 C :   -0.009366
  17 O :   -0.523838
  18 H :    0.165718
  19 O :   -0.529041
  20 H :    0.148376
  21 H :    0.169714
  22 H :    0.156323
  23 H :    0.141080
  24 H :    0.149620
Sum of atomic charges:   -0.0000000

LOEWDIN ATOMIC CHARGES
----------------------
   0 C :    0.175897
   1 C :   -0.219592
   2 C :   -0.216362
   3 C :   -0.027026
   4 O :   -0.322073
   5 H :    0.098431
   6 H :    0.110156
   7 H :    0.124636
   8 H :    0.112271
   9 H :    0.118188
  10 H :    0.105889
  11 H :    0.100287
  12 C :   -0.043803
  13 H :    0.091207
  14 C :    0.047807
  15 C :   -0.242183
  16 C :   -0.035762
  17 O :   -0.334567
  18 H :    0.121159
  19 O :   -0.327084
  20 H :    0.110096
  21 H :    0.127217
  22 H :    0.123048
  23 H :    0.101021
  24 H :    0.101141

  Mayer bond orders larger than 0.100000
B(  0-C ,  1-C ) :   0.9395 B(  0-C ,  4-O ) :   0.9220 B(  0-C ,  5-H ) :   0.9096
B(  0-C , 19-O ) :   0.8442 B(  1-C ,  2-C ) :   0.9570 B(  1-C ,  6-H ) :   0.9385
B(  1-C ,  7-H ) :   0.9342 B(  2-C ,  3-C ) :   0.9537 B(  2-C ,  8-H ) :   0.9458
B(  2-C ,  9-H ) :   0.9441 B(  3-C ,  4-O ) :   0.8400 B(  3-C , 10-H ) :   0.9353
B(  3-C , 11-H ) :   0.9400 B( 12-C , 13-H ) :   0.9129 B( 12-C , 14-C ) :   0.9138
B( 12-C , 17-O ) :   0.8606 B( 12-C , 18-H ) :   0.9321 B( 14-C , 15-C ) :   0.9412
B( 14-C , 19-O ) :   0.8580 B( 14-C , 20-H ) :   0.9310 B( 15-C , 16-C ) :   0.9392
B( 15-C , 21-H ) :   0.9285 B( 15-C , 22-H ) :   0.9351 B( 16-C , 17-O ) :   0.8585
B( 16-C , 23-H ) :   0.9324 B( 16-C , 24-H ) :   0.9295

FINAL SINGLE POINT ENERGY      -538.428689140704

DIPOLE MOMENT
-------------
                                X             Y             Z
Electronic contribution:     -1.08404      -1.08049       0.18071
Nuclear contribution   :      1.02425       0.88617      -0.22490
                        -----------------------------------------
Total Dipole Moment    :     -0.05979      -0.19432      -0.04418
                        -----------------------------------------
Magnitude (a.u.)       :      0.20805
Magnitude (Debye)      :      0.52883

Rotational constants in cm-1:     0.078884     0.022134     0.021112
Rotational constants in MHz :  2364.872615   663.547024   632.930511

                             ****ORCA TERMINATED NORMALLY****
TOTAL RUN TIME: 0 days 0 hours 7 minutes 24 seconds 304 msec
