                         Program Version 4.2.0 -  RELEASE  -
|  1> # Test redundant internal optimization
|  2> #
|  3> ! RKS B3LYP  Opt TightSCF SmallPrint
|  4>
|  5> %basis
|  6>         Basis "6-31G"
|  7> end
|  8>
|  9> %geom
| 10> Constraints
| 11> { D 4  0  15  12  240.0   C } # D for Dihedral angle
| 12> { D 0  15  12  16  105.0   C } # D for Dihedral angle
| 13> { D 0  4  3  2   C } # D for Dihedral angle
| 14> { D 4  3  2  1   C } # D for Dihedral angle
| 15> { D 3  2  1  0   C } # D for Dihedral angle
| 16> { D 2  1  0  4   C } # D for Dihedral angle
| 17> { D 1  0  4  3   C } # D for Dihedral angle
| 18> { D 16  20  19  18   C } # D for Dihedral angle
| 19> { D 20  19  18  17   C } # D for Dihedral angle
| 20> { D 19  18  17  16   C } # D for Dihedral angle
| 21> { D 18  17  16  20   C } # D for Dihedral angle
| 22> { D 17  16  20  19   C } # D for Dihedral angle
| 23> { D 15  12  16  20   C } # D for Dihedral angle
| 24> end
| 25> end
| 26>
| 27>
| 28> #%pal
| 29> #nprocs 8
| 30> #end
| 31>
| 32> * xyz 0 1
| 33> C  -21.048   26.222   46.251
| 34> C  -20.361   27.558   45.944
| 35> C  -20.329   28.222   47.341
| 36> C  -20.110   27.022   48.296
| 37> O  -20.473   25.807   47.535
| 38> H  -20.833   25.428   45.533
| 39> H  -19.344   27.382   45.576
| 40> H  -20.898   28.157   45.201
| 41> H  -19.543   28.978   47.434
| 42> H  -21.289   28.710   47.548
| 43> H  -20.733   27.082   49.195
| 44> H  -19.064   26.913   48.597
| 45> C  -23.430   25.483   45.442
| 46> H  -24.220   26.080   44.970
| 47> H  -22.801   25.058   44.649
| 48> O  -22.586   26.394   46.375
| 49> C  -24.097   24.302   46.200
| 50> C  -25.126   24.805   47.218
| 51> C  -26.342   25.112   46.311
| 52> C  -26.258   24.009   45.226
| 53> O  -24.880   23.476   45.274
| 54> H  -23.320   23.661   46.621
| 55> O  -25.468   23.677   48.231
| 56> H  -24.784   25.680   47.781
| 57> H  -27.292   25.093   46.854
| 58> H  -26.233   26.106   45.861
| 59> H  -26.460   24.393   44.221
| 60> H  -26.934   23.173   45.428
| 61> H  -25.815   22.789   47.690
| 62> *
| 63>
| 64>                          ****END OF INPUT****
 Total Charge           Charge          ....    0
 Multiplicity           Mult            ....    1
 Number of Electrons    NEL             ....  102
FINAL SINGLE POINT ENERGY      -652.838130070538
FINAL SINGLE POINT ENERGY      -652.860415593960
FINAL SINGLE POINT ENERGY      -652.863782120793
FINAL SINGLE POINT ENERGY      -652.864380072233
FINAL SINGLE POINT ENERGY      -652.864462957232
FINAL SINGLE POINT ENERGY      -652.864474673271
FINAL SINGLE POINT ENERGY      -652.864476470207
                    ***********************HURRAY********************

CARTESIAN COORDINATES (ANGSTROEM)
---------------------------------
  C    -21.088067   26.134806   46.199130
  C    -20.432665   27.492216   45.947695
  C    -20.509082   28.148679   47.347230
  C    -20.308323   26.950466   48.301060
  O    -20.588003   25.738175   47.489586
  H    -20.824767   25.343343   45.490977
  H    -19.389684   27.342257   45.643947
  H    -20.948510   28.063930   45.173109
  H    -19.754231   28.927498   47.490256
  H    -21.498684   28.593160   47.489790
  H    -20.987754   26.962003   49.156800
  H    -19.277977   26.857814   48.657091
  C    -23.343902   25.476669   45.362703
  H    -24.077766   26.136682   44.887628
  H    -22.735773   25.020400   44.570636
  O    -22.530149   26.304261   46.240940
  C    -24.032210   24.370457   46.164865
  C    -25.022163   24.865772   47.227841
  C    -26.275192   25.174503   46.369624
  C    -26.234696   24.079570   45.274978
  O    -24.848388   23.546179   45.263906
  H    -23.277172   23.715924   46.610720
  O    -25.290514   23.828605   48.211661
  H    -24.647726   25.720588   47.788807
  H    -27.179904   25.131608   46.980971
  H    -26.202390   26.177062   45.934572
  H    -26.476017   24.462497   44.278745
  H    -26.900273   23.238871   45.495599
  H    -25.389016   22.968003   47.752134

 Multiplicity           Mult            ....    1
 Number of Electrons    NEL             ....  102
 Basis Dimension        Dim             ....  149

ORBITAL ENERGIES
----------------

  NO   OCC          E(Eh)            E(eV)
   0   2.0000     -19.145394      -520.9726
   1   2.0000     -19.143384      -520.9180
   2   2.0000     -19.139067      -520.8005
   3   2.0000     -19.131509      -520.5948
   4   2.0000     -10.281673      -279.7785
   5   2.0000     -10.233893      -278.4784
   6   2.0000     -10.232877      -278.4507
   7   2.0000     -10.230522      -278.3867
   8   2.0000     -10.229323      -278.3540
   9   2.0000     -10.223992      -278.2090
  10   2.0000     -10.185548      -277.1629
  11   2.0000     -10.185465      -277.1606
  12   2.0000     -10.185339      -277.1572
  13   2.0000      -1.053368       -28.6636
  14   2.0000      -1.033379       -28.1197
  15   2.0000      -1.001462       -27.2512
  16   2.0000      -0.996207       -27.1082
  17   2.0000      -0.788271       -21.4500
  18   2.0000      -0.776670       -21.1343
  19   2.0000      -0.765439       -20.8287
  20   2.0000      -0.730369       -19.8743
  21   2.0000      -0.674507       -18.3543
  22   2.0000      -0.601508       -16.3679
  23   2.0000      -0.599490       -16.3130
  24   2.0000      -0.595466       -16.2035
  25   2.0000      -0.579375       -15.7656
  26   2.0000      -0.520004       -14.1500
  27   2.0000      -0.519282       -14.1304
  28   2.0000      -0.494683       -13.4610
  29   2.0000      -0.488143       -13.2830
  30   2.0000      -0.467118       -12.7109
  31   2.0000      -0.457572       -12.4512
  32   2.0000      -0.450390       -12.2557
  33   2.0000      -0.439705       -11.9650
  34   2.0000      -0.424810       -11.5597
  35   2.0000      -0.412436       -11.2230
  36   2.0000      -0.398757       -10.8507
  37   2.0000      -0.390011       -10.6127
  38   2.0000      -0.373362       -10.1597
  39   2.0000      -0.365533        -9.9467
  40   2.0000      -0.357410        -9.7256
  41   2.0000      -0.353146        -9.6096
  42   2.0000      -0.351554        -9.5663
  43   2.0000      -0.330475        -8.9927
  44   2.0000      -0.318459        -8.6657
  45   2.0000      -0.311655        -8.4806
  46   2.0000      -0.300498        -8.1770
  47   2.0000      -0.277922        -7.5626
  48   2.0000      -0.262731        -7.1493
  49   2.0000      -0.253354        -6.8941
  50   2.0000      -0.238092        -6.4788
  51   0.0000       0.065403         1.7797
  52   0.0000       0.075241         2.0474
  53   0.0000       0.096177         2.6171
  54   0.0000       0.100390         2.7318
  55   0.0000       0.106204         2.8899

MULLIKEN ATOMIC CHARGES
-----------------------
   0 C :    0.284626
   1 C :   -0.251649
   2 C :   -0.301440
   3 C :   -0.002080
   4 O :   -0.501656
   5 H :    0.142381
   6 H :    0.143512
   7 H :    0.146331
   8 H :    0.141759
   9 H :    0.162442
  10 H :    0.154232
  11 H :    0.141743
  12 C :   -0.026358
  13 H :    0.142304
  14 H :    0.143209
  15 O :   -0.518909
  16 C :    0.060074
  17 C :    0.095724
  18 C :   -0.298351
  19 C :   -0.031125
  20 O :   -0.527281
  21 H :    0.170684
  22 O :   -0.603999
  23 H :    0.174547
  24 H :    0.161850
  25 H :    0.143921
  26 H :    0.143673
  27 H :    0.147424
  28 H :    0.362412
Sum of atomic charges:   -0.0000000

LOEWDIN ATOMIC CHARGES
----------------------
   0 C :    0.175898
   1 C :   -0.221004
   2 C :   -0.216767
   3 C :   -0.026313
   4 O :   -0.315751
   5 H :    0.099185
   6 H :    0.112891
   7 H :    0.118308
   8 H :    0.114086
   9 H :    0.119185
  10 H :    0.109091
  11 H :    0.102442
  12 C :   -0.037928
  13 H :    0.103932
  14 H :    0.104172
  15 O :   -0.334010
  16 C :    0.007584
  17 C :    0.039416
  18 C :   -0.241477
  19 C :   -0.038400
  20 O :   -0.333545
  21 H :    0.120001
  22 O :   -0.414632
  23 H :    0.127090
  24 H :    0.126618
  25 H :    0.113004
  26 H :    0.102720
  27 H :    0.102905
  28 H :    0.281300

  Mayer bond orders larger than 0.100000
B(  0-C ,  1-C ) :   0.9428 B(  0-C ,  4-O ) :   0.9344 B(  0-C ,  5-H ) :   0.9173
B(  0-C , 15-O ) :   0.8350 B(  1-C ,  2-C ) :   0.9571 B(  1-C ,  6-H ) :   0.9365
B(  1-C ,  7-H ) :   0.9388 B(  2-C ,  3-C ) :   0.9542 B(  2-C ,  8-H ) :   0.9452
B(  2-C ,  9-H ) :   0.9438 B(  3-C ,  4-O ) :   0.8359 B(  3-C , 10-H ) :   0.9344
B(  3-C , 11-H ) :   0.9399 B( 12-C , 13-H ) :   0.9365 B( 12-C , 14-H ) :   0.9200
B( 12-C , 15-O ) :   0.8428 B( 12-C , 16-C ) :   0.8830 B( 16-C , 17-C ) :   0.9151
B( 16-C , 20-O ) :   0.8385 B( 16-C , 21-H ) :   0.9249 B( 17-C , 18-C ) :   0.9117
B( 17-C , 22-O ) :   0.8894 B( 17-C , 23-H ) :   0.9245 B( 18-C , 19-C ) :   0.9396
B( 18-C , 24-H ) :   0.9383 B( 18-C , 25-H ) :   0.9352 B( 19-C , 20-O ) :   0.8436
B( 19-C , 26-H ) :   0.9363 B( 19-C , 27-H ) :   0.9380 B( 22-O , 28-H ) :   0.7961

FINAL SINGLE POINT ENERGY      -652.864476660981

DIPOLE MOMENT
-------------
                                X             Y             Z
Electronic contribution:     -0.46099      -4.93496       0.91077
Nuclear contribution   :      0.48428       5.91169      -1.74688
                        -----------------------------------------
Total Dipole Moment    :      0.02329       0.97673      -0.83612
                        -----------------------------------------
Magnitude (a.u.)       :      1.28594
Magnitude (Debye)      :      3.26860

Rotational constants in cm-1:     0.057699     0.012481     0.011658
Rotational constants in MHz :  1729.764454   374.174791   349.499822

                             ****ORCA TERMINATED NORMALLY****
TOTAL RUN TIME: 0 days 0 hours 29 minutes 59 seconds 584 msec
