                         Program Version 4.2.0 -  RELEASE  -
|  1> # Test redundant internal optimization
|  2> #
|  3> ! RKS B3LYP  Opt TightSCF SmallPrint
|  4>
|  5> %basis
|  6>         Basis "6-31G"
|  7> end
|  8>
|  9> %geom
| 10> Constraints
| 11> { D 4  0  15  12  225.0   C } # D for Dihedral angle
| 12> { D 0  15  12  16  45.0   C } # D for Dihedral angle
| 13> { D 0  4  3  2   C } # D for Dihedral angle
| 14> { D 4  3  2  1   C } # D for Dihedral angle
| 15> { D 3  2  1  0   C } # D for Dihedral angle
| 16> { D 2  1  0  4   C } # D for Dihedral angle
| 17> { D 1  0  4  3   C } # D for Dihedral angle
| 18> { D 16  20  19  18   C } # D for Dihedral angle
| 19> { D 20  19  18  17   C } # D for Dihedral angle
| 20> { D 19  18  17  16   C } # D for Dihedral angle
| 21> { D 18  17  16  20   C } # D for Dihedral angle
| 22> { D 17  16  20  19   C } # D for Dihedral angle
| 23> { D 15  12  16  20   C } # D for Dihedral angle
| 24> end
| 25> end
| 26>
| 27>
| 28> #%pal
| 29> #nprocs 8
| 30> #end
| 31>
| 32> * xyz 0 1
| 33> C  -21.048   26.222   46.251
| 34> C  -20.361   27.558   45.944
| 35> C  -20.329   28.222   47.341
| 36> C  -20.110   27.022   48.296
| 37> O  -20.473   25.807   47.535
| 38> H  -20.833   25.428   45.533
| 39> H  -19.344   27.382   45.576
| 40> H  -20.898   28.157   45.201
| 41> H  -19.543   28.978   47.434
| 42> H  -21.289   28.710   47.548
| 43> H  -20.733   27.082   49.195
| 44> H  -19.064   26.913   48.597
| 45> C  -23.415   25.773   45.218
| 46> H  -24.469   25.716   45.518
| 47> H  -23.349   26.399   44.319
| 48> O  -22.586   26.394   46.375
| 49> C  -22.938   24.344   44.836
| 50> C  -23.700   23.810   43.619
| 51> C  -22.977   24.529   42.455
| 52> C  -21.507   24.593   42.940
| 53> O  -21.537   24.371   44.402
| 54> H  -22.988   23.703   45.718
| 55> H  -23.572   22.724   43.541
| 56> O  -25.221   24.120   43.666
| 57> H  -23.079   24.002   41.501
| 58> H  -23.385   25.539   42.326
| 59> H  -21.039   25.562   42.734
| 60> H  -20.889   23.801   42.507
| 61> H  -25.375   25.202   43.743
| 62> *
| 63>
| 64>                          ****END OF INPUT****
 Total Charge           Charge          ....    0
 Multiplicity           Mult            ....    1
 Number of Electrons    NEL             ....  102
FINAL SINGLE POINT ENERGY      -652.819074062082
FINAL SINGLE POINT ENERGY      -652.841055516331
FINAL SINGLE POINT ENERGY      -652.851808155711
FINAL SINGLE POINT ENERGY      -652.853749540291
FINAL SINGLE POINT ENERGY      -652.854112034203
FINAL SINGLE POINT ENERGY      -652.854172176296
FINAL SINGLE POINT ENERGY      -652.854180548342
FINAL SINGLE POINT ENERGY      -652.854181637358
                    ***********************HURRAY********************

CARTESIAN COORDINATES (ANGSTROEM)
---------------------------------
  C    -20.854525   26.245067   46.249236
  C    -20.270694   27.642545   46.044757
  C    -20.455867   28.275828   47.445480
  C    -20.230293   27.078497   48.394639
  O    -20.395450   25.863640   47.559252
  H    -20.539739   25.475604   45.549711
  H    -19.206931   27.560708   45.790103
  H    -20.779808   28.197416   45.251967
  H    -19.758239   29.097240   47.634345
  H    -21.477254   28.655134   47.542554
  H    -20.950195   27.041157   49.216715
  H    -19.214701   27.045015   48.801717
  C    -23.164546   25.790335   45.253818
  H    -24.164021   25.778277   45.698696
  H    -23.183076   26.483227   44.392800
  O    -22.314766   26.347039   46.287507
  C    -22.849325   24.373041   44.762240
  C    -23.795327   23.886467   43.648864
  C    -23.120094   24.479804   42.372616
  C    -21.614840   24.386765   42.708561
  O    -21.513441   24.220543   44.184210
  H    -22.864274   23.701246   45.626528
  H    -23.781331   22.795154   43.615388
  O    -25.189647   24.228837   43.820796
  H    -23.388475   23.926150   41.469409
  H    -23.438975   25.521757   42.240122
  H    -21.054198   25.278899   42.411894
  H    -21.142779   23.508674   42.258930
  H    -25.338190   25.178933   43.636145

 Multiplicity           Mult            ....    1
 Number of Electrons    NEL             ....  102
 Basis Dimension        Dim             ....  149

ORBITAL ENERGIES
----------------

  NO   OCC          E(Eh)            E(eV)
   0   2.0000     -19.155832      -521.2567
   1   2.0000     -19.151445      -521.1373
   2   2.0000     -19.129697      -520.5455
   3   2.0000     -19.125567      -520.4331
   4   2.0000     -10.259305      -279.1699
   5   2.0000     -10.252450      -278.9834
   6   2.0000     -10.240401      -278.6555
   7   2.0000     -10.236724      -278.5554
   8   2.0000     -10.233318      -278.4628
   9   2.0000     -10.213306      -277.9182
  10   2.0000     -10.202884      -277.6346
  11   2.0000     -10.175432      -276.8876
  12   2.0000     -10.174724      -276.8683
  13   2.0000      -1.044239       -28.4152
  14   2.0000      -1.035445       -28.1759
  15   2.0000      -1.024312       -27.8730
  16   2.0000      -0.980723       -26.6868
  17   2.0000      -0.790684       -21.5156
  18   2.0000      -0.777300       -21.1514
  19   2.0000      -0.766994       -20.8710
  20   2.0000      -0.726194       -19.7607
  21   2.0000      -0.680335       -18.5129
  22   2.0000      -0.620217       -16.8770
  23   2.0000      -0.598466       -16.2851
  24   2.0000      -0.586773       -15.9669
  25   2.0000      -0.564342       -15.3565
  26   2.0000      -0.535915       -14.5830
  27   2.0000      -0.510777       -13.8990
  28   2.0000      -0.495703       -13.4888
  29   2.0000      -0.477868       -13.0034
  30   2.0000      -0.470543       -12.8041
  31   2.0000      -0.454690       -12.3727
  32   2.0000      -0.439705       -11.9650
  33   2.0000      -0.438316       -11.9272
  34   2.0000      -0.430625       -11.7179
  35   2.0000      -0.422341       -11.4925
  36   2.0000      -0.405491       -11.0340
  37   2.0000      -0.392515       -10.6809
  38   2.0000      -0.387413       -10.5420
  39   2.0000      -0.367748       -10.0069
  40   2.0000      -0.358667        -9.7598
  41   2.0000      -0.346476        -9.4281
  42   2.0000      -0.341540        -9.2938
  43   2.0000      -0.332812        -9.0563
  44   2.0000      -0.325704        -8.8629
  45   2.0000      -0.303595        -8.2612
  46   2.0000      -0.297872        -8.1055
  47   2.0000      -0.278990        -7.5917
  48   2.0000      -0.257626        -7.0104
  49   2.0000      -0.251181        -6.8350
  50   2.0000      -0.228738        -6.2243
  51   0.0000       0.044792         1.2189
  52   0.0000       0.068359         1.8601
  53   0.0000       0.086445         2.3523
  54   0.0000       0.096986         2.6391
  55   0.0000       0.103242         2.8093

MULLIKEN ATOMIC CHARGES
-----------------------
   0 C :    0.251978
   1 C :   -0.252901
   2 C :   -0.297064
   3 C :    0.000193
   4 O :   -0.501467
   5 H :    0.203253
   6 H :    0.139411
   7 H :    0.133736
   8 H :    0.134524
   9 H :    0.158958
  10 H :    0.148010
  11 H :    0.136187
  12 C :   -0.004147
  13 H :    0.161712
  14 H :    0.104006
  15 O :   -0.531674
  16 C :    0.071556
  17 C :    0.082091
  18 C :   -0.317691
  19 C :   -0.015952
  20 O :   -0.517325
  21 H :    0.175223
  22 H :    0.175564
  23 O :   -0.595812
  24 H :    0.160058
  25 H :    0.134953
  26 H :    0.146577
  27 H :    0.157587
  28 H :    0.358458
Sum of atomic charges:   -0.0000000

LOEWDIN ATOMIC CHARGES
----------------------
   0 C :    0.165709
   1 C :   -0.223286
   2 C :   -0.217425
   3 C :   -0.027902
   4 O :   -0.311025
   5 H :    0.126299
   6 H :    0.110238
   7 H :    0.111345
   8 H :    0.110379
   9 H :    0.117586
  10 H :    0.105726
  11 H :    0.099243
  12 C :   -0.045980
  13 H :    0.121059
  14 H :    0.076907
  15 O :   -0.336804
  16 C :    0.005704
  17 C :    0.037665
  18 C :   -0.240111
  19 C :   -0.031011
  20 O :   -0.319937
  21 H :    0.123320
  22 H :    0.122585
  23 O :   -0.403257
  24 H :    0.124303
  25 H :    0.105153
  26 H :    0.103813
  27 H :    0.109855
  28 H :    0.279848

  Mayer bond orders larger than 0.100000
B(  0-C ,  1-C ) :   0.9379 B(  0-C ,  4-O ) :   0.9228 B(  0-C ,  5-H ) :   0.8847
B(  0-C , 15-O ) :   0.8109 B(  1-C ,  2-C ) :   0.9554 B(  1-C ,  6-H ) :   0.9378
B(  1-C ,  7-H ) :   0.9410 B(  2-C ,  3-C ) :   0.9555 B(  2-C ,  8-H ) :   0.9462
B(  2-C ,  9-H ) :   0.9440 B(  3-C ,  4-O ) :   0.8434 B(  3-C , 10-H ) :   0.9350
B(  3-C , 11-H ) :   0.9402 B( 12-C , 13-H ) :   0.9181 B( 12-C , 14-H ) :   0.9189
B( 12-C , 15-O ) :   0.8763 B( 12-C , 16-C ) :   0.8973 B( 16-C , 17-C ) :   0.8693
B( 16-C , 20-O ) :   0.8406 B( 16-C , 21-H ) :   0.9247 B( 17-C , 18-C ) :   0.9228
B( 17-C , 22-H ) :   0.9309 B( 17-C , 23-O ) :   0.9056 B( 18-C , 19-C ) :   0.9385
B( 18-C , 24-H ) :   0.9417 B( 18-C , 25-H ) :   0.9398 B( 19-C , 20-O ) :   0.8352
B( 19-C , 26-H ) :   0.9321 B( 19-C , 27-H ) :   0.9375 B( 23-O , 28-H ) :   0.7964

FINAL SINGLE POINT ENERGY      -652.854181620664

DIPOLE MOMENT
-------------
                                X             Y             Z
Electronic contribution:     -1.70820      -4.46173       1.75545
Nuclear contribution   :      1.68102       5.35220      -3.17778
                        -----------------------------------------
Total Dipole Moment    :     -0.02718       0.89047      -1.42233
                        -----------------------------------------
Magnitude (a.u.)       :      1.67831
Magnitude (Debye)      :      4.26591

Rotational constants in cm-1:     0.059593     0.012942     0.012111
Rotational constants in MHz :  1786.558737   387.986058   363.066894

                             ****ORCA TERMINATED NORMALLY****
TOTAL RUN TIME: 0 days 0 hours 26 minutes 6 seconds 683 msec
