                         Program Version 4.2.0 -  RELEASE  -
|  1> # Test redundant internal optimization
|  2> #
|  3> ! RKS B3LYP  Opt TightSCF SmallPrint
|  4>
|  5> %basis
|  6>         Basis "6-31G"
|  7> end
|  8>
|  9> %geom
| 10> Constraints
| 11> { D 4  0  15  12  300.0   C } # D for Dihedral angle
| 12> { D 0  15  12  16  195.0   C } # D for Dihedral angle
| 13> { D 0  4  3  2   C } # D for Dihedral angle
| 14> { D 4  3  2  1   C } # D for Dihedral angle
| 15> { D 3  2  1  0   C } # D for Dihedral angle
| 16> { D 2  1  0  4   C } # D for Dihedral angle
| 17> { D 1  0  4  3   C } # D for Dihedral angle
| 18> { D 16  20  19  18   C } # D for Dihedral angle
| 19> { D 20  19  18  17   C } # D for Dihedral angle
| 20> { D 19  18  17  16   C } # D for Dihedral angle
| 21> { D 18  17  16  20   C } # D for Dihedral angle
| 22> { D 17  16  20  19   C } # D for Dihedral angle
| 23> { D 15  12  16  20   C } # D for Dihedral angle
| 24> end
| 25> end
| 26>
| 27>
| 28> #%pal
| 29> #nprocs 8
| 30> #end
| 31>
| 32> * xyz 0 1
| 33> C  -21.048   26.222   46.251
| 34> C  -20.361   27.558   45.944
| 35> C  -20.329   28.222   47.341
| 36> C  -20.110   27.022   48.296
| 37> O  -20.473   25.807   47.535
| 38> H  -20.833   25.428   45.533
| 39> H  -19.344   27.382   45.576
| 40> H  -20.898   28.157   45.201
| 41> H  -19.543   28.978   47.434
| 42> H  -21.289   28.710   47.548
| 43> H  -20.733   27.082   49.195
| 44> H  -19.064   26.913   48.597
| 45> C  -23.362   25.116   46.798
| 46> H  -22.984   24.258   46.227
| 47> H  -23.211   24.911   47.866
| 48> O  -22.586   26.394   46.375
| 49> C  -24.891   25.232   46.550
| 50> C  -25.636   24.004   47.083
| 51> C  -25.702   24.311   48.598
| 52> C  -25.871   25.851   48.638
| 53> O  -25.450   26.353   47.313
| 54> H  -25.067   25.444   45.493
| 55> O  -27.063   23.940   46.474
| 56> H  -25.124   23.061   46.863
| 57> H  -26.522   23.789   49.102
| 58> H  -24.766   24.012   49.085
| 59> H  -25.253   26.320   49.412
| 60> H  -26.912   26.153   48.783
| 61> H  -27.595   24.875   46.683
| 62> *
| 63>
| 64>                          ****END OF INPUT****
 Total Charge           Charge          ....    0
 Multiplicity           Mult            ....    1
 Number of Electrons    NEL             ....  102
FINAL SINGLE POINT ENERGY      -652.836275457221
FINAL SINGLE POINT ENERGY      -652.861214825758
FINAL SINGLE POINT ENERGY      -652.865529429339
FINAL SINGLE POINT ENERGY      -652.866314308061
FINAL SINGLE POINT ENERGY      -652.866410117449
FINAL SINGLE POINT ENERGY      -652.866421979866
                    ***********************HURRAY********************

CARTESIAN COORDINATES (ANGSTROEM)
---------------------------------
  C    -21.131005   26.144844   46.257988
  C    -20.570050   27.531737   45.943706
  C    -20.507930   28.170993   47.348188
  C    -20.142611   26.981412   48.263580
  O    -20.460838   25.755583   47.483735
  H    -20.908719   25.354248   45.531796
  H    -19.569468   27.425781   45.509452
  H    -21.206333   28.082316   45.247786
  H    -19.774784   28.981276   47.410080
  H    -21.491667   28.570333   47.610030
  H    -20.714030   26.966164   49.195149
  H    -19.074246   26.933683   48.495012
  C    -23.235220   25.073792   46.861258
  H    -22.885022   24.212092   46.270336
  H    -23.002275   24.878912   47.914185
  O    -22.553735   26.282418   46.427216
  C    -24.729620   25.267698   46.632183
  C    -25.586092   24.078499   47.089639
  C    -25.733263   24.362022   48.608616
  C    -25.806733   25.907757   48.669639
  O    -25.266568   26.406759   47.382374
  H    -24.895875   25.495231   45.575029
  O    -26.873782   24.079888   46.414041
  H    -25.147594   23.103382   46.872480
  H    -26.626334   23.874170   49.007011
  H    -24.860785   23.981190   49.150991
  H    -25.218214   26.327871   49.490848
  H    -26.834049   26.275560   48.753773
  H    -27.213159   24.999391   46.377882

 Multiplicity           Mult            ....    1
 Number of Electrons    NEL             ....  102
 Basis Dimension        Dim             ....  149

ORBITAL ENERGIES
----------------

  NO   OCC          E(Eh)            E(eV)
   0   2.0000     -19.143115      -520.9106
   1   2.0000     -19.139853      -520.8219
   2   2.0000     -19.139449      -520.8109
   3   2.0000     -19.138214      -520.7773
   4   2.0000     -10.276714      -279.6436
   5   2.0000     -10.242688      -278.7177
   6   2.0000     -10.233164      -278.4585
   7   2.0000     -10.229162      -278.3496
   8   2.0000     -10.228974      -278.3445
   9   2.0000     -10.224284      -278.2169
  10   2.0000     -10.188894      -277.2539
  11   2.0000     -10.182928      -277.0916
  12   2.0000     -10.182239      -277.0728
  13   2.0000      -1.055022       -28.7086
  14   2.0000      -1.035072       -28.1658
  15   2.0000      -1.005381       -27.3578
  16   2.0000      -0.992219       -26.9996
  17   2.0000      -0.790102       -21.4998
  18   2.0000      -0.780515       -21.2389
  19   2.0000      -0.766236       -20.8503
  20   2.0000      -0.728848       -19.8330
  21   2.0000      -0.671844       -18.2818
  22   2.0000      -0.604159       -16.4400
  23   2.0000      -0.598241       -16.2790
  24   2.0000      -0.589410       -16.0387
  25   2.0000      -0.580482       -15.7957
  26   2.0000      -0.527938       -14.3659
  27   2.0000      -0.508601       -13.8397
  28   2.0000      -0.492424       -13.3995
  29   2.0000      -0.488490       -13.2925
  30   2.0000      -0.475137       -12.9291
  31   2.0000      -0.458491       -12.4762
  32   2.0000      -0.448893       -12.2150
  33   2.0000      -0.442920       -12.0525
  34   2.0000      -0.417845       -11.3701
  35   2.0000      -0.407216       -11.0809
  36   2.0000      -0.400021       -10.8851
  37   2.0000      -0.393071       -10.6960
  38   2.0000      -0.372268       -10.1299
  39   2.0000      -0.368350       -10.0233
  40   2.0000      -0.361441        -9.8353
  41   2.0000      -0.354573        -9.6484
  42   2.0000      -0.345560        -9.4032
  43   2.0000      -0.335401        -9.1267
  44   2.0000      -0.323806        -8.8112
  45   2.0000      -0.306797        -8.3484
  46   2.0000      -0.297421        -8.0932
  47   2.0000      -0.270700        -7.3661
  48   2.0000      -0.265233        -7.2174
  49   2.0000      -0.254803        -6.9335
  50   2.0000      -0.242751        -6.6056
  51   0.0000       0.066769         1.8169
  52   0.0000       0.087230         2.3736
  53   0.0000       0.089646         2.4394
  54   0.0000       0.099574         2.7095
  55   0.0000       0.105482         2.8703

MULLIKEN ATOMIC CHARGES
-----------------------
   0 C :    0.288032
   1 C :   -0.263428
   2 C :   -0.299803
   3 C :   -0.005575
   4 O :   -0.518064
   5 H :    0.140906
   6 H :    0.143886
   7 H :    0.161586
   8 H :    0.140004
   9 H :    0.170074
  10 H :    0.144521
  11 H :    0.143001
  12 C :    0.015943
  13 H :    0.123224
  14 H :    0.145143
  15 O :   -0.513523
  16 C :    0.061788
  17 C :    0.075735
  18 C :   -0.294090
  19 C :   -0.027270
  20 O :   -0.510451
  21 H :    0.165883
  22 O :   -0.602769
  23 H :    0.150968
  24 H :    0.162716
  25 H :    0.145357
  26 H :    0.146496
  27 H :    0.143908
  28 H :    0.365803
Sum of atomic charges:    0.0000000

LOEWDIN ATOMIC CHARGES
----------------------
   0 C :    0.171608
   1 C :   -0.214216
   2 C :   -0.216335
   3 C :   -0.028453
   4 O :   -0.333683
   5 H :    0.093652
   6 H :    0.113567
   7 H :    0.126640
   8 H :    0.112999
   9 H :    0.123028
  10 H :    0.103899
  11 H :    0.102582
  12 C :   -0.039957
  13 H :    0.095631
  14 H :    0.102631
  15 O :   -0.316297
  16 C :    0.017359
  17 C :    0.035817
  18 C :   -0.240702
  19 C :   -0.037985
  20 O :   -0.321239
  21 H :    0.119318
  22 O :   -0.414758
  23 H :    0.114935
  24 H :    0.126563
  25 H :    0.113414
  26 H :    0.104547
  27 H :    0.101589
  28 H :    0.283846

  Mayer bond orders larger than 0.100000
B(  0-C ,  1-C ) :   0.9524 B(  0-C ,  4-O ) :   0.8932 B(  0-C ,  5-H ) :   0.9177
B(  0-C , 15-O ) :   0.8676 B(  1-C ,  2-C ) :   0.9561 B(  1-C ,  6-H ) :   0.9401
B(  1-C ,  7-H ) :   0.9351 B(  2-C ,  3-C ) :   0.9559 B(  2-C ,  8-H ) :   0.9451
B(  2-C ,  9-H ) :   0.9426 B(  3-C ,  4-O ) :   0.8365 B(  3-C , 10-H ) :   0.9363
B(  3-C , 11-H ) :   0.9405 B( 12-C , 13-H ) :   0.9108 B( 12-C , 14-H ) :   0.9181
B( 12-C , 15-O ) :   0.8305 B( 12-C , 16-C ) :   0.9000 B( 16-C , 17-C ) :   0.9010
B( 16-C , 20-O ) :   0.8640 B( 16-C , 21-H ) :   0.9243 B( 17-C , 18-C ) :   0.9106
B( 17-C , 22-O ) :   0.8923 B( 17-C , 23-H ) :   0.9338 B( 18-C , 19-C ) :   0.9396
B( 18-C , 24-H ) :   0.9373 B( 18-C , 25-H ) :   0.9337 B( 19-C , 20-O ) :   0.8530
B( 19-C , 26-H ) :   0.9345 B( 19-C , 27-H ) :   0.9380 B( 22-O , 28-H ) :   0.7933

FINAL SINGLE POINT ENERGY      -652.866424472904

DIPOLE MOMENT
-------------
                                X             Y             Z
Electronic contribution:     -2.71798      -1.63506      -2.78543
Nuclear contribution   :      3.20040       1.86916       3.29626
                        -----------------------------------------
Total Dipole Moment    :      0.48242       0.23410       0.51083
                        -----------------------------------------
Magnitude (a.u.)       :      0.74059
Magnitude (Debye)      :      1.88244

Rotational constants in cm-1:     0.061705     0.011983     0.011622
Rotational constants in MHz :  1849.876523   359.232645   348.422975

                             ****ORCA TERMINATED NORMALLY****
TOTAL RUN TIME: 0 days 1 hours 0 minutes 8 seconds 168 msec
