                         Program Version 4.2.0 -  RELEASE  -
|  1> # Test redundant internal optimization
|  2> #
|  3> ! RKS B3LYP  Opt TightSCF SmallPrint
|  4>
|  5> %basis
|  6>         Basis "6-31G"
|  7> end
|  8>
|  9> %geom
| 10> Constraints
| 11> { D 4  0  15  12  330.0   C } # D for Dihedral angle
| 12> { D 0  15  12  16  0.0   C } # D for Dihedral angle
| 13> { D 0  4  3  2   C } # D for Dihedral angle
| 14> { D 4  3  2  1   C } # D for Dihedral angle
| 15> { D 3  2  1  0   C } # D for Dihedral angle
| 16> { D 2  1  0  4   C } # D for Dihedral angle
| 17> { D 1  0  4  3   C } # D for Dihedral angle
| 18> { D 16  20  19  18   C } # D for Dihedral angle
| 19> { D 20  19  18  17   C } # D for Dihedral angle
| 20> { D 19  18  17  16   C } # D for Dihedral angle
| 21> { D 18  17  16  20   C } # D for Dihedral angle
| 22> { D 17  16  20  19   C } # D for Dihedral angle
| 23> { D 15  12  16  20   C } # D for Dihedral angle
| 24> end
| 25> end
| 26>
| 27>
| 28> #%pal
| 29> #nprocs 8
| 30> #end
| 31>
| 32> * xyz 0 1
| 33> C  -21.048   26.222   46.251
| 34> C  -20.361   27.558   45.944
| 35> C  -20.329   28.222   47.341
| 36> C  -20.110   27.022   48.296
| 37> O  -20.473   25.807   47.535
| 38> H  -20.833   25.428   45.533
| 39> H  -19.344   27.382   45.576
| 40> H  -20.898   28.157   45.201
| 41> H  -19.543   28.978   47.434
| 42> H  -21.289   28.710   47.548
| 43> H  -20.733   27.082   49.195
| 44> H  -19.064   26.913   48.597
| 45> C  -23.271   25.476   47.424
| 46> H  -23.776   26.097   48.174
| 47> H  -24.024   24.838   46.943
| 48> O  -22.586   26.394   46.375
| 49> C  -22.264   24.547   48.158
| 50> C  -22.986   23.577   49.099
| 51> C  -23.495   22.501   48.111
| 52> C  -22.364   22.432   47.053
| 53> O  -21.577   23.676   47.198
| 54> H  -21.498   25.159   48.639
| 55> O  -21.977   22.962   50.107
| 56> H  -23.795   24.050   49.666
| 57> H  -23.675   21.534   48.591
| 58> H  -24.435   22.827   47.650
| 59> H  -22.751   22.370   46.030
| 60> H  -21.681   21.596   47.226
| 61> H  -21.157   22.482   49.561
| 62> *
| 63>
| 64>                          ****END OF INPUT****
 Total Charge           Charge          ....    0
 Multiplicity           Mult            ....    1
 Number of Electrons    NEL             ....  102
FINAL SINGLE POINT ENERGY      -652.797839617158
FINAL SINGLE POINT ENERGY      -652.829370436960
FINAL SINGLE POINT ENERGY      -652.848891695544
FINAL SINGLE POINT ENERGY      -652.851899664807
FINAL SINGLE POINT ENERGY      -652.852472433579
FINAL SINGLE POINT ENERGY      -652.852599762703
FINAL SINGLE POINT ENERGY      -652.852609449376
FINAL SINGLE POINT ENERGY      -652.852611283319
                    ***********************HURRAY********************

CARTESIAN COORDINATES (ANGSTROEM)
---------------------------------
  C    -20.915595   26.308876   46.230765
  C    -20.534339   27.761295   45.942375
  C    -20.369802   28.333096   47.369181
  C    -19.784474   27.144557   48.161611
  O    -20.072735   25.931835   47.344142
  H    -20.682061   25.589256   45.442995
  H    -19.584057   27.779255   45.396202
  H    -21.296551   28.277352   45.355526
  H    -19.719151   29.212433   47.399546
  H    -21.349647   28.616926   47.764496
  H    -20.235639   27.021908   49.151435
  H    -18.696971   27.194383   48.269210
  C    -23.050898   25.400795   47.404363
  H    -23.585605   26.061453   48.101387
  H    -23.801572   24.876214   46.800315
  O    -22.346007   26.279492   46.479218
  C    -22.261765   24.381556   48.229052
  C    -23.164149   23.484157   49.091420
  C    -23.638065   22.423983   48.058001
  C    -22.397483   22.252644   47.144852
  O    -21.536925   23.438947   47.367295
  H    -21.507812   24.877083   48.837386
  O    -22.398387   22.880663   50.169712
  H    -23.986144   24.010961   49.577895
  H    -23.928848   21.498678   48.561106
  H    -24.501808   22.796896   47.497232
  H    -22.659427   22.194854   46.083945
  H    -21.804675   21.370257   47.405650
  H    -21.526410   22.599194   49.819685

 Multiplicity           Mult            ....    1
 Number of Electrons    NEL             ....  102
 Basis Dimension        Dim             ....  149

ORBITAL ENERGIES
----------------

  NO   OCC          E(Eh)            E(eV)
   0   2.0000     -19.140182      -520.8308
   1   2.0000     -19.137868      -520.7679
   2   2.0000     -19.137173      -520.7490
   3   2.0000     -19.132115      -520.6113
   4   2.0000     -10.273336      -279.5517
   5   2.0000     -10.241345      -278.6812
   6   2.0000     -10.231203      -278.4052
   7   2.0000     -10.228844      -278.3410
   8   2.0000     -10.227382      -278.3012
   9   2.0000     -10.225622      -278.2533
  10   2.0000     -10.187693      -277.2212
  11   2.0000     -10.184221      -277.1267
  12   2.0000     -10.180260      -277.0190
  13   2.0000      -1.045779       -28.4571
  14   2.0000      -1.032242       -28.0887
  15   2.0000      -1.002890       -27.2900
  16   2.0000      -0.985195       -26.8085
  17   2.0000      -0.788612       -21.4592
  18   2.0000      -0.779925       -21.2228
  19   2.0000      -0.762991       -20.7621
  20   2.0000      -0.731134       -19.8952
  21   2.0000      -0.671703       -18.2780
  22   2.0000      -0.602509       -16.3951
  23   2.0000      -0.600706       -16.3460
  24   2.0000      -0.595533       -16.2053
  25   2.0000      -0.567882       -15.4529
  26   2.0000      -0.518127       -14.0989
  27   2.0000      -0.509781       -13.8718
  28   2.0000      -0.495056       -13.4712
  29   2.0000      -0.480145       -13.0654
  30   2.0000      -0.471646       -12.8341
  31   2.0000      -0.459732       -12.5100
  32   2.0000      -0.445662       -12.1271
  33   2.0000      -0.438548       -11.9335
  34   2.0000      -0.412325       -11.2199
  35   2.0000      -0.409670       -11.1477
  36   2.0000      -0.397293       -10.8109
  37   2.0000      -0.391100       -10.6424
  38   2.0000      -0.372960       -10.1488
  39   2.0000      -0.366600        -9.9757
  40   2.0000      -0.360102        -9.7989
  41   2.0000      -0.355309        -9.6684
  42   2.0000      -0.344870        -9.3844
  43   2.0000      -0.336585        -9.1590
  44   2.0000      -0.321567        -8.7503
  45   2.0000      -0.302609        -8.2344
  46   2.0000      -0.293739        -7.9931
  47   2.0000      -0.270101        -7.3498
  48   2.0000      -0.257522        -7.0075
  49   2.0000      -0.244293        -6.6475
  50   2.0000      -0.237841        -6.4720
  51   0.0000       0.067479         1.8362
  52   0.0000       0.083764         2.2793
  53   0.0000       0.089620         2.4387
  54   0.0000       0.095616         2.6018
  55   0.0000       0.106895         2.9088

MULLIKEN ATOMIC CHARGES
-----------------------
   0 C :    0.320141
   1 C :   -0.259241
   2 C :   -0.300677
   3 C :   -0.022122
   4 O :   -0.500884
   5 H :    0.157110
   6 H :    0.143716
   7 H :    0.158854
   8 H :    0.141709
   9 H :    0.155581
  10 H :    0.137988
  11 H :    0.151218
  12 C :    0.031871
  13 H :    0.131150
  14 H :    0.135827
  15 O :   -0.559243
  16 C :    0.043397
  17 C :    0.080692
  18 C :   -0.295904
  19 C :   -0.029602
  20 O :   -0.510753
  21 H :    0.181151
  22 O :   -0.604502
  23 H :    0.149080
  24 H :    0.161052
  25 H :    0.142043
  26 H :    0.146452
  27 H :    0.145464
  28 H :    0.368433
Sum of atomic charges:   -0.0000000

LOEWDIN ATOMIC CHARGES
----------------------
   0 C :    0.189916
   1 C :   -0.216393
   2 C :   -0.217672
   3 C :   -0.036119
   4 O :   -0.311894
   5 H :    0.103794
   6 H :    0.113076
   7 H :    0.125290
   8 H :    0.114261
   9 H :    0.115688
  10 H :    0.098654
  11 H :    0.106368
  12 C :   -0.029661
  13 H :    0.100894
  14 H :    0.100486
  15 O :   -0.346094
  16 C :    0.002461
  17 C :    0.036712
  18 C :   -0.241331
  19 C :   -0.040122
  20 O :   -0.321344
  21 H :    0.124903
  22 O :   -0.415248
  23 H :    0.114159
  24 H :    0.125788
  25 H :    0.111571
  26 H :    0.104187
  27 H :    0.102324
  28 H :    0.285346

  Mayer bond orders larger than 0.100000
B(  0-C ,  1-C ) :   0.9378 B(  0-C ,  4-O ) :   0.8982 B(  0-C ,  5-H ) :   0.9250
B(  0-C , 15-O ) :   0.8364 B(  1-C ,  2-C ) :   0.9552 B(  1-C ,  6-H ) :   0.9379
B(  1-C ,  7-H ) :   0.9364 B(  2-C ,  3-C ) :   0.9546 B(  2-C ,  8-H ) :   0.9451
B(  2-C ,  9-H ) :   0.9454 B(  3-C ,  4-O ) :   0.8402 B(  3-C , 10-H ) :   0.9320
B(  3-C , 11-H ) :   0.9396 B( 12-C , 13-H ) :   0.9197 B( 12-C , 14-H ) :   0.9287
B( 12-C , 15-O ) :   0.8443 B( 12-C , 16-C ) :   0.9013 B( 16-C , 17-C ) :   0.8932
B( 16-C , 20-O ) :   0.8406 B( 16-C , 21-H ) :   0.9105 B( 17-C , 18-C ) :   0.9085
B( 17-C , 22-O ) :   0.8919 B( 17-C , 23-H ) :   0.9335 B( 18-C , 19-C ) :   0.9393
B( 18-C , 24-H ) :   0.9382 B( 18-C , 25-H ) :   0.9338 B( 19-C , 20-O ) :   0.8537
B( 19-C , 26-H ) :   0.9345 B( 19-C , 27-H ) :   0.9378 B( 22-O , 28-H ) :   0.7916

FINAL SINGLE POINT ENERGY      -652.852610923925

DIPOLE MOMENT
-------------
                                X             Y             Z
Electronic contribution:      0.95473      -2.52135       0.36891
Nuclear contribution   :     -1.20825       2.87488      -0.59367
                        -----------------------------------------
Total Dipole Moment    :     -0.25352       0.35353      -0.22476
                        -----------------------------------------
Magnitude (a.u.)       :      0.48967
Magnitude (Debye)      :      1.24464

Rotational constants in cm-1:     0.056475     0.014933     0.014026
Rotational constants in MHz :  1693.086816   447.677583   420.498250

                             ****ORCA TERMINATED NORMALLY****
TOTAL RUN TIME: 0 days 1 hours 30 minutes 39 seconds 170 msec
