                         Program Version 4.2.0 -  RELEASE  -
|  1> # Test redundant internal optimization
|  2> #
|  3> ! RKS B3LYP  Opt TightSCF SmallPrint
|  4>
|  5> %basis
|  6>         Basis "6-31G"
|  7> end
|  8>
|  9> %geom
| 10> Constraints
| 11> { D 4  0  15  12  255.0   C } # D for Dihedral angle
| 12> { D 0  15  12  16  345.0   C } # D for Dihedral angle
| 13> { D 0  4  3  2   C } # D for Dihedral angle
| 14> { D 4  3  2  1   C } # D for Dihedral angle
| 15> { D 3  2  1  0   C } # D for Dihedral angle
| 16> { D 2  1  0  4   C } # D for Dihedral angle
| 17> { D 1  0  4  3   C } # D for Dihedral angle
| 18> { D 16  20  19  18   C } # D for Dihedral angle
| 19> { D 20  19  18  17   C } # D for Dihedral angle
| 20> { D 19  18  17  16   C } # D for Dihedral angle
| 21> { D 18  17  16  20   C } # D for Dihedral angle
| 22> { D 17  16  20  19   C } # D for Dihedral angle
| 23> { D 15  12  16  20   C } # D for Dihedral angle
| 24> end
| 25> end
| 26>
| 27>
| 28> #%pal
| 29> #nprocs 8
| 30> #end
| 31>
| 32> * xyz 0 1
| 33> C  -21.048   26.222   46.251
| 34> C  -20.361   27.558   45.944
| 35> C  -20.329   28.222   47.341
| 36> C  -20.110   27.022   48.296
| 37> O  -20.473   25.807   47.535
| 38> H  -20.833   25.428   45.533
| 39> H  -19.344   27.382   45.576
| 40> H  -20.898   28.157   45.201
| 41> H  -19.543   28.978   47.434
| 42> H  -21.289   28.710   47.548
| 43> H  -20.733   27.082   49.195
| 44> H  -19.064   26.913   48.597
| 45> C  -23.431   25.260   45.734
| 46> H  -23.846   24.625   46.526
| 47> H  -24.266   25.681   45.159
| 48> O  -22.586   26.394   46.375
| 49> C  -22.602   24.362   44.774
| 50> C  -21.511   23.597   45.531
| 51> C  -22.320   22.440   46.163
| 52> C  -23.390   22.130   45.086
| 53> O  -23.447   23.310   44.198
| 54> H  -22.236   24.969   43.944
| 55> O  -20.455   23.048   44.532
| 56> H  -20.993   24.210   46.276
| 57> H  -21.701   21.569   46.399
| 58> H  -22.794   22.776   47.093
| 59> H  -24.381   21.956   45.517
| 60> H  -23.119   21.271   44.464
| 61> H  -20.951   22.429   43.775
| 62> *
| 63>
| 64>                          ****END OF INPUT****
 Total Charge           Charge          ....    0
 Multiplicity           Mult            ....    1
 Number of Electrons    NEL             ....  102
FINAL SINGLE POINT ENERGY      -652.806176292634
FINAL SINGLE POINT ENERGY      -652.836733670262
FINAL SINGLE POINT ENERGY      -652.851894106574
FINAL SINGLE POINT ENERGY      -652.853828521269
FINAL SINGLE POINT ENERGY      -652.854213755049
FINAL SINGLE POINT ENERGY      -652.854262774696
FINAL SINGLE POINT ENERGY      -652.854267536024
                    ***********************HURRAY********************

CARTESIAN COORDINATES (ANGSTROEM)
---------------------------------
  C    -20.797004   26.296321   46.269162
  C    -20.336274   27.737706   46.041804
  C    -20.553767   28.368357   47.440821
  C    -20.212810   27.203016   48.397292
  O    -20.285601   25.968604   47.579927
  H    -20.380371   25.580059   45.564896
  H    -19.272980   27.741159   45.774397
  H    -20.905684   28.230275   45.251537
  H    -19.922513   29.245222   47.610683
  H    -21.600928   28.663899   47.550321
  H    -20.914595   27.113794   49.230872
  H    -19.192536   27.260013   48.788901
  C    -23.085797   25.266857   45.680704
  H    -23.559983   24.731610   46.512863
  H    -23.872756   25.798510   45.138945
  O    -22.237774   26.306592   46.262293
  C    -22.490018   24.223276   44.716743
  C    -21.442531   23.252697   45.294143
  C    -22.334881   22.261623   46.103210
  C    -23.616650   22.176051   45.236339
  O    -23.606412   23.351123   44.335532
  H    -22.120084   24.693368   43.800546
  O    -20.727134   22.590750   44.214801
  H    -20.673694   23.699056   45.918379
  H    -21.830708   21.299602   46.218877
  H    -22.542508   22.668746   47.097910
  H    -24.535072   22.195440   45.830702
  H    -23.633237   21.285628   44.600150
  H    -21.369696   22.298643   43.534250

 Multiplicity           Mult            ....    1
 Number of Electrons    NEL             ....  102
 Basis Dimension        Dim             ....  149

ORBITAL ENERGIES
----------------

  NO   OCC          E(Eh)            E(eV)
   0   2.0000     -19.151291      -521.1331
   1   2.0000     -19.140777      -520.8470
   2   2.0000     -19.139242      -520.8053
   3   2.0000     -19.136594      -520.7332
   4   2.0000     -10.278809      -279.7006
   5   2.0000     -10.242580      -278.7148
   6   2.0000     -10.241783      -278.6931
   7   2.0000     -10.235146      -278.5125
   8   2.0000     -10.232150      -278.4310
   9   2.0000     -10.222758      -278.1754
  10   2.0000     -10.190399      -277.2948
  11   2.0000     -10.181873      -277.0629
  12   2.0000     -10.181286      -277.0469
  13   2.0000      -1.049697       -28.5637
  14   2.0000      -1.042086       -28.3566
  15   2.0000      -1.010484       -27.4967
  16   2.0000      -0.990263       -26.9464
  17   2.0000      -0.786044       -21.3894
  18   2.0000      -0.779096       -21.2003
  19   2.0000      -0.767872       -20.8949
  20   2.0000      -0.735792       -20.0219
  21   2.0000      -0.676342       -18.4042
  22   2.0000      -0.608640       -16.5619
  23   2.0000      -0.604594       -16.4518
  24   2.0000      -0.595278       -16.1983
  25   2.0000      -0.575377       -15.6568
  26   2.0000      -0.525367       -14.2960
  27   2.0000      -0.521738       -14.1972
  28   2.0000      -0.498599       -13.5676
  29   2.0000      -0.479544       -13.0491
  30   2.0000      -0.470470       -12.8021
  31   2.0000      -0.459799       -12.5118
  32   2.0000      -0.450946       -12.2709
  33   2.0000      -0.430536       -11.7155
  34   2.0000      -0.426546       -11.6069
  35   2.0000      -0.420986       -11.4556
  36   2.0000      -0.399317       -10.8660
  37   2.0000      -0.395591       -10.7646
  38   2.0000      -0.373119       -10.1531
  39   2.0000      -0.371714       -10.1148
  40   2.0000      -0.365925        -9.9573
  41   2.0000      -0.352950        -9.6043
  42   2.0000      -0.346742        -9.4353
  43   2.0000      -0.333242        -9.0680
  44   2.0000      -0.317340        -8.6353
  45   2.0000      -0.312066        -8.4918
  46   2.0000      -0.304662        -8.2903
  47   2.0000      -0.274021        -7.4565
  48   2.0000      -0.265631        -7.2282
  49   2.0000      -0.249411        -6.7868
  50   2.0000      -0.243091        -6.6148
  51   0.0000       0.061619         1.6767
  52   0.0000       0.074578         2.0294
  53   0.0000       0.092730         2.5233
  54   0.0000       0.097817         2.6617
  55   0.0000       0.102306         2.7839

MULLIKEN ATOMIC CHARGES
-----------------------
   0 C :    0.273964
   1 C :   -0.247626
   2 C :   -0.296406
   3 C :   -0.000484
   4 O :   -0.514408
   5 H :    0.150687
   6 H :    0.142077
   7 H :    0.148291
   8 H :    0.137849
   9 H :    0.163630
  10 H :    0.148664
  11 H :    0.141064
  12 C :    0.026990
  13 H :    0.137307
  14 H :    0.161790
  15 O :   -0.539098
  16 C :    0.019513
  17 C :    0.075488
  18 C :   -0.309283
  19 C :   -0.027525
  20 O :   -0.524938
  21 H :    0.160205
  22 O :   -0.605099
  23 H :    0.189927
  24 H :    0.165219
  25 H :    0.162221
  26 H :    0.148826
  27 H :    0.147188
  28 H :    0.363965
Sum of atomic charges:   -0.0000000

LOEWDIN ATOMIC CHARGES
----------------------
   0 C :    0.169459
   1 C :   -0.216225
   2 C :   -0.215487
   3 C :   -0.025993
   4 O :   -0.328599
   5 H :    0.101477
   6 H :    0.111463
   7 H :    0.119818
   8 H :    0.112340
   9 H :    0.119960
  10 H :    0.105933
  11 H :    0.101681
  12 C :   -0.034157
  13 H :    0.100244
  14 H :    0.117431
  15 O :   -0.335419
  16 C :    0.003034
  17 C :    0.028650
  18 C :   -0.241549
  19 C :   -0.038297
  20 O :   -0.325009
  21 H :    0.113167
  22 O :   -0.414244
  23 H :    0.129175
  24 H :    0.128412
  25 H :    0.121731
  26 H :    0.105403
  27 H :    0.103180
  28 H :    0.282421

  Mayer bond orders larger than 0.100000
B(  0-C ,  1-C ) :   0.9433 B(  0-C ,  4-O ) :   0.9110 B(  0-C ,  5-H ) :   0.9088
B(  0-C , 15-O ) :   0.8550 B(  1-C ,  2-C ) :   0.9584 B(  1-C ,  6-H ) :   0.9394
B(  1-C ,  7-H ) :   0.9387 B(  2-C ,  3-C ) :   0.9543 B(  2-C ,  8-H ) :   0.9460
B(  2-C ,  9-H ) :   0.9433 B(  3-C ,  4-O ) :   0.8355 B(  3-C , 10-H ) :   0.9356
B(  3-C , 11-H ) :   0.9401 B( 12-C , 13-H ) :   0.9250 B( 12-C , 14-H ) :   0.9274
B( 12-C , 15-O ) :   0.8354 B( 12-C , 16-C ) :   0.8896 B( 16-C , 17-C ) :   0.8994
B( 16-C , 20-O ) :   0.8301 B( 16-C , 21-H ) :   0.9234 B( 17-C , 18-C ) :   0.9100
B( 17-C , 22-O ) :   0.8821 B( 17-C , 23-H ) :   0.9119 B( 18-C , 19-C ) :   0.9402
B( 18-C , 24-H ) :   0.9375 B( 18-C , 25-H ) :   0.9307 B( 19-C , 20-O ) :   0.8357
B( 19-C , 26-H ) :   0.9357 B( 19-C , 27-H ) :   0.9382 B( 22-O , 28-H ) :   0.7949

FINAL SINGLE POINT ENERGY      -652.854268639599

DIPOLE MOMENT
-------------
                                X             Y             Z
Electronic contribution:     -0.61692      -2.49143      -2.78128
Nuclear contribution   :      0.40658       2.68804       2.97903
                        -----------------------------------------
Total Dipole Moment    :     -0.21034       0.19662       0.19776
                        -----------------------------------------
Magnitude (a.u.)       :      0.34929
Magnitude (Debye)      :      0.88784

Rotational constants in cm-1:     0.056591     0.013403     0.012838
Rotational constants in MHz :  1696.544049   401.805140   384.870445

                             ****ORCA TERMINATED NORMALLY****
TOTAL RUN TIME: 0 days 0 hours 27 minutes 57 seconds 562 msec
