                         Program Version 4.2.0 -  RELEASE  -
|  1> # Test redundant internal optimization
|  2> #
|  3> ! RKS B3LYP  Opt TightSCF SmallPrint
|  4>
|  5> %basis
|  6>         Basis "6-31G"
|  7> end
|  8>
|  9> %geom
| 10> Constraints
| 11> { D 4  0  15  12  105.0   C } # D for Dihedral angle
| 12> { D 0  15  12  16  30.0   C } # D for Dihedral angle
| 13> { D 0  4  3  2   C } # D for Dihedral angle
| 14> { D 4  3  2  1   C } # D for Dihedral angle
| 15> { D 3  2  1  0   C } # D for Dihedral angle
| 16> { D 2  1  0  4   C } # D for Dihedral angle
| 17> { D 1  0  4  3   C } # D for Dihedral angle
| 18> { D 16  20  19  18   C } # D for Dihedral angle
| 19> { D 20  19  18  17   C } # D for Dihedral angle
| 20> { D 19  18  17  16   C } # D for Dihedral angle
| 21> { D 18  17  16  20   C } # D for Dihedral angle
| 22> { D 17  16  20  19   C } # D for Dihedral angle
| 23> { D 15  12  16  20   C } # D for Dihedral angle
| 24> end
| 25> end
| 26>
| 27>
| 28> #%pal
| 29> #nprocs 8
| 30> #end
| 31>
| 32> * xyz 0 1
| 33> C  -21.048   26.222   46.251
| 34> C  -20.361   27.558   45.944
| 35> C  -20.329   28.222   47.341
| 36> C  -20.110   27.022   48.296
| 37> O  -20.473   25.807   47.535
| 38> H  -20.833   25.428   45.533
| 39> H  -19.344   27.382   45.576
| 40> H  -20.898   28.157   45.201
| 41> H  -19.543   28.978   47.434
| 42> H  -21.289   28.710   47.548
| 43> H  -20.733   27.082   49.195
| 44> H  -19.064   26.913   48.597
| 45> C  -23.085   27.864   46.420
| 46> H  -24.092   27.918   45.990
| 47> H  -23.135   28.221   47.457
| 48> O  -22.586   26.394   46.375
| 49> C  -22.163   28.835   45.631
| 50> C  -22.168   28.512   44.133
| 51> C  -23.498   29.158   43.677
| 52> C  -23.601   30.420   44.570
| 53> O  -22.680   30.206   45.706
| 54> H  -21.173   28.841   46.089
| 55> H  -21.316   28.995   43.641
| 56> O  -22.105   26.989   43.836
| 57> H  -23.509   29.400   42.609
| 58> H  -24.334   28.476   43.873
| 59> H  -24.614   30.580   44.955
| 60> H  -23.272   31.325   44.053
| 61> H  -22.949   26.485   44.319
| 62> *
| 63>
| 64>                          ****END OF INPUT****
 Total Charge           Charge          ....    0
 Multiplicity           Mult            ....    1
 Number of Electrons    NEL             ....  102
FINAL SINGLE POINT ENERGY      -652.647297859855
FINAL SINGLE POINT ENERGY      -652.809078130071
FINAL SINGLE POINT ENERGY      -652.832831277134
FINAL SINGLE POINT ENERGY      -652.839015402815
FINAL SINGLE POINT ENERGY      -652.840140819530
FINAL SINGLE POINT ENERGY      -652.840685136643
FINAL SINGLE POINT ENERGY      -652.840968058606
FINAL SINGLE POINT ENERGY      -652.841102410068
FINAL SINGLE POINT ENERGY      -652.841158441174
FINAL SINGLE POINT ENERGY      -652.841171322740
                    ***********************HURRAY********************

CARTESIAN COORDINATES (ANGSTROEM)
---------------------------------
  C    -21.149315   26.198256   46.505642
  C    -19.971848   27.085331   46.082049
  C    -19.704192   27.917753   47.372612
  C    -20.019940   26.891656   48.490246
  O    -20.821038   25.825909   47.857201
  H    -21.222198   25.263364   45.949675
  H    -19.122089   26.419603   45.892370
  H    -20.154093   27.662040   45.178486
  H    -18.673639   28.280864   47.423450
  H    -20.366256   28.784770   47.443384
  H    -20.591277   27.321349   49.318563
  H    -19.117512   26.418369   48.888631
  C    -23.118690   28.040879   46.311526
  H    -24.082533   27.832883   45.838537
  H    -23.327963   28.421121   47.319090
  O    -22.522232   26.704275   46.444954
  C    -22.415064   29.185687   45.552746
  C    -22.266851   28.932219   44.038617
  C    -23.719971   29.202848   43.521038
  C    -24.194874   30.346334   44.443303
  O    -23.293307   30.349451   45.626333
  H    -21.480900   29.480032   46.026580
  H    -21.566008   29.647002   43.601742
  O    -21.770090   27.629200   43.652519
  H    -23.726938   29.476201   42.463277
  H    -24.322559   28.296069   43.642250
  H    -25.226332   30.225642   44.788279
  H    -24.094867   31.328777   43.972482
  H    -22.262427   26.932118   44.139414

 Multiplicity           Mult            ....    1
 Number of Electrons    NEL             ....  102
 Basis Dimension        Dim             ....  149

ORBITAL ENERGIES
----------------

  NO   OCC          E(Eh)            E(eV)
   0   2.0000     -19.150670      -521.1162
   1   2.0000     -19.149703      -521.0899
   2   2.0000     -19.141939      -520.8786
   3   2.0000     -19.137450      -520.7565
   4   2.0000     -10.283679      -279.8331
   5   2.0000     -10.249317      -278.8981
   6   2.0000     -10.243454      -278.7386
   7   2.0000     -10.238206      -278.5958
   8   2.0000     -10.237085      -278.5653
   9   2.0000     -10.225713      -278.2558
  10   2.0000     -10.195874      -277.4438
  11   2.0000     -10.191295      -277.3192
  12   2.0000     -10.185325      -277.1568
  13   2.0000      -1.048121       -28.5208
  14   2.0000      -1.039170       -28.2773
  15   2.0000      -1.022617       -27.8268
  16   2.0000      -0.988649       -26.9025
  17   2.0000      -0.786130       -21.3917
  18   2.0000      -0.784725       -21.3535
  19   2.0000      -0.774931       -21.0869
  20   2.0000      -0.738234       -20.0884
  21   2.0000      -0.686502       -18.6807
  22   2.0000      -0.615357       -16.7447
  23   2.0000      -0.608388       -16.5551
  24   2.0000      -0.602520       -16.3954
  25   2.0000      -0.572509       -15.5788
  26   2.0000      -0.537520       -14.6267
  27   2.0000      -0.508908       -13.8481
  28   2.0000      -0.502319       -13.6688
  29   2.0000      -0.486953       -13.2507
  30   2.0000      -0.472661       -12.8618
  31   2.0000      -0.460110       -12.5202
  32   2.0000      -0.448361       -12.2005
  33   2.0000      -0.438625       -11.9356
  34   2.0000      -0.429118       -11.6769
  35   2.0000      -0.419978       -11.4282
  36   2.0000      -0.415013       -11.2931
  37   2.0000      -0.405077       -11.0227
  38   2.0000      -0.387086       -10.5331
  39   2.0000      -0.378283       -10.2936
  40   2.0000      -0.362617        -9.8673
  41   2.0000      -0.354823        -9.6552
  42   2.0000      -0.352244        -9.5850
  43   2.0000      -0.345720        -9.4075
  44   2.0000      -0.316121        -8.6021
  45   2.0000      -0.312636        -8.5072
  46   2.0000      -0.296481        -8.0676
  47   2.0000      -0.273968        -7.4551
  48   2.0000      -0.268030        -7.2935
  49   2.0000      -0.251678        -6.8485
  50   2.0000      -0.245498        -6.6803
  51   0.0000       0.051417         1.3991
  52   0.0000       0.068871         1.8741
  53   0.0000       0.081333         2.2132
  54   0.0000       0.093033         2.5316
  55   0.0000       0.098716         2.6862

MULLIKEN ATOMIC CHARGES
-----------------------
   0 C :    0.310975
   1 C :   -0.309971
   2 C :   -0.317262
   3 C :   -0.007225
   4 O :   -0.498665
   5 H :    0.162851
   6 H :    0.154977
   7 H :    0.186412
   8 H :    0.145552
   9 H :    0.151189
  10 H :    0.146935
  11 H :    0.145867
  12 C :   -0.009738
  13 H :    0.153204
  14 H :    0.160801
  15 O :   -0.561017
  16 C :    0.041187
  17 C :    0.096923
  18 C :   -0.317412
  19 C :   -0.016976
  20 O :   -0.518096
  21 H :    0.160289
  22 H :    0.162941
  23 O :   -0.606888
  24 H :    0.160686
  25 H :    0.147370
  26 H :    0.149319
  27 H :    0.152371
  28 H :    0.373403
Sum of atomic charges:   -0.0000000

LOEWDIN ATOMIC CHARGES
----------------------
   0 C :    0.183724
   1 C :   -0.241847
   2 C :   -0.224238
   3 C :   -0.031406
   4 O :   -0.312042
   5 H :    0.109966
   6 H :    0.124175
   7 H :    0.132649
   8 H :    0.116768
   9 H :    0.107321
  10 H :    0.103995
  11 H :    0.103600
  12 C :   -0.046008
  13 H :    0.110494
  14 H :    0.112463
  15 O :   -0.354141
  16 C :    0.002420
  17 C :    0.033277
  18 C :   -0.239341
  19 C :   -0.031803
  20 O :   -0.316820
  21 H :    0.113473
  22 H :    0.116297
  23 O :   -0.405925
  24 H :    0.125411
  25 H :    0.111563
  26 H :    0.105186
  27 H :    0.107779
  28 H :    0.283008

  Mayer bond orders larger than 0.100000
B(  0-C ,  1-C ) :   0.9264 B(  0-C ,  4-O ) :   0.9178 B(  0-C ,  5-H ) :   0.9335
B(  0-C , 15-O ) :   0.8437 B(  1-C ,  2-C ) :   0.9499 B(  1-C ,  6-H ) :   0.9306
B(  1-C ,  7-H ) :   0.8995 B(  2-C ,  3-C ) :   0.9456 B(  2-C ,  8-H ) :   0.9457
B(  2-C ,  9-H ) :   0.9301 B(  3-C ,  4-O ) :   0.8441 B(  3-C , 10-H ) :   0.9349
B(  3-C , 11-H ) :   0.9387 B( 12-C , 13-H ) :   0.9324 B( 12-C , 14-H ) :   0.9222
B( 12-C , 15-O ) :   0.8210 B( 12-C , 16-C ) :   0.8800 B( 16-C , 17-C ) :   0.8888
B( 16-C , 20-O ) :   0.8355 B( 16-C , 21-H ) :   0.9145 B( 17-C , 18-C ) :   0.9171
B( 17-C , 22-H ) :   0.9335 B( 17-C , 23-O ) :   0.8954 B( 18-C , 19-C ) :   0.9386
B( 18-C , 24-H ) :   0.9422 B( 18-C , 25-H ) :   0.9406 B( 19-C , 20-O ) :   0.8288
B( 19-C , 26-H ) :   0.9327 B( 19-C , 27-H ) :   0.9387 B( 23-O , 28-H ) :   0.7642

FINAL SINGLE POINT ENERGY      -652.841174691066

DIPOLE MOMENT
-------------
                                X             Y             Z
Electronic contribution:     -1.30049      -2.62631       0.83317
Nuclear contribution   :      1.41378       3.40615      -1.37923
                        -----------------------------------------
Total Dipole Moment    :      0.11329       0.77984      -0.54606
                        -----------------------------------------
Magnitude (a.u.)       :      0.95873
Magnitude (Debye)      :      2.43690

Rotational constants in cm-1:     0.053857     0.015664     0.014858
Rotational constants in MHz :  1614.592905   469.599639   445.427602

                             ****ORCA TERMINATED NORMALLY****
TOTAL RUN TIME: 0 days 1 hours 33 minutes 21 seconds 206 msec
