                         Program Version 4.2.0 -  RELEASE  -
|  1> # Test redundant internal optimization
|  2> #
|  3> ! RKS B3LYP  Opt TightSCF SmallPrint
|  4>
|  5> %basis
|  6>         Basis "6-31G"
|  7> end
|  8>
|  9> %geom
| 10> Constraints
| 11> { D 4  0  15  12  225.0   C } # D for Dihedral angle
| 12> { D 0  15  12  16  90.0   C } # D for Dihedral angle
| 13> { D 0  4  3  2   C } # D for Dihedral angle
| 14> { D 4  3  2  1   C } # D for Dihedral angle
| 15> { D 3  2  1  0   C } # D for Dihedral angle
| 16> { D 2  1  0  4   C } # D for Dihedral angle
| 17> { D 1  0  4  3   C } # D for Dihedral angle
| 18> { D 16  20  19  18   C } # D for Dihedral angle
| 19> { D 20  19  18  17   C } # D for Dihedral angle
| 20> { D 19  18  17  16   C } # D for Dihedral angle
| 21> { D 18  17  16  20   C } # D for Dihedral angle
| 22> { D 17  16  20  19   C } # D for Dihedral angle
| 23> { D 15  12  16  20   C } # D for Dihedral angle
| 24> end
| 25> end
| 26>
| 27>
| 28> #%pal
| 29> #nprocs 8
| 30> #end
| 31>
| 32> * xyz 0 1
| 33> C  -21.048   26.222   46.251
| 34> C  -20.361   27.558   45.944
| 35> C  -20.329   28.222   47.341
| 36> C  -20.110   27.022   48.296
| 37> O  -20.473   25.807   47.535
| 38> H  -20.833   25.428   45.533
| 39> H  -19.344   27.382   45.576
| 40> H  -20.898   28.157   45.201
| 41> H  -19.543   28.978   47.434
| 42> H  -21.289   28.710   47.548
| 43> H  -20.733   27.082   49.195
| 44> H  -19.064   26.913   48.597
| 45> C  -23.415   25.773   45.218
| 46> H  -24.332   26.358   45.075
| 47> H  -22.844   25.796   44.281
| 48> O  -22.586   26.394   46.375
| 49> C  -23.816   24.297   45.491
| 50> C  -24.531   23.681   44.284
| 51> C  -23.342   23.347   43.352
| 52> C  -22.224   22.938   44.342
| 53> O  -22.621   23.465   45.665
| 54> H  -24.380   24.246   46.425
| 55> H  -25.057   22.767   44.582
| 56> O  -25.559   24.644   43.627
| 57> H  -23.575   22.554   42.634
| 58> H  -23.048   24.238   42.783
| 59> H  -21.248   23.356   44.068
| 60> H  -22.130   21.853   44.441
| 61> H  -25.055   25.567   43.319
| 62> *
| 63>
| 64>                          ****END OF INPUT****
 Total Charge           Charge          ....    0
 Multiplicity           Mult            ....    1
 Number of Electrons    NEL             ....  102
FINAL SINGLE POINT ENERGY      -652.826936439075
FINAL SINGLE POINT ENERGY      -652.850161882196
FINAL SINGLE POINT ENERGY      -652.854557700932
FINAL SINGLE POINT ENERGY      -652.855253477279
FINAL SINGLE POINT ENERGY      -652.855354685015
FINAL SINGLE POINT ENERGY      -652.855379009023
FINAL SINGLE POINT ENERGY      -652.855384310895
FINAL SINGLE POINT ENERGY      -652.855385858156
                    ***********************HURRAY********************

CARTESIAN COORDINATES (ANGSTROEM)
---------------------------------
  C    -21.005969   26.230376   46.188742
  C    -20.360644   27.597255   45.968509
  C    -20.418207   28.211709   47.388000
  C    -20.197731   26.986719   48.300973
  O    -20.485092   25.799073   47.456674
  H    -20.760490   25.457018   45.459803
  H    -19.321321   27.463001   45.644040
  H    -20.888050   28.194427   45.219951
  H    -19.666014   28.991122   47.542117
  H    -21.408590   28.644409   47.558624
  H    -20.864208   26.969487   49.166754
  H    -19.161429   26.888444   48.638596
  C    -23.262111   25.851758   45.205796
  H    -24.158347   26.478509   45.163230
  H    -22.728260   25.945948   44.245540
  O    -22.452631   26.389311   46.281523
  C    -23.675478   24.402406   45.464925
  C    -24.511614   23.761111   44.343968
  C    -23.406619   23.297347   43.347803
  C    -22.253184   22.879462   44.285756
  O    -22.526316   23.509292   45.605060
  H    -24.187597   24.370938   46.430590
  H    -25.053735   22.900936   44.741532
  O    -25.538697   24.606682   43.770617
  H    -23.746775   22.483173   42.702115
  H    -23.117637   24.139003   42.704045
  H    -21.271706   23.206752   43.928225
  H    -22.222591   21.798403   44.450649
  H    -25.136959   25.300928   43.208842

 Multiplicity           Mult            ....    1
 Number of Electrons    NEL             ....  102
 Basis Dimension        Dim             ....  149

ORBITAL ENERGIES
----------------

  NO   OCC          E(Eh)            E(eV)
   0   2.0000     -19.151926      -521.1504
   1   2.0000     -19.140342      -520.8352
   2   2.0000     -19.134645      -520.6802
   3   2.0000     -19.130117      -520.5569
   4   2.0000     -10.270665      -279.4790
   5   2.0000     -10.246754      -278.8284
   6   2.0000     -10.233243      -278.4607
   7   2.0000     -10.233184      -278.4591
   8   2.0000     -10.228648      -278.3357
   9   2.0000     -10.216866      -278.0151
  10   2.0000     -10.198179      -277.5066
  11   2.0000     -10.179796      -277.0063
  12   2.0000     -10.179543      -276.9994
  13   2.0000      -1.045390       -28.4465
  14   2.0000      -1.034487       -28.1498
  15   2.0000      -1.017249       -27.6807
  16   2.0000      -0.987321       -26.8664
  17   2.0000      -0.785237       -21.3674
  18   2.0000      -0.780365       -21.2348
  19   2.0000      -0.765480       -20.8298
  20   2.0000      -0.726915       -19.7804
  21   2.0000      -0.680426       -18.5153
  22   2.0000      -0.613727       -16.7004
  23   2.0000      -0.594100       -16.1663
  24   2.0000      -0.589521       -16.0417
  25   2.0000      -0.574230       -15.6256
  26   2.0000      -0.530107       -14.4250
  27   2.0000      -0.508501       -13.8370
  28   2.0000      -0.499499       -13.5920
  29   2.0000      -0.483892       -13.1674
  30   2.0000      -0.465894       -12.6776
  31   2.0000      -0.454704       -12.3731
  32   2.0000      -0.445866       -12.1326
  33   2.0000      -0.433467       -11.7952
  34   2.0000      -0.429860       -11.6971
  35   2.0000      -0.416772       -11.3409
  36   2.0000      -0.407638       -11.0924
  37   2.0000      -0.390789       -10.6339
  38   2.0000      -0.382681       -10.4133
  39   2.0000      -0.365071        -9.9341
  40   2.0000      -0.357924        -9.7396
  41   2.0000      -0.350236        -9.5304
  42   2.0000      -0.345668        -9.4061
  43   2.0000      -0.332765        -9.0550
  44   2.0000      -0.315918        -8.5966
  45   2.0000      -0.305681        -8.3180
  46   2.0000      -0.301070        -8.1925
  47   2.0000      -0.272340        -7.4108
  48   2.0000      -0.264743        -7.2040
  49   2.0000      -0.250256        -6.8098
  50   2.0000      -0.229829        -6.2540
  51   0.0000       0.046840         1.2746
  52   0.0000       0.065249         1.7755
  53   0.0000       0.089965         2.4481
  54   0.0000       0.097457         2.6519
  55   0.0000       0.106514         2.8984

MULLIKEN ATOMIC CHARGES
-----------------------
   0 C :    0.297526
   1 C :   -0.256293
   2 C :   -0.300201
   3 C :   -0.000392
   4 O :   -0.495237
   5 H :    0.146917
   6 H :    0.139087
   7 H :    0.138354
   8 H :    0.138089
   9 H :    0.161528
  10 H :    0.151709
  11 H :    0.137722
  12 C :   -0.036820
  13 H :    0.155110
  14 H :    0.107252
  15 O :   -0.510785
  16 C :    0.102031
  17 C :    0.082238
  18 C :   -0.322767
  19 C :   -0.014417
  20 O :   -0.503532
  21 H :    0.170240
  22 H :    0.170445
  23 O :   -0.598238
  24 H :    0.159612
  25 H :    0.131028
  26 H :    0.138486
  27 H :    0.156234
  28 H :    0.355075
Sum of atomic charges:   -0.0000000

LOEWDIN ATOMIC CHARGES
----------------------
   0 C :    0.180300
   1 C :   -0.226086
   2 C :   -0.217253
   3 C :   -0.026564
   4 O :   -0.302928
   5 H :    0.102860
   6 H :    0.110258
   7 H :    0.113477
   8 H :    0.112167
   9 H :    0.118910
  10 H :    0.107917
  11 H :    0.100223
  12 C :   -0.049419
  13 H :    0.115763
  14 H :    0.081791
  15 O :   -0.328162
  16 C :    0.010817
  17 C :    0.034424
  18 C :   -0.242129
  19 C :   -0.032235
  20 O :   -0.313594
  21 H :    0.122850
  22 H :    0.121202
  23 O :   -0.406497
  24 H :    0.123494
  25 H :    0.102676
  26 H :    0.099351
  27 H :    0.109140
  28 H :    0.277246

  Mayer bond orders larger than 0.100000
B(  0-C ,  1-C ) :   0.9348 B(  0-C ,  4-O ) :   0.9354 B(  0-C ,  5-H ) :   0.9164
B(  0-C , 15-O ) :   0.8200 B(  1-C ,  2-C ) :   0.9557 B(  1-C ,  6-H ) :   0.9362
B(  1-C ,  7-H ) :   0.9394 B(  2-C ,  3-C ) :   0.9543 B(  2-C ,  8-H ) :   0.9456
B(  2-C ,  9-H ) :   0.9436 B(  3-C ,  4-O ) :   0.8424 B(  3-C , 10-H ) :   0.9344
B(  3-C , 11-H ) :   0.9398 B( 12-C , 13-H ) :   0.9218 B( 12-C , 14-H ) :   0.9233
B( 12-C , 15-O ) :   0.8790 B( 12-C , 16-C ) :   0.8882 B( 16-C , 17-C ) :   0.8664
B( 16-C , 20-O ) :   0.8651 B( 16-C , 21-H ) :   0.9289 B( 17-C , 18-C ) :   0.9220
B( 17-C , 22-H ) :   0.9319 B( 17-C , 23-O ) :   0.8986 B( 18-C , 19-C ) :   0.9387
B( 18-C , 24-H ) :   0.9415 B( 18-C , 25-H ) :   0.9411 B( 19-C , 20-O ) :   0.8488
B( 19-C , 26-H ) :   0.9310 B( 19-C , 27-H ) :   0.9371 B( 23-O , 28-H ) :   0.7987

FINAL SINGLE POINT ENERGY      -652.855386242674

DIPOLE MOMENT
-------------
                                X             Y             Z
Electronic contribution:     -2.92139      -2.90171       2.03023
Nuclear contribution   :      3.39935       3.47484      -3.39166
                        -----------------------------------------
Total Dipole Moment    :      0.47796       0.57313      -1.36142
                        -----------------------------------------
Magnitude (a.u.)       :      1.55254
Magnitude (Debye)      :      3.94625

Rotational constants in cm-1:     0.059581     0.013041     0.012003
Rotational constants in MHz :  1786.195923   390.951756   359.850046

                             ****ORCA TERMINATED NORMALLY****
TOTAL RUN TIME: 0 days 0 hours 25 minutes 54 seconds 148 msec
