                         Program Version 4.2.0 -  RELEASE  -
|  1> # Test redundant internal optimization
|  2> #
|  3> ! RKS B3LYP  Opt TightSCF SmallPrint
|  4>
|  5> %basis
|  6>         Basis "6-31G"
|  7> end
|  8>
|  9> %geom
| 10> Constraints
| 11> { D 4  0  15  12  255.0   C } # D for Dihedral angle
| 12> { D 0  15  12  16  180.0   C } # D for Dihedral angle
| 13> { D 0  4  3  2   C } # D for Dihedral angle
| 14> { D 4  3  2  1   C } # D for Dihedral angle
| 15> { D 3  2  1  0   C } # D for Dihedral angle
| 16> { D 2  1  0  4   C } # D for Dihedral angle
| 17> { D 1  0  4  3   C } # D for Dihedral angle
| 18> { D 16  20  19  18   C } # D for Dihedral angle
| 19> { D 20  19  18  17   C } # D for Dihedral angle
| 20> { D 19  18  17  16   C } # D for Dihedral angle
| 21> { D 18  17  16  20   C } # D for Dihedral angle
| 22> { D 17  16  20  19   C } # D for Dihedral angle
| 23> { D 15  12  16  20   C } # D for Dihedral angle
| 24> end
| 25> end
| 26>
| 27>
| 28> #%pal
| 29> #nprocs 8
| 30> #end
| 31>
| 32> * xyz 0 1
| 33> C  -21.048   26.222   46.251
| 34> C  -20.361   27.558   45.944
| 35> C  -20.329   28.222   47.341
| 36> C  -20.110   27.022   48.296
| 37> O  -20.473   25.807   47.535
| 38> H  -20.833   25.428   45.533
| 39> H  -19.344   27.382   45.576
| 40> H  -20.898   28.157   45.201
| 41> H  -19.543   28.978   47.434
| 42> H  -21.289   28.710   47.548
| 43> H  -20.733   27.082   49.195
| 44> H  -19.064   26.913   48.597
| 45> C  -23.431   25.260   45.734
| 46> H  -23.200   25.197   44.663
| 47> H  -23.189   24.293   46.194
| 48> O  -22.586   26.394   46.375
| 49> C  -24.960   25.488   45.890
| 50> C  -25.347   25.676   47.362
| 51> C  -24.947   27.151   47.605
| 52> C  -25.261   27.830   46.249
| 53> O  -25.359   26.745   45.248
| 54> H  -25.496   24.685   45.381
| 55> H  -26.428   25.544   47.485
| 56> O  -24.620   24.690   48.315
| 57> H  -25.492   27.608   48.437
| 58> H  -23.875   27.217   47.831
| 59> H  -24.481   28.534   45.940
| 60> H  -26.224   28.349   46.255
| 61> H  -23.536   24.805   48.207
| 62> *
| 63>
| 64>                          ****END OF INPUT****
 Total Charge           Charge          ....    0
 Multiplicity           Mult            ....    1
 Number of Electrons    NEL             ....  102
FINAL SINGLE POINT ENERGY      -652.836915346958
FINAL SINGLE POINT ENERGY      -652.860244873099
FINAL SINGLE POINT ENERGY      -652.864540517659
FINAL SINGLE POINT ENERGY      -652.865814355066
FINAL SINGLE POINT ENERGY      -652.865946684791
FINAL SINGLE POINT ENERGY      -652.865968022507
FINAL SINGLE POINT ENERGY      -652.865968375771
                    ***********************HURRAY********************

CARTESIAN COORDINATES (ANGSTROEM)
---------------------------------
  C    -21.064541   26.161066   46.206792
  C    -20.420254   27.516416   45.913133
  C    -20.424128   28.179204   47.310904
  C    -20.176712   26.987281   48.262472
  O    -20.497993   25.767348   47.477664
  H    -20.830713   25.365456   45.494286
  H    -19.395481   27.360351   45.557117
  H    -20.976439   28.082075   45.162939
  H    -19.659970   28.955887   47.411209
  H    -21.401415   28.633280   47.501941
  H    -20.808693   27.010212   49.154035
  H    -19.129812   26.896641   48.566176
  C    -23.306427   25.267287   45.725618
  H    -23.082561   25.194677   44.653254
  H    -23.076728   24.304394   46.202489
  O    -22.497379   26.333057   46.313322
  C    -24.790467   25.560028   45.899798
  C    -25.259374   25.690054   47.360105
  C    -24.959934   27.190899   47.661853
  C    -25.250932   27.872929   46.308462
  O    -25.233160   26.800437   45.278748
  H    -25.327941   24.753885   45.386272
  H    -26.328331   25.478034   47.428727
  O    -24.630990   24.759065   48.272602
  H    -25.584231   27.577788   48.472457
  H    -23.907512   27.293195   47.932563
  H    -24.500125   28.622391   46.043532
  H    -26.245680   28.327928   46.271436
  H    -23.689074   25.005736   48.392094

 Multiplicity           Mult            ....    1
 Number of Electrons    NEL             ....  102
 Basis Dimension        Dim             ....  149

ORBITAL ENERGIES
----------------

  NO   OCC          E(Eh)            E(eV)
   0   2.0000     -19.152478      -521.1654
   1   2.0000     -19.146105      -520.9920
   2   2.0000     -19.135278      -520.6974
   3   2.0000     -19.132958      -520.6342
   4   2.0000     -10.285778      -279.8902
   5   2.0000     -10.234239      -278.4878
   6   2.0000     -10.233179      -278.4590
   7   2.0000     -10.231397      -278.4105
   8   2.0000     -10.230336      -278.3816
   9   2.0000     -10.220846      -278.1233
  10   2.0000     -10.191827      -277.3337
  11   2.0000     -10.190434      -277.2958
  12   2.0000     -10.177154      -276.9344
  13   2.0000      -1.060395       -28.8548
  14   2.0000      -1.025026       -27.8924
  15   2.0000      -1.006934       -27.4001
  16   2.0000      -0.999426       -27.1958
  17   2.0000      -0.793243       -21.5852
  18   2.0000      -0.772552       -21.0222
  19   2.0000      -0.764892       -20.8138
  20   2.0000      -0.734143       -19.9770
  21   2.0000      -0.677591       -18.4382
  22   2.0000      -0.604567       -16.4511
  23   2.0000      -0.600865       -16.3504
  24   2.0000      -0.595951       -16.2166
  25   2.0000      -0.575773       -15.6676
  26   2.0000      -0.527847       -14.3634
  27   2.0000      -0.507835       -13.8189
  28   2.0000      -0.499696       -13.5974
  29   2.0000      -0.487509       -13.2658
  30   2.0000      -0.473995       -12.8981
  31   2.0000      -0.462341       -12.5809
  32   2.0000      -0.438374       -11.9288
  33   2.0000      -0.434260       -11.8168
  34   2.0000      -0.421556       -11.4711
  35   2.0000      -0.414804       -11.2874
  36   2.0000      -0.402253       -10.9459
  37   2.0000      -0.399434       -10.8692
  38   2.0000      -0.379584       -10.3290
  39   2.0000      -0.370433       -10.0800
  40   2.0000      -0.362309        -9.8589
  41   2.0000      -0.354170        -9.6375
  42   2.0000      -0.348071        -9.4715
  43   2.0000      -0.330291        -8.9877
  44   2.0000      -0.321534        -8.7494
  45   2.0000      -0.311483        -8.4759
  46   2.0000      -0.303896        -8.2694
  47   2.0000      -0.275457        -7.4956
  48   2.0000      -0.260534        -7.0895
  49   2.0000      -0.254841        -6.9346
  50   2.0000      -0.238692        -6.4951
  51   0.0000       0.062297         1.6952
  52   0.0000       0.081190         2.2093
  53   0.0000       0.085317         2.3216
  54   0.0000       0.096942         2.6379
  55   0.0000       0.103898         2.8272

MULLIKEN ATOMIC CHARGES
-----------------------
   0 C :    0.285126
   1 C :   -0.253393
   2 C :   -0.304473
   3 C :   -0.004286
   4 O :   -0.508668
   5 H :    0.146848
   6 H :    0.146993
   7 H :    0.157135
   8 H :    0.145601
   9 H :    0.159645
  10 H :    0.145904
  11 H :    0.146062
  12 C :   -0.026217
  13 H :    0.147511
  14 H :    0.148140
  15 O :   -0.531943
  16 C :    0.088332
  17 C :    0.087865
  18 C :   -0.310102
  19 C :   -0.001235
  20 O :   -0.523361
  21 H :    0.150807
  22 H :    0.160808
  23 O :   -0.609432
  24 H :    0.141679
  25 H :    0.163293
  26 H :    0.143478
  27 H :    0.139703
  28 H :    0.368181
Sum of atomic charges:   -0.0000000

LOEWDIN ATOMIC CHARGES
----------------------
   0 C :    0.174196
   1 C :   -0.217125
   2 C :   -0.216808
   3 C :   -0.028384
   4 O :   -0.326046
   5 H :    0.102261
   6 H :    0.115105
   7 H :    0.124155
   8 H :    0.115880
   9 H :    0.116225
  10 H :    0.104283
  11 H :    0.104662
  12 C :   -0.048720
  13 H :    0.104493
  14 H :    0.105220
  15 O :   -0.337379
  16 C :    0.019160
  17 C :    0.038878
  18 C :   -0.242564
  19 C :   -0.024315
  20 O :   -0.324305
  21 H :    0.115632
  22 H :    0.115514
  23 O :   -0.412153
  24 H :    0.114033
  25 H :    0.119853
  26 H :    0.103250
  27 H :    0.100236
  28 H :    0.284763

  Mayer bond orders larger than 0.100000
B(  0-C ,  1-C ) :   0.9446 B(  0-C ,  4-O ) :   0.9208 B(  0-C ,  5-H ) :   0.9186
B(  0-C , 15-O ) :   0.8428 B(  1-C ,  2-C ) :   0.9559 B(  1-C ,  6-H ) :   0.9377
B(  1-C ,  7-H ) :   0.9363 B(  2-C ,  3-C ) :   0.9538 B(  2-C ,  8-H ) :   0.9448
B(  2-C ,  9-H ) :   0.9436 B(  3-C ,  4-O ) :   0.8373 B(  3-C , 10-H ) :   0.9353
B(  3-C , 11-H ) :   0.9396 B( 12-C , 13-H ) :   0.9220 B( 12-C , 14-H ) :   0.9014
B( 12-C , 15-O ) :   0.8255 B( 12-C , 16-C ) :   0.9191 B( 16-C , 17-C ) :   0.8861
B( 16-C , 20-O ) :   0.8819 B( 16-C , 21-H ) :   0.9278 B( 17-C , 18-C ) :   0.9310
B( 17-C , 22-H ) :   0.9370 B( 17-C , 23-O ) :   0.9041 B( 18-C , 19-C ) :   0.9461
B( 18-C , 24-H ) :   0.9416 B( 18-C , 25-H ) :   0.9266 B( 19-C , 20-O ) :   0.8368
B( 19-C , 26-H ) :   0.9328 B( 19-C , 27-H ) :   0.9379 B( 23-O , 28-H ) :   0.7873

FINAL SINGLE POINT ENERGY      -652.865966666925

DIPOLE MOMENT
-------------
                                X             Y             Z
Electronic contribution:     -2.42738      -4.40192      -1.12519
Nuclear contribution   :      3.27002       5.28056       1.06167
                        -----------------------------------------
Total Dipole Moment    :      0.84264       0.87864      -0.06351
                        -----------------------------------------
Magnitude (a.u.)       :      1.21905
Magnitude (Debye)      :      3.09858

Rotational constants in cm-1:     0.043873     0.016625     0.015719
Rotational constants in MHz :  1315.268249   498.391512   471.232995

                             ****ORCA TERMINATED NORMALLY****
TOTAL RUN TIME: 0 days 0 hours 33 minutes 53 seconds 355 msec
