                         Program Version 4.2.0 -  RELEASE  -
|  1> # Test redundant internal optimization
|  2> #
|  3> ! RKS B3LYP  Opt TightSCF SmallPrint
|  4>
|  5> %basis
|  6>         Basis "6-31G"
|  7> end
|  8>
|  9> %geom
| 10> Constraints
| 11> { D 4  0  15  12  180.0   C } # D for Dihedral angle
| 12> { D 0  15  12  16  240.0   C } # D for Dihedral angle
| 13> { D 0  4  3  2   C } # D for Dihedral angle
| 14> { D 4  3  2  1   C } # D for Dihedral angle
| 15> { D 3  2  1  0   C } # D for Dihedral angle
| 16> { D 2  1  0  4   C } # D for Dihedral angle
| 17> { D 1  0  4  3   C } # D for Dihedral angle
| 18> { D 16  20  19  18   C } # D for Dihedral angle
| 19> { D 20  19  18  17   C } # D for Dihedral angle
| 20> { D 19  18  17  16   C } # D for Dihedral angle
| 21> { D 18  17  16  20   C } # D for Dihedral angle
| 22> { D 17  16  20  19   C } # D for Dihedral angle
| 23> { D 15  12  16  20   C } # D for Dihedral angle
| 24> end
| 25> end
| 26>
| 27>
| 28> #%pal
| 29> #nprocs 8
| 30> #end
| 31>
| 32> * xyz 0 1
| 33> C  -21.048   26.222   46.251
| 34> C  -20.361   27.558   45.944
| 35> C  -20.329   28.222   47.341
| 36> C  -20.110   27.022   48.296
| 37> O  -20.473   25.807   47.535
| 38> H  -20.833   25.428   45.533
| 39> H  -19.344   27.382   45.576
| 40> H  -20.898   28.157   45.201
| 41> H  -19.543   28.978   47.434
| 42> H  -21.289   28.710   47.548
| 43> H  -20.733   27.082   49.195
| 44> H  -19.064   26.913   48.597
| 45> C  -23.309   26.834   45.072
| 46> H  -22.571   26.938   44.267
| 47> H  -24.044   26.078   44.767
| 48> O  -22.586   26.394   46.375
| 49> C  -24.057   28.186   45.228
| 50> C  -25.046   28.144   46.399
| 51> C  -24.105   28.349   47.610
| 52> C  -23.031   29.321   47.061
| 53> O  -23.118   29.254   45.586
| 54> H  -24.503   28.461   44.270
| 55> H  -25.759   28.972   46.318
| 56> O  -25.845   26.815   46.476
| 57> H  -24.623   28.752   48.487
| 58> H  -23.650   27.394   47.900
| 59> H  -22.018   29.047   47.374
| 60> H  -23.221   30.359   47.348
| 61> H  -25.150   25.972   46.556
| 62> *
| 63>
| 64>                          ****END OF INPUT****
 Total Charge           Charge          ....    0
 Multiplicity           Mult            ....    1
 Number of Electrons    NEL             ....  102
FINAL SINGLE POINT ENERGY      -652.756363029850
FINAL SINGLE POINT ENERGY      -652.799755858275
FINAL SINGLE POINT ENERGY      -652.824658731739
FINAL SINGLE POINT ENERGY      -652.837926600091
FINAL SINGLE POINT ENERGY      -652.845374663635
FINAL SINGLE POINT ENERGY      -652.849538143324
FINAL SINGLE POINT ENERGY      -652.851678606832
FINAL SINGLE POINT ENERGY      -652.852484109018
FINAL SINGLE POINT ENERGY      -652.852829741893
FINAL SINGLE POINT ENERGY      -652.853073784984
FINAL SINGLE POINT ENERGY      -652.853308344954
FINAL SINGLE POINT ENERGY      -652.853574494147
FINAL SINGLE POINT ENERGY      -652.853880398705
FINAL SINGLE POINT ENERGY      -652.854131972539
FINAL SINGLE POINT ENERGY      -652.854247801633
FINAL SINGLE POINT ENERGY      -652.854294806362
FINAL SINGLE POINT ENERGY      -652.854308047664
FINAL SINGLE POINT ENERGY      -652.854316082173
                    ***********************HURRAY********************

CARTESIAN COORDINATES (ANGSTROEM)
---------------------------------
  C    -20.978892   26.189683   46.163706
  C    -20.210684   27.480822   45.893073
  C    -20.079064   28.083414   47.314222
  C    -19.915825   26.829994   48.199498
  O    -20.403621   25.694292   47.374509
  H    -20.822063   25.417745   45.401520
  H    -19.229293   27.219055   45.481847
  H    -20.712605   28.163459   45.203104
  H    -19.239398   28.778236   47.404511
  H    -20.996540   28.609142   47.566228
  H    -20.501304   26.869267   49.121470
  H    -18.872370   26.610191   48.442989
  C    -23.163448   26.832913   45.185055
  H    -22.474807   26.942113   44.337395
  H    -23.901193   26.068142   44.911588
  O    -22.431045   26.331534   46.348492
  C    -23.945892   28.138881   45.336973
  C    -25.120561   28.080729   46.329764
  C    -24.443762   28.557048   47.651938
  C    -23.426620   29.604082   47.157809
  O    -23.237032   29.358427   45.698718
  H    -24.332089   28.328373   44.325592
  H    -25.905472   28.773248   46.019097
  O    -25.772324   26.794305   46.422762
  H    -25.162064   28.962962   48.368739
  H    -23.929000   27.700778   48.103230
  H    -22.466694   29.552022   47.670110
  H    -23.810261   30.625895   47.243330
  H    -25.177075   26.154248   46.867734

 Multiplicity           Mult            ....    1
 Number of Electrons    NEL             ....  102
 Basis Dimension        Dim             ....  149

ORBITAL ENERGIES
----------------

  NO   OCC          E(Eh)            E(eV)
   0   2.0000     -19.147324      -521.0252
   1   2.0000     -19.146201      -520.9946
   2   2.0000     -19.145033      -520.9628
   3   2.0000     -19.142423      -520.8918
   4   2.0000     -10.282036      -279.7884
   5   2.0000     -10.240538      -278.6592
   6   2.0000     -10.235478      -278.5215
   7   2.0000     -10.233642      -278.4716
   8   2.0000     -10.231136      -278.4034
   9   2.0000     -10.228198      -278.3234
  10   2.0000     -10.187848      -277.2254
  11   2.0000     -10.187323      -277.2111
  12   2.0000     -10.186779      -277.1963
  13   2.0000      -1.054357       -28.6905
  14   2.0000      -1.032966       -28.1084
  15   2.0000      -1.015036       -27.6205
  16   2.0000      -0.996489       -27.1158
  17   2.0000      -0.788485       -21.4558
  18   2.0000      -0.778522       -21.1847
  19   2.0000      -0.771427       -20.9916
  20   2.0000      -0.736311       -20.0360
  21   2.0000      -0.683711       -18.6047
  22   2.0000      -0.610704       -16.6181
  23   2.0000      -0.604439       -16.4476
  24   2.0000      -0.595842       -16.2137
  25   2.0000      -0.570192       -15.5157
  26   2.0000      -0.528991       -14.3946
  27   2.0000      -0.509587       -13.8666
  28   2.0000      -0.497646       -13.5416
  29   2.0000      -0.494298       -13.4505
  30   2.0000      -0.473956       -12.8970
  31   2.0000      -0.463214       -12.6047
  32   2.0000      -0.446138       -12.1400
  33   2.0000      -0.438201       -11.9240
  34   2.0000      -0.428644       -11.6640
  35   2.0000      -0.415054       -11.2942
  36   2.0000      -0.406637       -11.0651
  37   2.0000      -0.401865       -10.9353
  38   2.0000      -0.379729       -10.3330
  39   2.0000      -0.374794       -10.1987
  40   2.0000      -0.358632        -9.7589
  41   2.0000      -0.356526        -9.7016
  42   2.0000      -0.350892        -9.5483
  43   2.0000      -0.332406        -9.0452
  44   2.0000      -0.318778        -8.6744
  45   2.0000      -0.313228        -8.5234
  46   2.0000      -0.304182        -8.2772
  47   2.0000      -0.273106        -7.4316
  48   2.0000      -0.263255        -7.1635
  49   2.0000      -0.262818        -7.1517
  50   2.0000      -0.240925        -6.5559
  51   0.0000       0.062995         1.7142
  52   0.0000       0.073525         2.0007
  53   0.0000       0.089640         2.4392
  54   0.0000       0.093469         2.5434
  55   0.0000       0.101117         2.7515

MULLIKEN ATOMIC CHARGES
-----------------------
   0 C :    0.310299
   1 C :   -0.288769
   2 C :   -0.317066
   3 C :   -0.002655
   4 O :   -0.505649
   5 H :    0.145013
   6 H :    0.147089
   7 H :    0.171015
   8 H :    0.144728
   9 H :    0.169843
  10 H :    0.147700
  11 H :    0.145072
  12 C :   -0.053456
  13 H :    0.138889
  14 H :    0.159271
  15 O :   -0.527233
  16 C :    0.105659
  17 C :    0.089557
  18 C :   -0.317967
  19 C :   -0.013299
  20 O :   -0.525699
  21 H :    0.147697
  22 H :    0.162862
  23 O :   -0.604840
  24 H :    0.151625
  25 H :    0.162402
  26 H :    0.139904
  27 H :    0.146397
  28 H :    0.371610
Sum of atomic charges:   -0.0000000

LOEWDIN ATOMIC CHARGES
----------------------
   0 C :    0.183090
   1 C :   -0.233831
   2 C :   -0.218457
   3 C :   -0.026053
   4 O :   -0.301123
   5 H :    0.095771
   6 H :    0.116594
   7 H :    0.127319
   8 H :    0.116999
   9 H :    0.116012
  10 H :    0.105927
  11 H :    0.103732
  12 C :   -0.056906
  13 H :    0.102916
  14 H :    0.115368
  15 O :   -0.353735
  16 C :    0.011378
  17 C :    0.036261
  18 C :   -0.241207
  19 C :   -0.027671
  20 O :   -0.324123
  21 H :    0.114663
  22 H :    0.116030
  23 O :   -0.407743
  24 H :    0.119939
  25 H :    0.120296
  26 H :    0.097911
  27 H :    0.103145
  28 H :    0.287498

  Mayer bond orders larger than 0.100000
B(  0-C ,  1-C ) :   0.9243 B(  0-C ,  4-O ) :   0.9411 B(  0-C ,  5-H ) :   0.9229
B(  0-C , 15-O ) :   0.8248 B(  1-C ,  2-C ) :   0.9557 B(  1-C ,  6-H ) :   0.9313
B(  1-C ,  7-H ) :   0.9215 B(  2-C ,  3-C ) :   0.9554 B(  2-C ,  8-H ) :   0.9463
B(  2-C ,  9-H ) :   0.9154 B(  3-C ,  4-O ) :   0.8329 B(  3-C , 10-H ) :   0.9352
B(  3-C , 11-H ) :   0.9396 B( 12-C , 13-H ) :   0.9236 B( 12-C , 14-H ) :   0.9081
B( 12-C , 15-O ) :   0.8490 B( 12-C , 16-C ) :   0.8988 B( 16-C , 17-C ) :   0.8848
B( 16-C , 20-O ) :   0.8760 B( 16-C , 21-H ) :   0.9213 B( 17-C , 18-C ) :   0.9297
B( 17-C , 22-H ) :   0.9366 B( 17-C , 23-O ) :   0.9080 B( 18-C , 19-C ) :   0.9454
B( 18-C , 24-H ) :   0.9407 B( 18-C , 25-H ) :   0.9306 B( 19-C , 20-O ) :   0.8414
B( 19-C , 26-H ) :   0.9053 B( 19-C , 27-H ) :   0.9388 B( 23-O , 28-H ) :   0.7884

FINAL SINGLE POINT ENERGY      -652.854317534515

DIPOLE MOMENT
-------------
                                X             Y             Z
Electronic contribution:     -2.65508      -3.44709      -1.49764
Nuclear contribution   :      3.28222       4.19110       1.60960
                        -----------------------------------------
Total Dipole Moment    :      0.62714       0.74401       0.11196
                        -----------------------------------------
Magnitude (a.u.)       :      0.97948
Magnitude (Debye)      :      2.48965

Rotational constants in cm-1:     0.044240     0.017737     0.016127
Rotational constants in MHz :  1326.276188   531.730718   483.464650

                             ****ORCA TERMINATED NORMALLY****
TOTAL RUN TIME: 0 days 0 hours 55 minutes 36 seconds 255 msec
