                         Program Version 4.2.0 -  RELEASE  -
|  1> # Test redundant internal optimization
|  2> #
|  3> ! RKS B3LYP  Opt TightSCF SmallPrint
|  4>
|  5> %basis
|  6>         Basis "6-31G"
|  7> end
|  8>
|  9> %geom
| 10> Constraints
| 11> { D 4  0  15  12  0.0   C } # D for Dihedral angle
| 12> { D 0  15  12  16  135.0   C } # D for Dihedral angle
| 13> { D 0  4  3  2   C } # D for Dihedral angle
| 14> { D 4  3  2  1   C } # D for Dihedral angle
| 15> { D 3  2  1  0   C } # D for Dihedral angle
| 16> { D 2  1  0  4   C } # D for Dihedral angle
| 17> { D 1  0  4  3   C } # D for Dihedral angle
| 18> { D 16  20  19  18   C } # D for Dihedral angle
| 19> { D 20  19  18  17   C } # D for Dihedral angle
| 20> { D 19  18  17  16   C } # D for Dihedral angle
| 21> { D 18  17  16  20   C } # D for Dihedral angle
| 22> { D 17  16  20  19   C } # D for Dihedral angle
| 23> { D 15  12  16  20   C } # D for Dihedral angle
| 24> end
| 25> end
| 26>
| 27>
| 28> #%pal
| 29> #nprocs 8
| 30> #end
| 31>
| 32> * xyz 0 1
| 33> C  -21.048   26.222   46.251
| 34> C  -20.361   27.558   45.944
| 35> C  -20.329   28.222   47.341
| 36> C  -20.110   27.022   48.296
| 37> O  -20.473   25.807   47.535
| 38> H  -20.833   25.428   45.533
| 39> H  -19.344   27.382   45.576
| 40> H  -20.898   28.157   45.201
| 41> H  -19.543   28.978   47.434
| 42> H  -21.289   28.710   47.548
| 43> H  -20.733   27.082   49.195
| 44> H  -19.064   26.913   48.597
| 45> C  -23.172   26.101   47.783
| 46> H  -23.674   25.125   47.770
| 47> H  -22.371   26.064   48.533
| 48> O  -22.586   26.394   46.375
| 49> C  -24.199   27.173   48.242
| 50> C  -23.591   28.580   48.198
| 51> C  -23.684   28.915   46.690
| 52> C  -25.004   28.230   46.258
| 53> O  -25.326   27.237   47.306
| 54> H  -24.605   26.887   49.213
| 55> H  -24.204   29.272   48.786
| 56> O  -22.136   28.634   48.739
| 57> H  -23.688   29.992   46.493
| 58> H  -22.831   28.480   46.155
| 59> H  -24.917   27.719   45.293
| 60> H  -25.843   28.932   46.212
| 61> H  -21.504   27.948   48.165
| 62> *
| 63>
| 64>                          ****END OF INPUT****
 Total Charge           Charge          ....    0
 Multiplicity           Mult            ....    1
 Number of Electrons    NEL             ....  102
FINAL SINGLE POINT ENERGY      -652.712024059890
FINAL SINGLE POINT ENERGY      -652.816517319605
FINAL SINGLE POINT ENERGY      -652.840824253313
FINAL SINGLE POINT ENERGY      -652.847694829773
FINAL SINGLE POINT ENERGY      -652.848632694353
FINAL SINGLE POINT ENERGY      -652.848963799409
FINAL SINGLE POINT ENERGY      -652.849083043742
FINAL SINGLE POINT ENERGY      -652.849196127314
FINAL SINGLE POINT ENERGY      -652.849272490325
FINAL SINGLE POINT ENERGY      -652.849323231893
FINAL SINGLE POINT ENERGY      -652.849344669331
FINAL SINGLE POINT ENERGY      -652.849349727059
FINAL SINGLE POINT ENERGY      -652.849351747732
                    ***********************HURRAY********************

CARTESIAN COORDINATES (ANGSTROEM)
---------------------------------
  C    -21.047290   26.168965   46.386906
  C    -20.315520   27.410196   45.866266
  C    -20.018569   28.182125   47.179498
  C    -19.749410   27.044996   48.194527
  O    -20.327519   25.814576   47.585972
  H    -20.914746   25.311574   45.719224
  H    -19.389272   27.082801   45.383119
  H    -20.909096   27.981444   45.149094
  H    -19.151953   28.843773   47.082919
  H    -20.867953   28.802319   47.470879
  H    -20.200647   27.203546   49.181136
  H    -18.683130   26.849241   48.334872
  C    -23.194157   26.076654   47.780066
  H    -23.724113   25.120852   47.699347
  H    -22.466588   25.977603   48.597434
  O    -22.496395   26.294766   46.513915
  C    -24.257202   27.134136   48.109901
  C    -23.855190   28.609015   48.268719
  C    -23.847754   29.100950   46.790916
  C    -25.005900   28.297809   46.161919
  O    -25.278129   27.158965   47.071716
  H    -24.752401   26.770652   49.020544
  H    -24.651323   29.123762   48.814176
  O    -22.661739   28.863913   49.047432
  H    -23.992506   30.182900   46.720931
  H    -22.896792   28.837713   46.324487
  H    -24.754073   27.901919   45.174906
  H    -25.931743   28.878309   46.094191
  H    -22.018890   28.138527   48.936987

 Multiplicity           Mult            ....    1
 Number of Electrons    NEL             ....  102
 Basis Dimension        Dim             ....  149

ORBITAL ENERGIES
----------------

  NO   OCC          E(Eh)            E(eV)
   0   2.0000     -19.161615      -521.4141
   1   2.0000     -19.150451      -521.1103
   2   2.0000     -19.145277      -520.9695
   3   2.0000     -19.133046      -520.6367
   4   2.0000     -10.287253      -279.9304
   5   2.0000     -10.244788      -278.7749
   6   2.0000     -10.241408      -278.6829
   7   2.0000     -10.235615      -278.5252
   8   2.0000     -10.234103      -278.4841
   9   2.0000     -10.220875      -278.1241
  10   2.0000     -10.197484      -277.4876
  11   2.0000     -10.195944      -277.4457
  12   2.0000     -10.179639      -277.0021
  13   2.0000      -1.061600       -28.8876
  14   2.0000      -1.033709       -28.1287
  15   2.0000      -1.015743       -27.6398
  16   2.0000      -0.997746       -27.1500
  17   2.0000      -0.798934       -21.7401
  18   2.0000      -0.775535       -21.1034
  19   2.0000      -0.770828       -20.9753
  20   2.0000      -0.742181       -20.1958
  21   2.0000      -0.681943       -18.5566
  22   2.0000      -0.614524       -16.7220
  23   2.0000      -0.607059       -16.5189
  24   2.0000      -0.598987       -16.2993
  25   2.0000      -0.569988       -15.5102
  26   2.0000      -0.524707       -14.2780
  27   2.0000      -0.521788       -14.1986
  28   2.0000      -0.509002       -13.8507
  29   2.0000      -0.497956       -13.5501
  30   2.0000      -0.475542       -12.9402
  31   2.0000      -0.461673       -12.5628
  32   2.0000      -0.442125       -12.0308
  33   2.0000      -0.432859       -11.7787
  34   2.0000      -0.425632       -11.5820
  35   2.0000      -0.414626       -11.2825
  36   2.0000      -0.410732       -11.1766
  37   2.0000      -0.397443       -10.8150
  38   2.0000      -0.384824       -10.4716
  39   2.0000      -0.377740       -10.2788
  40   2.0000      -0.370825       -10.0907
  41   2.0000      -0.355731        -9.6799
  42   2.0000      -0.351951        -9.5771
  43   2.0000      -0.344733        -9.3807
  44   2.0000      -0.332615        -9.0509
  45   2.0000      -0.311275        -8.4702
  46   2.0000      -0.299933        -8.1616
  47   2.0000      -0.277184        -7.5426
  48   2.0000      -0.268809        -7.3147
  49   2.0000      -0.256358        -6.9758
  50   2.0000      -0.236013        -6.4222
  51   0.0000       0.041438         1.1276
  52   0.0000       0.077355         2.1049
  53   0.0000       0.087307         2.3758
  54   0.0000       0.095895         2.6094
  55   0.0000       0.099287         2.7017

MULLIKEN ATOMIC CHARGES
-----------------------
   0 C :    0.311226
   1 C :   -0.267327
   2 C :   -0.335431
   3 C :   -0.038939
   4 O :   -0.510103
   5 H :    0.160684
   6 H :    0.153840
   7 H :    0.160813
   8 H :    0.153826
   9 H :    0.166930
  10 H :    0.144402
  11 H :    0.162083
  12 C :   -0.016073
  13 H :    0.164216
  14 H :    0.137586
  15 O :   -0.542847
  16 C :    0.071108
  17 C :    0.080418
  18 C :   -0.304482
  19 C :   -0.001757
  20 O :   -0.517271
  21 H :    0.148719
  22 H :    0.163232
  23 O :   -0.611246
  24 H :    0.145310
  25 H :    0.160184
  26 H :    0.152520
  27 H :    0.139447
  28 H :    0.368933
Sum of atomic charges:    0.0000000

LOEWDIN ATOMIC CHARGES
----------------------
   0 C :    0.184039
   1 C :   -0.220828
   2 C :   -0.233369
   3 C :   -0.039335
   4 O :   -0.316587
   5 H :    0.102906
   6 H :    0.119968
   7 H :    0.124047
   8 H :    0.121414
   9 H :    0.117225
  10 H :    0.096874
  11 H :    0.112904
  12 C :   -0.045674
  13 H :    0.117383
  14 H :    0.101746
  15 O :   -0.344973
  16 C :    0.011206
  17 C :    0.037172
  18 C :   -0.239159
  19 C :   -0.023820
  20 O :   -0.320603
  21 H :    0.113654
  22 H :    0.115116
  23 O :   -0.406450
  24 H :    0.115604
  25 H :    0.116777
  26 H :    0.108706
  27 H :    0.099925
  28 H :    0.274131

  Mayer bond orders larger than 0.100000
B(  0-C ,  1-C ) :   0.9232 B(  0-C ,  4-O ) :   0.9023 B(  0-C ,  5-H ) :   0.9307
B(  0-C , 15-O ) :   0.8548 B(  1-C ,  2-C ) :   0.9502 B(  1-C ,  6-H ) :   0.9346
B(  1-C ,  7-H ) :   0.9329 B(  2-C ,  3-C ) :   0.9470 B(  2-C ,  8-H ) :   0.9438
B(  2-C ,  9-H ) :   0.9095 B(  3-C ,  4-O ) :   0.8308 B(  3-C , 10-H ) :   0.9207
B(  3-C , 11-H ) :   0.9369 B( 12-C , 13-H ) :   0.9244 B( 12-C , 14-H ) :   0.8975
B( 12-C , 15-O ) :   0.8390 B( 12-C , 16-C ) :   0.9055 B( 16-C , 17-C ) :   0.9033
B( 16-C , 20-O ) :   0.8739 B( 16-C , 21-H ) :   0.9212 B( 17-C , 18-C ) :   0.9170
B( 17-C , 22-H ) :   0.9320 B( 17-C , 23-O ) :   0.8985 B( 18-C , 19-C ) :   0.9409
B( 18-C , 24-H ) :   0.9429 B( 18-C , 25-H ) :   0.9280 B( 19-C , 20-O ) :   0.8336
B( 19-C , 26-H ) :   0.9318 B( 19-C , 27-H ) :   0.9376 B( 23-O , 28-H ) :   0.7597

FINAL SINGLE POINT ENERGY      -652.849352778566

DIPOLE MOMENT
-------------
                                X             Y             Z
Electronic contribution:     -2.89206      -3.91864       1.10768
Nuclear contribution   :      3.83006       4.43855      -1.30542
                        -----------------------------------------
Total Dipole Moment    :      0.93799       0.51991      -0.19774
                        -----------------------------------------
Magnitude (a.u.)       :      1.09052
Magnitude (Debye)      :      2.77189

Rotational constants in cm-1:     0.043804     0.019166     0.017791
Rotational constants in MHz :  1313.210580   574.581245   533.367537

                             ****ORCA TERMINATED NORMALLY****
TOTAL RUN TIME: 0 days 0 hours 57 minutes 58 seconds 630 msec
