                         Program Version 4.2.0 -  RELEASE  -
|  1> # Test redundant internal optimization
|  2> #
|  3> ! RKS B3LYP  Opt TightSCF SmallPrint
|  4>
|  5> %basis
|  6>         Basis "6-31G"
|  7> end
|  8>
|  9> %geom
| 10> Constraints
| 11> { D 4  0  15  12  60.0   C } # D for Dihedral angle
| 12> { D 0  15  12  16  105.0   C } # D for Dihedral angle
| 13> { D 0  4  3  2   C } # D for Dihedral angle
| 14> { D 4  3  2  1   C } # D for Dihedral angle
| 15> { D 3  2  1  0   C } # D for Dihedral angle
| 16> { D 2  1  0  4   C } # D for Dihedral angle
| 17> { D 1  0  4  3   C } # D for Dihedral angle
| 18> { D 16  20  19  18   C } # D for Dihedral angle
| 19> { D 20  19  18  17   C } # D for Dihedral angle
| 20> { D 19  18  17  16   C } # D for Dihedral angle
| 21> { D 18  17  16  20   C } # D for Dihedral angle
| 22> { D 17  16  20  19   C } # D for Dihedral angle
| 23> { D 15  12  16  20   C } # D for Dihedral angle
| 24> end
| 25> end
| 26>
| 27>
| 28> #%pal
| 29> #nprocs 8
| 30> #end
| 31>
| 32> * xyz 0 1
| 33> C  -21.048   26.222   46.251
| 34> C  -20.361   27.558   45.944
| 35> C  -20.329   28.222   47.341
| 36> C  -20.110   27.022   48.296
| 37> O  -20.473   25.807   47.535
| 38> H  -20.833   25.428   45.533
| 39> H  -19.344   27.382   45.576
| 40> H  -20.898   28.157   45.201
| 41> H  -19.543   28.978   47.434
| 42> H  -21.289   28.710   47.548
| 43> H  -20.733   27.082   49.195
| 44> H  -19.064   26.913   48.597
| 45> C  -23.051   27.452   47.413
| 46> H  -23.868   27.034   48.015
| 47> H  -22.227   27.714   48.089
| 48> O  -22.586   26.394   46.375
| 49> C  -23.554   28.764   46.750
| 50> C  -24.816   28.517   45.916
| 51> C  -25.910   28.468   47.010
| 52> C  -25.416   29.507   48.048
| 53> O  -23.979   29.724   47.773
| 54> H  -22.732   29.225   46.200
| 55> O  -25.058   29.709   44.951
| 56> H  -24.768   27.598   45.322
| 57> H  -26.906   28.705   46.624
| 58> H  -25.952   27.466   47.454
| 59> H  -25.535   29.158   49.079
| 60> H  -25.915   30.473   47.941
| 61> H  -25.112   30.643   45.524
| 62> *
| 63>
| 64>                          ****END OF INPUT****
 Total Charge           Charge          ....    0
 Multiplicity           Mult            ....    1
 Number of Electrons    NEL             ....  102
FINAL SINGLE POINT ENERGY      -652.811957059372
FINAL SINGLE POINT ENERGY      -652.841441050658
FINAL SINGLE POINT ENERGY      -652.856285108673
FINAL SINGLE POINT ENERGY      -652.858567391126
FINAL SINGLE POINT ENERGY      -652.858917785852
FINAL SINGLE POINT ENERGY      -652.858981827329
FINAL SINGLE POINT ENERGY      -652.858988183115
FINAL SINGLE POINT ENERGY      -652.858988510847
                    ***********************HURRAY********************

CARTESIAN COORDINATES (ANGSTROEM)
---------------------------------
  C    -21.201878   26.361348   46.391471
  C    -20.352667   27.556549   45.935209
  C    -19.977968   28.225662   47.290723
  C    -19.819327   27.006292   48.234114
  O    -20.512563   25.876198   47.565017
  H    -21.191468   25.539059   45.674289
  H    -19.456846   27.174506   45.434400
  H    -20.884322   28.218230   45.246954
  H    -19.052905   28.806679   47.223044
  H    -20.765405   28.905060   47.628067
  H    -20.261886   27.160571   49.222883
  H    -18.773716   26.708465   48.355255
  C    -23.156857   27.493099   47.557594
  H    -23.979502   26.962760   48.048512
  H    -22.427188   27.748711   48.329096
  O    -22.621052   26.564883   46.567913
  C    -23.669967   28.765132   46.880273
  C    -24.836219   28.553155   45.905171
  C    -26.040383   28.459029   46.875625
  C    -25.667610   29.452401   48.004267
  O    -24.203804   29.683301   47.894399
  H    -22.845499   29.287871   46.384965
  O    -24.959462   29.679213   44.992739
  H    -24.707541   27.673631   45.276655
  H    -26.969011   28.725119   46.364656
  H    -26.141420   27.438417   47.258897
  H    -25.891531   29.066484   49.003227
  H    -26.156055   30.425279   47.888970
  H    -24.885946   30.514893   45.500614

 Multiplicity           Mult            ....    1
 Number of Electrons    NEL             ....  102
 Basis Dimension        Dim             ....  149

ORBITAL ENERGIES
----------------

  NO   OCC          E(Eh)            E(eV)
   0   2.0000     -19.147881      -521.0403
   1   2.0000     -19.146466      -521.0018
   2   2.0000     -19.144430      -520.9464
   3   2.0000     -19.137772      -520.7653
   4   2.0000     -10.280156      -279.7373
   5   2.0000     -10.237597      -278.5792
   6   2.0000     -10.234981      -278.5080
   7   2.0000     -10.234248      -278.4880
   8   2.0000     -10.232499      -278.4404
   9   2.0000     -10.231729      -278.4195
  10   2.0000     -10.194522      -277.4070
  11   2.0000     -10.191419      -277.3226
  12   2.0000     -10.189055      -277.2583
  13   2.0000      -1.053900       -28.6781
  14   2.0000      -1.038102       -28.2482
  15   2.0000      -1.006758       -27.3953
  16   2.0000      -0.997770       -27.1507
  17   2.0000      -0.789966       -21.4961
  18   2.0000      -0.783687       -21.3252
  19   2.0000      -0.772214       -21.0130
  20   2.0000      -0.735364       -20.0103
  21   2.0000      -0.679681       -18.4951
  22   2.0000      -0.607238       -16.5238
  23   2.0000      -0.604994       -16.4627
  24   2.0000      -0.601729       -16.3739
  25   2.0000      -0.576290       -15.6817
  26   2.0000      -0.530333       -14.4311
  27   2.0000      -0.509375       -13.8608
  28   2.0000      -0.502072       -13.6621
  29   2.0000      -0.494766       -13.4633
  30   2.0000      -0.473275       -12.8785
  31   2.0000      -0.460863       -12.5407
  32   2.0000      -0.447678       -12.1819
  33   2.0000      -0.439106       -11.9487
  34   2.0000      -0.428925       -11.6716
  35   2.0000      -0.417232       -11.3534
  36   2.0000      -0.410140       -11.1605
  37   2.0000      -0.394879       -10.7452
  38   2.0000      -0.383866       -10.4455
  39   2.0000      -0.369203       -10.0465
  40   2.0000      -0.363169        -9.8823
  41   2.0000      -0.359724        -9.7886
  42   2.0000      -0.348802        -9.4914
  43   2.0000      -0.334408        -9.0997
  44   2.0000      -0.318733        -8.6732
  45   2.0000      -0.315408        -8.5827
  46   2.0000      -0.303960        -8.2712
  47   2.0000      -0.279257        -7.5990
  48   2.0000      -0.265970        -7.2374
  49   2.0000      -0.260059        -7.0766
  50   2.0000      -0.241983        -6.5847
  51   0.0000       0.062336         1.6963
  52   0.0000       0.067196         1.8285
  53   0.0000       0.085353         2.3226
  54   0.0000       0.096868         2.6359
  55   0.0000       0.101230         2.7546

MULLIKEN ATOMIC CHARGES
-----------------------
   0 C :    0.299379
   1 C :   -0.277028
   2 C :   -0.327063
   3 C :   -0.016394
   4 O :   -0.503739
   5 H :    0.167461
   6 H :    0.155491
   7 H :    0.155532
   8 H :    0.148893
   9 H :    0.161751
  10 H :    0.148486
  11 H :    0.149668
  12 C :   -0.024746
  13 H :    0.148522
  14 H :    0.153108
  15 O :   -0.522185
  16 C :    0.056306
  17 C :    0.093726
  18 C :   -0.297456
  19 C :   -0.031868
  20 O :   -0.529618
  21 H :    0.153724
  22 O :   -0.605514
  23 H :    0.175677
  24 H :    0.161254
  25 H :    0.150715
  26 H :    0.147079
  27 H :    0.146838
  28 H :    0.362001
Sum of atomic charges:   -0.0000000

LOEWDIN ATOMIC CHARGES
----------------------
   0 C :    0.176031
   1 C :   -0.230404
   2 C :   -0.226590
   3 C :   -0.035330
   4 O :   -0.319323
   5 H :    0.114171
   6 H :    0.121721
   7 H :    0.120106
   8 H :    0.117688
   9 H :    0.113615
  10 H :    0.102978
  11 H :    0.105905
  12 C :   -0.041963
  13 H :    0.108754
  14 H :    0.109229
  15 O :   -0.322343
  16 C :    0.006017
  17 C :    0.038619
  18 C :   -0.239885
  19 C :   -0.037956
  20 O :   -0.333734
  21 H :    0.108946
  22 O :   -0.415765
  23 H :    0.128005
  24 H :    0.126633
  25 H :    0.116544
  26 H :    0.104644
  27 H :    0.102521
  28 H :    0.281166

  Mayer bond orders larger than 0.100000
B(  0-C ,  1-C ) :   0.9165 B(  0-C ,  4-O ) :   0.9075 B(  0-C ,  5-H ) :   0.9360
B(  0-C , 15-O ) :   0.8911 B(  1-C ,  2-C ) :   0.9537 B(  1-C ,  6-H ) :   0.9339
B(  1-C ,  7-H ) :   0.9332 B(  2-C ,  3-C ) :   0.9461 B(  2-C ,  8-H ) :   0.9449
B(  2-C ,  9-H ) :   0.9368 B(  3-C ,  4-O ) :   0.8426 B(  3-C , 10-H ) :   0.9312
B(  3-C , 11-H ) :   0.9383 B( 12-C , 13-H ) :   0.9371 B( 12-C , 14-H ) :   0.9122
B( 12-C , 15-O ) :   0.8310 B( 12-C , 16-C ) :   0.8824 B( 16-C , 17-C ) :   0.9104
B( 16-C , 20-O ) :   0.8410 B( 16-C , 21-H ) :   0.9227 B( 17-C , 18-C ) :   0.9125
B( 17-C , 22-O ) :   0.8883 B( 17-C , 23-H ) :   0.9241 B( 18-C , 19-C ) :   0.9405
B( 18-C , 24-H ) :   0.9381 B( 18-C , 25-H ) :   0.9339 B( 19-C , 20-O ) :   0.8411
B( 19-C , 26-H ) :   0.9363 B( 19-C , 27-H ) :   0.9376 B( 22-O , 28-H ) :   0.7967

FINAL SINGLE POINT ENERGY      -652.858979206745

DIPOLE MOMENT
-------------
                                X             Y             Z
Electronic contribution:     -1.12033      -1.77407      -1.41913
Nuclear contribution   :      1.28136       2.39111       1.88985
                        -----------------------------------------
Total Dipole Moment    :      0.16102       0.61704       0.47072
                        -----------------------------------------
Magnitude (a.u.)       :      0.79262
Magnitude (Debye)      :      2.01468

Rotational constants in cm-1:     0.053962     0.013851     0.013458
Rotational constants in MHz :  1617.751183   415.246336   403.461623

                             ****ORCA TERMINATED NORMALLY****
TOTAL RUN TIME: 0 days 0 hours 37 minutes 44 seconds 520 msec
