                         Program Version 4.2.0 -  RELEASE  -
|  1> # Test redundant internal optimization
|  2> #
|  3> ! RKS B3LYP  Opt TightSCF SmallPrint
|  4>
|  5> %basis
|  6>         Basis "6-31G"
|  7> end
|  8>
|  9> %geom
| 10> Constraints
| 11> { D 4  0  15  12  210.0   C } # D for Dihedral angle
| 12> { D 0  15  12  16  135.0   C } # D for Dihedral angle
| 13> { D 0  4  3  2   C } # D for Dihedral angle
| 14> { D 4  3  2  1   C } # D for Dihedral angle
| 15> { D 3  2  1  0   C } # D for Dihedral angle
| 16> { D 2  1  0  4   C } # D for Dihedral angle
| 17> { D 1  0  4  3   C } # D for Dihedral angle
| 18> { D 16  20  19  18   C } # D for Dihedral angle
| 19> { D 20  19  18  17   C } # D for Dihedral angle
| 20> { D 19  18  17  16   C } # D for Dihedral angle
| 21> { D 18  17  16  20   C } # D for Dihedral angle
| 22> { D 17  16  20  19   C } # D for Dihedral angle
| 23> { D 15  12  16  20   C } # D for Dihedral angle
| 24> end
| 25> end
| 26>
| 27>
| 28> #%pal
| 29> #nprocs 8
| 30> #end
| 31>
| 32> * xyz 0 1
| 33> C  -21.048   26.222   46.251
| 34> C  -20.361   27.558   45.944
| 35> C  -20.329   28.222   47.341
| 36> C  -20.110   27.022   48.296
| 37> O  -20.473   25.807   47.535
| 38> H  -20.833   25.428   45.533
| 39> H  -19.344   27.382   45.576
| 40> H  -20.898   28.157   45.201
| 41> H  -19.543   28.978   47.434
| 42> H  -21.289   28.710   47.548
| 43> H  -20.733   27.082   49.195
| 44> H  -19.064   26.913   48.597
| 45> C  -23.389   26.110   45.076
| 46> H  -23.711   27.062   44.634
| 47> H  -22.762   25.587   44.343
| 48> O  -22.586   26.394   46.375
| 49> C  -24.650   25.238   45.328
| 50> C  -24.287   23.924   46.029
| 51> C  -24.125   24.386   47.497
| 52> C  -25.199   25.494   47.638
| 53> O  -25.558   25.908   46.264
| 54> H  -25.192   25.114   44.389
| 55> H  -25.112   23.209   45.938
| 56> O  -23.001   23.263   45.461
| 57> H  -24.266   23.574   48.217
| 58> H  -23.121   24.800   47.653
| 59> H  -24.834   26.365   48.192
| 60> H  -26.114   25.129   48.113
| 61> H  -22.162   23.962   45.542
| 62> *
| 63>
| 64>                          ****END OF INPUT****
 Total Charge           Charge          ....    0
 Multiplicity           Mult            ....    1
 Number of Electrons    NEL             ....  102
FINAL SINGLE POINT ENERGY      -652.829728364127
FINAL SINGLE POINT ENERGY      -652.853712332024
FINAL SINGLE POINT ENERGY      -652.858659592658
FINAL SINGLE POINT ENERGY      -652.861348397821
FINAL SINGLE POINT ENERGY      -652.861890263684
FINAL SINGLE POINT ENERGY      -652.862068814417
FINAL SINGLE POINT ENERGY      -652.862089243867
FINAL SINGLE POINT ENERGY      -652.862089213055
                    ***********************HURRAY********************

CARTESIAN COORDINATES (ANGSTROEM)
---------------------------------
  C    -21.063721   26.256287   46.169495
  C    -20.353401   27.581300   45.897886
  C    -20.378498   28.248745   47.293466
  C    -20.215737   27.051619   48.254078
  O    -20.562650   25.845240   47.452938
  H    -20.845463   25.455616   45.453638
  H    -19.324143   27.384151   45.574978
  H    -20.852842   28.176133   45.128581
  H    -19.586707   28.993247   47.417977
  H    -21.344356   28.738168   47.449013
  H    -20.881986   27.096959   49.118506
  H    -19.185474   26.912878   48.593854
  C    -23.287947   26.189100   45.083251
  H    -23.596024   27.151586   44.658680
  H    -22.689923   25.646517   44.337760
  O    -22.499481   26.438880   46.286610
  C    -24.527486   25.357607   45.395654
  C    -24.256043   23.968681   46.000390
  C    -24.125409   24.298611   47.521075
  C    -25.147586   25.441508   47.704493
  O    -25.429845   25.983937   46.351518
  H    -25.091913   25.273884   44.457917
  H    -25.109050   23.312519   45.809126
  O    -23.101047   23.295756   45.431737
  H    -24.351421   23.430992   48.148765
  H    -23.111610   24.647508   47.730111
  H    -24.761989   26.250265   48.331172
  H    -26.102137   25.091476   48.109547
  H    -22.310112   23.480829   45.977784

 Multiplicity           Mult            ....    1
 Number of Electrons    NEL             ....  102
 Basis Dimension        Dim             ....  149

ORBITAL ENERGIES
----------------

  NO   OCC          E(Eh)            E(eV)
   0   2.0000     -19.150463      -521.1106
   1   2.0000     -19.146638      -521.0065
   2   2.0000     -19.138316      -520.7801
   3   2.0000     -19.129300      -520.5347
   4   2.0000     -10.287827      -279.9460
   5   2.0000     -10.233857      -278.4774
   6   2.0000     -10.231925      -278.4248
   7   2.0000     -10.229125      -278.3486
   8   2.0000     -10.225930      -278.2617
   9   2.0000     -10.217197      -278.0241
  10   2.0000     -10.191265      -277.3184
  11   2.0000     -10.190877      -277.3079
  12   2.0000     -10.175467      -276.8885
  13   2.0000      -1.060855       -28.8673
  14   2.0000      -1.023912       -27.8621
  15   2.0000      -1.006831       -27.3973
  16   2.0000      -0.997689       -27.1485
  17   2.0000      -0.792051       -21.5528
  18   2.0000      -0.770220       -20.9587
  19   2.0000      -0.762346       -20.7445
  20   2.0000      -0.734561       -19.9884
  21   2.0000      -0.675701       -18.3867
  22   2.0000      -0.606035       -16.4911
  23   2.0000      -0.600102       -16.3296
  24   2.0000      -0.598009       -16.2726
  25   2.0000      -0.566875       -15.4255
  26   2.0000      -0.527273       -14.3478
  27   2.0000      -0.502297       -13.6682
  28   2.0000      -0.500495       -13.6192
  29   2.0000      -0.492630       -13.4052
  30   2.0000      -0.472198       -12.8491
  31   2.0000      -0.454452       -12.3663
  32   2.0000      -0.446587       -12.1523
  33   2.0000      -0.426496       -11.6055
  34   2.0000      -0.424744       -11.5579
  35   2.0000      -0.411639       -11.2013
  36   2.0000      -0.406522       -11.0620
  37   2.0000      -0.397138       -10.8067
  38   2.0000      -0.376922       -10.2566
  39   2.0000      -0.364796        -9.9266
  40   2.0000      -0.361370        -9.8334
  41   2.0000      -0.355606        -9.6765
  42   2.0000      -0.349366        -9.5067
  43   2.0000      -0.324317        -8.8251
  44   2.0000      -0.317316        -8.6346
  45   2.0000      -0.309271        -8.4157
  46   2.0000      -0.308004        -8.3812
  47   2.0000      -0.270904        -7.3717
  48   2.0000      -0.260803        -7.0968
  49   2.0000      -0.258029        -7.0213
  50   2.0000      -0.232862        -6.3365
  51   0.0000       0.059950         1.6313
  52   0.0000       0.081019         2.2046
  53   0.0000       0.090827         2.4715
  54   0.0000       0.101266         2.7556
  55   0.0000       0.108300         2.9470

MULLIKEN ATOMIC CHARGES
-----------------------
   0 C :    0.283552
   1 C :   -0.258985
   2 C :   -0.300396
   3 C :   -0.003356
   4 O :   -0.514258
   5 H :    0.138573
   6 H :    0.144866
   7 H :    0.150208
   8 H :    0.144785
   9 H :    0.166822
  10 H :    0.154502
  11 H :    0.144865
  12 C :   -0.015550
  13 H :    0.147906
  14 H :    0.140407
  15 O :   -0.520283
  16 C :    0.098933
  17 C :    0.085569
  18 C :   -0.330418
  19 C :   -0.001090
  20 O :   -0.522614
  21 H :    0.144538
  22 H :    0.157794
  23 O :   -0.620017
  24 H :    0.141031
  25 H :    0.183806
  26 H :    0.149290
  27 H :    0.138015
  28 H :    0.371503
Sum of atomic charges:    0.0000000

LOEWDIN ATOMIC CHARGES
----------------------
   0 C :    0.171419
   1 C :   -0.225154
   2 C :   -0.216201
   3 C :   -0.024691
   4 O :   -0.316503
   5 H :    0.093790
   6 H :    0.113956
   7 H :    0.118956
   8 H :    0.115962
   9 H :    0.121664
  10 H :    0.109452
  11 H :    0.103967
  12 C :   -0.044163
  13 H :    0.106443
  14 H :    0.104952
  15 O :   -0.334625
  16 C :    0.018624
  17 C :    0.037351
  18 C :   -0.246679
  19 C :   -0.023085
  20 O :   -0.323652
  21 H :    0.111751
  22 H :    0.112560
  23 O :   -0.418676
  24 H :    0.112864
  25 H :    0.129365
  26 H :    0.106504
  27 H :    0.099232
  28 H :    0.284621

  Mayer bond orders larger than 0.100000
B(  0-C ,  1-C ) :   0.9340 B(  0-C ,  4-O ) :   0.9188 B(  0-C ,  5-H ) :   0.9128
B(  0-C , 15-O ) :   0.8380 B(  1-C ,  2-C ) :   0.9536 B(  1-C ,  6-H ) :   0.9340
B(  1-C ,  7-H ) :   0.9378 B(  2-C ,  3-C ) :   0.9561 B(  2-C ,  8-H ) :   0.9446
B(  2-C ,  9-H ) :   0.9427 B(  3-C ,  4-O ) :   0.8289 B(  3-C , 10-H ) :   0.9350
B(  3-C , 11-H ) :   0.9397 B( 12-C , 13-H ) :   0.9257 B( 12-C , 14-H ) :   0.9027
B( 12-C , 15-O ) :   0.8351 B( 12-C , 16-C ) :   0.9110 B( 16-C , 17-C ) :   0.8872
B( 16-C , 20-O ) :   0.8817 B( 16-C , 21-H ) :   0.9264 B( 17-C , 18-C ) :   0.9443
B( 17-C , 22-H ) :   0.9344 B( 17-C , 23-O ) :   0.8906 B( 18-C , 19-C ) :   0.9448
B( 18-C , 24-H ) :   0.9404 B( 18-C , 25-H ) :   0.9138 B( 19-C , 20-O ) :   0.8381
B( 19-C , 26-H ) :   0.9324 B( 19-C , 27-H ) :   0.9384 B( 23-O , 28-H ) :   0.7895

FINAL SINGLE POINT ENERGY      -652.862089629160

DIPOLE MOMENT
-------------
                                X             Y             Z
Electronic contribution:     -2.63930      -2.92552      -1.59279
Nuclear contribution   :      3.57305       3.60035       1.78582
                        -----------------------------------------
Total Dipole Moment    :      0.93375       0.67483       0.19303
                        -----------------------------------------
Magnitude (a.u.)       :      1.16814
Magnitude (Debye)      :      2.96916

Rotational constants in cm-1:     0.046189     0.016117     0.015793
Rotational constants in MHz :  1384.725758   483.189300   473.447297

                             ****ORCA TERMINATED NORMALLY****
TOTAL RUN TIME: 0 days 1 hours 6 minutes 27 seconds 427 msec
