                         Program Version 4.2.0 -  RELEASE  -
|  1> # Test redundant internal optimization
|  2> #
|  3> ! RKS B3LYP  Opt TightSCF SmallPrint
|  4>
|  5> %basis
|  6>         Basis "6-31G"
|  7> end
|  8>
|  9> %geom
| 10> Constraints
| 11> { D 4  0  15  12  315.0   C } # D for Dihedral angle
| 12> { D 0  15  12  16  255.0   C } # D for Dihedral angle
| 13> { D 0  4  3  2   C } # D for Dihedral angle
| 14> { D 4  3  2  1   C } # D for Dihedral angle
| 15> { D 3  2  1  0   C } # D for Dihedral angle
| 16> { D 2  1  0  4   C } # D for Dihedral angle
| 17> { D 1  0  4  3   C } # D for Dihedral angle
| 18> { D 16  20  19  18   C } # D for Dihedral angle
| 19> { D 20  19  18  17   C } # D for Dihedral angle
| 20> { D 19  18  17  16   C } # D for Dihedral angle
| 21> { D 18  17  16  20   C } # D for Dihedral angle
| 22> { D 17  16  20  19   C } # D for Dihedral angle
| 23> { D 15  12  16  20   C } # D for Dihedral angle
| 24> end
| 25> end
| 26>
| 27>
| 28> #%pal
| 29> #nprocs 8
| 30> #end
| 31>
| 32> * xyz 0 1
| 33> C  -21.048   26.222   46.251
| 34> C  -20.361   27.558   45.944
| 35> C  -20.329   28.222   47.341
| 36> C  -20.110   27.022   48.296
| 37> O  -20.473   25.807   47.535
| 38> H  -20.833   25.428   45.533
| 39> H  -19.344   27.382   45.576
| 40> H  -20.898   28.157   45.201
| 41> H  -19.543   28.978   47.434
| 42> H  -21.289   28.710   47.548
| 43> H  -20.733   27.082   49.195
| 44> H  -19.064   26.913   48.597
| 45> C  -23.319   25.255   47.135
| 46> H  -22.584   24.660   47.692
| 47> H  -24.037   25.672   47.853
| 48> O  -22.586   26.394   46.375
| 49> C  -24.098   24.304   46.185
| 50> C  -23.147   23.545   45.254
| 51> C  -22.617   22.430   46.187
| 52> C  -23.845   22.102   47.074
| 53> O  -24.769   23.249   46.953
| 54> H  -24.877   24.870   45.672
| 55> H  -23.706   23.114   44.415
| 56> O  -22.013   24.438   44.679
| 57> H  -22.253   21.555   45.639
| 58> H  -21.790   22.811   46.797
| 59> H  -23.577   21.967   48.127
| 60> H  -24.384   21.215   46.730
| 61> H  -21.441   24.880   45.502
| 62> *
| 63>
| 64>                          ****END OF INPUT****
 Total Charge           Charge          ....    0
 Multiplicity           Mult            ....    1
 Number of Electrons    NEL             ....  102
FINAL SINGLE POINT ENERGY      -652.758085483566
FINAL SINGLE POINT ENERGY      -652.799117097520
FINAL SINGLE POINT ENERGY      -652.824515490789
FINAL SINGLE POINT ENERGY      -652.838818925744
FINAL SINGLE POINT ENERGY      -652.846919574594
FINAL SINGLE POINT ENERGY      -652.851322681388
FINAL SINGLE POINT ENERGY      -652.853472165360
FINAL SINGLE POINT ENERGY      -652.854417679659
FINAL SINGLE POINT ENERGY      -652.854992177723
FINAL SINGLE POINT ENERGY      -652.855389099564
FINAL SINGLE POINT ENERGY      -652.860307953022
FINAL SINGLE POINT ENERGY      -652.861670018154
FINAL SINGLE POINT ENERGY      -652.862602432576
FINAL SINGLE POINT ENERGY      -652.863337865783
FINAL SINGLE POINT ENERGY      -652.863885170702
FINAL SINGLE POINT ENERGY      -652.864286351005
FINAL SINGLE POINT ENERGY      -652.864408356435
FINAL SINGLE POINT ENERGY      -652.864448822397
FINAL SINGLE POINT ENERGY      -652.864452616188
                    ***********************HURRAY********************

CARTESIAN COORDINATES (ANGSTROEM)
---------------------------------
  C    -20.950876   26.187709   46.338304
  C    -20.347905   27.563717   46.057521
  C    -20.414283   28.226883   47.451707
  C    -20.151340   27.049569   48.416242
  O    -20.407254   25.813981   47.625634
  H    -20.694169   25.378526   45.656355
  H    -19.311731   27.441625   45.722229
  H    -20.907339   28.111587   45.296000
  H    -19.682030   29.031328   47.571864
  H    -21.413989   28.640656   47.610971
  H    -20.807722   27.052810   49.290546
  H    -19.110398   26.994305   48.747902
  C    -23.165622   25.331672   47.082181
  H    -22.497402   24.790018   47.759020
  H    -23.909265   25.858798   47.686460
  O    -22.400953   26.360607   46.376912
  C    -23.925016   24.350159   46.171329
  C    -23.123703   23.448265   45.221728
  C    -22.613802   22.343292   46.189902
  C    -23.785497   22.190053   47.185151
  O    -24.615985   23.412403   47.057210
  H    -24.706101   24.895851   45.630451
  H    -23.828310   23.008568   44.500625
  O    -22.017405   24.047453   44.509799
  H    -22.375939   21.413378   45.667456
  H    -21.702955   22.704897   46.677897
  H    -23.450688   22.093265   48.222420
  H    -24.432024   21.340954   46.942983
  H    -22.318297   24.859670   44.053199

 Multiplicity           Mult            ....    1
 Number of Electrons    NEL             ....  102
 Basis Dimension        Dim             ....  149

ORBITAL ENERGIES
----------------

  NO   OCC          E(Eh)            E(eV)
   0   2.0000     -19.149144      -521.0747
   1   2.0000     -19.140327      -520.8348
   2   2.0000     -19.139540      -520.8134
   3   2.0000     -19.136953      -520.7430
   4   2.0000     -10.265616      -279.3416
   5   2.0000     -10.242440      -278.7110
   6   2.0000     -10.229663      -278.3633
   7   2.0000     -10.227199      -278.2962
   8   2.0000     -10.223710      -278.2013
   9   2.0000     -10.217064      -278.0204
  10   2.0000     -10.184740      -277.1409
  11   2.0000     -10.182282      -277.0740
  12   2.0000     -10.180986      -277.0387
  13   2.0000      -1.047566       -28.5057
  14   2.0000      -1.032494       -28.0956
  15   2.0000      -1.016607       -27.6633
  16   2.0000      -0.984817       -26.7982
  17   2.0000      -0.785196       -21.3663
  18   2.0000      -0.776997       -21.1432
  19   2.0000      -0.759748       -20.6738
  20   2.0000      -0.726861       -19.7789
  21   2.0000      -0.670468       -18.2444
  22   2.0000      -0.598830       -16.2950
  23   2.0000      -0.597060       -16.2468
  24   2.0000      -0.591126       -16.0853
  25   2.0000      -0.566818       -15.4239
  26   2.0000      -0.515705       -14.0330
  27   2.0000      -0.513385       -13.9699
  28   2.0000      -0.507745       -13.8164
  29   2.0000      -0.485758       -13.2181
  30   2.0000      -0.459847       -12.5131
  31   2.0000      -0.450499       -12.2587
  32   2.0000      -0.444111       -12.0849
  33   2.0000      -0.437730       -11.9112
  34   2.0000      -0.417025       -11.3478
  35   2.0000      -0.406647       -11.0654
  36   2.0000      -0.399205       -10.8629
  37   2.0000      -0.385477       -10.4894
  38   2.0000      -0.379216       -10.3190
  39   2.0000      -0.360832        -9.8187
  40   2.0000      -0.356868        -9.7109
  41   2.0000      -0.353230        -9.6119
  42   2.0000      -0.344385        -9.3712
  43   2.0000      -0.335494        -9.1293
  44   2.0000      -0.325278        -8.8513
  45   2.0000      -0.302530        -8.2323
  46   2.0000      -0.289966        -7.8904
  47   2.0000      -0.270933        -7.3724
  48   2.0000      -0.268830        -7.3152
  49   2.0000      -0.256076        -6.9682
  50   2.0000      -0.234987        -6.3943
  51   0.0000       0.051193         1.3930
  52   0.0000       0.083885         2.2826
  53   0.0000       0.091228         2.4824
  54   0.0000       0.108398         2.9497
  55   0.0000       0.116929         3.1818

MULLIKEN ATOMIC CHARGES
-----------------------
   0 C :    0.266631
   1 C :   -0.260765
   2 C :   -0.297004
   3 C :   -0.008806
   4 O :   -0.517619
   5 H :    0.185421
   6 H :    0.144113
   7 H :    0.151152
   8 H :    0.139496
   9 H :    0.161088
  10 H :    0.145584
  11 H :    0.143505
  12 C :   -0.015300
  13 H :    0.163318
  14 H :    0.154687
  15 O :   -0.546728
  16 C :    0.060384
  17 C :    0.103903
  18 C :   -0.304217
  19 C :   -0.014316
  20 O :   -0.519974
  21 H :    0.142554
  22 H :    0.140219
  23 O :   -0.602849
  24 H :    0.150792
  25 H :    0.173573
  26 H :    0.146643
  27 H :    0.146759
  28 H :    0.367756
Sum of atomic charges:   -0.0000000

LOEWDIN ATOMIC CHARGES
----------------------
   0 C :    0.161867
   1 C :   -0.215995
   2 C :   -0.216370
   3 C :   -0.030187
   4 O :   -0.325528
   5 H :    0.112383
   6 H :    0.113347
   7 H :    0.121484
   8 H :    0.112779
   9 H :    0.118633
  10 H :    0.104172
  11 H :    0.103350
  12 C :   -0.049855
  13 H :    0.113263
  14 H :    0.114195
  15 O :   -0.347596
  16 C :    0.009771
  17 C :    0.034379
  18 C :   -0.223809
  19 C :   -0.029710
  20 O :   -0.321259
  21 H :    0.105307
  22 H :    0.097230
  23 O :   -0.403737
  24 H :    0.120818
  25 H :    0.125524
  26 H :    0.104212
  27 H :    0.104231
  28 H :    0.287100

  Mayer bond orders larger than 0.100000
B(  0-C ,  1-C ) :   0.9466 B(  0-C ,  4-O ) :   0.8926 B(  0-C ,  5-H ) :   0.8876
B(  0-C , 15-O ) :   0.8368 B(  1-C ,  2-C ) :   0.9539 B(  1-C ,  6-H ) :   0.9398
B(  1-C ,  7-H ) :   0.9371 B(  2-C ,  3-C ) :   0.9575 B(  2-C ,  8-H ) :   0.9453
B(  2-C ,  9-H ) :   0.9442 B(  3-C ,  4-O ) :   0.8341 B(  3-C , 10-H ) :   0.9358
B(  3-C , 11-H ) :   0.9410 B( 12-C , 13-H ) :   0.9141 B( 12-C , 14-H ) :   0.9364
B( 12-C , 15-O ) :   0.8318 B( 12-C , 16-C ) :   0.8903 B( 16-C , 17-C ) :   0.8991
B( 16-C , 20-O ) :   0.8427 B( 16-C , 21-H ) :   0.9332 B( 17-C , 18-C ) :   0.9361
B( 17-C , 22-H ) :   0.9220 B( 17-C , 23-O ) :   0.8822 B( 18-C , 19-C ) :   0.9444
B( 18-C , 24-H ) :   0.9435 B( 18-C , 25-H ) :   0.9359 B( 19-C , 20-O ) :   0.8362
B( 19-C , 26-H ) :   0.9334 B( 19-C , 27-H ) :   0.9379 B( 23-O , 28-H ) :   0.7930

FINAL SINGLE POINT ENERGY      -652.864456924538

DIPOLE MOMENT
-------------
                                X             Y             Z
Electronic contribution:     -2.74260      -1.60834      -1.82636
Nuclear contribution   :      3.01527       1.93721       1.59645
                        -----------------------------------------
Total Dipole Moment    :      0.27267       0.32886      -0.22991
                        -----------------------------------------
Magnitude (a.u.)       :      0.48514
Magnitude (Debye)      :      1.23312

Rotational constants in cm-1:     0.053778     0.014869     0.014015
Rotational constants in MHz :  1612.213354   445.751474   420.152944

                             ****ORCA TERMINATED NORMALLY****
TOTAL RUN TIME: 0 days 3 hours 10 minutes 42 seconds 989 msec
