                         Program Version 4.2.0 -  RELEASE  -
|  1> # Test redundant internal optimization
|  2> #
|  3> ! RKS B3LYP  Opt TightSCF SmallPrint
|  4>
|  5> %basis
|  6>         Basis "6-31G"
|  7> end
|  8>
|  9> %geom
| 10> Constraints
| 11> { D 4  0  15  12  255.0   C } # D for Dihedral angle
| 12> { D 0  15  12  16  135.0   C } # D for Dihedral angle
| 13> { D 0  4  3  2   C } # D for Dihedral angle
| 14> { D 4  3  2  1   C } # D for Dihedral angle
| 15> { D 3  2  1  0   C } # D for Dihedral angle
| 16> { D 2  1  0  4   C } # D for Dihedral angle
| 17> { D 1  0  4  3   C } # D for Dihedral angle
| 18> { D 16  20  19  18   C } # D for Dihedral angle
| 19> { D 20  19  18  17   C } # D for Dihedral angle
| 20> { D 19  18  17  16   C } # D for Dihedral angle
| 21> { D 18  17  16  20   C } # D for Dihedral angle
| 22> { D 17  16  20  19   C } # D for Dihedral angle
| 23> { D 15  12  16  20   C } # D for Dihedral angle
| 24> end
| 25> end
| 26>
| 27>
| 28> #%pal
| 29> #nprocs 8
| 30> #end
| 31>
| 32> * xyz 0 1
| 33> C  -21.048   26.222   46.251
| 34> C  -20.361   27.558   45.944
| 35> C  -20.329   28.222   47.341
| 36> C  -20.110   27.022   48.296
| 37> O  -20.473   25.807   47.535
| 38> H  -20.833   25.428   45.533
| 39> H  -19.344   27.382   45.576
| 40> H  -20.898   28.157   45.201
| 41> H  -19.543   28.978   47.434
| 42> H  -21.289   28.710   47.548
| 43> H  -20.733   27.082   49.195
| 44> H  -19.064   26.913   48.597
| 45> C  -23.431   25.260   45.734
| 46> H  -23.860   25.617   44.789
| 47> H  -22.801   24.387   45.516
| 48> O  -22.586   26.394   46.375
| 49> C  -24.594   24.786   46.649
| 50> C  -24.078   24.354   48.027
| 51> C  -23.877   25.719   48.728
| 52> C  -25.035   26.578   48.164
| 53> O  -25.505   25.898   46.937
| 54> H  -25.174   24.024   46.125
| 55> H  -24.840   23.762   48.545
| 56> O  -22.772   23.516   47.954
| 57> H  -23.906   25.644   49.820
| 58> H  -22.907   26.147   48.447
| 59> H  -24.719   27.596   47.912
| 60> H  -25.887   26.632   48.848
| 61> H  -21.994   24.090   47.438
| 62> *
| 63>
| 64>                          ****END OF INPUT****
 Total Charge           Charge          ....    0
 Multiplicity           Mult            ....    1
 Number of Electrons    NEL             ....  102
FINAL SINGLE POINT ENERGY      -652.835262985061
FINAL SINGLE POINT ENERGY      -652.859603665498
FINAL SINGLE POINT ENERGY      -652.865459937735
FINAL SINGLE POINT ENERGY      -652.868689952180
FINAL SINGLE POINT ENERGY      -652.869257460285
FINAL SINGLE POINT ENERGY      -652.869395246481
FINAL SINGLE POINT ENERGY      -652.869407354115
                    ***********************HURRAY********************

CARTESIAN COORDINATES (ANGSTROEM)
---------------------------------
  C    -21.067495   26.184973   46.183774
  C    -20.385152   27.523786   45.887723
  C    -20.393342   28.197124   47.281410
  C    -20.188529   27.007155   48.248644
  O    -20.527127   25.784862   47.471890
  H    -20.833337   25.378511   45.483932
  H    -19.360514   27.341593   45.544564
  H    -20.922340   28.094648   45.128087
  H    -19.611253   28.954338   47.389852
  H    -21.363066   28.673506   47.454031
  H    -20.834298   27.054041   49.129243
  H    -19.149136   26.892491   48.568356
  C    -23.322170   25.324497   45.696267
  H    -23.725366   25.701045   44.749463
  H    -22.720652   24.427555   45.502694
  O    -22.491254   26.377335   46.283548
  C    -24.473503   24.925213   46.610125
  C    -24.035899   24.375455   47.981094
  C    -23.889077   25.684255   48.821645
  C    -25.020036   26.572219   48.258662
  O    -25.404242   25.994097   46.944411
  H    -25.059929   24.179842   46.057389
  H    -24.814347   23.725750   48.387926
  O    -22.829997   23.573994   47.938974
  H    -23.996848   25.494550   49.893982
  H    -22.910710   26.120610   48.625030
  H    -24.706669   27.608846   48.104918
  H    -25.918698   26.555947   48.883808
  H    -22.036013   24.156762   47.947558

 Multiplicity           Mult            ....    1
 Number of Electrons    NEL             ....  102
 Basis Dimension        Dim             ....  149

ORBITAL ENERGIES
----------------

  NO   OCC          E(Eh)            E(eV)
   0   2.0000     -19.158498      -521.3292
   1   2.0000     -19.152952      -521.1783
   2   2.0000     -19.129154      -520.5307
   3   2.0000     -19.123342      -520.3726
   4   2.0000     -10.291208      -280.0380
   5   2.0000     -10.237916      -278.5879
   6   2.0000     -10.229989      -278.3722
   7   2.0000     -10.228736      -278.3380
   8   2.0000     -10.224634      -278.2264
   9   2.0000     -10.217879      -278.0426
  10   2.0000     -10.195477      -277.4330
  11   2.0000     -10.194746      -277.4131
  12   2.0000     -10.174508      -276.8624
  13   2.0000      -1.066224       -29.0134
  14   2.0000      -1.019492       -27.7418
  15   2.0000      -1.003494       -27.3065
  16   2.0000      -0.996424       -27.1141
  17   2.0000      -0.797198       -21.6929
  18   2.0000      -0.770477       -20.9657
  19   2.0000      -0.761058       -20.7094
  20   2.0000      -0.736562       -20.0429
  21   2.0000      -0.675319       -18.3764
  22   2.0000      -0.609541       -16.5864
  23   2.0000      -0.602931       -16.4066
  24   2.0000      -0.595267       -16.1980
  25   2.0000      -0.571764       -15.5585
  26   2.0000      -0.525440       -14.2979
  27   2.0000      -0.507240       -13.8027
  28   2.0000      -0.503244       -13.6940
  29   2.0000      -0.486291       -13.2326
  30   2.0000      -0.474760       -12.9189
  31   2.0000      -0.458471       -12.4756
  32   2.0000      -0.445290       -12.1170
  33   2.0000      -0.431772       -11.7491
  34   2.0000      -0.420409       -11.4399
  35   2.0000      -0.411996       -11.2110
  36   2.0000      -0.405472       -11.0334
  37   2.0000      -0.397915       -10.8278
  38   2.0000      -0.373394       -10.1606
  39   2.0000      -0.368343       -10.0231
  40   2.0000      -0.365639        -9.9495
  41   2.0000      -0.356745        -9.7075
  42   2.0000      -0.346534        -9.4297
  43   2.0000      -0.336419        -9.1544
  44   2.0000      -0.319275        -8.6879
  45   2.0000      -0.311933        -8.4881
  46   2.0000      -0.300769        -8.1843
  47   2.0000      -0.280303        -7.6274
  48   2.0000      -0.261422        -7.1136
  49   2.0000      -0.253056        -6.8860
  50   2.0000      -0.231861        -6.3093
  51   0.0000       0.067338         1.8324
  52   0.0000       0.082006         2.2315
  53   0.0000       0.088553         2.4096
  54   0.0000       0.098144         2.6706
  55   0.0000       0.109054         2.9675

MULLIKEN ATOMIC CHARGES
-----------------------
   0 C :    0.272991
   1 C :   -0.250708
   2 C :   -0.301678
   3 C :   -0.007653
   4 O :   -0.521385
   5 H :    0.152849
   6 H :    0.147943
   7 H :    0.159544
   8 H :    0.147285
   9 H :    0.166470
  10 H :    0.148615
  11 H :    0.150281
  12 C :   -0.020813
  13 H :    0.149921
  14 H :    0.147694
  15 O :   -0.520917
  16 C :    0.095227
  17 C :    0.092678
  18 C :   -0.329379
  19 C :   -0.007246
  20 O :   -0.521152
  21 H :    0.145502
  22 H :    0.154374
  23 O :   -0.632494
  24 H :    0.141694
  25 H :    0.174285
  26 H :    0.144556
  27 H :    0.140486
  28 H :    0.381028
Sum of atomic charges:   -0.0000000

LOEWDIN ATOMIC CHARGES
----------------------
   0 C :    0.169650
   1 C :   -0.215632
   2 C :   -0.215376
   3 C :   -0.029061
   4 O :   -0.331386
   5 H :    0.102980
   6 H :    0.115647
   7 H :    0.125913
   8 H :    0.116957
   9 H :    0.120839
  10 H :    0.104701
  11 H :    0.106894
  12 C :   -0.043617
  13 H :    0.108297
  14 H :    0.109368
  15 O :   -0.327630
  16 C :    0.015406
  17 C :    0.040751
  18 C :   -0.245725
  19 C :   -0.026351
  20 O :   -0.324067
  21 H :    0.112859
  22 H :    0.111870
  23 O :   -0.426932
  24 H :    0.113754
  25 H :    0.122395
  26 H :    0.103614
  27 H :    0.100295
  28 H :    0.283590

  Mayer bond orders larger than 0.100000
B(  0-C ,  1-C ) :   0.9470 B(  0-C ,  4-O ) :   0.8758 B(  0-C ,  5-H ) :   0.9162
B(  0-C , 15-O ) :   0.8716 B(  1-C ,  2-C ) :   0.9545 B(  1-C ,  6-H ) :   0.9369
B(  1-C ,  7-H ) :   0.9371 B(  2-C ,  3-C ) :   0.9545 B(  2-C ,  8-H ) :   0.9445
B(  2-C ,  9-H ) :   0.9429 B(  3-C ,  4-O ) :   0.8227 B(  3-C , 10-H ) :   0.9311
B(  3-C , 11-H ) :   0.9406 B( 12-C , 13-H ) :   0.9287 B( 12-C , 14-H ) :   0.9010
B( 12-C , 15-O ) :   0.8259 B( 12-C , 16-C ) :   0.9147 B( 16-C , 17-C ) :   0.8821
B( 16-C , 20-O ) :   0.8811 B( 16-C , 21-H ) :   0.9264 B( 17-C , 18-C ) :   0.9362
B( 17-C , 22-H ) :   0.9375 B( 17-C , 23-O ) :   0.9128 B( 18-C , 19-C ) :   0.9458
B( 18-C , 24-H ) :   0.9416 B( 18-C , 25-H ) :   0.9173 B( 19-C , 20-O ) :   0.8399
B( 19-C , 26-H ) :   0.9325 B( 19-C , 27-H ) :   0.9380 B( 23-O , 28-H ) :   0.7504

FINAL SINGLE POINT ENERGY      -652.869398112531

DIPOLE MOMENT
-------------
                                X             Y             Z
Electronic contribution:     -2.59953      -3.86405      -1.54489
Nuclear contribution   :      3.59719       4.88657       1.45677
                        -----------------------------------------
Total Dipole Moment    :      0.99765       1.02252      -0.08813
                        -----------------------------------------
Magnitude (a.u.)       :      1.43130
Magnitude (Debye)      :      3.63809

Rotational constants in cm-1:     0.043949     0.018075     0.017630
Rotational constants in MHz :  1317.556320   541.868847   528.535923

                             ****ORCA TERMINATED NORMALLY****
TOTAL RUN TIME: 0 days 0 hours 43 minutes 53 seconds 610 msec
