                         Program Version 4.2.0 -  RELEASE  -
|  1> # Test redundant internal optimization
|  2> #
|  3> ! RKS B3LYP  Opt TightSCF SmallPrint
|  4>
|  5> %basis
|  6>         Basis "6-31G"
|  7> end
|  8>
|  9> %geom
| 10> Constraints
| 11> { D 4  0  15  12  180.0   C } # D for Dihedral angle
| 12> { D 0  15  12  16  45.0   C } # D for Dihedral angle
| 13> { D 0  4  3  2   C } # D for Dihedral angle
| 14> { D 4  3  2  1   C } # D for Dihedral angle
| 15> { D 3  2  1  0   C } # D for Dihedral angle
| 16> { D 2  1  0  4   C } # D for Dihedral angle
| 17> { D 1  0  4  3   C } # D for Dihedral angle
| 18> { D 16  20  19  18   C } # D for Dihedral angle
| 19> { D 20  19  18  17   C } # D for Dihedral angle
| 20> { D 19  18  17  16   C } # D for Dihedral angle
| 21> { D 18  17  16  20   C } # D for Dihedral angle
| 22> { D 17  16  20  19   C } # D for Dihedral angle
| 23> { D 15  12  16  20   C } # D for Dihedral angle
| 24> end
| 25> end
| 26>
| 27>
| 28> #%pal
| 29> #nprocs 8
| 30> #end
| 31>
| 32> * xyz 0 1
| 33> C  -21.048   26.222   46.251
| 34> C  -20.361   27.558   45.944
| 35> C  -20.329   28.222   47.341
| 36> C  -20.110   27.022   48.296
| 37> O  -20.473   25.807   47.535
| 38> H  -20.833   25.428   45.533
| 39> H  -19.344   27.382   45.576
| 40> H  -20.898   28.157   45.201
| 41> H  -19.543   28.978   47.434
| 42> H  -21.289   28.710   47.548
| 43> H  -20.733   27.082   49.195
| 44> H  -19.064   26.913   48.597
| 45> C  -23.309   26.834   45.072
| 46> H  -24.388   26.677   45.187
| 47> H  -23.136   27.900   44.878
| 48> O  -22.586   26.394   46.375
| 49> C  -22.830   26.042   43.824
| 50> C  -23.477   26.580   42.542
| 51> C  -22.622   27.839   42.263
| 52> C  -21.208   27.415   42.733
| 53> O  -21.392   26.240   43.612
| 54> H  -22.984   24.975   43.995
| 55> H  -23.368   25.851   41.731
| 56> O  -24.987   26.902   42.711
| 57> H  -22.640   28.139   41.211
| 58> H  -22.990   28.683   42.859
| 59> H  -20.698   28.206   43.294
| 60> H  -20.569   27.100   41.903
| 61> H  -25.121   27.631   43.517
| 62> *
| 63>
| 64>                          ****END OF INPUT****
 Total Charge           Charge          ....    0
 Multiplicity           Mult            ....    1
 Number of Electrons    NEL             ....  102
FINAL SINGLE POINT ENERGY      -652.820793663015
FINAL SINGLE POINT ENERGY      -652.844599398663
FINAL SINGLE POINT ENERGY      -652.851345982600
FINAL SINGLE POINT ENERGY      -652.853471597871
FINAL SINGLE POINT ENERGY      -652.853769541658
FINAL SINGLE POINT ENERGY      -652.853830410608
FINAL SINGLE POINT ENERGY      -652.853835053232
FINAL SINGLE POINT ENERGY      -652.853833778559
                    ***********************HURRAY********************

CARTESIAN COORDINATES (ANGSTROEM)
---------------------------------
  C    -20.930207   26.222783   46.260685
  C    -20.191701   27.544869   46.058721
  C    -20.345172   28.216824   47.446878
  C    -20.278440   27.014374   48.412629
  O    -20.552934   25.816108   47.582814
  H    -20.664913   25.425174   45.570179
  H    -19.139213   27.334485   45.835823
  H    -20.595259   28.149361   45.244537
  H    -19.563628   28.956393   47.646327
  H    -21.317898   28.713041   47.515489
  H    -21.020164   27.062896   49.214268
  H    -19.283890   26.873632   48.847212
  C    -23.126540   26.826436   45.127815
  H    -24.170703   26.609101   45.370538
  H    -23.022527   27.917845   44.997464
  O    -22.385004   26.409733   46.302575
  C    -22.774127   26.115559   43.816416
  C    -23.578692   26.611785   42.600094
  C    -22.746064   27.851331   42.149738
  C    -21.295157   27.416552   42.452849
  O    -21.379951   26.278277   43.407621
  H    -22.906074   25.038886   43.967585
  H    -23.568126   25.843329   41.823927
  O    -24.980587   26.868416   42.841246
  H    -22.905367   28.095531   41.096482
  H    -23.037322   28.724550   42.748392
  H    -20.694213   28.214049   42.900879
  H    -20.778558   27.043972   41.563822
  H    -25.097569   27.693708   43.354998

 Multiplicity           Mult            ....    1
 Number of Electrons    NEL             ....  102
 Basis Dimension        Dim             ....  149

ORBITAL ENERGIES
----------------

  NO   OCC          E(Eh)            E(eV)
   0   2.0000     -19.156850      -521.2844
   1   2.0000     -19.152733      -521.1724
   2   2.0000     -19.131662      -520.5990
   3   2.0000     -19.130113      -520.5569
   4   2.0000     -10.266110      -279.3550
   5   2.0000     -10.253817      -279.0205
   6   2.0000     -10.241904      -278.6964
   7   2.0000     -10.238465      -278.6028
   8   2.0000     -10.233252      -278.4609
   9   2.0000     -10.217233      -278.0251
  10   2.0000     -10.204468      -277.6777
  11   2.0000     -10.180227      -277.0181
  12   2.0000     -10.177865      -276.9538
  13   2.0000      -1.046951       -28.4890
  14   2.0000      -1.039403       -28.2836
  15   2.0000      -1.026036       -27.9198
  16   2.0000      -0.983338       -26.7580
  17   2.0000      -0.791959       -21.5503
  18   2.0000      -0.778439       -21.1824
  19   2.0000      -0.770740       -20.9729
  20   2.0000      -0.728890       -19.8341
  21   2.0000      -0.684064       -18.6143
  22   2.0000      -0.621662       -16.9163
  23   2.0000      -0.602049       -16.3826
  24   2.0000      -0.590983       -16.0815
  25   2.0000      -0.562972       -15.3193
  26   2.0000      -0.536722       -14.6049
  27   2.0000      -0.515049       -14.0152
  28   2.0000      -0.497169       -13.5287
  29   2.0000      -0.481078       -13.0908
  30   2.0000      -0.473299       -12.8791
  31   2.0000      -0.457960       -12.4617
  32   2.0000      -0.446631       -12.1534
  33   2.0000      -0.439324       -11.9546
  34   2.0000      -0.430398       -11.7117
  35   2.0000      -0.425282       -11.5725
  36   2.0000      -0.404880       -11.0174
  37   2.0000      -0.399085       -10.8597
  38   2.0000      -0.389155       -10.5895
  39   2.0000      -0.368793       -10.0354
  40   2.0000      -0.359767        -9.7898
  41   2.0000      -0.350791        -9.5455
  42   2.0000      -0.346390        -9.4257
  43   2.0000      -0.338091        -9.1999
  44   2.0000      -0.325781        -8.8649
  45   2.0000      -0.304937        -8.2978
  46   2.0000      -0.297223        -8.0878
  47   2.0000      -0.280007        -7.6194
  48   2.0000      -0.259989        -7.0747
  49   2.0000      -0.248200        -6.7539
  50   2.0000      -0.238860        -6.4997
  51   0.0000       0.044427         1.2089
  52   0.0000       0.059517         1.6196
  53   0.0000       0.083788         2.2800
  54   0.0000       0.093752         2.5511
  55   0.0000       0.101562         2.7637

MULLIKEN ATOMIC CHARGES
-----------------------
   0 C :    0.309845
   1 C :   -0.268949
   2 C :   -0.301956
   3 C :    0.002097
   4 O :   -0.504577
   5 H :    0.169809
   6 H :    0.145823
   7 H :    0.134380
   8 H :    0.136942
   9 H :    0.152272
  10 H :    0.150556
  11 H :    0.138490
  12 C :   -0.007805
  13 H :    0.161932
  14 H :    0.106067
  15 O :   -0.522180
  16 C :    0.069685
  17 C :    0.079785
  18 C :   -0.316332
  19 C :   -0.019937
  20 O :   -0.521855
  21 H :    0.168678
  22 H :    0.175331
  23 O :   -0.596310
  24 H :    0.160512
  25 H :    0.134105
  26 H :    0.146229
  27 H :    0.158439
  28 H :    0.358921
Sum of atomic charges:   -0.0000000

LOEWDIN ATOMIC CHARGES
----------------------
   0 C :    0.184366
   1 C :   -0.225993
   2 C :   -0.220148
   3 C :   -0.025338
   4 O :   -0.303663
   5 H :    0.111472
   6 H :    0.116160
   7 H :    0.108544
   8 H :    0.111496
   9 H :    0.113503
  10 H :    0.107137
  11 H :    0.100552
  12 C :   -0.050298
  13 H :    0.121684
  14 H :    0.077965
  15 O :   -0.334146
  16 C :    0.004607
  17 C :    0.036630
  18 C :   -0.239672
  19 C :   -0.032028
  20 O :   -0.322648
  21 H :    0.119460
  22 H :    0.122302
  23 O :   -0.403127
  24 H :    0.124694
  25 H :    0.104747
  26 H :    0.101642
  27 H :    0.109972
  28 H :    0.280130

  Mayer bond orders larger than 0.100000
B(  0-C ,  1-C ) :   0.9335 B(  0-C ,  4-O ) :   0.9217 B(  0-C ,  5-H ) :   0.9149
B(  0-C , 15-O ) :   0.8142 B(  1-C ,  2-C ) :   0.9462 B(  1-C ,  6-H ) :   0.9369
B(  1-C ,  7-H ) :   0.9317 B(  2-C ,  3-C ) :   0.9552 B(  2-C ,  8-H ) :   0.9455
B(  2-C ,  9-H ) :   0.9461 B(  3-C ,  4-O ) :   0.8399 B(  3-C , 10-H ) :   0.9351
B(  3-C , 11-H ) :   0.9402 B( 12-C , 13-H ) :   0.9181 B( 12-C , 14-H ) :   0.9155
B( 12-C , 15-O ) :   0.8731 B( 12-C , 16-C ) :   0.8941 B( 16-C , 17-C ) :   0.8724
B( 16-C , 20-O ) :   0.8439 B( 16-C , 21-H ) :   0.9261 B( 17-C , 18-C ) :   0.9224
B( 17-C , 22-H ) :   0.9312 B( 17-C , 23-O ) :   0.9048 B( 18-C , 19-C ) :   0.9397
B( 18-C , 24-H ) :   0.9414 B( 18-C , 25-H ) :   0.9404 B( 19-C , 20-O ) :   0.8384
B( 19-C , 26-H ) :   0.9251 B( 19-C , 27-H ) :   0.9370 B( 23-O , 28-H ) :   0.7968

FINAL SINGLE POINT ENERGY      -652.853822165679

DIPOLE MOMENT
-------------
                                X             Y             Z
Electronic contribution:     -2.39683      -5.71008       0.55573
Nuclear contribution   :      2.64604       7.42186      -1.49563
                        -----------------------------------------
Total Dipole Moment    :      0.24922       1.71178      -0.93990
                        -----------------------------------------
Magnitude (a.u.)       :      1.96868
Magnitude (Debye)      :      5.00400

Rotational constants in cm-1:     0.057082     0.014285     0.013121
Rotational constants in MHz :  1711.263069   428.256143   393.359157

                             ****ORCA TERMINATED NORMALLY****
TOTAL RUN TIME: 0 days 0 hours 28 minutes 12 seconds 222 msec
