                         Program Version 4.2.0 -  RELEASE  -
|  1> # Test redundant internal optimization
|  2> #
|  3> ! RKS B3LYP  Opt TightSCF SmallPrint
|  4>
|  5> %basis
|  6>         Basis "6-31G"
|  7> end
|  8>
|  9> %geom
| 10> Constraints
| 11> { D 4  0  15  12  60.0   C } # D for Dihedral angle
| 12> { D 0  15  12  16  105.0   C } # D for Dihedral angle
| 13> { D 0  4  3  2   C } # D for Dihedral angle
| 14> { D 4  3  2  1   C } # D for Dihedral angle
| 15> { D 3  2  1  0   C } # D for Dihedral angle
| 16> { D 2  1  0  4   C } # D for Dihedral angle
| 17> { D 1  0  4  3   C } # D for Dihedral angle
| 18> { D 16  20  19  18   C } # D for Dihedral angle
| 19> { D 20  19  18  17   C } # D for Dihedral angle
| 20> { D 19  18  17  16   C } # D for Dihedral angle
| 21> { D 18  17  16  20   C } # D for Dihedral angle
| 22> { D 17  16  20  19   C } # D for Dihedral angle
| 23> { D 15  12  16  20   C } # D for Dihedral angle
| 24> end
| 25> end
| 26>
| 27>
| 28> #%pal
| 29> #nprocs 8
| 30> #end
| 31>
| 32> * xyz 0 1
| 33> C  -21.048   26.222   46.251
| 34> C  -20.361   27.558   45.944
| 35> C  -20.329   28.222   47.341
| 36> C  -20.110   27.022   48.296
| 37> O  -20.473   25.807   47.535
| 38> H  -20.833   25.428   45.533
| 39> H  -19.344   27.382   45.576
| 40> H  -20.898   28.157   45.201
| 41> H  -19.543   28.978   47.434
| 42> H  -21.289   28.710   47.548
| 43> H  -20.733   27.082   49.195
| 44> H  -19.064   26.913   48.597
| 45> C  -23.051   27.452   47.413
| 46> H  -23.868   27.034   48.015
| 47> H  -22.227   27.714   48.089
| 48> O  -22.586   26.394   46.375
| 49> C  -23.554   28.764   46.750
| 50> C  -24.816   28.517   45.916
| 51> C  -25.910   28.468   47.010
| 52> C  -25.416   29.507   48.048
| 53> O  -23.979   29.724   47.773
| 54> H  -22.732   29.225   46.200
| 55> H  -24.988   29.359   45.236
| 56> O  -24.747   27.213   45.074
| 57> H  -26.906   28.705   46.624
| 58> H  -25.952   27.466   47.454
| 59> H  -25.535   29.158   49.079
| 60> H  -25.915   30.473   47.941
| 61> H  -24.576   26.357   45.736
| 62> *
| 63>
| 64>                          ****END OF INPUT****
 Total Charge           Charge          ....    0
 Multiplicity           Mult            ....    1
 Number of Electrons    NEL             ....  102
FINAL SINGLE POINT ENERGY      -652.806064901755
FINAL SINGLE POINT ENERGY      -652.837540385081
FINAL SINGLE POINT ENERGY      -652.854101884868
FINAL SINGLE POINT ENERGY      -652.858104674009
FINAL SINGLE POINT ENERGY      -652.859672536055
FINAL SINGLE POINT ENERGY      -652.860565317911
FINAL SINGLE POINT ENERGY      -652.860914082812
FINAL SINGLE POINT ENERGY      -652.861008706266
FINAL SINGLE POINT ENERGY      -652.861022082496
FINAL SINGLE POINT ENERGY      -652.861024611816
                    ***********************HURRAY********************

CARTESIAN COORDINATES (ANGSTROEM)
---------------------------------
  C    -21.203529   26.313440   46.427797
  C    -20.359810   27.495241   45.933135
  C    -19.979655   28.203670   47.266071
  C    -19.813544   27.014918   48.244173
  O    -20.510604   25.864224   47.607545
  H    -21.207966   25.471195   45.734687
  H    -19.467187   27.098412   45.438510
  H    -20.894804   28.137245   45.228975
  H    -19.055778   28.783167   47.175118
  H    -20.765381   28.893044   47.586183
  H    -20.253136   27.193730   49.229667
  H    -18.768313   26.718500   48.367820
  C    -23.162203   27.495991   47.588592
  H    -23.975904   26.974030   48.100581
  H    -22.419876   27.769252   48.340142
  O    -22.626679   26.530529   46.618307
  C    -23.683272   28.746197   46.870633
  C    -24.865949   28.493924   45.920301
  C    -26.059032   28.417558   46.917112
  C    -25.677052   29.443560   48.002915
  O    -24.208168   29.685248   47.860324
  H    -22.856452   29.256944   46.366542
  H    -24.990178   29.368839   45.273052
  O    -24.747160   27.347063   45.057444
  H    -27.008870   28.650103   46.428927
  H    -26.127911   27.399570   47.314937
  H    -25.876189   29.094967   49.020786
  H    -26.165452   30.411953   47.859771
  H    -24.052946   26.738488   45.403954

 Multiplicity           Mult            ....    1
 Number of Electrons    NEL             ....  102
 Basis Dimension        Dim             ....  149

ORBITAL ENERGIES
----------------

  NO   OCC          E(Eh)            E(eV)
   0   2.0000     -19.163803      -521.4736
   1   2.0000     -19.153799      -521.2014
   2   2.0000     -19.143801      -520.9293
   3   2.0000     -19.116549      -520.1877
   4   2.0000     -10.291586      -280.0483
   5   2.0000     -10.239627      -278.6344
   6   2.0000     -10.238554      -278.6052
   7   2.0000     -10.237082      -278.5652
   8   2.0000     -10.233169      -278.4587
   9   2.0000     -10.229210      -278.3510
  10   2.0000     -10.200567      -277.5715
  11   2.0000     -10.199174      -277.5336
  12   2.0000     -10.180934      -277.0373
  13   2.0000      -1.064646       -28.9705
  14   2.0000      -1.028369       -27.9834
  15   2.0000      -1.009308       -27.4647
  16   2.0000      -0.995078       -27.0774
  17   2.0000      -0.797425       -21.6991
  18   2.0000      -0.780199       -21.2303
  19   2.0000      -0.771057       -20.9815
  20   2.0000      -0.740375       -20.1466
  21   2.0000      -0.684993       -18.6396
  22   2.0000      -0.613333       -16.6897
  23   2.0000      -0.604186       -16.4407
  24   2.0000      -0.598982       -16.2991
  25   2.0000      -0.579224       -15.7615
  26   2.0000      -0.539370       -14.6770
  27   2.0000      -0.511403       -13.9160
  28   2.0000      -0.507914       -13.8210
  29   2.0000      -0.491316       -13.3694
  30   2.0000      -0.474836       -12.9209
  31   2.0000      -0.460690       -12.5360
  32   2.0000      -0.448358       -12.2004
  33   2.0000      -0.434675       -11.8281
  34   2.0000      -0.426698       -11.6110
  35   2.0000      -0.425099       -11.5675
  36   2.0000      -0.413558       -11.2535
  37   2.0000      -0.392026       -10.6676
  38   2.0000      -0.391285       -10.6474
  39   2.0000      -0.370768       -10.0891
  40   2.0000      -0.369117       -10.0442
  41   2.0000      -0.356909        -9.7120
  42   2.0000      -0.352833        -9.6011
  43   2.0000      -0.343479        -9.3465
  44   2.0000      -0.325879        -8.8676
  45   2.0000      -0.323996        -8.8164
  46   2.0000      -0.288066        -7.8387
  47   2.0000      -0.284286        -7.7358
  48   2.0000      -0.269760        -7.3405
  49   2.0000      -0.250206        -6.8084
  50   2.0000      -0.241962        -6.5841
  51   0.0000       0.055590         1.5127
  52   0.0000       0.067066         1.8250
  53   0.0000       0.087241         2.3739
  54   0.0000       0.094053         2.5593
  55   0.0000       0.102183         2.7806

MULLIKEN ATOMIC CHARGES
-----------------------
   0 C :    0.307510
   1 C :   -0.276669
   2 C :   -0.328526
   3 C :   -0.018873
   4 O :   -0.500427
   5 H :    0.172057
   6 H :    0.159749
   7 H :    0.156491
   8 H :    0.152490
   9 H :    0.165760
  10 H :    0.152460
  11 H :    0.153825
  12 C :   -0.038331
  13 H :    0.161414
  14 H :    0.162192
  15 O :   -0.553030
  16 C :    0.052089
  17 C :    0.121724
  18 C :   -0.298742
  19 C :   -0.021678
  20 O :   -0.523619
  21 H :    0.149298
  22 H :    0.147722
  23 O :   -0.640229
  24 H :    0.151044
  25 H :    0.148009
  26 H :    0.142811
  27 H :    0.150348
  28 H :    0.393131
Sum of atomic charges:    0.0000000

LOEWDIN ATOMIC CHARGES
----------------------
   0 C :    0.179012
   1 C :   -0.228963
   2 C :   -0.226213
   3 C :   -0.034482
   4 O :   -0.313770
   5 H :    0.116684
   6 H :    0.124066
   7 H :    0.120794
   8 H :    0.119748
   9 H :    0.115702
  10 H :    0.105310
  11 H :    0.108332
  12 C :   -0.048337
  13 H :    0.114289
  14 H :    0.114030
  15 O :   -0.330559
  16 C :    0.006751
  17 C :    0.042226
  18 C :   -0.235907
  19 C :   -0.031755
  20 O :   -0.326681
  21 H :    0.106745
  22 H :    0.105898
  23 O :   -0.433221
  24 H :    0.121559
  25 H :    0.112427
  26 H :    0.102524
  27 H :    0.106422
  28 H :    0.287368

  Mayer bond orders larger than 0.100000
B(  0-C ,  1-C ) :   0.9210 B(  0-C ,  4-O ) :   0.9237 B(  0-C ,  5-H ) :   0.9346
B(  0-C , 15-O ) :   0.8459 B(  1-C ,  2-C ) :   0.9525 B(  1-C ,  6-H ) :   0.9328
B(  1-C ,  7-H ) :   0.9326 B(  2-C ,  3-C ) :   0.9459 B(  2-C ,  8-H ) :   0.9443
B(  2-C ,  9-H ) :   0.9358 B(  3-C ,  4-O ) :   0.8362 B(  3-C , 10-H ) :   0.9311
B(  3-C , 11-H ) :   0.9379 B( 12-C , 13-H ) :   0.9350 B( 12-C , 14-H ) :   0.9183
B( 12-C , 15-O ) :   0.7890 B( 12-C , 16-C ) :   0.8857 B( 16-C , 17-C ) :   0.9102
B( 16-C , 20-O ) :   0.8535 B( 16-C , 21-H ) :   0.9261 B( 17-C , 18-C ) :   0.8996
B( 17-C , 22-H ) :   0.9316 B( 17-C , 23-O ) :   0.9352 B( 18-C , 19-C ) :   0.9379
B( 18-C , 24-H ) :   0.9451 B( 18-C , 25-H ) :   0.9430 B( 19-C , 20-O ) :   0.8293
B( 19-C , 26-H ) :   0.9350 B( 19-C , 27-H ) :   0.9383 B( 23-O , 28-H ) :   0.7255

FINAL SINGLE POINT ENERGY      -652.861025290795

DIPOLE MOMENT
-------------
                                X             Y             Z
Electronic contribution:     -0.81914      -2.95522      -1.21801
Nuclear contribution   :      1.53286       3.58408       1.66584
                        -----------------------------------------
Total Dipole Moment    :      0.71371       0.62886       0.44782
                        -----------------------------------------
Magnitude (a.u.)       :      1.05138
Magnitude (Debye)      :      2.67239

Rotational constants in cm-1:     0.051615     0.015338     0.013745
Rotational constants in MHz :  1547.389554   459.830414   412.069153

                             ****ORCA TERMINATED NORMALLY****
TOTAL RUN TIME: 0 days 0 hours 41 minutes 56 seconds 690 msec
