                         Program Version 4.2.0 -  RELEASE  -
|  1> # Test redundant internal optimization
|  2> #
|  3> ! RKS B3LYP  Opt TightSCF SmallPrint
|  4>
|  5> %basis
|  6>         Basis "6-31G"
|  7> end
|  8>
|  9> %geom
| 10> Constraints
| 11> { D 4  0  15  12  285.0   C } # D for Dihedral angle
| 12> { D 0  15  12  16  180.0   C } # D for Dihedral angle
| 13> { D 0  4  3  2   C } # D for Dihedral angle
| 14> { D 4  3  2  1   C } # D for Dihedral angle
| 15> { D 3  2  1  0   C } # D for Dihedral angle
| 16> { D 2  1  0  4   C } # D for Dihedral angle
| 17> { D 1  0  4  3   C } # D for Dihedral angle
| 18> { D 16  20  19  18   C } # D for Dihedral angle
| 19> { D 20  19  18  17   C } # D for Dihedral angle
| 20> { D 19  18  17  16   C } # D for Dihedral angle
| 21> { D 18  17  16  20   C } # D for Dihedral angle
| 22> { D 17  16  20  19   C } # D for Dihedral angle
| 23> { D 15  12  16  20   C } # D for Dihedral angle
| 24> end
| 25> end
| 26>
| 27>
| 28> #%pal
| 29> #nprocs 8
| 30> #end
| 31>
| 32> * xyz 0 1
| 33> C  -21.048   26.222   46.251
| 34> C  -20.361   27.558   45.944
| 35> C  -20.329   28.222   47.341
| 36> C  -20.110   27.022   48.296
| 37> O  -20.473   25.807   47.535
| 38> H  -20.833   25.428   45.533
| 39> H  -19.344   27.382   45.576
| 40> H  -20.898   28.157   45.201
| 41> H  -19.543   28.978   47.434
| 42> H  -21.289   28.710   47.548
| 43> H  -20.733   27.082   49.195
| 44> H  -19.064   26.913   48.597
| 45> C  -23.396   25.070   46.435
| 46> H  -23.209   24.490   45.523
| 47> H  -23.081   24.466   47.296
| 48> O  -22.586   26.394   46.375
| 49> C  -24.927   25.307   46.559
| 50> C  -25.485   26.000   45.311
| 51> C  -25.592   24.818   44.318
| 52> C  -25.981   23.627   45.229
| 53> O  -25.641   24.027   46.611
| 54> H  -25.133   25.828   47.496
| 55> H  -26.476   26.417   45.524
| 56> O  -24.574   27.145   44.789
| 57> H  -26.327   24.995   43.526
| 58> H  -24.622   24.639   43.840
| 59> H  -25.438   22.711   44.977
| 60> H  -27.054   23.419   45.209
| 61> H  -23.576   26.750   44.569
| 62> *
| 63>
| 64>                          ****END OF INPUT****
 Total Charge           Charge          ....    0
 Multiplicity           Mult            ....    1
 Number of Electrons    NEL             ....  102
FINAL SINGLE POINT ENERGY      -652.833934601778
FINAL SINGLE POINT ENERGY      -652.859820000005
FINAL SINGLE POINT ENERGY      -652.866469261234
FINAL SINGLE POINT ENERGY      -652.869022842250
FINAL SINGLE POINT ENERGY      -652.870426073126
FINAL SINGLE POINT ENERGY      -652.871288465859
FINAL SINGLE POINT ENERGY      -652.871624382535
FINAL SINGLE POINT ENERGY      -652.871704783175
FINAL SINGLE POINT ENERGY      -652.871716954853
                    ***********************HURRAY********************

CARTESIAN COORDINATES (ANGSTROEM)
---------------------------------
  C    -21.072404   26.109864   46.237077
  C    -20.475557   27.477307   45.908498
  C    -20.508090   28.176646   47.286573
  C    -20.223050   27.023452   48.272085
  O    -20.499669   25.770727   47.516183
  H    -20.825512   25.293141   45.552339
  H    -19.446041   27.340512   45.559319
  H    -21.039317   28.009397   45.139016
  H    -19.771155   28.981548   47.365185
  H    -21.501262   28.600029   47.462002
  H    -20.860993   27.045197   49.158635
  H    -19.175000   26.972634   48.579964
  C    -23.267302   25.006395   46.431868
  H    -23.051555   24.377667   45.556401
  H    -22.960155   24.469529   47.334437
  O    -22.513132   26.263992   46.322871
  C    -24.756424   25.354379   46.511508
  C    -25.337881   26.049879   45.268612
  C    -25.541487   24.847163   44.300161
  C    -25.942279   23.699015   45.248761
  O    -25.521493   24.114657   46.619900
  H    -24.942463   25.925379   47.425190
  H    -26.315127   26.470415   45.532097
  O    -24.544548   27.114604   44.708790
  H    -26.301580   25.060500   43.543897
  H    -24.598488   24.645382   43.780317
  H    -25.458850   22.747517   45.007524
  H    -27.024207   23.543414   45.290767
  H    -23.647974   27.093660   45.118021

 Multiplicity           Mult            ....    1
 Number of Electrons    NEL             ....  102
 Basis Dimension        Dim             ....  149

ORBITAL ENERGIES
----------------

  NO   OCC          E(Eh)            E(eV)
   0   2.0000     -19.167394      -521.5713
   1   2.0000     -19.150775      -521.1191
   2   2.0000     -19.139934      -520.8241
   3   2.0000     -19.114121      -520.1217
   4   2.0000     -10.292181      -280.0645
   5   2.0000     -10.236332      -278.5448
   6   2.0000     -10.234289      -278.4892
   7   2.0000     -10.232933      -278.4523
   8   2.0000     -10.230395      -278.3832
   9   2.0000     -10.226283      -278.2713
  10   2.0000     -10.195587      -277.4360
  11   2.0000     -10.192766      -277.3593
  12   2.0000     -10.179544      -276.9995
  13   2.0000      -1.068636       -29.0791
  14   2.0000      -1.025665       -27.9098
  15   2.0000      -1.008306       -27.4374
  16   2.0000      -0.993383       -27.0313
  17   2.0000      -0.798021       -21.7153
  18   2.0000      -0.772931       -21.0325
  19   2.0000      -0.767723       -20.8908
  20   2.0000      -0.735695       -20.0193
  21   2.0000      -0.677961       -18.4483
  22   2.0000      -0.608050       -16.5459
  23   2.0000      -0.601321       -16.3628
  24   2.0000      -0.593209       -16.1420
  25   2.0000      -0.581338       -15.8190
  26   2.0000      -0.530411       -14.4332
  27   2.0000      -0.521530       -14.1915
  28   2.0000      -0.501917       -13.6579
  29   2.0000      -0.485978       -13.2241
  30   2.0000      -0.474116       -12.9014
  31   2.0000      -0.462035       -12.5726
  32   2.0000      -0.440955       -11.9990
  33   2.0000      -0.429839       -11.6965
  34   2.0000      -0.427811       -11.6413
  35   2.0000      -0.422198       -11.4886
  36   2.0000      -0.409002       -11.1295
  37   2.0000      -0.388152       -10.5621
  38   2.0000      -0.382789       -10.4162
  39   2.0000      -0.368721       -10.0334
  40   2.0000      -0.365501        -9.9458
  41   2.0000      -0.357499        -9.7280
  42   2.0000      -0.352136        -9.5821
  43   2.0000      -0.344062        -9.3624
  44   2.0000      -0.327188        -8.9032
  45   2.0000      -0.314986        -8.5712
  46   2.0000      -0.295148        -8.0314
  47   2.0000      -0.278468        -7.5775
  48   2.0000      -0.264789        -7.2053
  49   2.0000      -0.249585        -6.7916
  50   2.0000      -0.242856        -6.6085
  51   0.0000       0.057843         1.5740
  52   0.0000       0.081824         2.2265
  53   0.0000       0.089176         2.4266
  54   0.0000       0.096764         2.6331
  55   0.0000       0.107775         2.9327

MULLIKEN ATOMIC CHARGES
-----------------------
   0 C :    0.297241
   1 C :   -0.270155
   2 C :   -0.299574
   3 C :   -0.004960
   4 O :   -0.507913
   5 H :    0.150025
   6 H :    0.152966
   7 H :    0.159228
   8 H :    0.146849
   9 H :    0.165441
  10 H :    0.153599
  11 H :    0.147642
  12 C :   -0.013645
  13 H :    0.135146
  14 H :    0.179395
  15 O :   -0.556678
  16 C :    0.050552
  17 C :    0.116097
  18 C :   -0.303191
  19 C :   -0.019542
  20 O :   -0.521243
  21 H :    0.160575
  22 H :    0.146980
  23 O :   -0.642920
  24 H :    0.152904
  25 H :    0.143187
  26 H :    0.140969
  27 H :    0.150239
  28 H :    0.390789
Sum of atomic charges:   -0.0000000

LOEWDIN ATOMIC CHARGES
----------------------
   0 C :    0.174980
   1 C :   -0.215759
   2 C :   -0.215532
   3 C :   -0.026451
   4 O :   -0.322441
   5 H :    0.101469
   6 H :    0.118460
   7 H :    0.123877
   8 H :    0.116666
   9 H :    0.120551
  10 H :    0.109082
  11 H :    0.105667
  12 C :   -0.045596
  13 H :    0.095889
  14 H :    0.121519
  15 O :   -0.336819
  16 C :    0.020000
  17 C :    0.041047
  18 C :   -0.237257
  19 C :   -0.032628
  20 O :   -0.322865
  21 H :    0.116222
  22 H :    0.105004
  23 O :   -0.437581
  24 H :    0.121754
  25 H :    0.110008
  26 H :    0.101619
  27 H :    0.106542
  28 H :    0.282575

  Mayer bond orders larger than 0.100000
B(  0-C ,  1-C ) :   0.9497 B(  0-C ,  4-O ) :   0.9257 B(  0-C ,  5-H ) :   0.9199
B(  0-C , 15-O ) :   0.8161 B(  1-C ,  2-C ) :   0.9543 B(  1-C ,  6-H ) :   0.9388
B(  1-C ,  7-H ) :   0.9351 B(  2-C ,  3-C ) :   0.9546 B(  2-C ,  8-H ) :   0.9446
B(  2-C ,  9-H ) :   0.9439 B(  3-C ,  4-O ) :   0.8293 B(  3-C , 10-H ) :   0.9353
B(  3-C , 11-H ) :   0.9399 B( 12-C , 13-H ) :   0.9199 B( 12-C , 14-H ) :   0.9185
B( 12-C , 15-O ) :   0.7799 B( 12-C , 16-C ) :   0.9103 B( 16-C , 17-C ) :   0.9118
B( 16-C , 20-O ) :   0.8551 B( 16-C , 21-H ) :   0.9295 B( 17-C , 18-C ) :   0.9032
B( 17-C , 22-H ) :   0.9294 B( 17-C , 23-O ) :   0.9329 B( 18-C , 19-C ) :   0.9394
B( 18-C , 24-H ) :   0.9442 B( 18-C , 25-H ) :   0.9433 B( 19-C , 20-O ) :   0.8337
B( 19-C , 26-H ) :   0.9344 B( 19-C , 27-H ) :   0.9383 B( 23-O , 28-H ) :   0.7215

FINAL SINGLE POINT ENERGY      -652.871718589854

DIPOLE MOMENT
-------------
                                X             Y             Z
Electronic contribution:     -1.54943      -1.52811       1.50958
Nuclear contribution   :      2.41204       1.67184      -1.68267
                        -----------------------------------------
Total Dipole Moment    :      0.86261       0.14373      -0.17309
                        -----------------------------------------
Magnitude (a.u.)       :      0.89147
Magnitude (Debye)      :      2.26593

Rotational constants in cm-1:     0.059681     0.013251     0.012002
Rotational constants in MHz :  1789.192639   397.248936   359.813735

                             ****ORCA TERMINATED NORMALLY****
TOTAL RUN TIME: 0 days 0 hours 29 minutes 18 seconds 682 msec
