                         Program Version 4.2.0 -  RELEASE  -
|  1> # Test redundant internal optimization
|  2> #
|  3> ! RKS B3LYP  Opt TightSCF SmallPrint
|  4>
|  5> %basis
|  6>         Basis "6-31G"
|  7> end
|  8>
|  9> %geom
| 10> Constraints
| 11> { D 4  0  15  12  255.0   C } # D for Dihedral angle
| 12> { D 0  15  12  16  210.0   C } # D for Dihedral angle
| 13> { D 0  4  3  2   C } # D for Dihedral angle
| 14> { D 4  3  2  1   C } # D for Dihedral angle
| 15> { D 3  2  1  0   C } # D for Dihedral angle
| 16> { D 2  1  0  4   C } # D for Dihedral angle
| 17> { D 1  0  4  3   C } # D for Dihedral angle
| 18> { D 16  20  19  18   C } # D for Dihedral angle
| 19> { D 20  19  18  17   C } # D for Dihedral angle
| 20> { D 19  18  17  16   C } # D for Dihedral angle
| 21> { D 18  17  16  20   C } # D for Dihedral angle
| 22> { D 17  16  20  19   C } # D for Dihedral angle
| 23> { D 15  12  16  20   C } # D for Dihedral angle
| 24> end
| 25> end
| 26>
| 27>
| 28> #%pal
| 29> #nprocs 8
| 30> #end
| 31>
| 32> * xyz 0 1
| 33> C  -21.048   26.222   46.251
| 34> C  -20.361   27.558   45.944
| 35> C  -20.329   28.222   47.341
| 36> C  -20.110   27.022   48.296
| 37> O  -20.473   25.807   47.535
| 38> H  -20.833   25.428   45.533
| 39> H  -19.344   27.382   45.576
| 40> H  -20.898   28.157   45.201
| 41> H  -19.543   28.978   47.434
| 42> H  -21.289   28.710   47.548
| 43> H  -20.733   27.082   49.195
| 44> H  -19.064   26.913   48.597
| 45> C  -23.431   25.260   45.734
| 46> H  -22.879   24.831   44.888
| 47> H  -23.617   24.460   46.462
| 48> O  -22.586   26.394   46.375
| 49> C  -24.809   25.757   45.215
| 50> C  -25.661   24.594   44.696
| 51> C  -26.202   23.988   46.013
| 52> C  -26.402   25.231   46.915
| 53> O  -25.599   26.319   46.317
| 54> H  -24.651   26.560   44.493
| 55> H  -26.483   24.975   44.079
| 56> O  -24.850   23.573   43.852
| 57> H  -27.128   23.422   45.871
| 58> H  -25.458   23.310   46.448
| 59> H  -26.065   25.061   47.944
| 60> H  -27.441   25.571   46.934
| 61> H  -24.021   23.176   44.449
| 62> *
| 63>
| 64>                          ****END OF INPUT****
 Total Charge           Charge          ....    0
 Multiplicity           Mult            ....    1
 Number of Electrons    NEL             ....  102
FINAL SINGLE POINT ENERGY      -652.827900479171
FINAL SINGLE POINT ENERGY      -652.851813747888
FINAL SINGLE POINT ENERGY      -652.856522185078
FINAL SINGLE POINT ENERGY      -652.857378645369
FINAL SINGLE POINT ENERGY      -652.857535737030
FINAL SINGLE POINT ENERGY      -652.857574733275
FINAL SINGLE POINT ENERGY      -652.857581800688
FINAL SINGLE POINT ENERGY      -652.857583035374
                    ***********************HURRAY********************

CARTESIAN COORDINATES (ANGSTROEM)
---------------------------------
  C    -21.033984   26.152677   46.215953
  C    -20.497315   27.555022   45.926988
  C    -20.538854   28.207520   47.329774
  C    -20.192800   27.030350   48.268566
  O    -20.427471   25.796782   47.478224
  H    -20.751849   25.377770   45.496587
  H    -19.466465   27.481585   45.560341
  H    -21.103349   28.081713   45.187279
  H    -19.836806   29.040830   47.428765
  H    -21.549004   28.575515   47.530939
  H    -20.819985   26.998519   49.162903
  H    -19.139165   27.017409   48.564242
  C    -23.256500   25.160934   45.765548
  H    -22.743248   24.726480   44.894790
  H    -23.386740   24.373403   46.522074
  O    -22.472461   26.243419   46.328407
  C    -24.599697   25.720620   45.306076
  C    -25.544501   24.654405   44.727919
  C    -26.192089   24.065109   46.017292
  C    -26.299286   25.301151   46.937472
  O    -25.370012   26.321974   46.390011
  H    -24.403976   26.529943   44.596962
  H    -26.301580   25.139826   44.107896
  O    -24.920566   23.682031   43.852819
  H    -27.159394   23.596603   45.818146
  H    -25.527897   23.302552   46.446106
  H    -26.022314   25.086311   47.974250
  H    -27.301093   25.741058   46.923891
  H    -24.449600   23.001491   44.375779

 Multiplicity           Mult            ....    1
 Number of Electrons    NEL             ....  102
 Basis Dimension        Dim             ....  149

ORBITAL ENERGIES
----------------

  NO   OCC          E(Eh)            E(eV)
   0   2.0000     -19.151393      -521.1359
   1   2.0000     -19.138416      -520.7828
   2   2.0000     -19.135844      -520.7128
   3   2.0000     -19.132881      -520.6322
   4   2.0000     -10.275203      -279.6025
   5   2.0000     -10.246211      -278.8136
   6   2.0000     -10.230798      -278.3942
   7   2.0000     -10.230208      -278.3781
   8   2.0000     -10.229766      -278.3661
   9   2.0000     -10.218717      -278.0654
  10   2.0000     -10.196748      -277.4676
  11   2.0000     -10.179463      -276.9973
  12   2.0000     -10.178557      -276.9726
  13   2.0000      -1.048665       -28.5356
  14   2.0000      -1.033984       -28.1361
  15   2.0000      -1.015215       -27.6254
  16   2.0000      -0.990230       -26.9455
  17   2.0000      -0.785127       -21.3644
  18   2.0000      -0.780460       -21.2374
  19   2.0000      -0.765863       -20.8402
  20   2.0000      -0.726824       -19.7779
  21   2.0000      -0.678621       -18.4662
  22   2.0000      -0.612510       -16.6673
  23   2.0000      -0.592537       -16.1237
  24   2.0000      -0.587537       -15.9877
  25   2.0000      -0.578336       -15.7373
  26   2.0000      -0.530248       -14.4288
  27   2.0000      -0.510959       -13.9039
  28   2.0000      -0.496026       -13.4976
  29   2.0000      -0.486134       -13.2284
  30   2.0000      -0.466649       -12.6982
  31   2.0000      -0.455599       -12.3975
  32   2.0000      -0.442096       -12.0300
  33   2.0000      -0.436076       -11.8662
  34   2.0000      -0.427183       -11.6242
  35   2.0000      -0.416659       -11.3379
  36   2.0000      -0.404405       -11.0044
  37   2.0000      -0.395594       -10.7647
  38   2.0000      -0.376862       -10.2549
  39   2.0000      -0.368165       -10.0183
  40   2.0000      -0.355071        -9.6620
  41   2.0000      -0.350282        -9.5316
  42   2.0000      -0.343353        -9.3431
  43   2.0000      -0.329156        -8.9568
  44   2.0000      -0.317027        -8.6267
  45   2.0000      -0.314408        -8.5555
  46   2.0000      -0.299059        -8.1378
  47   2.0000      -0.272504        -7.4152
  48   2.0000      -0.262279        -7.1370
  49   2.0000      -0.248834        -6.7711
  50   2.0000      -0.236026        -6.4226
  51   0.0000       0.049214         1.3392
  52   0.0000       0.077940         2.1208
  53   0.0000       0.088342         2.4039
  54   0.0000       0.094622         2.5748
  55   0.0000       0.102619         2.7924

MULLIKEN ATOMIC CHARGES
-----------------------
   0 C :    0.280074
   1 C :   -0.252428
   2 C :   -0.299976
   3 C :    0.000083
   4 O :   -0.507594
   5 H :    0.136076
   6 H :    0.140467
   7 H :    0.150674
   8 H :    0.137757
   9 H :    0.170672
  10 H :    0.149775
  11 H :    0.138205
  12 C :   -0.004319
  13 H :    0.128351
  14 H :    0.130195
  15 O :   -0.507555
  16 C :    0.094500
  17 C :    0.082366
  18 C :   -0.327929
  19 C :   -0.011215
  20 O :   -0.503215
  21 H :    0.158580
  22 H :    0.168644
  23 O :   -0.600976
  24 H :    0.157926
  25 H :    0.135758
  26 H :    0.149318
  27 H :    0.149340
  28 H :    0.356447
Sum of atomic charges:   -0.0000000

LOEWDIN ATOMIC CHARGES
----------------------
   0 C :    0.173023
   1 C :   -0.218238
   2 C :   -0.216322
   3 C :   -0.026596
   4 O :   -0.324894
   5 H :    0.095717
   6 H :    0.111324
   7 H :    0.120696
   8 H :    0.112169
   9 H :    0.123376
  10 H :    0.106901
  11 H :    0.100288
  12 C :   -0.046032
  13 H :    0.096984
  14 H :    0.093297
  15 O :   -0.316794
  16 C :    0.020248
  17 C :    0.034157
  18 C :   -0.242312
  19 C :   -0.029862
  20 O :   -0.312565
  21 H :    0.117472
  22 H :    0.119701
  23 O :   -0.408644
  24 H :    0.122650
  25 H :    0.104684
  26 H :    0.105516
  27 H :    0.105699
  28 H :    0.278358

  Mayer bond orders larger than 0.100000
B(  0-C ,  1-C ) :   0.9449 B(  0-C ,  4-O ) :   0.9233 B(  0-C ,  5-H ) :   0.9178
B(  0-C , 15-O ) :   0.8567 B(  1-C ,  2-C ) :   0.9586 B(  1-C ,  6-H ) :   0.9389
B(  1-C ,  7-H ) :   0.9376 B(  2-C ,  3-C ) :   0.9547 B(  2-C ,  8-H ) :   0.9454
B(  2-C ,  9-H ) :   0.9420 B(  3-C ,  4-O ) :   0.8383 B(  3-C , 10-H ) :   0.9353
B(  3-C , 11-H ) :   0.9402 B( 12-C , 13-H ) :   0.9028 B( 12-C , 14-H ) :   0.9201
B( 12-C , 15-O ) :   0.8488 B( 12-C , 16-C ) :   0.9056 B( 16-C , 17-C ) :   0.8724
B( 16-C , 20-O ) :   0.8736 B( 16-C , 21-H ) :   0.9302 B( 17-C , 18-C ) :   0.9257
B( 17-C , 22-H ) :   0.9331 B( 17-C , 23-O ) :   0.8945 B( 18-C , 19-C ) :   0.9390
B( 18-C , 24-H ) :   0.9413 B( 18-C , 25-H ) :   0.9397 B( 19-C , 20-O ) :   0.8502
B( 19-C , 26-H ) :   0.9308 B( 19-C , 27-H ) :   0.9375 B( 23-O , 28-H ) :   0.7986

FINAL SINGLE POINT ENERGY      -652.857583229879

DIPOLE MOMENT
-------------
                                X             Y             Z
Electronic contribution:     -0.99486      -1.33962      -1.42143
Nuclear contribution   :      0.93536       0.96867       1.47409
                        -----------------------------------------
Total Dipole Moment    :     -0.05950      -0.37095       0.05266
                        -----------------------------------------
Magnitude (a.u.)       :      0.37936
Magnitude (Debye)      :      0.96427

Rotational constants in cm-1:     0.056407     0.011978     0.011184
Rotational constants in MHz :  1691.052603   359.094770   335.301711

                             ****ORCA TERMINATED NORMALLY****
TOTAL RUN TIME: 0 days 0 hours 25 minutes 21 seconds 431 msec
