                         Program Version 4.2.0 -  RELEASE  -
|  1> # Test redundant internal optimization
|  2> #
|  3> ! RKS B3LYP  Opt TightSCF SmallPrint
|  4>
|  5> %basis
|  6>         Basis "6-31G"
|  7> end
|  8>
|  9> %geom
| 10> Constraints
| 11> { D 4  0  15  12  285.0   C } # D for Dihedral angle
| 12> { D 0  15  12  16  270.0   C } # D for Dihedral angle
| 13> { D 0  4  3  2   C } # D for Dihedral angle
| 14> { D 4  3  2  1   C } # D for Dihedral angle
| 15> { D 3  2  1  0   C } # D for Dihedral angle
| 16> { D 2  1  0  4   C } # D for Dihedral angle
| 17> { D 1  0  4  3   C } # D for Dihedral angle
| 18> { D 16  20  19  18   C } # D for Dihedral angle
| 19> { D 20  19  18  17   C } # D for Dihedral angle
| 20> { D 19  18  17  16   C } # D for Dihedral angle
| 21> { D 18  17  16  20   C } # D for Dihedral angle
| 22> { D 17  16  20  19   C } # D for Dihedral angle
| 23> { D 15  12  16  20   C } # D for Dihedral angle
| 24> end
| 25> end
| 26>
| 27>
| 28> #%pal
| 29> #nprocs 8
| 30> #end
| 31>
| 32> * xyz 0 1
| 33> C  -21.048   26.222   46.251
| 34> C  -20.361   27.558   45.944
| 35> C  -20.329   28.222   47.341
| 36> C  -20.110   27.022   48.296
| 37> O  -20.473   25.807   47.535
| 38> H  -20.833   25.428   45.533
| 39> H  -19.344   27.382   45.576
| 40> H  -20.898   28.157   45.201
| 41> H  -19.543   28.978   47.434
| 42> H  -21.289   28.710   47.548
| 43> H  -20.733   27.082   49.195
| 44> H  -19.064   26.913   48.597
| 45> C  -23.396   25.070   46.435
| 46> H  -22.784   24.293   46.911
| 47> H  -24.307   25.204   47.033
| 48> O  -22.586   26.394   46.375
| 49> C  -23.824   24.563   45.030
| 50> C  -24.717   23.322   45.134
| 51> C  -26.084   23.949   45.494
| 52> C  -26.078   25.283   44.708
| 53> O  -24.667   25.559   44.361
| 54> H  -22.934   24.429   44.412
| 55> O  -24.789   22.600   43.761
| 56> H  -24.368   22.603   45.884
| 57> H  -26.930   23.308   45.222
| 58> H  -26.140   24.137   46.573
| 59> H  -26.472   26.119   45.296
| 60> H  -26.634   25.217   43.768
| 61> H  -25.136   23.301   42.994
| 62> *
| 63>
| 64>                          ****END OF INPUT****
 Total Charge           Charge          ....    0
 Multiplicity           Mult            ....    1
 Number of Electrons    NEL             ....  102
FINAL SINGLE POINT ENERGY      -652.836108799312
FINAL SINGLE POINT ENERGY      -652.860138423619
FINAL SINGLE POINT ENERGY      -652.864261687527
FINAL SINGLE POINT ENERGY      -652.865043103670
FINAL SINGLE POINT ENERGY      -652.865160683127
FINAL SINGLE POINT ENERGY      -652.865171249469
                    ***********************HURRAY********************

CARTESIAN COORDINATES (ANGSTROEM)
---------------------------------
  C    -21.109271   26.140951   46.213555
  C    -20.490770   27.505595   45.910107
  C    -20.442304   28.148875   47.313997
  C    -20.144018   26.949332   48.240933
  O    -20.485621   25.734440   47.456914
  H    -20.896580   25.346967   45.491499
  H    -19.482074   27.363518   45.505775
  H    -21.087716   28.073388   45.193858
  H    -19.682035   28.932326   47.392346
  H    -21.416943   28.585420   47.549923
  H    -20.739583   26.957372   49.157315
  H    -19.084332   26.864654   48.499965
  C    -23.325266   25.126046   46.466890
  H    -22.750923   24.343466   46.981545
  H    -24.180526   25.394061   47.094143
  O    -22.530163   26.343304   46.366908
  C    -23.791805   24.632993   45.096430
  C    -24.680268   23.381892   45.161661
  C    -26.067955   23.996562   45.482838
  C    -26.044561   25.337401   44.706468
  O    -24.621668   25.626572   44.408057
  H    -22.924700   24.458351   44.450286
  O    -24.683002   22.678402   43.888943
  H    -24.354359   22.643829   45.895790
  H    -26.869434   23.327193   45.159711
  H    -26.171113   24.160863   46.561226
  H    -26.463527   26.168180   45.282686
  H    -26.570700   25.278489   43.748622
  H    -24.779784   23.331560   43.163609

 Multiplicity           Mult            ....    1
 Number of Electrons    NEL             ....  102
 Basis Dimension        Dim             ....  149

ORBITAL ENERGIES
----------------

  NO   OCC          E(Eh)            E(eV)
   0   2.0000     -19.141684      -520.8717
   1   2.0000     -19.141220      -520.8591
   2   2.0000     -19.140403      -520.8368
   3   2.0000     -19.137202      -520.7497
   4   2.0000     -10.275559      -279.6122
   5   2.0000     -10.244414      -278.7647
   6   2.0000     -10.234859      -278.5047
   7   2.0000     -10.231203      -278.4052
   8   2.0000     -10.229511      -278.3591
   9   2.0000     -10.222559      -278.1700
  10   2.0000     -10.191519      -277.3253
  11   2.0000     -10.181585      -277.0550
  12   2.0000     -10.181138      -277.0429
  13   2.0000      -1.052310       -28.6348
  14   2.0000      -1.036552       -28.2060
  15   2.0000      -1.007049       -27.4032
  16   2.0000      -0.990600       -26.9556
  17   2.0000      -0.788961       -21.4687
  18   2.0000      -0.781063       -21.2538
  19   2.0000      -0.765427       -20.8283
  20   2.0000      -0.730341       -19.8736
  21   2.0000      -0.672756       -18.3066
  22   2.0000      -0.606034       -16.4910
  23   2.0000      -0.601823       -16.3764
  24   2.0000      -0.594108       -16.1665
  25   2.0000      -0.573544       -15.6069
  26   2.0000      -0.528139       -14.3714
  27   2.0000      -0.510188       -13.8829
  28   2.0000      -0.492106       -13.3909
  29   2.0000      -0.490897       -13.3580
  30   2.0000      -0.472613       -12.8605
  31   2.0000      -0.454377       -12.3642
  32   2.0000      -0.453495       -12.3402
  33   2.0000      -0.436656       -11.8820
  34   2.0000      -0.427446       -11.6314
  35   2.0000      -0.408403       -11.1132
  36   2.0000      -0.399085       -10.8597
  37   2.0000      -0.394554       -10.7364
  38   2.0000      -0.373486       -10.1631
  39   2.0000      -0.368851       -10.0370
  40   2.0000      -0.357523        -9.7287
  41   2.0000      -0.353109        -9.6086
  42   2.0000      -0.344800        -9.3825
  43   2.0000      -0.334240        -9.0951
  44   2.0000      -0.326076        -8.8730
  45   2.0000      -0.308588        -8.3971
  46   2.0000      -0.296174        -8.0593
  47   2.0000      -0.274377        -7.4662
  48   2.0000      -0.271594        -7.3904
  49   2.0000      -0.251637        -6.8474
  50   2.0000      -0.238548        -6.4912
  51   0.0000       0.064909         1.7663
  52   0.0000       0.088001         2.3946
  53   0.0000       0.090179         2.4539
  54   0.0000       0.096060         2.6139
  55   0.0000       0.102894         2.7999

MULLIKEN ATOMIC CHARGES
-----------------------
   0 C :    0.277277
   1 C :   -0.259146
   2 C :   -0.299734
   3 C :   -0.002091
   4 O :   -0.514556
   5 H :    0.141426
   6 H :    0.143316
   7 H :    0.163850
   8 H :    0.140005
   9 H :    0.164586
  10 H :    0.145472
  11 H :    0.141554
  12 C :   -0.023962
  13 H :    0.150696
  14 H :    0.148876
  15 O :   -0.499471
  16 C :    0.061374
  17 C :    0.074987
  18 C :   -0.301454
  19 C :   -0.029361
  20 O :   -0.509895
  21 H :    0.158952
  22 O :   -0.599051
  23 H :    0.154613
  24 H :    0.163448
  25 H :    0.147463
  26 H :    0.149824
  27 H :    0.146406
  28 H :    0.364597
Sum of atomic charges:   -0.0000000

LOEWDIN ATOMIC CHARGES
----------------------
   0 C :    0.169230
   1 C :   -0.213970
   2 C :   -0.216170
   3 C :   -0.027402
   4 O :   -0.332689
   5 H :    0.095110
   6 H :    0.113178
   7 H :    0.127555
   8 H :    0.112832
   9 H :    0.120246
  10 H :    0.104675
  11 H :    0.102109
  12 C :   -0.047027
  13 H :    0.109271
  14 H :    0.111558
  15 O :   -0.313855
  16 C :    0.006043
  17 C :    0.034523
  18 C :   -0.242411
  19 C :   -0.038439
  20 O :   -0.323456
  21 H :    0.112964
  22 O :   -0.413413
  23 H :    0.116533
  24 H :    0.126932
  25 H :    0.114209
  26 H :    0.105990
  27 H :    0.102589
  28 H :    0.283283

  Mayer bond orders larger than 0.100000
B(  0-C ,  1-C ) :   0.9498 B(  0-C ,  4-O ) :   0.9009 B(  0-C ,  5-H ) :   0.9165
B(  0-C , 15-O ) :   0.8678 B(  1-C ,  2-C ) :   0.9565 B(  1-C ,  6-H ) :   0.9408
B(  1-C ,  7-H ) :   0.9348 B(  2-C ,  3-C ) :   0.9556 B(  2-C ,  8-H ) :   0.9454
B(  2-C ,  9-H ) :   0.9439 B(  3-C ,  4-O ) :   0.8371 B(  3-C , 10-H ) :   0.9361
B(  3-C , 11-H ) :   0.9405 B( 12-C , 13-H ) :   0.9095 B( 12-C , 14-H ) :   0.9387
B( 12-C , 15-O ) :   0.8540 B( 12-C , 16-C ) :   0.8821 B( 16-C , 17-C ) :   0.8973
B( 16-C , 20-O ) :   0.8646 B( 16-C , 21-H ) :   0.9239 B( 17-C , 18-C ) :   0.9119
B( 17-C , 22-O ) :   0.8954 B( 17-C , 23-H ) :   0.9322 B( 18-C , 19-C ) :   0.9408
B( 18-C , 24-H ) :   0.9372 B( 18-C , 25-H ) :   0.9341 B( 19-C , 20-O ) :   0.8503
B( 19-C , 26-H ) :   0.9340 B( 19-C , 27-H ) :   0.9373 B( 22-O , 28-H ) :   0.7943

FINAL SINGLE POINT ENERGY      -652.865173161386

DIPOLE MOMENT
-------------
                                X             Y             Z
Electronic contribution:     -0.25677      -2.70279      -2.43005
Nuclear contribution   :      0.00452       3.16336       2.77668
                        -----------------------------------------
Total Dipole Moment    :     -0.25225       0.46057       0.34664
                        -----------------------------------------
Magnitude (a.u.)       :      0.62921
Magnitude (Debye)      :      1.59934

Rotational constants in cm-1:     0.066536     0.011422     0.010998
Rotational constants in MHz :  1994.699339   342.436611   329.699235

                             ****ORCA TERMINATED NORMALLY****
TOTAL RUN TIME: 0 days 0 hours 15 minutes 12 seconds 457 msec
