                         Program Version 4.2.0 -  RELEASE  -
|  1> # Test redundant internal optimization
|  2> #
|  3> ! RKS B3LYP  Opt TightSCF SmallPrint
|  4>
|  5> %basis
|  6>         Basis "6-31G"
|  7> end
|  8>
|  9> %geom
| 10> Constraints
| 11> { D 4  0  15  12  0.0   C } # D for Dihedral angle
| 12> { D 0  15  12  16  270.0   C } # D for Dihedral angle
| 13> { D 0  4  3  2   C } # D for Dihedral angle
| 14> { D 4  3  2  1   C } # D for Dihedral angle
| 15> { D 3  2  1  0   C } # D for Dihedral angle
| 16> { D 2  1  0  4   C } # D for Dihedral angle
| 17> { D 1  0  4  3   C } # D for Dihedral angle
| 18> { D 16  20  19  18   C } # D for Dihedral angle
| 19> { D 20  19  18  17   C } # D for Dihedral angle
| 20> { D 19  18  17  16   C } # D for Dihedral angle
| 21> { D 18  17  16  20   C } # D for Dihedral angle
| 22> { D 17  16  20  19   C } # D for Dihedral angle
| 23> { D 15  12  16  20   C } # D for Dihedral angle
| 24> end
| 25> end
| 26>
| 27>
| 28> #%pal
| 29> #nprocs 8
| 30> #end
| 31>
| 32> * xyz 0 1
| 33> C  -21.048   26.222   46.251
| 34> C  -20.361   27.558   45.944
| 35> C  -20.329   28.222   47.341
| 36> C  -20.110   27.022   48.296
| 37> O  -20.473   25.807   47.535
| 38> H  -20.833   25.428   45.533
| 39> H  -19.344   27.382   45.576
| 40> H  -20.898   28.157   45.201
| 41> H  -19.543   28.978   47.434
| 42> H  -21.289   28.710   47.548
| 43> H  -20.733   27.082   49.195
| 44> H  -19.064   26.913   48.597
| 45> C  -23.172   26.101   47.783
| 46> H  -22.423   26.348   48.546
| 47> H  -24.062   26.717   47.965
| 48> O  -22.586   26.394   46.375
| 49> C  -23.581   24.613   47.966
| 50> C  -24.563   24.168   46.875
| 51> C  -23.612   23.920   45.680
| 52> C  -22.334   23.366   46.356
| 53> O  -22.420   23.736   47.786
| 54> H  -23.941   24.463   48.985
| 55> H  -25.059   23.238   47.173
| 56> O  -25.654   25.229   46.566
| 57> H  -24.029   23.226   44.943
| 58> H  -23.398   24.865   45.166
| 59> H  -21.417   23.787   45.931
| 60> H  -22.276   22.274   46.310
| 61> H  -25.179   26.169   46.265
| 62> *
| 63>
| 64>                          ****END OF INPUT****
 Total Charge           Charge          ....    0
 Multiplicity           Mult            ....    1
 Number of Electrons    NEL             ....  102
FINAL SINGLE POINT ENERGY      -652.820594856842
FINAL SINGLE POINT ENERGY      -652.845907785403
FINAL SINGLE POINT ENERGY      -652.854252395421
FINAL SINGLE POINT ENERGY      -652.856759180020
FINAL SINGLE POINT ENERGY      -652.857090792216
FINAL SINGLE POINT ENERGY      -652.857157335871
FINAL SINGLE POINT ENERGY      -652.857162154176
                    ***********************HURRAY********************

CARTESIAN COORDINATES (ANGSTROEM)
---------------------------------
  C    -21.036342   26.359167   46.315003
  C    -20.440291   27.737000   46.027045
  C    -20.263674   28.312292   47.453148
  C    -19.890713   27.068214   48.287715
  O    -20.312063   25.895396   47.467715
  H    -20.871801   25.619844   45.527977
  H    -19.471138   27.612949   45.529808
  H    -21.091098   28.343848   45.393882
  H    -19.494242   29.088928   47.500676
  H    -21.206326   28.748939   47.799052
  H    -20.397536   27.021248   49.255267
  H    -18.812943   26.964760   48.442021
  C    -23.137683   26.120721   47.744102
  H    -22.482154   26.360664   48.586345
  H    -24.025869   26.757914   47.793728
  O    -22.485140   26.465150   46.485491
  C    -23.579957   24.659192   47.881502
  C    -24.600617   24.205039   46.822156
  C    -23.673577   23.750102   45.652107
  C    -22.463988   23.147817   46.400962
  O    -22.522842   23.666311   47.789684
  H    -23.999491   24.563934   48.891138
  H    -25.188960   23.368104   47.204472
  O    -25.576657   25.209781   46.453457
  H    -24.165106   23.029600   44.991831
  H    -23.383309   24.629514   45.070335
  H    -21.501174   23.424874   45.963008
  H    -22.518247   22.056370   46.470095
  H    -25.138062   25.907328   45.922279

 Multiplicity           Mult            ....    1
 Number of Electrons    NEL             ....  102
 Basis Dimension        Dim             ....  149

ORBITAL ENERGIES
----------------

  NO   OCC          E(Eh)            E(eV)
   0   2.0000     -19.150379      -521.1083
   1   2.0000     -19.143747      -520.9278
   2   2.0000     -19.136214      -520.7228
   3   2.0000     -19.129728      -520.5464
   4   2.0000     -10.283138      -279.8184
   5   2.0000     -10.233120      -278.4573
   6   2.0000     -10.232323      -278.4357
   7   2.0000     -10.228160      -278.3224
   8   2.0000     -10.223769      -278.2029
   9   2.0000     -10.220045      -278.1016
  10   2.0000     -10.193067      -277.3675
  11   2.0000     -10.188602      -277.2460
  12   2.0000     -10.178941      -276.9831
  13   2.0000      -1.056163       -28.7396
  14   2.0000      -1.023582       -27.8531
  15   2.0000      -1.005909       -27.3722
  16   2.0000      -0.993444       -27.0330
  17   2.0000      -0.792695       -21.5703
  18   2.0000      -0.770358       -20.9625
  19   2.0000      -0.764792       -20.8110
  20   2.0000      -0.733807       -19.9679
  21   2.0000      -0.675660       -18.3856
  22   2.0000      -0.606222       -16.4961
  23   2.0000      -0.601302       -16.3622
  24   2.0000      -0.599074       -16.3016
  25   2.0000      -0.557456       -15.1692
  26   2.0000      -0.528602       -14.3840
  27   2.0000      -0.507591       -13.8123
  28   2.0000      -0.496060       -13.4985
  29   2.0000      -0.486747       -13.2451
  30   2.0000      -0.470841       -12.8122
  31   2.0000      -0.460904       -12.5418
  32   2.0000      -0.435899       -11.8614
  33   2.0000      -0.430465       -11.7135
  34   2.0000      -0.421414       -11.4673
  35   2.0000      -0.413453       -11.2506
  36   2.0000      -0.403213       -10.9720
  37   2.0000      -0.389351       -10.5948
  38   2.0000      -0.376403       -10.2424
  39   2.0000      -0.372832       -10.1453
  40   2.0000      -0.362207        -9.8561
  41   2.0000      -0.354995        -9.6599
  42   2.0000      -0.346630        -9.4323
  43   2.0000      -0.332211        -9.0399
  44   2.0000      -0.320847        -8.7307
  45   2.0000      -0.309169        -8.4129
  46   2.0000      -0.300050        -8.1648
  47   2.0000      -0.265754        -7.2315
  48   2.0000      -0.262248        -7.1361
  49   2.0000      -0.257027        -6.9941
  50   2.0000      -0.228431        -6.2159
  51   0.0000       0.065982         1.7955
  52   0.0000       0.084026         2.2865
  53   0.0000       0.092892         2.5277
  54   0.0000       0.094787         2.5793
  55   0.0000       0.105768         2.8781

MULLIKEN ATOMIC CHARGES
-----------------------
   0 C :    0.312990
   1 C :   -0.258893
   2 C :   -0.306011
   3 C :   -0.022674
   4 O :   -0.495988
   5 H :    0.147737
   6 H :    0.146188
   7 H :    0.156612
   8 H :    0.148725
   9 H :    0.153848
  10 H :    0.150007
  11 H :    0.152969
  12 C :   -0.033159
  13 H :    0.150555
  14 H :    0.151197
  15 O :   -0.558570
  16 C :    0.105739
  17 C :    0.089050
  18 C :   -0.321635
  19 C :   -0.010066
  20 O :   -0.510662
  21 H :    0.140817
  22 H :    0.159744
  23 O :   -0.609228
  24 H :    0.145617
  25 H :    0.159244
  26 H :    0.144561
  27 H :    0.144892
  28 H :    0.366395
Sum of atomic charges:   -0.0000000

LOEWDIN ATOMIC CHARGES
----------------------
   0 C :    0.183295
   1 C :   -0.220491
   2 C :   -0.219624
   3 C :   -0.033036
   4 O :   -0.305000
   5 H :    0.099000
   6 H :    0.114344
   7 H :    0.123690
   8 H :    0.117934
   9 H :    0.114174
  10 H :    0.103859
  11 H :    0.108123
  12 C :   -0.047963
  13 H :    0.107740
  14 H :    0.113569
  15 O :   -0.355116
  16 C :    0.010970
  17 C :    0.036151
  18 C :   -0.244556
  19 C :   -0.027364
  20 O :   -0.314156
  21 H :    0.111543
  22 H :    0.115050
  23 O :   -0.412660
  24 H :    0.115754
  25 H :    0.117523
  26 H :    0.101401
  27 H :    0.102474
  28 H :    0.283373

  Mayer bond orders larger than 0.100000
B(  0-C ,  1-C ) :   0.9324 B(  0-C ,  4-O ) :   0.9287 B(  0-C ,  5-H ) :   0.9243
B(  0-C , 15-O ) :   0.8215 B(  1-C ,  2-C ) :   0.9541 B(  1-C ,  6-H ) :   0.9352
B(  1-C ,  7-H ) :   0.9364 B(  2-C ,  3-C ) :   0.9508 B(  2-C ,  8-H ) :   0.9445
B(  2-C ,  9-H ) :   0.9457 B(  3-C ,  4-O ) :   0.8321 B(  3-C , 10-H ) :   0.9296
B(  3-C , 11-H ) :   0.9396 B( 12-C , 13-H ) :   0.9211 B( 12-C , 14-H ) :   0.9197
B( 12-C , 15-O ) :   0.8452 B( 12-C , 16-C ) :   0.8862 B( 16-C , 17-C ) :   0.8859
B( 16-C , 20-O ) :   0.8863 B( 16-C , 21-H ) :   0.9232 B( 17-C , 18-C ) :   0.9294
B( 17-C , 22-H ) :   0.9377 B( 17-C , 23-O ) :   0.8984 B( 18-C , 19-C ) :   0.9438
B( 18-C , 24-H ) :   0.9416 B( 18-C , 25-H ) :   0.9298 B( 19-C , 20-O ) :   0.8410
B( 19-C , 26-H ) :   0.9258 B( 19-C , 27-H ) :   0.9378 B( 23-O , 28-H ) :   0.7915

FINAL SINGLE POINT ENERGY      -652.857161232293

DIPOLE MOMENT
-------------
                                X             Y             Z
Electronic contribution:     -2.49281      -2.97278       0.91473
Nuclear contribution   :      3.21447       3.89338      -1.27007
                        -----------------------------------------
Total Dipole Moment    :      0.72166       0.92060      -0.35534
                        -----------------------------------------
Magnitude (a.u.)       :      1.22252
Magnitude (Debye)      :      3.10741

Rotational constants in cm-1:     0.050894     0.016879     0.015597
Rotational constants in MHz :  1525.766993   506.012662   467.578112

                             ****ORCA TERMINATED NORMALLY****
TOTAL RUN TIME: 0 days 0 hours 24 minutes 6 seconds 484 msec
