                         Program Version 4.2.1 -  RELEASE  -
|  1> # Test redundant internal optimization
|  2> #
|  3> ! RKS B3LYP  Opt TightSCF SmallPrint
|  4>
|  5> %basis
|  6>         Basis "6-31G"
|  7> end
|  8>
|  9> %geom
| 10> Constraints
| 11> { D 4  0  19  14  285.0   C } # D for Dihedral angle
| 12> { D 0  19  14  12  45.0   C } # D for Dihedral angle
| 13> { D 0  4  3  2   C } # D for Dihedral angle
| 14> { D 4  3  2  1   C } # D for Dihedral angle
| 15> { D 3  2  1  0   C } # D for Dihedral angle
| 16> { D 2  1  0  4   C } # D for Dihedral angle
| 17> { D 1  0  4  3   C } # D for Dihedral angle
| 18> { D 14  15  16  17   C } # D for Dihedral angle
| 19> { D 15  16  17  12   C } # D for Dihedral angle
| 20> { D 16  17  12  14   C } # D for Dihedral angle
| 21> { D 17  12  14  15   C } # D for Dihedral angle
| 22> { D 12  14  15  16   C } # D for Dihedral angle
| 23> end
| 24> end
| 25>
| 26>
| 27> #%pal
| 28> #nprocs 8
| 29> #end
| 30>
| 31> * xyz 0 1
| 32> C  -21.048   26.222   46.251
| 33> C  -20.361   27.558   45.944
| 34> C  -20.329   28.222   47.341
| 35> C  -20.110   27.022   48.296
| 36> O  -20.473   25.807   47.535
| 37> H  -20.833   25.428   45.533
| 38> H  -19.344   27.382   45.576
| 39> H  -20.898   28.157   45.201
| 40> H  -19.543   28.978   47.434
| 41> H  -21.289   28.710   47.548
| 42> H  -20.733   27.082   49.195
| 43> H  -19.064   26.913   48.597
| 44> C  -22.517   24.170   47.383
| 45> H  -22.872   23.139   47.230
| 46> C  -23.203   25.146   46.420
| 47> C  -24.574   25.352   47.106
| 48> C  -24.225   25.298   48.615
| 49> O  -22.898   24.651   48.716
| 50> H  -21.427   24.183   47.339
| 51> O  -22.472   26.381   46.366
| 52> H  -23.293   24.752   45.402
| 53> H  -25.054   26.293   46.822
| 54> H  -25.256   24.535   46.839
| 55> H  -24.952   24.719   49.195
| 56> H  -24.131   26.295   49.058
| 57> *
| 58>
| 59>                          ****END OF INPUT****
 Total Charge           Charge          ....    0
 Multiplicity           Mult            ....    1
 Number of Electrons    NEL             ....   86
FINAL SINGLE POINT ENERGY      -538.425514114796
FINAL SINGLE POINT ENERGY      -538.433784616245
FINAL SINGLE POINT ENERGY      -538.435309876698
FINAL SINGLE POINT ENERGY      -538.435691156419
FINAL SINGLE POINT ENERGY      -538.435714406904
FINAL SINGLE POINT ENERGY      -538.435722375891
                    ***********************HURRAY********************

CARTESIAN COORDINATES (ANGSTROEM)
---------------------------------
  C    -20.926099   26.193180   46.249057
  C    -20.417193   27.604089   45.952012
  C    -20.430597   28.250342   47.357792
  C    -20.042750   27.073852   48.283615
  O    -20.281559   25.840682   47.493068
  H    -20.645468   25.420111   45.525960
  H    -19.396369   27.544682   45.557173
  H    -21.050063   28.124058   45.230313
  H    -19.735803   29.091556   47.440847
  H    -21.438616   28.606293   47.587838
  H    -20.646111   27.021388   49.192121
  H    -18.981400   27.074052   48.549292
  C    -22.629180   24.007373   47.408471
  H    -23.136563   23.052521   47.203980
  C    -23.156653   25.071590   46.446472
  C    -24.500976   25.441406   47.099912
  C    -24.206637   25.326289   48.615449
  O    -22.978547   24.514377   48.739676
  H    -21.549596   23.868814   47.400172
  O    -22.362418   26.297061   46.356153
  H    -23.281159   24.668986   45.430886
  H    -24.818326   26.442604   46.798929
  H    -25.266846   24.722260   46.787897
  H    -25.020562   24.838741   49.164053
  H    -23.999508   26.298694   49.070864

 Multiplicity           Mult            ....    1
 Number of Electrons    NEL             ....   86
 Basis Dimension        Dim             ....  127

ORBITAL ENERGIES
----------------

  NO   OCC          E(Eh)            E(eV)
   0   2.0000     -19.140832      -520.8485
   1   2.0000     -19.135417      -520.7012
   2   2.0000     -19.122699      -520.3551
   3   2.0000     -10.276586      -279.6401
   4   2.0000     -10.237156      -278.5672
   5   2.0000     -10.219270      -278.0805
   6   2.0000     -10.216214      -277.9973
   7   2.0000     -10.214036      -277.9381
   8   2.0000     -10.182680      -277.0848
   9   2.0000     -10.182086      -277.0686
  10   2.0000     -10.181240      -277.0456
  11   2.0000      -1.050740       -28.5921
  12   2.0000      -1.007414       -27.4131
  13   2.0000      -0.987263       -26.8648
  14   2.0000      -0.790092       -21.4995
  15   2.0000      -0.772851       -21.0304
  16   2.0000      -0.732213       -19.9245
  17   2.0000      -0.719841       -19.5879
  18   2.0000      -0.610304       -16.6072
  19   2.0000      -0.596329       -16.2269
  20   2.0000      -0.589204       -16.0331
  21   2.0000      -0.567847       -15.4519
  22   2.0000      -0.518289       -14.1034
  23   2.0000      -0.497873       -13.5478
  24   2.0000      -0.482445       -13.1280
  25   2.0000      -0.473796       -12.8926
  26   2.0000      -0.446301       -12.1445
  27   2.0000      -0.440234       -11.9794
  28   2.0000      -0.428872       -11.6702
  29   2.0000      -0.406643       -11.0653
  30   2.0000      -0.399936       -10.8828
  31   2.0000      -0.380492       -10.3537
  32   2.0000      -0.366441        -9.9714
  33   2.0000      -0.361945        -9.8490
  34   2.0000      -0.354459        -9.6453
  35   2.0000      -0.352041        -9.5795
  36   2.0000      -0.339972        -9.2511
  37   2.0000      -0.324773        -8.8375
  38   2.0000      -0.298275        -8.1165
  39   2.0000      -0.293455        -7.9853
  40   2.0000      -0.263787        -7.1780
  41   2.0000      -0.247818        -6.7435
  42   2.0000      -0.229050        -6.2328
  43   0.0000       0.082168         2.2359
  44   0.0000       0.098818         2.6890
  45   0.0000       0.100411         2.7323
  46   0.0000       0.118868         3.2346
  47   0.0000       0.125260         3.4085

MULLIKEN ATOMIC CHARGES
-----------------------
   0 C :    0.286000
   1 C :   -0.259359
   2 C :   -0.298322
   3 C :   -0.000753
   4 O :   -0.507101
   5 H :    0.137757
   6 H :    0.143131
   7 H :    0.154727
   8 H :    0.138680
   9 H :    0.160140
  10 H :    0.160329
  11 H :    0.140149
  12 C :   -0.016039
  13 H :    0.118567
  14 C :    0.083673
  15 C :   -0.290793
  16 C :   -0.000142
  17 O :   -0.517840
  18 H :    0.189256
  19 O :   -0.525459
  20 H :    0.124655
  21 H :    0.159106
  22 H :    0.138864
  23 H :    0.133920
  24 H :    0.146857
Sum of atomic charges:   -0.0000000

LOEWDIN ATOMIC CHARGES
----------------------
   0 C :    0.171805
   1 C :   -0.213719
   2 C :   -0.215736
   3 C :   -0.026161
   4 O :   -0.322531
   5 H :    0.093854
   6 H :    0.112759
   7 H :    0.122761
   8 H :    0.112351
   9 H :    0.118064
  10 H :    0.112282
  11 H :    0.101727
  12 C :   -0.052205
  13 H :    0.090089
  14 C :    0.040016
  15 C :   -0.223517
  16 C :   -0.029997
  17 O :   -0.328035
  18 H :    0.131226
  19 O :   -0.327791
  20 H :    0.094009
  21 H :    0.126396
  22 H :    0.111275
  23 H :    0.097025
  24 H :    0.104052

  Mayer bond orders larger than 0.100000
B(  0-C ,  1-C ) :   0.9513 B(  0-C ,  4-O ) :   0.9032 B(  0-C ,  5-H ) :   0.9205
B(  0-C , 19-O ) :   0.8565 B(  1-C ,  2-C ) :   0.9576 B(  1-C ,  6-H ) :   0.9408
B(  1-C ,  7-H ) :   0.9372 B(  2-C ,  3-C ) :   0.9546 B(  2-C ,  8-H ) :   0.9452
B(  2-C ,  9-H ) :   0.9446 B(  3-C ,  4-O ) :   0.8306 B(  3-C , 10-H ) :   0.9326
B(  3-C , 11-H ) :   0.9405 B( 12-C , 13-H ) :   0.9083 B( 12-C , 14-C ) :   0.9185
B( 12-C , 17-O ) :   0.8654 B( 12-C , 18-H ) :   0.9135 B( 14-C , 15-C ) :   0.9569
B( 14-C , 19-O ) :   0.8368 B( 14-C , 20-H ) :   0.9230 B( 15-C , 16-C ) :   0.9458
B( 15-C , 21-H ) :   0.9375 B( 15-C , 22-H ) :   0.9415 B( 16-C , 17-O ) :   0.8629
B( 16-C , 23-H ) :   0.9327 B( 16-C , 24-H ) :   0.9369

FINAL SINGLE POINT ENERGY      -538.435722856209

DIPOLE MOMENT
-------------
                                X             Y             Z
Electronic contribution:      0.78251      -2.67640       0.23300
Nuclear contribution   :     -1.01275       3.17806      -0.99620
                        -----------------------------------------
Total Dipole Moment    :     -0.23024       0.50166      -0.76319
                        -----------------------------------------
Magnitude (a.u.)       :      0.94188
Magnitude (Debye)      :      2.39406

Rotational constants in cm-1:     0.069024     0.025515     0.023853
Rotational constants in MHz :  2069.300778   764.933581   715.098563

                             ****ORCA TERMINATED NORMALLY****
TOTAL RUN TIME: 0 days 0 hours 7 minutes 35 seconds 295 msec
