                         Program Version 4.2.1 -  RELEASE  -
|  1> # Test redundant internal optimization
|  2> #
|  3> ! RKS B3LYP  Opt TightSCF SmallPrint
|  4>
|  5> %basis
|  6>         Basis "6-31G"
|  7> end
|  8>
|  9> %geom
| 10> Constraints
| 11> { D 4  0  19  14  240.0   C } # D for Dihedral angle
| 12> { D 0  19  14  12  195.0   C } # D for Dihedral angle
| 13> { D 0  4  3  2   C } # D for Dihedral angle
| 14> { D 4  3  2  1   C } # D for Dihedral angle
| 15> { D 3  2  1  0   C } # D for Dihedral angle
| 16> { D 2  1  0  4   C } # D for Dihedral angle
| 17> { D 1  0  4  3   C } # D for Dihedral angle
| 18> { D 14  15  16  17   C } # D for Dihedral angle
| 19> { D 15  16  17  12   C } # D for Dihedral angle
| 20> { D 16  17  12  14   C } # D for Dihedral angle
| 21> { D 17  12  14  15   C } # D for Dihedral angle
| 22> { D 12  14  15  16   C } # D for Dihedral angle
| 23> end
| 24> end
| 25>
| 26>
| 27> #%pal
| 28> #nprocs 8
| 29> #end
| 30>
| 31> * xyz 0 1
| 32> C  -21.048   26.222   46.251
| 33> C  -20.361   27.558   45.944
| 34> C  -20.329   28.222   47.341
| 35> C  -20.110   27.022   48.296
| 36> O  -20.473   25.807   47.535
| 37> H  -20.833   25.428   45.533
| 38> H  -19.344   27.382   45.576
| 39> H  -20.898   28.157   45.201
| 40> H  -19.543   28.978   47.434
| 41> H  -21.289   28.710   47.548
| 42> H  -20.733   27.082   49.195
| 43> H  -19.064   26.913   48.597
| 44> C  -24.685   26.023   45.417
| 45> H  -25.350   25.248   45.005
| 46> C  -23.235   25.530   45.496
| 47> C  -22.769   25.689   44.030
| 48> C  -23.513   26.963   43.559
| 49> O  -24.624   27.178   44.513
| 50> H  -25.093   26.380   46.363
| 51> O  -22.472   26.381   46.366
| 52> H  -23.151   24.500   45.859
| 53> H  -21.682   25.781   43.937
| 54> H  -23.082   24.819   43.438
| 55> H  -23.923   26.862   42.548
| 56> H  -22.880   27.855   43.597
| 57> *
| 58>
| 59>                          ****END OF INPUT****
 Total Charge           Charge          ....    0
 Multiplicity           Mult            ....    1
 Number of Electrons    NEL             ....   86
FINAL SINGLE POINT ENERGY      -538.425568075360
FINAL SINGLE POINT ENERGY      -538.430364440420
FINAL SINGLE POINT ENERGY      -538.430681621439
FINAL SINGLE POINT ENERGY      -538.430741285181
FINAL SINGLE POINT ENERGY      -538.430750572179
FINAL SINGLE POINT ENERGY      -538.430752673861
                    ***********************HURRAY********************

CARTESIAN COORDINATES (ANGSTROEM)
---------------------------------
  C    -20.925128   26.215902   46.222530
  C    -20.325627   27.602344   45.986362
  C    -20.410185   28.230993   47.397930
  C    -20.151382   27.025688   48.328984
  O    -20.392699   25.815897   47.503638
  H    -20.629054   25.442934   45.509326
  H    -19.281342   27.500300   45.666864
  H    -20.876350   28.168426   45.232190
  H    -19.684749   29.036495   47.544924
  H    -21.415153   28.632234   47.558052
  H    -20.820464   27.000422   49.192818
  H    -19.113982   26.968938   48.672708
  C    -24.600041   26.121474   45.477800
  H    -25.359651   25.394932   45.154607
  C    -23.202805   25.502885   45.435403
  C    -22.864957   25.600541   43.936814
  C    -23.531893   26.928747   43.504490
  O    -24.524288   27.254079   44.549455
  H    -24.851416   26.515729   46.462593
  O    -22.366931   26.333527   46.298365
  H    -23.184500   24.466457   45.798127
  H    -21.792827   25.578059   43.725752
  H    -23.319034   24.746906   43.420501
  H    -24.037919   26.845646   42.536284
  H    -22.821621   27.760446   43.462485

 Multiplicity           Mult            ....    1
 Number of Electrons    NEL             ....   86
 Basis Dimension        Dim             ....  127

ORBITAL ENERGIES
----------------

  NO   OCC          E(Eh)            E(eV)
   0   2.0000     -19.138565      -520.7868
   1   2.0000     -19.135148      -520.6938
   2   2.0000     -19.129711      -520.5459
   3   2.0000     -10.277767      -279.6723
   4   2.0000     -10.242919      -278.7240
   5   2.0000     -10.225560      -278.2516
   6   2.0000     -10.222473      -278.1676
   7   2.0000     -10.220974      -278.1268
   8   2.0000     -10.193083      -277.3679
   9   2.0000     -10.182973      -277.0928
  10   2.0000     -10.181724      -277.0588
  11   2.0000      -1.050148       -28.5760
  12   2.0000      -1.015156       -27.6238
  13   2.0000      -0.987674       -26.8760
  14   2.0000      -0.789939       -21.4953
  15   2.0000      -0.777734       -21.1632
  16   2.0000      -0.746289       -20.3076
  17   2.0000      -0.718829       -19.5603
  18   2.0000      -0.613511       -16.6945
  19   2.0000      -0.600885       -16.3509
  20   2.0000      -0.595019       -16.1913
  21   2.0000      -0.570823       -15.5329
  22   2.0000      -0.524410       -14.2699
  23   2.0000      -0.502579       -13.6759
  24   2.0000      -0.484613       -13.1870
  25   2.0000      -0.480372       -13.0716
  26   2.0000      -0.456248       -12.4151
  27   2.0000      -0.441080       -12.0024
  28   2.0000      -0.424225       -11.5437
  29   2.0000      -0.420283       -11.4365
  30   2.0000      -0.400100       -10.8873
  31   2.0000      -0.382355       -10.4044
  32   2.0000      -0.380538       -10.3550
  33   2.0000      -0.369906       -10.0656
  34   2.0000      -0.361448        -9.8355
  35   2.0000      -0.353380        -9.6160
  36   2.0000      -0.345009        -9.3882
  37   2.0000      -0.314275        -8.5519
  38   2.0000      -0.305632        -8.3167
  39   2.0000      -0.298877        -8.1329
  40   2.0000      -0.264324        -7.1926
  41   2.0000      -0.244143        -6.6435
  42   2.0000      -0.236420        -6.4333
  43   0.0000       0.074471         2.0265
  44   0.0000       0.091346         2.4856
  45   0.0000       0.097483         2.6527
  46   0.0000       0.104869         2.8536
  47   0.0000       0.116189         3.1617

MULLIKEN ATOMIC CHARGES
-----------------------
   0 C :    0.282805
   1 C :   -0.255966
   2 C :   -0.300104
   3 C :   -0.000937
   4 O :   -0.507107
   5 H :    0.139543
   6 H :    0.139393
   7 H :    0.152338
   8 H :    0.139698
   9 H :    0.168359
  10 H :    0.150768
  11 H :    0.138873
  12 C :   -0.002168
  13 H :    0.126820
  14 C :    0.080797
  15 C :   -0.311642
  16 C :    0.000236
  17 O :   -0.517533
  18 H :    0.171792
  19 O :   -0.515434
  20 H :    0.138538
  21 H :    0.148128
  22 H :    0.147782
  23 H :    0.137791
  24 H :    0.147229
Sum of atomic charges:   -0.0000000

LOEWDIN ATOMIC CHARGES
----------------------
   0 C :    0.173709
   1 C :   -0.221364
   2 C :   -0.215944
   3 C :   -0.026460
   4 O :   -0.318337
   5 H :    0.097386
   6 H :    0.110706
   7 H :    0.118999
   8 H :    0.113238
   9 H :    0.122263
  10 H :    0.107264
  11 H :    0.100747
  12 C :   -0.032895
  13 H :    0.092368
  14 C :    0.042387
  15 C :   -0.240609
  16 C :   -0.029634
  17 O :   -0.328308
  18 H :    0.125404
  19 O :   -0.326761
  20 H :    0.100358
  21 H :    0.116501
  22 H :    0.117072
  23 H :    0.099503
  24 H :    0.102408

  Mayer bond orders larger than 0.100000
B(  0-C ,  1-C ) :   0.9401 B(  0-C ,  4-O ) :   0.9238 B(  0-C ,  5-H ) :   0.9173
B(  0-C , 19-O ) :   0.8437 B(  1-C ,  2-C ) :   0.9574 B(  1-C ,  6-H ) :   0.9372
B(  1-C ,  7-H ) :   0.9348 B(  2-C ,  3-C ) :   0.9544 B(  2-C ,  8-H ) :   0.9452
B(  2-C ,  9-H ) :   0.9423 B(  3-C ,  4-O ) :   0.8387 B(  3-C , 10-H ) :   0.9349
B(  3-C , 11-H ) :   0.9400 B( 12-C , 13-H ) :   0.9157 B( 12-C , 14-C ) :   0.9341
B( 12-C , 17-O ) :   0.8665 B( 12-C , 18-H ) :   0.9300 B( 14-C , 15-C ) :   0.9318
B( 14-C , 19-O ) :   0.8407 B( 14-C , 20-H ) :   0.9205 B( 15-C , 16-C ) :   0.9423
B( 15-C , 21-H ) :   0.9333 B( 15-C , 22-H ) :   0.9359 B( 16-C , 17-O ) :   0.8639
B( 16-C , 23-H ) :   0.9322 B( 16-C , 24-H ) :   0.9336

FINAL SINGLE POINT ENERGY      -538.430753097808

DIPOLE MOMENT
-------------
                                X             Y             Z
Electronic contribution:     -1.84023      -1.70422       1.62909
Nuclear contribution   :      2.39783       1.50997      -2.22296
                        -----------------------------------------
Total Dipole Moment    :      0.55760      -0.19424      -0.59388
                        -----------------------------------------
Magnitude (a.u.)       :      0.83746
Magnitude (Debye)      :      2.12865

Rotational constants in cm-1:     0.078794     0.021016     0.020420
Rotational constants in MHz :  2362.170701   630.050069   612.178565

                             ****ORCA TERMINATED NORMALLY****
TOTAL RUN TIME: 0 days 0 hours 6 minutes 48 seconds 195 msec
