                         Program Version 4.2.0 -  RELEASE  -
|  1> # Test redundant internal optimization
|  2> #
|  3> ! RKS B3LYP  Opt TightSCF SmallPrint
|  4>
|  5> %basis
|  6>         Basis "6-31G"
|  7> end
|  8>
|  9> %geom
| 10> Constraints
| 11> { D 4  0  15  12  0.0   C } # D for Dihedral angle
| 12> { D 0  15  12  16  225.0   C } # D for Dihedral angle
| 13> { D 0  4  3  2   C } # D for Dihedral angle
| 14> { D 4  3  2  1   C } # D for Dihedral angle
| 15> { D 3  2  1  0   C } # D for Dihedral angle
| 16> { D 2  1  0  4   C } # D for Dihedral angle
| 17> { D 1  0  4  3   C } # D for Dihedral angle
| 18> { D 16  20  19  18   C } # D for Dihedral angle
| 19> { D 20  19  18  17   C } # D for Dihedral angle
| 20> { D 19  18  17  16   C } # D for Dihedral angle
| 21> { D 18  17  16  20   C } # D for Dihedral angle
| 22> { D 17  16  20  19   C } # D for Dihedral angle
| 23> { D 15  12  16  20   C } # D for Dihedral angle
| 24> end
| 25> end
| 26>
| 27>
| 28> #%pal
| 29> #nprocs 8
| 30> #end
| 31>
| 32> * xyz 0 1
| 33> C  -21.048   26.222   46.251
| 34> C  -20.361   27.558   45.944
| 35> C  -20.329   28.222   47.341
| 36> C  -20.110   27.022   48.296
| 37> O  -20.473   25.807   47.535
| 38> H  -20.833   25.428   45.533
| 39> H  -19.344   27.382   45.576
| 40> H  -20.898   28.157   45.201
| 41> H  -19.543   28.978   47.434
| 42> H  -21.289   28.710   47.548
| 43> H  -20.733   27.082   49.195
| 44> H  -19.064   26.913   48.597
| 45> C  -23.172   26.101   47.783
| 46> H  -22.422   25.572   48.385
| 47> H  -23.425   27.037   48.297
| 48> O  -22.586   26.394   46.375
| 49> C  -24.457   25.229   47.730
| 50> C  -25.523   25.865   46.829
| 51> C  -25.015   25.476   45.420
| 52> C  -24.402   24.070   45.642
| 53> O  -24.174   23.937   47.098
| 54> H  -24.792   25.022   48.748
| 55> O  -26.909   25.221   47.109
| 56> H  -25.612   26.948   46.964
| 57> H  -25.811   25.469   44.668
| 58> H  -24.247   26.184   45.088
| 59> H  -23.451   23.939   45.116
| 60> H  -25.083   23.266   45.348
| 61> H  -26.844   24.135   46.979
| 62> *
| 63>
| 64>                          ****END OF INPUT****
 Total Charge           Charge          ....    0
 Multiplicity           Mult            ....    1
 Number of Electrons    NEL             ....  102
FINAL SINGLE POINT ENERGY      -652.834895082684
FINAL SINGLE POINT ENERGY      -652.856883755282
FINAL SINGLE POINT ENERGY      -652.861107281880
FINAL SINGLE POINT ENERGY      -652.862158801595
FINAL SINGLE POINT ENERGY      -652.862264696740
FINAL SINGLE POINT ENERGY      -652.862280199542
                    ***********************HURRAY********************

CARTESIAN COORDINATES (ANGSTROEM)
---------------------------------
  C    -21.076853   26.211099   46.367588
  C    -20.445641   27.554630   46.002537
  C    -20.309251   28.228052   47.388481
  C    -19.989016   27.043509   48.325228
  O    -20.401948   25.819109   47.578642
  H    -20.911706   25.408043   45.647087
  H    -19.462159   27.381494   45.550204
  H    -21.064691   28.122690   45.305017
  H    -19.528310   28.994268   47.409350
  H    -21.255812   28.702673   47.667601
  H    -20.534699   27.076539   49.271871
  H    -18.920338   26.933791   48.527644
  C    -23.164090   26.115398   47.788370
  H    -22.467175   25.576918   48.436045
  H    -23.424618   27.076173   48.257235
  O    -22.528309   26.360753   46.501650
  C    -24.425942   25.268286   47.627320
  C    -25.541737   25.845948   46.743710
  C    -25.074491   25.422255   45.326494
  C    -24.417513   24.042138   45.574555
  O    -24.133674   23.966252   47.027185
  H    -24.815787   25.072408   48.634239
  O    -26.830382   25.266844   47.099169
  H    -25.674094   26.923323   46.851164
  H    -25.921612   25.375154   44.636379
  H    -24.335615   26.137400   44.960264
  H    -23.479930   23.922217   45.025362
  H    -25.081424   23.205263   45.333074
  H    -26.733182   24.293374   47.166537

 Multiplicity           Mult            ....    1
 Number of Electrons    NEL             ....  102
 Basis Dimension        Dim             ....  149

ORBITAL ENERGIES
----------------

  NO   OCC          E(Eh)            E(eV)
   0   2.0000     -19.155532      -521.2485
   1   2.0000     -19.141545      -520.8679
   2   2.0000     -19.133385      -520.6459
   3   2.0000     -19.130115      -520.5569
   4   2.0000     -10.283561      -279.8299
   5   2.0000     -10.236463      -278.5483
   6   2.0000     -10.231654      -278.4175
   7   2.0000     -10.228291      -278.3259
   8   2.0000     -10.226802      -278.2854
   9   2.0000     -10.219449      -278.0853
  10   2.0000     -10.195205      -277.4256
  11   2.0000     -10.189711      -277.2761
  12   2.0000     -10.172064      -276.7959
  13   2.0000      -1.059043       -28.8180
  14   2.0000      -1.028240       -27.9798
  15   2.0000      -1.000145       -27.2153
  16   2.0000      -0.991150       -26.9706
  17   2.0000      -0.795327       -21.6419
  18   2.0000      -0.774415       -21.0729
  19   2.0000      -0.761131       -20.7114
  20   2.0000      -0.735454       -20.0127
  21   2.0000      -0.670500       -18.2452
  22   2.0000      -0.608276       -16.5520
  23   2.0000      -0.599988       -16.3265
  24   2.0000      -0.592295       -16.1172
  25   2.0000      -0.566603       -15.4180
  26   2.0000      -0.525340       -14.2952
  27   2.0000      -0.509788       -13.8720
  28   2.0000      -0.496157       -13.5011
  29   2.0000      -0.486425       -13.2363
  30   2.0000      -0.471906       -12.8412
  31   2.0000      -0.460412       -12.5285
  32   2.0000      -0.447528       -12.1778
  33   2.0000      -0.437684       -11.9100
  34   2.0000      -0.420810       -11.4508
  35   2.0000      -0.408086       -11.1046
  36   2.0000      -0.398152       -10.8343
  37   2.0000      -0.383302       -10.4302
  38   2.0000      -0.376045       -10.2327
  39   2.0000      -0.368850       -10.0369
  40   2.0000      -0.364490        -9.9183
  41   2.0000      -0.357885        -9.7385
  42   2.0000      -0.348780        -9.4908
  43   2.0000      -0.335688        -9.1345
  44   2.0000      -0.322592        -8.7782
  45   2.0000      -0.307107        -8.3568
  46   2.0000      -0.294642        -8.0176
  47   2.0000      -0.271146        -7.3783
  48   2.0000      -0.264331        -7.1928
  49   2.0000      -0.253993        -6.9115
  50   2.0000      -0.235540        -6.4094
  51   0.0000       0.068785         1.8717
  52   0.0000       0.078536         2.1371
  53   0.0000       0.096595         2.6285
  54   0.0000       0.101725         2.7681
  55   0.0000       0.108259         2.9459

MULLIKEN ATOMIC CHARGES
-----------------------
   0 C :    0.305834
   1 C :   -0.255676
   2 C :   -0.310410
   3 C :   -0.017041
   4 O :   -0.506715
   5 H :    0.160061
   6 H :    0.145418
   7 H :    0.158392
   8 H :    0.149688
   9 H :    0.156473
  10 H :    0.146442
  11 H :    0.154026
  12 C :   -0.012709
  13 H :    0.180875
  14 H :    0.119283
  15 O :   -0.546810
  16 C :    0.071601
  17 C :    0.076120
  18 C :   -0.291704
  19 C :   -0.015245
  20 O :   -0.525193
  21 H :    0.150965
  22 O :   -0.603813
  23 H :    0.149418
  24 H :    0.147623
  25 H :    0.174143
  26 H :    0.143739
  27 H :    0.134180
  28 H :    0.361034
Sum of atomic charges:    0.0000000

LOEWDIN ATOMIC CHARGES
----------------------
   0 C :    0.185281
   1 C :   -0.220941
   2 C :   -0.219502
   3 C :   -0.031987
   4 O :   -0.311971
   5 H :    0.107106
   6 H :    0.114265
   7 H :    0.124501
   8 H :    0.118466
   9 H :    0.114989
  10 H :    0.103953
  11 H :    0.109109
  12 C :   -0.044144
  13 H :    0.123200
  14 H :    0.091084
  15 O :   -0.346203
  16 C :    0.012770
  17 C :    0.037385
  18 C :   -0.243910
  19 C :   -0.031968
  20 O :   -0.329308
  21 H :    0.113777
  22 O :   -0.418552
  23 H :    0.114736
  24 H :    0.117825
  25 H :    0.129991
  26 H :    0.103916
  27 H :    0.095261
  28 H :    0.280871

  Mayer bond orders larger than 0.100000
B(  0-C ,  1-C ) :   0.9312 B(  0-C ,  4-O ) :   0.9175 B(  0-C ,  5-H ) :   0.9290
B(  0-C , 15-O ) :   0.8314 B(  1-C ,  2-C ) :   0.9525 B(  1-C ,  6-H ) :   0.9347
B(  1-C ,  7-H ) :   0.9362 B(  2-C ,  3-C ) :   0.9529 B(  2-C ,  8-H ) :   0.9447
B(  2-C ,  9-H ) :   0.9453 B(  3-C ,  4-O ) :   0.8274 B(  3-C , 10-H ) :   0.9335
B(  3-C , 11-H ) :   0.9404 B( 12-C , 13-H ) :   0.9017 B( 12-C , 14-H ) :   0.9156
B( 12-C , 15-O ) :   0.8437 B( 12-C , 16-C ) :   0.8995 B( 16-C , 17-C ) :   0.9109
B( 16-C , 20-O ) :   0.8720 B( 16-C , 21-H ) :   0.9212 B( 17-C , 18-C ) :   0.9249
B( 17-C , 22-O ) :   0.8891 B( 17-C , 23-H ) :   0.9357 B( 18-C , 19-C ) :   0.9474
B( 18-C , 24-H ) :   0.9371 B( 18-C , 25-H ) :   0.9181 B( 19-C , 20-O ) :   0.8422
B( 19-C , 26-H ) :   0.9349 B( 19-C , 27-H ) :   0.9373 B( 22-O , 28-H ) :   0.7970

FINAL SINGLE POINT ENERGY      -652.862280769328

DIPOLE MOMENT
-------------
                                X             Y             Z
Electronic contribution:     -2.73063      -4.26783       1.14613
Nuclear contribution   :      3.70434       5.21355      -1.32469
                        -----------------------------------------
Total Dipole Moment    :      0.97371       0.94572      -0.17856
                        -----------------------------------------
Magnitude (a.u.)       :      1.36908
Magnitude (Debye)      :      3.47992

Rotational constants in cm-1:     0.061336     0.013457     0.013309
Rotational constants in MHz :  1838.818606   403.423152   398.998108

                             ****ORCA TERMINATED NORMALLY****
TOTAL RUN TIME: 0 days 0 hours 13 minutes 36 seconds 551 msec
