                         Program Version 4.2.0 -  RELEASE  -
|  1> # Test redundant internal optimization
|  2> #
|  3> ! RKS B3LYP  Opt TightSCF SmallPrint
|  4>
|  5> %basis
|  6>         Basis "6-31G"
|  7> end
|  8>
|  9> %geom
| 10> Constraints
| 11> { D 4  0  15  12  30.0   C } # D for Dihedral angle
| 12> { D 0  15  12  16  270.0   C } # D for Dihedral angle
| 13> { D 0  4  3  2   C } # D for Dihedral angle
| 14> { D 4  3  2  1   C } # D for Dihedral angle
| 15> { D 3  2  1  0   C } # D for Dihedral angle
| 16> { D 2  1  0  4   C } # D for Dihedral angle
| 17> { D 1  0  4  3   C } # D for Dihedral angle
| 18> { D 16  20  19  18   C } # D for Dihedral angle
| 19> { D 20  19  18  17   C } # D for Dihedral angle
| 20> { D 19  18  17  16   C } # D for Dihedral angle
| 21> { D 18  17  16  20   C } # D for Dihedral angle
| 22> { D 17  16  20  19   C } # D for Dihedral angle
| 23> { D 15  12  16  20   C } # D for Dihedral angle
| 24> end
| 25> end
| 26>
| 27>
| 28> #%pal
| 29> #nprocs 8
| 30> #end
| 31>
| 32> * xyz 0 1
| 33> C  -21.048   26.222   46.251
| 34> C  -20.361   27.558   45.944
| 35> C  -20.329   28.222   47.341
| 36> C  -20.110   27.022   48.296
| 37> O  -20.473   25.807   47.535
| 38> H  -20.833   25.428   45.533
| 39> H  -19.344   27.382   45.576
| 40> H  -20.898   28.157   45.201
| 41> H  -19.543   28.978   47.434
| 42> H  -21.289   28.710   47.548
| 43> H  -20.733   27.082   49.195
| 44> H  -19.064   26.913   48.597
| 45> C  -23.091   26.824   47.779
| 46> H  -22.323   27.436   48.269
| 47> H  -24.005   27.426   47.691
| 48> O  -22.586   26.394   46.375
| 49> C  -23.410   25.613   48.700
| 50> C  -24.414   24.661   48.039
| 51> C  -23.506   23.876   47.063
| 52> C  -22.170   23.764   47.838
| 53> O  -22.212   24.792   48.901
| 54> H  -23.715   25.980   49.681
| 55> O  -25.025   23.709   49.103
| 56> H  -25.233   25.182   47.531
| 57> H  -23.916   22.898   46.794
| 58> H  -23.367   24.447   46.136
| 59> H  -21.297   23.941   47.201
| 60> H  -22.055   22.795   48.333
| 61> H  -24.223   23.176   49.625
| 62> *
| 63>
| 64>                          ****END OF INPUT****
 Total Charge           Charge          ....    0
 Multiplicity           Mult            ....    1
 Number of Electrons    NEL             ....  102
FINAL SINGLE POINT ENERGY      -652.808733747669
FINAL SINGLE POINT ENERGY      -652.839864730784
FINAL SINGLE POINT ENERGY      -652.853179659323
FINAL SINGLE POINT ENERGY      -652.855665445381
FINAL SINGLE POINT ENERGY      -652.856061498934
FINAL SINGLE POINT ENERGY      -652.856133401318
FINAL SINGLE POINT ENERGY      -652.856137799520
                    ***********************HURRAY********************

CARTESIAN COORDINATES (ANGSTROEM)
---------------------------------
  C    -21.051838   26.424060   46.277514
  C    -20.423492   27.783540   45.958663
  C    -20.135263   28.349570   47.376355
  C    -19.756825   27.078840   48.175868
  O    -20.272101   25.934807   47.379116
  H    -20.958838   25.693553   45.472613
  H    -19.489229   27.626877   45.406728
  H    -21.086485   28.414606   45.362783
  H    -19.327876   29.088502   47.375353
  H    -21.027528   28.832810   47.786317
  H    -20.204624   27.029446   49.170991
  H    -18.674673   26.940694   48.257675
  C    -23.147013   26.750844   47.761435
  H    -22.544031   27.423113   48.383197
  H    -24.073197   27.276759   47.502894
  O    -22.493869   26.509022   46.482386
  C    -23.510151   25.522497   48.612154
  C    -24.479022   24.537663   47.943012
  C    -23.510662   23.640253   47.127354
  C    -22.258469   23.568191   48.037707
  O    -22.373948   24.695250   48.993907
  H    -23.950951   25.909084   49.539531
  O    -25.218481   23.781172   48.945402
  H    -25.242244   25.018229   47.330124
  H    -23.956407   22.661939   46.930780
  H    -23.277024   24.133286   46.180523
  H    -21.319657   23.683586   47.494752
  H    -22.222350   22.649290   48.632853
  H    -24.586750   23.437519   49.612010

 Multiplicity           Mult            ....    1
 Number of Electrons    NEL             ....  102
 Basis Dimension        Dim             ....  149

ORBITAL ENERGIES
----------------

  NO   OCC          E(Eh)            E(eV)
   0   2.0000     -19.148105      -521.0464
   1   2.0000     -19.141600      -520.8694
   2   2.0000     -19.131892      -520.6052
   3   2.0000     -19.129158      -520.5308
   4   2.0000     -10.282565      -279.8028
   5   2.0000     -10.234191      -278.4865
   6   2.0000     -10.230773      -278.3935
   7   2.0000     -10.230162      -278.3769
   8   2.0000     -10.228007      -278.3182
   9   2.0000     -10.213804      -277.9317
  10   2.0000     -10.193965      -277.3919
  11   2.0000     -10.188228      -277.2358
  12   2.0000     -10.172068      -276.7960
  13   2.0000      -1.054183       -28.6858
  14   2.0000      -1.026884       -27.9429
  15   2.0000      -0.998227       -27.1631
  16   2.0000      -0.992382       -27.0041
  17   2.0000      -0.790435       -21.5088
  18   2.0000      -0.775780       -21.1100
  19   2.0000      -0.760616       -20.6974
  20   2.0000      -0.733505       -19.9597
  21   2.0000      -0.673395       -18.3240
  22   2.0000      -0.605277       -16.4704
  23   2.0000      -0.603823       -16.4309
  24   2.0000      -0.591174       -16.0867
  25   2.0000      -0.562493       -15.3062
  26   2.0000      -0.523696       -14.2505
  27   2.0000      -0.507898       -13.8206
  28   2.0000      -0.494310       -13.4509
  29   2.0000      -0.482110       -13.1189
  30   2.0000      -0.471578       -12.8323
  31   2.0000      -0.458951       -12.4887
  32   2.0000      -0.443806       -12.0766
  33   2.0000      -0.430958       -11.7269
  34   2.0000      -0.420219       -11.4347
  35   2.0000      -0.415267       -11.3000
  36   2.0000      -0.396002       -10.7758
  37   2.0000      -0.382326       -10.4036
  38   2.0000      -0.379812       -10.3352
  39   2.0000      -0.365113        -9.9352
  40   2.0000      -0.360617        -9.8129
  41   2.0000      -0.356822        -9.7096
  42   2.0000      -0.347634        -9.4596
  43   2.0000      -0.327840        -8.9210
  44   2.0000      -0.318415        -8.6645
  45   2.0000      -0.308811        -8.4032
  46   2.0000      -0.293992        -7.9999
  47   2.0000      -0.266287        -7.2460
  48   2.0000      -0.261468        -7.1149
  49   2.0000      -0.256261        -6.9732
  50   2.0000      -0.228311        -6.2127
  51   0.0000       0.067804         1.8450
  52   0.0000       0.080939         2.2025
  53   0.0000       0.093503         2.5443
  54   0.0000       0.102104         2.7784
  55   0.0000       0.107637         2.9289

MULLIKEN ATOMIC CHARGES
-----------------------
   0 C :    0.306782
   1 C :   -0.262552
   2 C :   -0.319358
   3 C :   -0.012179
   4 O :   -0.500963
   5 H :    0.158855
   6 H :    0.148191
   7 H :    0.155530
   8 H :    0.148992
   9 H :    0.151108
  10 H :    0.161146
  11 H :    0.149880
  12 C :   -0.008903
  13 H :    0.132568
  14 H :    0.149183
  15 O :   -0.543233
  16 C :    0.085094
  17 C :    0.078940
  18 C :   -0.297424
  19 C :   -0.019163
  20 O :   -0.523248
  21 H :    0.144798
  22 O :   -0.607333
  23 H :    0.149423
  24 H :    0.147574
  25 H :    0.168100
  26 H :    0.166676
  27 H :    0.130279
  28 H :    0.361236
Sum of atomic charges:   -0.0000000

LOEWDIN ATOMIC CHARGES
----------------------
   0 C :    0.179582
   1 C :   -0.224013
   2 C :   -0.223091
   3 C :   -0.031601
   4 O :   -0.306245
   5 H :    0.108281
   6 H :    0.115838
   7 H :    0.122292
   8 H :    0.117635
   9 H :    0.110125
  10 H :    0.110742
  11 H :    0.106593
  12 C :   -0.035787
  13 H :    0.097230
  14 H :    0.113607
  15 O :   -0.342571
  16 C :    0.006338
  17 C :    0.037100
  18 C :   -0.242757
  19 C :   -0.035220
  20 O :   -0.325398
  21 H :    0.112589
  22 O :   -0.419814
  23 H :    0.114291
  24 H :    0.118669
  25 H :    0.125942
  26 H :    0.114784
  27 H :    0.094109
  28 H :    0.280750

  Mayer bond orders larger than 0.100000
B(  0-C ,  1-C ) :   0.9263 B(  0-C ,  4-O ) :   0.9176 B(  0-C ,  5-H ) :   0.9342
B(  0-C , 15-O ) :   0.8454 B(  1-C ,  2-C ) :   0.9543 B(  1-C ,  6-H ) :   0.9348
B(  1-C ,  7-H ) :   0.9375 B(  2-C ,  3-C ) :   0.9490 B(  2-C ,  8-H ) :   0.9441
B(  2-C ,  9-H ) :   0.9416 B(  3-C ,  4-O ) :   0.8270 B(  3-C , 10-H ) :   0.9284
B(  3-C , 11-H ) :   0.9392 B( 12-C , 13-H ) :   0.9160 B( 12-C , 14-H ) :   0.9292
B( 12-C , 15-O ) :   0.8569 B( 12-C , 16-C ) :   0.8760 B( 16-C , 17-C ) :   0.9091
B( 16-C , 20-O ) :   0.8842 B( 16-C , 21-H ) :   0.9163 B( 17-C , 18-C ) :   0.9244
B( 17-C , 22-O ) :   0.8873 B( 17-C , 23-H ) :   0.9361 B( 18-C , 19-C ) :   0.9445
B( 18-C , 24-H ) :   0.9376 B( 18-C , 25-H ) :   0.9214 B( 19-C , 20-O ) :   0.8316
B( 19-C , 26-H ) :   0.9221 B( 19-C , 27-H ) :   0.9395 B( 22-O , 28-H ) :   0.7967

FINAL SINGLE POINT ENERGY      -652.856136583177

DIPOLE MOMENT
-------------
                                X             Y             Z
Electronic contribution:     -2.47553      -3.13856       1.39630
Nuclear contribution   :      3.29824       4.07584      -1.68246
                        -----------------------------------------
Total Dipole Moment    :      0.82271       0.93728      -0.28617
                        -----------------------------------------
Magnitude (a.u.)       :      1.27955
Magnitude (Debye)      :      3.25235

Rotational constants in cm-1:     0.059196     0.016075     0.015564
Rotational constants in MHz :  1774.643847   481.920946   466.583574

                             ****ORCA TERMINATED NORMALLY****
TOTAL RUN TIME: 0 days 0 hours 23 minutes 23 seconds 689 msec
