                         Program Version 4.2.0 -  RELEASE  -
|  1> # Test redundant internal optimization
|  2> #
|  3> ! RKS B3LYP  Opt TightSCF SmallPrint
|  4>
|  5> %basis
|  6>         Basis "6-31G"
|  7> end
|  8>
|  9> %geom
| 10> Constraints
| 11> { D 4  0  15  12  315.0   C } # D for Dihedral angle
| 12> { D 0  15  12  16  240.0   C } # D for Dihedral angle
| 13> { D 0  4  3  2   C } # D for Dihedral angle
| 14> { D 4  3  2  1   C } # D for Dihedral angle
| 15> { D 3  2  1  0   C } # D for Dihedral angle
| 16> { D 2  1  0  4   C } # D for Dihedral angle
| 17> { D 1  0  4  3   C } # D for Dihedral angle
| 18> { D 16  20  19  18   C } # D for Dihedral angle
| 19> { D 20  19  18  17   C } # D for Dihedral angle
| 20> { D 19  18  17  16   C } # D for Dihedral angle
| 21> { D 18  17  16  20   C } # D for Dihedral angle
| 22> { D 17  16  20  19   C } # D for Dihedral angle
| 23> { D 15  12  16  20   C } # D for Dihedral angle
| 24> end
| 25> end
| 26>
| 27>
| 28> #%pal
| 29> #nprocs 8
| 30> #end
| 31>
| 32> * xyz 0 1
| 33> C  -21.048   26.222   46.251
| 34> C  -20.361   27.558   45.944
| 35> C  -20.329   28.222   47.341
| 36> C  -20.110   27.022   48.296
| 37> O  -20.473   25.807   47.535
| 38> H  -20.833   25.428   45.533
| 39> H  -19.344   27.382   45.576
| 40> H  -20.898   28.157   45.201
| 41> H  -19.543   28.978   47.434
| 42> H  -21.289   28.710   47.548
| 43> H  -20.733   27.082   49.195
| 44> H  -19.064   26.913   48.597
| 45> C  -23.319   25.255   47.135
| 46> H  -22.584   24.510   47.466
| 47> H  -23.829   25.651   48.022
| 48> O  -22.586   26.394   46.375
| 49> C  -24.382   24.536   46.259
| 50> C  -23.730   23.805   45.080
| 51> C  -23.200   22.521   45.762
| 52> C  -24.278   22.220   46.833
| 53> O  -25.042   23.472   47.024
| 54> H  -25.155   25.252   45.976
| 55> O  -24.802   23.455   44.012
| 56> H  -22.939   24.387   44.596
| 57> H  -23.066   21.692   45.060
| 58> H  -22.230   22.720   46.235
| 59> H  -23.844   21.915   47.791
| 60> H  -24.988   21.456   46.507
| 61> H  -25.606   22.870   44.474
| 62> *
| 63>
| 64>                          ****END OF INPUT****
 Total Charge           Charge          ....    0
 Multiplicity           Mult            ....    1
 Number of Electrons    NEL             ....  102
FINAL SINGLE POINT ENERGY      -652.840146582171
FINAL SINGLE POINT ENERGY      -652.862888920968
FINAL SINGLE POINT ENERGY      -652.866624705671
FINAL SINGLE POINT ENERGY      -652.867273521098
FINAL SINGLE POINT ENERGY      -652.867358941475
FINAL SINGLE POINT ENERGY      -652.867371175313
                    ***********************HURRAY********************

CARTESIAN COORDINATES (ANGSTROEM)
---------------------------------
  C    -21.066855   26.125875   46.290832
  C    -20.482282   27.493806   45.941514
  C    -20.456062   28.185589   47.321640
  C    -20.131436   27.030407   48.293638
  O    -20.440444   25.777253   47.547564
  H    -20.822636   25.310375   45.602271
  H    -19.470252   27.361970   45.542484
  H    -21.090750   28.023560   45.205705
  H    -19.716449   28.990486   47.374274
  H    -21.441974   28.606389   47.538241
  H    -20.730513   27.052513   49.207310
  H    -19.071367   26.977913   48.557469
  C    -23.223451   25.257851   47.158233
  H    -22.517679   24.540464   47.589268
  H    -23.743505   25.753025   47.983400
  O    -22.503002   26.282431   46.400205
  C    -24.252271   24.569184   46.258968
  C    -23.669935   23.796041   45.066678
  C    -23.203417   22.480372   45.743157
  C    -24.275102   22.247980   46.837575
  O    -24.959671   23.547862   47.041461
  H    -24.998273   25.294511   45.922448
  O    -24.691409   23.549923   44.060187
  H    -22.876339   24.332709   44.548957
  H    -23.154321   21.667400   45.014195
  H    -22.208424   22.609141   46.182699
  H    -23.845630   21.919330   47.788826
  H    -25.039331   21.526045   46.532413
  H    -25.522220   23.281594   44.506389

 Multiplicity           Mult            ....    1
 Number of Electrons    NEL             ....  102
 Basis Dimension        Dim             ....  149

ORBITAL ENERGIES
----------------

  NO   OCC          E(Eh)            E(eV)
   0   2.0000     -19.148561      -521.0588
   1   2.0000     -19.144900      -520.9592
   2   2.0000     -19.143090      -520.9100
   3   2.0000     -19.134641      -520.6801
   4   2.0000     -10.282659      -279.8054
   5   2.0000     -10.236880      -278.5597
   6   2.0000     -10.230480      -278.3855
   7   2.0000     -10.230310      -278.3809
   8   2.0000     -10.229836      -278.3680
   9   2.0000     -10.224655      -278.2270
  10   2.0000     -10.188285      -277.2373
  11   2.0000     -10.187712      -277.2217
  12   2.0000     -10.186908      -277.1999
  13   2.0000      -1.057334       -28.7715
  14   2.0000      -1.034709       -28.1559
  15   2.0000      -1.003393       -27.3037
  16   2.0000      -0.994971       -27.0745
  17   2.0000      -0.792872       -21.5752
  18   2.0000      -0.777263       -21.1504
  19   2.0000      -0.765782       -20.8380
  20   2.0000      -0.733020       -19.9465
  21   2.0000      -0.673066       -18.3150
  22   2.0000      -0.603319       -16.4171
  23   2.0000      -0.601615       -16.3708
  24   2.0000      -0.592848       -16.1322
  25   2.0000      -0.579185       -15.7604
  26   2.0000      -0.520061       -14.1516
  27   2.0000      -0.519434       -14.1345
  28   2.0000      -0.498864       -13.5748
  29   2.0000      -0.490066       -13.3354
  30   2.0000      -0.470662       -12.8074
  31   2.0000      -0.458070       -12.4647
  32   2.0000      -0.449835       -12.2406
  33   2.0000      -0.433981       -11.8092
  34   2.0000      -0.421264       -11.4632
  35   2.0000      -0.413491       -11.2517
  36   2.0000      -0.406103       -11.0506
  37   2.0000      -0.391333       -10.6487
  38   2.0000      -0.376364       -10.2414
  39   2.0000      -0.366878        -9.9833
  40   2.0000      -0.361255        -9.8302
  41   2.0000      -0.353626        -9.6226
  42   2.0000      -0.351062        -9.5529
  43   2.0000      -0.337070        -9.1722
  44   2.0000      -0.328809        -8.9473
  45   2.0000      -0.305597        -8.3157
  46   2.0000      -0.299714        -8.1556
  47   2.0000      -0.274055        -7.4574
  48   2.0000      -0.267580        -7.2812
  49   2.0000      -0.261508        -7.1160
  50   2.0000      -0.240215        -6.5366
  51   0.0000       0.067030         1.8240
  52   0.0000       0.073093         1.9890
  53   0.0000       0.094449         2.5701
  54   0.0000       0.099596         2.7101
  55   0.0000       0.103398         2.8136

MULLIKEN ATOMIC CHARGES
-----------------------
   0 C :    0.287433
   1 C :   -0.260327
   2 C :   -0.299516
   3 C :   -0.008963
   4 O :   -0.515502
   5 H :    0.143369
   6 H :    0.145234
   7 H :    0.163195
   8 H :    0.143784
   9 H :    0.163693
  10 H :    0.148563
  11 H :    0.146912
  12 C :   -0.021255
  13 H :    0.158969
  14 H :    0.153621
  15 O :   -0.531349
  16 C :    0.061753
  17 C :    0.086810
  18 C :   -0.304577
  19 C :   -0.028901
  20 O :   -0.526889
  21 H :    0.165342
  22 O :   -0.603846
  23 H :    0.161180
  24 H :    0.163641
  25 H :    0.149695
  26 H :    0.147579
  27 H :    0.146528
  28 H :    0.363822
Sum of atomic charges:   -0.0000000

LOEWDIN ATOMIC CHARGES
----------------------
   0 C :    0.173378
   1 C :   -0.213992
   2 C :   -0.216088
   3 C :   -0.028588
   4 O :   -0.328929
   5 H :    0.092912
   6 H :    0.114278
   7 H :    0.127369
   8 H :    0.115176
   9 H :    0.119992
  10 H :    0.106047
  11 H :    0.105073
  12 C :   -0.044589
  13 H :    0.111655
  14 H :    0.112900
  15 O :   -0.336390
  16 C :    0.012660
  17 C :    0.036895
  18 C :   -0.243710
  19 C :   -0.038103
  20 O :   -0.331361
  21 H :    0.117443
  22 O :   -0.415198
  23 H :    0.119142
  24 H :    0.127042
  25 H :    0.115391
  26 H :    0.104747
  27 H :    0.102577
  28 H :    0.282271

  Mayer bond orders larger than 0.100000
B(  0-C ,  1-C ) :   0.9494 B(  0-C ,  4-O ) :   0.9021 B(  0-C ,  5-H ) :   0.9170
B(  0-C , 15-O ) :   0.8565 B(  1-C ,  2-C ) :   0.9546 B(  1-C ,  6-H ) :   0.9387
B(  1-C ,  7-H ) :   0.9349 B(  2-C ,  3-C ) :   0.9564 B(  2-C ,  8-H ) :   0.9447
B(  2-C ,  9-H ) :   0.9440 B(  3-C ,  4-O ) :   0.8296 B(  3-C , 10-H ) :   0.9357
B(  3-C , 11-H ) :   0.9405 B( 12-C , 13-H ) :   0.9167 B( 12-C , 14-H ) :   0.9319
B( 12-C , 15-O ) :   0.8165 B( 12-C , 16-C ) :   0.8952 B( 16-C , 17-C ) :   0.9121
B( 16-C , 20-O ) :   0.8389 B( 16-C , 21-H ) :   0.9259 B( 17-C , 18-C ) :   0.9132
B( 17-C , 22-O ) :   0.8908 B( 17-C , 23-H ) :   0.9267 B( 18-C , 19-C ) :   0.9404
B( 18-C , 24-H ) :   0.9375 B( 18-C , 25-H ) :   0.9334 B( 19-C , 20-O ) :   0.8433
B( 19-C , 26-H ) :   0.9353 B( 19-C , 27-H ) :   0.9379 B( 22-O , 28-H ) :   0.7950

FINAL SINGLE POINT ENERGY      -652.867372419979

DIPOLE MOMENT
-------------
                                X             Y             Z
Electronic contribution:     -4.01545      -1.56338      -1.30234
Nuclear contribution   :      4.82840       1.74812       1.74725
                        -----------------------------------------
Total Dipole Moment    :      0.81295       0.18474       0.44491
                        -----------------------------------------
Magnitude (a.u.)       :      0.94497
Magnitude (Debye)      :      2.40191

Rotational constants in cm-1:     0.058678     0.012938     0.012228
Rotational constants in MHz :  1759.115817   387.886317   366.585651

                             ****ORCA TERMINATED NORMALLY****
TOTAL RUN TIME: 0 days 0 hours 31 minutes 38 seconds 273 msec
