                         Program Version 4.2.0 -  RELEASE  -
|  1> # Test redundant internal optimization
|  2> #
|  3> ! RKS B3LYP  Opt TightSCF SmallPrint
|  4>
|  5> %basis
|  6>         Basis "6-31G"
|  7> end
|  8>
|  9> %geom
| 10> Constraints
| 11> { D 4  0  15  12  195.0   C } # D for Dihedral angle
| 12> { D 0  15  12  16  105.0   C } # D for Dihedral angle
| 13> { D 0  4  3  2   C } # D for Dihedral angle
| 14> { D 4  3  2  1   C } # D for Dihedral angle
| 15> { D 3  2  1  0   C } # D for Dihedral angle
| 16> { D 2  1  0  4   C } # D for Dihedral angle
| 17> { D 1  0  4  3   C } # D for Dihedral angle
| 18> { D 16  20  19  18   C } # D for Dihedral angle
| 19> { D 20  19  18  17   C } # D for Dihedral angle
| 20> { D 19  18  17  16   C } # D for Dihedral angle
| 21> { D 18  17  16  20   C } # D for Dihedral angle
| 22> { D 17  16  20  19   C } # D for Dihedral angle
| 23> { D 15  12  16  20   C } # D for Dihedral angle
| 24> end
| 25> end
| 26>
| 27>
| 28> #%pal
| 29> #nprocs 8
| 30> #end
| 31>
| 32> * xyz 0 1
| 33> C  -21.048   26.222   46.251
| 34> C  -20.361   27.558   45.944
| 35> C  -20.329   28.222   47.341
| 36> C  -20.110   27.022   48.296
| 37> O  -20.473   25.807   47.535
| 38> H  -20.833   25.428   45.533
| 39> H  -19.344   27.382   45.576
| 40> H  -20.898   28.157   45.201
| 41> H  -19.543   28.978   47.434
| 42> H  -21.289   28.710   47.548
| 43> H  -20.733   27.082   49.195
| 44> H  -19.064   26.913   48.597
| 45> C  -23.353   26.472   45.026
| 46> H  -24.076   27.296   45.068
| 47> H  -22.657   26.668   44.200
| 48> O  -22.586   26.394   46.375
| 49> C  -24.122   25.163   44.696
| 50> C  -24.770   25.233   43.309
| 51> C  -23.565   24.940   42.385
| 52> C  -22.734   23.920   43.203
| 53> O  -23.193   24.032   44.604
| 54> H  -24.817   24.942   45.509
| 55> H  -25.533   24.453   43.209
| 56> O  -25.434   26.606   43.015
| 57> H  -23.864   24.546   41.408
| 58> H  -22.989   25.857   42.214
| 59> H  -21.659   24.125   43.161
| 60> H  -22.911   22.888   42.887
| 61> H  -24.690   27.404   43.107
| 62> *
| 63>
| 64>                          ****END OF INPUT****
 Total Charge           Charge          ....    0
 Multiplicity           Mult            ....    1
 Number of Electrons    NEL             ....  102
FINAL SINGLE POINT ENERGY      -652.826101234861
FINAL SINGLE POINT ENERGY      -652.849706243442
FINAL SINGLE POINT ENERGY      -652.853860366025
FINAL SINGLE POINT ENERGY      -652.854577245274
FINAL SINGLE POINT ENERGY      -652.854684999421
FINAL SINGLE POINT ENERGY      -652.854701864558
FINAL SINGLE POINT ENERGY      -652.854706278206
                    ***********************HURRAY********************

CARTESIAN COORDINATES (ANGSTROEM)
---------------------------------
  C    -21.037219   26.249604   46.171605
  C    -20.323460   27.583626   45.964804
  C    -20.377358   28.201045   47.383782
  C    -20.232668   26.967409   48.298709
  O    -20.562166   25.795627   47.444853
  H    -20.821284   25.465731   45.441883
  H    -19.287107   27.396169   45.658480
  H    -20.796163   28.215588   45.206846
  H    -19.589407   28.941566   47.550380
  H    -21.347147   28.683228   47.538411
  H    -20.915517   26.979637   49.151485
  H    -19.208733   26.817205   48.653691
  C    -23.206849   26.562300   45.024025
  H    -23.921430   27.383524   45.148157
  H    -22.519550   26.822143   44.204142
  O    -22.481927   26.433045   46.276963
  C    -23.963796   25.268972   44.722293
  C    -24.745827   25.263907   43.397187
  C    -23.631720   24.898927   42.371939
  C    -22.738566   23.923129   43.167977
  O    -23.059527   24.125127   44.605982
  H    -24.604134   25.050497   45.580888
  H    -25.507914   24.482384   43.428740
  O    -25.480120   26.476727   43.102310
  H    -24.037932   24.456192   41.458931
  H    -23.083803   25.807897   42.088030
  H    -21.669052   24.098465   43.011415
  H    -22.959180   22.876909   42.936741
  H    -24.868444   27.193420   42.836349

 Multiplicity           Mult            ....    1
 Number of Electrons    NEL             ....  102
 Basis Dimension        Dim             ....  149

ORBITAL ENERGIES
----------------

  NO   OCC          E(Eh)            E(eV)
   0   2.0000     -19.152509      -521.1663
   1   2.0000     -19.141296      -520.8612
   2   2.0000     -19.134907      -520.6873
   3   2.0000     -19.134467      -520.6753
   4   2.0000     -10.272754      -279.5358
   5   2.0000     -10.247306      -278.8434
   6   2.0000     -10.233926      -278.4793
   7   2.0000     -10.232839      -278.4497
   8   2.0000     -10.229535      -278.3598
   9   2.0000     -10.220420      -278.1118
  10   2.0000     -10.198874      -277.5255
  11   2.0000     -10.184849      -277.1438
  12   2.0000     -10.183662      -277.1115
  13   2.0000      -1.048439       -28.5295
  14   2.0000      -1.035556       -28.1789
  15   2.0000      -1.018106       -27.7041
  16   2.0000      -0.988462       -26.8974
  17   2.0000      -0.785970       -21.3873
  18   2.0000      -0.783195       -21.3118
  19   2.0000      -0.767317       -20.8798
  20   2.0000      -0.728784       -19.8312
  21   2.0000      -0.682502       -18.5718
  22   2.0000      -0.614529       -16.7222
  23   2.0000      -0.598704       -16.2916
  24   2.0000      -0.589827       -16.0500
  25   2.0000      -0.574469       -15.6321
  26   2.0000      -0.530995       -14.4491
  27   2.0000      -0.507406       -13.8072
  28   2.0000      -0.502412       -13.6713
  29   2.0000      -0.488792       -13.3007
  30   2.0000      -0.468872       -12.7587
  31   2.0000      -0.457411       -12.4468
  32   2.0000      -0.446127       -12.1397
  33   2.0000      -0.438075       -11.9206
  34   2.0000      -0.430724       -11.7206
  35   2.0000      -0.415563       -11.3081
  36   2.0000      -0.408817       -11.1245
  37   2.0000      -0.394177       -10.7261
  38   2.0000      -0.382742       -10.4149
  39   2.0000      -0.370297       -10.0763
  40   2.0000      -0.360802        -9.8179
  41   2.0000      -0.352671        -9.5967
  42   2.0000      -0.349448        -9.5090
  43   2.0000      -0.333408        -9.0725
  44   2.0000      -0.317303        -8.6342
  45   2.0000      -0.308106        -8.3840
  46   2.0000      -0.300985        -8.1902
  47   2.0000      -0.273106        -7.4316
  48   2.0000      -0.263622        -7.1735
  49   2.0000      -0.252544        -6.8721
  50   2.0000      -0.232928        -6.3383
  51   0.0000       0.045992         1.2515
  52   0.0000       0.066230         1.8022
  53   0.0000       0.087449         2.3796
  54   0.0000       0.095239         2.5916
  55   0.0000       0.103709         2.8221

MULLIKEN ATOMIC CHARGES
-----------------------
   0 C :    0.298114
   1 C :   -0.271372
   2 C :   -0.298224
   3 C :   -0.000266
   4 O :   -0.499696
   5 H :    0.155065
   6 H :    0.143087
   7 H :    0.136075
   8 H :    0.139904
   9 H :    0.159331
  10 H :    0.154678
  11 H :    0.139555
  12 C :   -0.038976
  13 H :    0.151683
  14 H :    0.108329
  15 O :   -0.501030
  16 C :    0.103144
  17 C :    0.080176
  18 C :   -0.318598
  19 C :   -0.017044
  20 O :   -0.506149
  21 H :    0.171349
  22 H :    0.171959
  23 O :   -0.598616
  24 H :    0.158140
  25 H :    0.128425
  26 H :    0.141650
  27 H :    0.154629
  28 H :    0.354678
Sum of atomic charges:    0.0000000

LOEWDIN ATOMIC CHARGES
----------------------
   0 C :    0.181086
   1 C :   -0.232595
   2 C :   -0.217077
   3 C :   -0.025193
   4 O :   -0.299264
   5 H :    0.104458
   6 H :    0.112738
   7 H :    0.110187
   8 H :    0.113132
   9 H :    0.117795
  10 H :    0.109668
  11 H :    0.101306
  12 C :   -0.053300
  13 H :    0.112148
  14 H :    0.084102
  15 O :   -0.326988
  16 C :    0.014563
  17 C :    0.033268
  18 C :   -0.240711
  19 C :   -0.033096
  20 O :   -0.315860
  21 H :    0.123624
  22 H :    0.121601
  23 O :   -0.406486
  24 H :    0.123382
  25 H :    0.101614
  26 H :    0.100381
  27 H :    0.108462
  28 H :    0.277058

  Mayer bond orders larger than 0.100000
B(  0-C ,  1-C ) :   0.9266 B(  0-C ,  4-O ) :   0.9382 B(  0-C ,  5-H ) :   0.9148
B(  0-C , 15-O ) :   0.8237 B(  1-C ,  2-C ) :   0.9517 B(  1-C ,  6-H ) :   0.9344
B(  1-C ,  7-H ) :   0.9358 B(  2-C ,  3-C ) :   0.9563 B(  2-C ,  8-H ) :   0.9452
B(  2-C ,  9-H ) :   0.9442 B(  3-C ,  4-O ) :   0.8382 B(  3-C , 10-H ) :   0.9342
B(  3-C , 11-H ) :   0.9398 B( 12-C , 13-H ) :   0.9193 B( 12-C , 14-H ) :   0.9198
B( 12-C , 15-O ) :   0.8672 B( 12-C , 16-C ) :   0.8914 B( 16-C , 17-C ) :   0.8677
B( 16-C , 20-O ) :   0.8638 B( 16-C , 21-H ) :   0.9289 B( 17-C , 18-C ) :   0.9230
B( 17-C , 22-H ) :   0.9311 B( 17-C , 23-O ) :   0.8987 B( 18-C , 19-C ) :   0.9374
B( 18-C , 24-H ) :   0.9421 B( 18-C , 25-H ) :   0.9410 B( 19-C , 20-O ) :   0.8509
B( 19-C , 26-H ) :   0.9309 B( 19-C , 27-H ) :   0.9373 B( 23-O , 28-H ) :   0.7989

FINAL SINGLE POINT ENERGY      -652.854706682043

DIPOLE MOMENT
-------------
                                X             Y             Z
Electronic contribution:     -3.32085      -3.56031       2.01919
Nuclear contribution   :      4.01878       4.60193      -3.34587
                        -----------------------------------------
Total Dipole Moment    :      0.69793       1.04162      -1.32668
                        -----------------------------------------
Magnitude (a.u.)       :      1.82542
Magnitude (Debye)      :      4.63985

Rotational constants in cm-1:     0.058163     0.012844     0.011891
Rotational constants in MHz :  1743.690709   385.054144   356.487406

                             ****ORCA TERMINATED NORMALLY****
TOTAL RUN TIME: 0 days 1 hours 1 minutes 11 seconds 170 msec
