                         Program Version 4.2.0 -  RELEASE  -
|  1> # Test redundant internal optimization
|  2> #
|  3> ! RKS B3LYP  Opt TightSCF SmallPrint
|  4>
|  5> %basis
|  6>         Basis "6-31G"
|  7> end
|  8>
|  9> %geom
| 10> Constraints
| 11> { D 4  0  15  12  300.0   C } # D for Dihedral angle
| 12> { D 0  15  12  16  225.0   C } # D for Dihedral angle
| 13> { D 0  4  3  2   C } # D for Dihedral angle
| 14> { D 4  3  2  1   C } # D for Dihedral angle
| 15> { D 3  2  1  0   C } # D for Dihedral angle
| 16> { D 2  1  0  4   C } # D for Dihedral angle
| 17> { D 1  0  4  3   C } # D for Dihedral angle
| 18> { D 16  20  19  18   C } # D for Dihedral angle
| 19> { D 20  19  18  17   C } # D for Dihedral angle
| 20> { D 19  18  17  16   C } # D for Dihedral angle
| 21> { D 18  17  16  20   C } # D for Dihedral angle
| 22> { D 17  16  20  19   C } # D for Dihedral angle
| 23> { D 15  12  16  20   C } # D for Dihedral angle
| 24> end
| 25> end
| 26>
| 27>
| 28> #%pal
| 29> #nprocs 8
| 30> #end
| 31>
| 32> * xyz 0 1
| 33> C  -21.048   26.222   46.251
| 34> C  -20.361   27.558   45.944
| 35> C  -20.329   28.222   47.341
| 36> C  -20.110   27.022   48.296
| 37> O  -20.473   25.807   47.535
| 38> H  -20.833   25.428   45.533
| 39> H  -19.344   27.382   45.576
| 40> H  -20.898   28.157   45.201
| 41> H  -19.543   28.978   47.434
| 42> H  -21.289   28.710   47.548
| 43> H  -20.733   27.082   49.195
| 44> H  -19.064   26.913   48.597
| 45> C  -23.362   25.116   46.798
| 46> H  -22.707   24.242   46.687
| 47> H  -23.668   25.183   47.850
| 48> O  -22.586   26.394   46.375
| 49> C  -24.640   24.881   45.947
| 50> C  -25.440   23.680   46.465
| 51> C  -26.175   24.294   47.680
| 52> C  -26.468   25.743   47.218
| 53> O  -25.562   26.014   46.082
| 54> H  -24.362   24.818   44.893
| 55> H  -26.158   23.349   45.706
| 56> O  -24.544   22.471   46.851
| 57> H  -27.087   23.748   47.945
| 58> H  -25.518   24.294   48.557
| 59> H  -26.283   26.481   48.008
| 60> H  -27.491   25.866   46.851
| 61> H  -23.818   22.778   47.611
| 62> *
| 63>
| 64>                          ****END OF INPUT****
 Total Charge           Charge          ....    0
 Multiplicity           Mult            ....    1
 Number of Electrons    NEL             ....  102
FINAL SINGLE POINT ENERGY      -652.831058243362
FINAL SINGLE POINT ENERGY      -652.855697242040
FINAL SINGLE POINT ENERGY      -652.860263145970
FINAL SINGLE POINT ENERGY      -652.861068324970
FINAL SINGLE POINT ENERGY      -652.861222733307
FINAL SINGLE POINT ENERGY      -652.861249932182
FINAL SINGLE POINT ENERGY      -652.861255027287
FINAL SINGLE POINT ENERGY      -652.861255734475
                    ***********************HURRAY********************

CARTESIAN COORDINATES (ANGSTROEM)
---------------------------------
  C    -21.091982   26.154201   46.267470
  C    -20.517020   27.530262   45.931272
  C    -20.457550   28.194453   47.324163
  C    -20.107992   27.018442   48.263435
  O    -20.432137   25.781464   47.504713
  H    -20.869546   25.349250   45.558854
  H    -19.514678   27.407574   45.505759
  H    -21.144671   28.073011   45.221661
  H    -19.717853   28.999585   47.375815
  H    -21.439023   28.607834   47.572699
  H    -20.684504   27.025748   49.192276
  H    -19.041498   26.966684   48.502538
  C    -23.224521   25.119524   46.880075
  H    -22.590420   24.230341   46.769286
  H    -23.458404   25.243479   47.944723
  O    -22.514728   26.308688   46.426408
  C    -24.486879   24.939769   46.041751
  C    -25.343420   23.734281   46.467225
  C    -26.164333   24.327419   47.651787
  C    -26.397018   25.787682   47.205280
  O    -25.400715   26.074101   46.143380
  H    -24.194598   24.887085   44.988707
  H    -26.007312   23.455060   45.646340
  O    -24.610400   22.522513   46.770320
  H    -27.094429   23.780342   47.825164
  H    -25.566634   24.279280   48.571996
  H    -26.268108   26.507975   48.019522
  H    -27.387327   25.931323   46.762564
  H    -24.166298   22.595631   47.639817

 Multiplicity           Mult            ....    1
 Number of Electrons    NEL             ....  102
 Basis Dimension        Dim             ....  149

ORBITAL ENERGIES
----------------

  NO   OCC          E(Eh)            E(eV)
   0   2.0000     -19.149088      -521.0732
   1   2.0000     -19.140286      -520.8337
   2   2.0000     -19.138481      -520.7845
   3   2.0000     -19.134320      -520.6713
   4   2.0000     -10.275197      -279.6023
   5   2.0000     -10.244144      -278.7573
   6   2.0000     -10.228766      -278.3389
   7   2.0000     -10.228076      -278.3201
   8   2.0000     -10.226274      -278.2711
   9   2.0000     -10.223724      -278.2017
  10   2.0000     -10.194794      -277.4144
  11   2.0000     -10.181963      -277.0653
  12   2.0000     -10.181562      -277.0544
  13   2.0000      -1.052276       -28.6339
  14   2.0000      -1.032170       -28.0868
  15   2.0000      -1.013762       -27.5859
  16   2.0000      -0.990092       -26.9418
  17   2.0000      -0.787065       -21.4171
  18   2.0000      -0.780501       -21.2385
  19   2.0000      -0.764613       -20.8062
  20   2.0000      -0.728170       -19.8145
  21   2.0000      -0.677413       -18.4333
  22   2.0000      -0.610453       -16.6113
  23   2.0000      -0.597191       -16.2504
  24   2.0000      -0.589515       -16.0415
  25   2.0000      -0.571885       -15.5618
  26   2.0000      -0.530228       -14.4282
  27   2.0000      -0.508318       -13.8320
  28   2.0000      -0.495470       -13.4824
  29   2.0000      -0.490827       -13.3561
  30   2.0000      -0.467231       -12.7140
  31   2.0000      -0.451390       -12.2830
  32   2.0000      -0.445086       -12.1114
  33   2.0000      -0.432616       -11.7721
  34   2.0000      -0.426879       -11.6160
  35   2.0000      -0.411117       -11.1871
  36   2.0000      -0.407273       -11.0825
  37   2.0000      -0.399490       -10.8707
  38   2.0000      -0.376725       -10.2512
  39   2.0000      -0.363480        -9.8908
  40   2.0000      -0.355465        -9.6727
  41   2.0000      -0.353144        -9.6095
  42   2.0000      -0.343433        -9.3453
  43   2.0000      -0.335611        -9.1324
  44   2.0000      -0.321652        -8.7526
  45   2.0000      -0.313365        -8.5271
  46   2.0000      -0.295466        -8.0400
  47   2.0000      -0.270421        -7.3585
  48   2.0000      -0.266693        -7.2571
  49   2.0000      -0.252540        -6.8720
  50   2.0000      -0.236268        -6.4292
  51   0.0000       0.052867         1.4386
  52   0.0000       0.078370         2.1325
  53   0.0000       0.090926         2.4742
  54   0.0000       0.097236         2.6459
  55   0.0000       0.105467         2.8699

MULLIKEN ATOMIC CHARGES
-----------------------
   0 C :    0.277256
   1 C :   -0.261353
   2 C :   -0.299266
   3 C :   -0.004943
   4 O :   -0.516856
   5 H :    0.144578
   6 H :    0.143694
   7 H :    0.164023
   8 H :    0.140057
   9 H :    0.165770
  10 H :    0.142340
  11 H :    0.142752
  12 C :   -0.008216
  13 H :    0.143173
  14 H :    0.132140
  15 O :   -0.509782
  16 C :    0.097652
  17 C :    0.082714
  18 C :   -0.325776
  19 C :   -0.007915
  20 O :   -0.505946
  21 H :    0.154525
  22 H :    0.168187
  23 O :   -0.600624
  24 H :    0.157762
  25 H :    0.133439
  26 H :    0.146150
  27 H :    0.146784
  28 H :    0.357681
Sum of atomic charges:   -0.0000000

LOEWDIN ATOMIC CHARGES
----------------------
   0 C :    0.170318
   1 C :   -0.214161
   2 C :   -0.216247
   3 C :   -0.028866
   4 O :   -0.335522
   5 H :    0.095465
   6 H :    0.113573
   7 H :    0.127776
   8 H :    0.112957
   9 H :    0.120905
  10 H :    0.102837
  11 H :    0.102513
  12 C :   -0.048477
  13 H :    0.107286
  14 H :    0.097292
  15 O :   -0.315535
  16 C :    0.018196
  17 C :    0.033700
  18 C :   -0.241783
  19 C :   -0.029526
  20 O :   -0.314391
  21 H :    0.116146
  22 H :    0.119522
  23 O :   -0.407852
  24 H :    0.122554
  25 H :    0.103940
  26 H :    0.103560
  27 H :    0.104854
  28 H :    0.278968

  Mayer bond orders larger than 0.100000
B(  0-C ,  1-C ) :   0.9515 B(  0-C ,  4-O ) :   0.8914 B(  0-C ,  5-H ) :   0.9178
B(  0-C , 15-O ) :   0.8749 B(  1-C ,  2-C ) :   0.9557 B(  1-C ,  6-H ) :   0.9402
B(  1-C ,  7-H ) :   0.9348 B(  2-C ,  3-C ) :   0.9559 B(  2-C ,  8-H ) :   0.9452
B(  2-C ,  9-H ) :   0.9437 B(  3-C ,  4-O ) :   0.8380 B(  3-C , 10-H ) :   0.9364
B(  3-C , 11-H ) :   0.9405 B( 12-C , 13-H ) :   0.9041 B( 12-C , 14-H ) :   0.9292
B( 12-C , 15-O ) :   0.8313 B( 12-C , 16-C ) :   0.9027 B( 16-C , 17-C ) :   0.8719
B( 16-C , 20-O ) :   0.8677 B( 16-C , 21-H ) :   0.9309 B( 17-C , 18-C ) :   0.9231
B( 17-C , 22-H ) :   0.9331 B( 17-C , 23-O ) :   0.8967 B( 18-C , 19-C ) :   0.9388
B( 18-C , 24-H ) :   0.9419 B( 18-C , 25-H ) :   0.9410 B( 19-C , 20-O ) :   0.8501
B( 19-C , 26-H ) :   0.9314 B( 19-C , 27-H ) :   0.9384 B( 23-O , 28-H ) :   0.7974

FINAL SINGLE POINT ENERGY      -652.861255747061

DIPOLE MOMENT
-------------
                                X             Y             Z
Electronic contribution:     -0.98489      -2.80992      -2.53548
Nuclear contribution   :      0.99129       3.06258       3.33435
                        -----------------------------------------
Total Dipole Moment    :      0.00639       0.25266       0.79886
                        -----------------------------------------
Magnitude (a.u.)       :      0.83789
Magnitude (Debye)      :      2.12975

Rotational constants in cm-1:     0.054030     0.012530     0.011585
Rotational constants in MHz :  1619.767808   375.653779   347.305269

                             ****ORCA TERMINATED NORMALLY****
TOTAL RUN TIME: 0 days 0 hours 23 minutes 29 seconds 239 msec
