                         Program Version 4.2.0 -  RELEASE  -
|  1> # Test redundant internal optimization
|  2> #
|  3> ! RKS B3LYP  Opt TightSCF SmallPrint
|  4>
|  5> %basis
|  6>         Basis "6-31G"
|  7> end
|  8>
|  9> %geom
| 10> Constraints
| 11> { D 4  0  15  12  225.0   C } # D for Dihedral angle
| 12> { D 0  15  12  16  15.0   C } # D for Dihedral angle
| 13> { D 0  4  3  2   C } # D for Dihedral angle
| 14> { D 4  3  2  1   C } # D for Dihedral angle
| 15> { D 3  2  1  0   C } # D for Dihedral angle
| 16> { D 2  1  0  4   C } # D for Dihedral angle
| 17> { D 1  0  4  3   C } # D for Dihedral angle
| 18> { D 16  20  19  18   C } # D for Dihedral angle
| 19> { D 20  19  18  17   C } # D for Dihedral angle
| 20> { D 19  18  17  16   C } # D for Dihedral angle
| 21> { D 18  17  16  20   C } # D for Dihedral angle
| 22> { D 17  16  20  19   C } # D for Dihedral angle
| 23> { D 15  12  16  20   C } # D for Dihedral angle
| 24> end
| 25> end
| 26>
| 27>
| 28> #%pal
| 29> #nprocs 8
| 30> #end
| 31>
| 32> * xyz 0 1
| 33> C  -21.048   26.222   46.251
| 34> C  -20.361   27.558   45.944
| 35> C  -20.329   28.222   47.341
| 36> C  -20.110   27.022   48.296
| 37> O  -20.473   25.807   47.535
| 38> H  -20.833   25.428   45.533
| 39> H  -19.344   27.382   45.576
| 40> H  -20.898   28.157   45.201
| 41> H  -19.543   28.978   47.434
| 42> H  -21.289   28.710   47.548
| 43> H  -20.733   27.082   49.195
| 44> H  -19.064   26.913   48.597
| 45> C  -23.415   25.773   45.218
| 46> H  -24.272   25.231   45.637
| 47> H  -23.798   26.559   44.554
| 48> O  -22.586   26.394   46.375
| 49> C  -22.589   24.783   44.350
| 50> C  -23.402   24.280   43.153
| 51> C  -23.291   25.472   42.174
| 52> C  -21.861   26.008   42.434
| 53> O  -21.442   25.468   43.745
| 54> H  -22.190   23.994   44.990
| 55> O  -22.736   23.012   42.551
| 56> H  -24.439   24.036   43.409
| 57> H  -23.443   25.180   41.130
| 58> H  -24.039   26.234   42.422
| 59> H  -21.823   27.103   42.469
| 60> H  -21.140   25.652   41.693
| 61> H  -21.696   23.233   42.287
| 62> *
| 63>
| 64>                          ****END OF INPUT****
 Total Charge           Charge          ....    0
 Multiplicity           Mult            ....    1
 Number of Electrons    NEL             ....  102
FINAL SINGLE POINT ENERGY      -652.824593388918
FINAL SINGLE POINT ENERGY      -652.846295665987
FINAL SINGLE POINT ENERGY      -652.853883672606
FINAL SINGLE POINT ENERGY      -652.855944119495
FINAL SINGLE POINT ENERGY      -652.856287678564
FINAL SINGLE POINT ENERGY      -652.856343280041
FINAL SINGLE POINT ENERGY      -652.856346713247
                    ***********************HURRAY********************

CARTESIAN COORDINATES (ANGSTROEM)
---------------------------------
  C    -20.838123   26.237119   46.243227
  C    -20.252208   27.636493   46.059370
  C    -20.452261   28.254714   47.464155
  C    -20.236783   27.047534   48.403945
  O    -20.392827   25.841345   47.554926
  H    -20.486205   25.492849   45.535092
  H    -19.186222   27.555848   45.814842
  H    -20.753042   28.193141   45.264157
  H    -19.756542   29.073708   47.669634
  H    -21.474427   28.633703   47.555392
  H    -20.965196   27.001663   49.218124
  H    -19.225481   27.010036   48.821303
  C    -23.143800   25.779448   45.216948
  H    -23.970413   25.275428   45.732828
  H    -23.563959   26.627325   44.656843
  O    -22.293415   26.323580   46.261628
  C    -22.512534   24.790380   44.236044
  C    -23.478356   24.308541   43.141622
  C    -23.389904   25.465707   42.109865
  C    -21.906981   25.908847   42.206593
  O    -21.389612   25.377435   43.493182
  H    -22.103501   23.935034   44.783732
  O    -23.039406   23.044478   42.578170
  H    -24.492330   24.125734   43.498701
  H    -23.664725   25.113680   41.112657
  H    -24.068820   26.278065   42.389012
  H    -21.787842   26.996276   42.199290
  H    -21.287964   25.483493   41.411331
  H    -22.074122   23.081397   42.409385

 Multiplicity           Mult            ....    1
 Number of Electrons    NEL             ....  102
 Basis Dimension        Dim             ....  149

ORBITAL ENERGIES
----------------

  NO   OCC          E(Eh)            E(eV)
   0   2.0000     -19.155745      -521.2543
   1   2.0000     -19.146655      -521.0070
   2   2.0000     -19.129948      -520.5523
   3   2.0000     -19.126901      -520.4694
   4   2.0000     -10.264779      -279.3188
   5   2.0000     -10.252227      -278.9773
   6   2.0000     -10.243533      -278.7407
   7   2.0000     -10.241562      -278.6871
   8   2.0000     -10.235164      -278.5130
   9   2.0000     -10.214491      -277.9504
  10   2.0000     -10.198665      -277.5198
  11   2.0000     -10.175485      -276.8890
  12   2.0000     -10.173153      -276.8256
  13   2.0000      -1.049155       -28.5490
  14   2.0000      -1.037110       -28.2212
  15   2.0000      -1.015817       -27.6418
  16   2.0000      -0.981660       -26.7123
  17   2.0000      -0.793740       -21.5988
  18   2.0000      -0.777291       -21.1512
  19   2.0000      -0.769387       -20.9361
  20   2.0000      -0.728035       -19.8108
  21   2.0000      -0.675773       -18.3887
  22   2.0000      -0.614363       -16.7177
  23   2.0000      -0.607557       -16.5325
  24   2.0000      -0.587407       -15.9842
  25   2.0000      -0.566574       -15.4173
  26   2.0000      -0.535002       -14.5581
  27   2.0000      -0.510717       -13.8973
  28   2.0000      -0.493351       -13.4248
  29   2.0000      -0.484859       -13.1937
  30   2.0000      -0.475902       -12.9500
  31   2.0000      -0.457108       -12.4385
  32   2.0000      -0.449850       -12.2410
  33   2.0000      -0.438407       -11.9297
  34   2.0000      -0.427641       -11.6367
  35   2.0000      -0.409798       -11.1512
  36   2.0000      -0.403406       -10.9772
  37   2.0000      -0.394267       -10.7285
  38   2.0000      -0.382208       -10.4004
  39   2.0000      -0.369621       -10.0579
  40   2.0000      -0.361785        -9.8447
  41   2.0000      -0.346964        -9.4414
  42   2.0000      -0.343615        -9.3502
  43   2.0000      -0.336411        -9.1542
  44   2.0000      -0.323186        -8.7944
  45   2.0000      -0.303227        -8.2512
  46   2.0000      -0.299557        -8.1514
  47   2.0000      -0.280809        -7.6412
  48   2.0000      -0.255740        -6.9590
  49   2.0000      -0.252505        -6.8710
  50   2.0000      -0.233503        -6.3539
  51   0.0000       0.055358         1.5064
  52   0.0000       0.080367         2.1869
  53   0.0000       0.086078         2.3423
  54   0.0000       0.093388         2.5412
  55   0.0000       0.101284         2.7561

MULLIKEN ATOMIC CHARGES
-----------------------
   0 C :    0.280615
   1 C :   -0.246682
   2 C :   -0.299409
   3 C :    0.000280
   4 O :   -0.505683
   5 H :    0.178842
   6 H :    0.139772
   7 H :    0.137995
   8 H :    0.134847
   9 H :    0.158304
  10 H :    0.147908
  11 H :    0.136527
  12 C :    0.041289
  13 H :    0.146463
  14 H :    0.124775
  15 O :   -0.541022
  16 C :    0.020483
  17 C :    0.081000
  18 C :   -0.299717
  19 C :   -0.030051
  20 O :   -0.529813
  21 H :    0.176514
  22 O :   -0.597637
  23 H :    0.158510
  24 H :    0.165288
  25 H :    0.151008
  26 H :    0.152596
  27 H :    0.151501
  28 H :    0.365500
Sum of atomic charges:    0.0000000

LOEWDIN ATOMIC CHARGES
----------------------
   0 C :    0.176700
   1 C :   -0.219054
   2 C :   -0.218279
   3 C :   -0.026937
   4 O :   -0.315216
   5 H :    0.115025
   6 H :    0.111227
   7 H :    0.113874
   8 H :    0.110592
   9 H :    0.117213
  10 H :    0.105487
  11 H :    0.099304
  12 C :   -0.031147
  13 H :    0.111217
  14 H :    0.092449
  15 O :   -0.338802
  16 C :   -0.001145
  17 C :    0.040970
  18 C :   -0.240936
  19 C :   -0.037913
  20 O :   -0.335062
  21 H :    0.120838
  22 O :   -0.410233
  23 H :    0.119014
  24 H :    0.128232
  25 H :    0.116000
  26 H :    0.107103
  27 H :    0.105327
  28 H :    0.284151

  Mayer bond orders larger than 0.100000
B(  0-C ,  1-C ) :   0.9395 B(  0-C ,  4-O ) :   0.9170 B(  0-C ,  5-H ) :   0.9009
B(  0-C , 15-O ) :   0.8223 B(  1-C ,  2-C ) :   0.9550 B(  1-C ,  6-H ) :   0.9378
B(  1-C ,  7-H ) :   0.9416 B(  2-C ,  3-C ) :   0.9545 B(  2-C ,  8-H ) :   0.9461
B(  2-C ,  9-H ) :   0.9442 B(  3-C ,  4-O ) :   0.8423 B(  3-C , 10-H ) :   0.9352
B(  3-C , 11-H ) :   0.9402 B( 12-C , 13-H ) :   0.9203 B( 12-C , 14-H ) :   0.9216
B( 12-C , 15-O ) :   0.8583 B( 12-C , 16-C ) :   0.8999 B( 16-C , 17-C ) :   0.8977
B( 16-C , 20-O ) :   0.8292 B( 16-C , 21-H ) :   0.9185 B( 17-C , 18-C ) :   0.9099
B( 17-C , 22-O ) :   0.8966 B( 17-C , 23-H ) :   0.9334 B( 18-C , 19-C ) :   0.9422
B( 18-C , 24-H ) :   0.9370 B( 18-C , 25-H ) :   0.9318 B( 19-C , 20-O ) :   0.8378
B( 19-C , 26-H ) :   0.9342 B( 19-C , 27-H ) :   0.9374 B( 22-O , 28-H ) :   0.7942

FINAL SINGLE POINT ENERGY      -652.856346904243

DIPOLE MOMENT
-------------
                                X             Y             Z
Electronic contribution:     -0.03451      -5.27069       0.61373
Nuclear contribution   :     -0.14889       6.27236      -1.58963
                        -----------------------------------------
Total Dipole Moment    :     -0.18340       1.00167      -0.97590
                        -----------------------------------------
Magnitude (a.u.)       :      1.41045
Magnitude (Debye)      :      3.58508

Rotational constants in cm-1:     0.065807     0.012696     0.012075
Rotational constants in MHz :  1972.843512   380.624128   361.998978

                             ****ORCA TERMINATED NORMALLY****
TOTAL RUN TIME: 0 days 0 hours 24 minutes 43 seconds 238 msec
