                         Program Version 4.2.0 -  RELEASE  -
|  1> # Test redundant internal optimization
|  2> #
|  3> ! RKS B3LYP  Opt TightSCF SmallPrint
|  4>
|  5> %basis
|  6>         Basis "6-31G"
|  7> end
|  8>
|  9> %geom
| 10> Constraints
| 11> { D 4  0  15  12  270.0   C } # D for Dihedral angle
| 12> { D 0  15  12  16  45.0   C } # D for Dihedral angle
| 13> { D 0  4  3  2   C } # D for Dihedral angle
| 14> { D 4  3  2  1   C } # D for Dihedral angle
| 15> { D 3  2  1  0   C } # D for Dihedral angle
| 16> { D 2  1  0  4   C } # D for Dihedral angle
| 17> { D 1  0  4  3   C } # D for Dihedral angle
| 18> { D 16  20  19  18   C } # D for Dihedral angle
| 19> { D 20  19  18  17   C } # D for Dihedral angle
| 20> { D 19  18  17  16   C } # D for Dihedral angle
| 21> { D 18  17  16  20   C } # D for Dihedral angle
| 22> { D 17  16  20  19   C } # D for Dihedral angle
| 23> { D 15  12  16  20   C } # D for Dihedral angle
| 24> end
| 25> end
| 26>
| 27>
| 28> #%pal
| 29> #nprocs 8
| 30> #end
| 31>
| 32> * xyz 0 1
| 33> C  -21.048   26.222   46.251
| 34> C  -20.361   27.558   45.944
| 35> C  -20.329   28.222   47.341
| 36> C  -20.110   27.022   48.296
| 37> O  -20.473   25.807   47.535
| 38> H  -20.833   25.428   45.533
| 39> H  -19.344   27.382   45.576
| 40> H  -20.898   28.157   45.201
| 41> H  -19.543   28.978   47.434
| 42> H  -21.289   28.710   47.548
| 43> H  -20.733   27.082   49.195
| 44> H  -19.064   26.913   48.597
| 45> C  -23.420   25.119   46.072
| 46> H  -24.446   25.264   46.432
| 47> H  -23.458   24.933   44.991
| 48> O  -22.586   26.394   46.375
| 49> C  -22.839   23.847   46.750
| 50> C  -23.617   22.592   46.338
| 51> C  -23.026   22.303   44.937
| 52> C  -21.543   22.725   45.088
| 53> O  -21.472   23.595   46.282
| 54> H  -22.783   24.010   47.828
| 55> H  -23.398   21.769   47.027
| 56> O  -25.154   22.810   46.309
| 57> H  -23.133   21.255   44.639
| 58> H  -23.528   22.920   44.182
| 59> H  -21.174   23.280   44.218
| 60> H  -20.882   21.873   45.270
| 61> H  -25.399   23.629   45.624
| 62> *
| 63>
| 64>                          ****END OF INPUT****
 Total Charge           Charge          ....    0
 Multiplicity           Mult            ....    1
 Number of Electrons    NEL             ....  102
FINAL SINGLE POINT ENERGY      -652.823635492336
FINAL SINGLE POINT ENERGY      -652.848233088679
FINAL SINGLE POINT ENERGY      -652.853878866254
FINAL SINGLE POINT ENERGY      -652.856048617420
FINAL SINGLE POINT ENERGY      -652.856300303886
FINAL SINGLE POINT ENERGY      -652.856357999927
FINAL SINGLE POINT ENERGY      -652.856362819852
FINAL SINGLE POINT ENERGY      -652.856362976792
                    ***********************HURRAY********************

CARTESIAN COORDINATES (ANGSTROEM)
---------------------------------
  C    -20.903610   26.251715   46.218944
  C    -20.410395   27.680597   45.985641
  C    -20.480189   28.278112   47.411673
  C    -20.101655   27.078288   48.307857
  O    -20.291624   25.867616   47.472950
  H    -20.603183   25.502569   45.488599
  H    -19.375959   27.648809   45.624062
  H    -21.026512   28.217355   45.261327
  H    -19.805745   29.129298   47.546577
  H    -21.502136   28.607857   47.619591
  H    -20.729720   26.997059   49.199173
  H    -19.049698   27.090191   48.609842
  C    -23.188360   25.173137   46.072992
  H    -24.161332   25.443862   46.492709
  H    -23.301783   25.069037   44.980169
  O    -22.345393   26.326166   46.334750
  C    -22.755614   23.831854   46.675000
  C    -23.693156   22.664668   46.314857
  C    -23.147567   22.237556   44.917365
  C    -21.627963   22.473928   45.057470
  O    -21.439773   23.384302   46.219492
  H    -22.652996   23.957125   47.756220
  H    -23.559822   21.859227   47.039927
  O    -25.108734   22.964432   46.356578
  H    -23.396756   21.200865   44.676123
  H    -23.584592   22.879843   44.141027
  H    -21.184135   22.932096   44.167568
  H    -21.084090   21.553042   45.285729
  H    -25.370510   23.498394   45.578787

 Multiplicity           Mult            ....    1
 Number of Electrons    NEL             ....  102
 Basis Dimension        Dim             ....  149

ORBITAL ENERGIES
----------------

  NO   OCC          E(Eh)            E(eV)
   0   2.0000     -19.151649      -521.1429
   1   2.0000     -19.140584      -520.8418
   2   2.0000     -19.134610      -520.6792
   3   2.0000     -19.123978      -520.3899
   4   2.0000     -10.264184      -279.3026
   5   2.0000     -10.247226      -278.8412
   6   2.0000     -10.232762      -278.4476
   7   2.0000     -10.230337      -278.3816
   8   2.0000     -10.229462      -278.3578
   9   2.0000     -10.212713      -277.9020
  10   2.0000     -10.197891      -277.4987
  11   2.0000     -10.174738      -276.8687
  12   2.0000     -10.174624      -276.8656
  13   2.0000      -1.042483       -28.3674
  14   2.0000      -1.033325       -28.1182
  15   2.0000      -1.016545       -27.6616
  16   2.0000      -0.982254       -26.7285
  17   2.0000      -0.785337       -21.3701
  18   2.0000      -0.778146       -21.1744
  19   2.0000      -0.762151       -20.7392
  20   2.0000      -0.725000       -19.7283
  21   2.0000      -0.677174       -18.4268
  22   2.0000      -0.614042       -16.7089
  23   2.0000      -0.594546       -16.1784
  24   2.0000      -0.586702       -15.9650
  25   2.0000      -0.565177       -15.3792
  26   2.0000      -0.528460       -14.3801
  27   2.0000      -0.508895       -13.8478
  28   2.0000      -0.494822       -13.4648
  29   2.0000      -0.476534       -12.9672
  30   2.0000      -0.463397       -12.6097
  31   2.0000      -0.452661       -12.3175
  32   2.0000      -0.442164       -12.0319
  33   2.0000      -0.430994       -11.7280
  34   2.0000      -0.425355       -11.5745
  35   2.0000      -0.416180       -11.3248
  36   2.0000      -0.405654       -11.0384
  37   2.0000      -0.388348       -10.5675
  38   2.0000      -0.382714       -10.4142
  39   2.0000      -0.362812        -9.8726
  40   2.0000      -0.356595        -9.7034
  41   2.0000      -0.345814        -9.4101
  42   2.0000      -0.337901        -9.1948
  43   2.0000      -0.329368        -8.9626
  44   2.0000      -0.319234        -8.6868
  45   2.0000      -0.310835        -8.4583
  46   2.0000      -0.289362        -7.8739
  47   2.0000      -0.272636        -7.4188
  48   2.0000      -0.258821        -7.0429
  49   2.0000      -0.249968        -6.8020
  50   2.0000      -0.229443        -6.2435
  51   0.0000       0.048407         1.3172
  52   0.0000       0.071928         1.9573
  53   0.0000       0.091261         2.4833
  54   0.0000       0.098886         2.6908
  55   0.0000       0.108534         2.9534

MULLIKEN ATOMIC CHARGES
-----------------------
   0 C :    0.297521
   1 C :   -0.255610
   2 C :   -0.296259
   3 C :   -0.002363
   4 O :   -0.500065
   5 H :    0.156190
   6 H :    0.140762
   7 H :    0.146504
   8 H :    0.134305
   9 H :    0.159668
  10 H :    0.142377
  11 H :    0.137461
  12 C :   -0.006467
  13 H :    0.156311
  14 H :    0.109777
  15 O :   -0.533444
  16 C :    0.075393
  17 C :    0.080495
  18 C :   -0.319241
  19 C :   -0.017245
  20 O :   -0.500368
  21 H :    0.176523
  22 H :    0.173925
  23 O :   -0.598426
  24 H :    0.156277
  25 H :    0.133060
  26 H :    0.139843
  27 H :    0.156125
  28 H :    0.356973
Sum of atomic charges:    0.0000000

LOEWDIN ATOMIC CHARGES
----------------------
   0 C :    0.174351
   1 C :   -0.216922
   2 C :   -0.216335
   3 C :   -0.029812
   4 O :   -0.316932
   5 H :    0.106926
   6 H :    0.111370
   7 H :    0.118744
   8 H :    0.109907
   9 H :    0.117832
  10 H :    0.102762
  11 H :    0.099846
  12 C :   -0.046168
  13 H :    0.118760
  14 H :    0.081153
  15 O :   -0.329380
  16 C :    0.006695
  17 C :    0.035980
  18 C :   -0.241549
  19 C :   -0.033195
  20 O :   -0.309464
  21 H :    0.125027
  22 H :    0.121865
  23 O :   -0.405826
  24 H :    0.122562
  25 H :    0.103807
  26 H :    0.100217
  27 H :    0.108987
  28 H :    0.278793

  Mayer bond orders larger than 0.100000
B(  0-C ,  1-C ) :   0.9445 B(  0-C ,  4-O ) :   0.9068 B(  0-C ,  5-H ) :   0.9147
B(  0-C , 15-O ) :   0.8338 B(  1-C ,  2-C ) :   0.9569 B(  1-C ,  6-H ) :   0.9414
B(  1-C ,  7-H ) :   0.9381 B(  2-C ,  3-C ) :   0.9534 B(  2-C ,  8-H ) :   0.9463
B(  2-C ,  9-H ) :   0.9444 B(  3-C ,  4-O ) :   0.8478 B(  3-C , 10-H ) :   0.9357
B(  3-C , 11-H ) :   0.9402 B( 12-C , 13-H ) :   0.9208 B( 12-C , 14-H ) :   0.9232
B( 12-C , 15-O ) :   0.8695 B( 12-C , 16-C ) :   0.8968 B( 16-C , 17-C ) :   0.8684
B( 16-C , 20-O ) :   0.8522 B( 16-C , 21-H ) :   0.9239 B( 17-C , 18-C ) :   0.9235
B( 17-C , 22-H ) :   0.9316 B( 17-C , 23-O ) :   0.8997 B( 18-C , 19-C ) :   0.9386
B( 18-C , 24-H ) :   0.9421 B( 18-C , 25-H ) :   0.9399 B( 19-C , 20-O ) :   0.8481
B( 19-C , 26-H ) :   0.9316 B( 19-C , 27-H ) :   0.9372 B( 23-O , 28-H ) :   0.7978

FINAL SINGLE POINT ENERGY      -652.856362675046

DIPOLE MOMENT
-------------
                                X             Y             Z
Electronic contribution:     -1.38979      -2.48938       1.77644
Nuclear contribution   :      1.25585       2.56173      -2.89325
                        -----------------------------------------
Total Dipole Moment    :     -0.13394       0.07235      -1.11681
                        -----------------------------------------
Magnitude (a.u.)       :      1.12713
Magnitude (Debye)      :      2.86495

Rotational constants in cm-1:     0.058522     0.013822     0.012910
Rotational constants in MHz :  1754.454414   414.363522   387.035122

                             ****ORCA TERMINATED NORMALLY****
TOTAL RUN TIME: 0 days 2 hours 25 minutes 18 seconds 158 msec
