                         Program Version 4.2.1 -  RELEASE  -
|  1> # Test redundant internal optimization
|  2> #
|  3> ! RKS B3LYP  Opt TightSCF SmallPrint
|  4>
|  5> %basis
|  6>         Basis "6-31G"
|  7> end
|  8>
|  9> %geom
| 10> Constraints
| 11> { D 4  0  19  14  120.0   C } # D for Dihedral angle
| 12> { D 0  19  14  12  120.0   C } # D for Dihedral angle
| 13> { D 0  4  3  2   C } # D for Dihedral angle
| 14> { D 4  3  2  1   C } # D for Dihedral angle
| 15> { D 3  2  1  0   C } # D for Dihedral angle
| 16> { D 2  1  0  4   C } # D for Dihedral angle
| 17> { D 1  0  4  3   C } # D for Dihedral angle
| 18> { D 14  15  16  17   C } # D for Dihedral angle
| 19> { D 15  16  17  12   C } # D for Dihedral angle
| 20> { D 16  17  12  14   C } # D for Dihedral angle
| 21> { D 17  12  14  15   C } # D for Dihedral angle
| 22> { D 12  14  15  16   C } # D for Dihedral angle
| 23> end
| 24> end
| 25>
| 26>
| 27> #%pal
| 28> #nprocs 8
| 29> #end
| 30>
| 31> * xyz 0 1
| 32> C  -21.048   26.222   46.251
| 33> C  -20.361   27.558   45.944
| 34> C  -20.329   28.222   47.341
| 35> C  -20.110   27.022   48.296
| 36> O  -20.473   25.807   47.535
| 37> H  -20.833   25.428   45.533
| 38> H  -19.344   27.382   45.576
| 39> H  -20.898   28.157   45.201
| 40> H  -19.543   28.978   47.434
| 41> H  -21.289   28.710   47.548
| 42> H  -20.733   27.082   49.195
| 43> H  -19.064   26.913   48.597
| 44> C  -23.927   27.659   44.892
| 45> H  -24.080   28.660   44.459
| 46> C  -22.946   27.704   46.069
| 47> C  -23.848   28.230   47.210
| 48> C  -25.222   27.587   46.898
| 49> O  -25.175   27.161   45.481
| 50> H  -23.650   26.964   44.098
| 51> O  -22.472   26.381   46.366
| 52> H  -22.079   28.348   45.882
| 53> H  -23.477   27.961   48.204
| 54> H  -23.915   29.325   47.163
| 55> H  -26.055   28.285   47.035
| 56> H  -25.410   26.690   47.497
| 57> *
| 58>
| 59>                          ****END OF INPUT****
 Total Charge           Charge          ....    0
 Multiplicity           Mult            ....    1
 Number of Electrons    NEL             ....   86
FINAL SINGLE POINT ENERGY      -538.395435334917
FINAL SINGLE POINT ENERGY      -538.420642215097
FINAL SINGLE POINT ENERGY      -538.422247355427
FINAL SINGLE POINT ENERGY      -538.422606217157
FINAL SINGLE POINT ENERGY      -538.422623390151
FINAL SINGLE POINT ENERGY      -538.422627848513
                    ***********************HURRAY********************

CARTESIAN COORDINATES (ANGSTROEM)
---------------------------------
  C    -21.069163   26.319680   46.307894
  C    -20.135660   27.482732   45.955198
  C    -19.996562   28.213269   47.320047
  C    -20.026846   27.040892   48.330588
  O    -20.606464   25.888524   47.604891
  H    -20.963530   25.448046   45.659898
  H    -19.172230   27.060452   45.651237
  H    -20.489238   28.123250   45.143277
  H    -19.072071   28.794565   47.387429
  H    -20.835606   28.896993   47.486312
  H    -20.638433   27.252148   49.212534
  H    -19.025645   26.741698   48.653945
  C    -24.067105   27.730092   44.871274
  H    -24.343510   28.716442   44.467269
  C    -23.104790   27.879770   46.050638
  C    -24.069961   28.241492   47.198886
  C    -25.339468   27.422428   46.865893
  O    -25.229639   27.048123   45.438028
  H    -23.672220   27.100288   44.072452
  O    -22.494556   26.591145   46.348550
  H    -22.355855   28.656882   45.874892
  H    -23.641203   27.981476   48.169392
  H    -24.278906   29.318088   47.182230
  H    -26.261030   27.995562   47.016464
  H    -25.391308   26.491963   47.435782

 Multiplicity           Mult            ....    1
 Number of Electrons    NEL             ....   86
 Basis Dimension        Dim             ....  127

ORBITAL ENERGIES
----------------

  NO   OCC          E(Eh)            E(eV)
   0   2.0000     -19.138989      -520.7984
   1   2.0000     -19.137041      -520.7454
   2   2.0000     -19.125108      -520.4206
   3   2.0000     -10.281590      -279.7763
   4   2.0000     -10.243442      -278.7382
   5   2.0000     -10.229254      -278.3522
   6   2.0000     -10.220658      -278.1182
   7   2.0000     -10.217092      -278.0212
   8   2.0000     -10.197738      -277.4946
   9   2.0000     -10.197310      -277.4829
  10   2.0000     -10.185054      -277.1494
  11   2.0000      -1.050738       -28.5920
  12   2.0000      -1.012937       -27.5634
  13   2.0000      -0.988060       -26.8865
  14   2.0000      -0.793448       -21.5908
  15   2.0000      -0.784984       -21.3605
  16   2.0000      -0.739974       -20.1357
  17   2.0000      -0.725440       -19.7402
  18   2.0000      -0.622019       -16.9260
  19   2.0000      -0.606261       -16.4972
  20   2.0000      -0.595971       -16.2172
  21   2.0000      -0.564642       -15.3647
  22   2.0000      -0.528983       -14.3944
  23   2.0000      -0.506487       -13.7822
  24   2.0000      -0.487601       -13.2683
  25   2.0000      -0.480328       -13.0704
  26   2.0000      -0.451473       -12.2852
  27   2.0000      -0.448655       -12.2085
  28   2.0000      -0.427422       -11.6308
  29   2.0000      -0.424068       -11.5395
  30   2.0000      -0.406606       -11.0643
  31   2.0000      -0.387809       -10.5528
  32   2.0000      -0.374251       -10.1839
  33   2.0000      -0.367699       -10.0056
  34   2.0000      -0.364567        -9.9204
  35   2.0000      -0.361753        -9.8438
  36   2.0000      -0.353168        -9.6102
  37   2.0000      -0.315953        -8.5975
  38   2.0000      -0.301814        -8.2128
  39   2.0000      -0.289943        -7.8898
  40   2.0000      -0.266109        -7.2412
  41   2.0000      -0.250845        -6.8258
  42   2.0000      -0.229674        -6.2497
  43   0.0000       0.066955         1.8219
  44   0.0000       0.092210         2.5092
  45   0.0000       0.094485         2.5711
  46   0.0000       0.108401         2.9497
  47   0.0000       0.113242         3.0815

MULLIKEN ATOMIC CHARGES
-----------------------
   0 C :    0.320262
   1 C :   -0.308201
   2 C :   -0.307518
   3 C :   -0.003342
   4 O :   -0.494674
   5 H :    0.160737
   6 H :    0.159131
   7 H :    0.146631
   8 H :    0.146980
   9 H :    0.150340
  10 H :    0.146322
  11 H :    0.145565
  12 C :    0.015803
  13 H :    0.117588
  14 C :    0.053165
  15 C :   -0.282548
  16 C :    0.005482
  17 O :   -0.517552
  18 H :    0.156292
  19 O :   -0.522559
  20 H :    0.126191
  21 H :    0.158154
  22 H :    0.136246
  23 H :    0.130439
  24 H :    0.161067
Sum of atomic charges:   -0.0000000

LOEWDIN ATOMIC CHARGES
----------------------
   0 C :    0.183408
   1 C :   -0.234158
   2 C :   -0.221519
   3 C :   -0.030036
   4 O :   -0.313114
   5 H :    0.108053
   6 H :    0.124417
   7 H :    0.114147
   8 H :    0.116693
   9 H :    0.108796
  10 H :    0.104164
  11 H :    0.104228
  12 C :   -0.040561
  13 H :    0.088068
  14 C :    0.035598
  15 C :   -0.228909
  16 C :   -0.025921
  17 O :   -0.327678
  18 H :    0.117138
  19 O :   -0.323003
  20 H :    0.097292
  21 H :    0.124989
  22 H :    0.109293
  23 H :    0.096287
  24 H :    0.112325

  Mayer bond orders larger than 0.100000
B(  0-C ,  1-C ) :   0.9302 B(  0-C ,  4-O ) :   0.9134 B(  0-C ,  5-H ) :   0.9312
B(  0-C , 19-O ) :   0.8769 B(  1-C ,  2-C ) :   0.9501 B(  1-C ,  6-H ) :   0.9332
B(  1-C ,  7-H ) :   0.9283 B(  2-C ,  3-C ) :   0.9489 B(  2-C ,  8-H ) :   0.9457
B(  2-C ,  9-H ) :   0.9409 B(  3-C ,  4-O ) :   0.8484 B(  3-C , 10-H ) :   0.9337
B(  3-C , 11-H ) :   0.9392 B( 12-C , 13-H ) :   0.9113 B( 12-C , 14-C ) :   0.9245
B( 12-C , 17-O ) :   0.8777 B( 12-C , 18-H ) :   0.9337 B( 14-C , 15-C ) :   0.9447
B( 14-C , 19-O ) :   0.8304 B( 14-C , 20-H ) :   0.9061 B( 15-C , 16-C ) :   0.9482
B( 15-C , 21-H ) :   0.9389 B( 15-C , 22-H ) :   0.9393 B( 16-C , 17-O ) :   0.8553
B( 16-C , 23-H ) :   0.9337 B( 16-C , 24-H ) :   0.9347

FINAL SINGLE POINT ENERGY      -538.422628004977

DIPOLE MOMENT
-------------
                                X             Y             Z
Electronic contribution:     -1.97509      -4.99641      -1.21348
Nuclear contribution   :      3.05385       6.64313       1.30338
                        -----------------------------------------
Total Dipole Moment    :      1.07875       1.64672       0.08990
                        -----------------------------------------
Magnitude (a.u.)       :      1.97065
Magnitude (Debye)      :      5.00899

Rotational constants in cm-1:     0.079960     0.021073     0.020433
Rotational constants in MHz :  2397.153726   631.766842   612.569288

                             ****ORCA TERMINATED NORMALLY****
TOTAL RUN TIME: 0 days 0 hours 7 minutes 15 seconds 288 msec
