                         Program Version 4.2.0 -  RELEASE  -
|  1> # Test redundant internal optimization
|  2> #
|  3> ! RKS B3LYP  Opt TightSCF SmallPrint
|  4>
|  5> %basis
|  6>         Basis "6-31G"
|  7> end
|  8>
|  9> %geom
| 10> Constraints
| 11> { D 4  0  15  12  120.0   C } # D for Dihedral angle
| 12> { D 0  15  12  16  210.0   C } # D for Dihedral angle
| 13> { D 0  4  3  2   C } # D for Dihedral angle
| 14> { D 4  3  2  1   C } # D for Dihedral angle
| 15> { D 3  2  1  0   C } # D for Dihedral angle
| 16> { D 2  1  0  4   C } # D for Dihedral angle
| 17> { D 1  0  4  3   C } # D for Dihedral angle
| 18> { D 16  20  19  18   C } # D for Dihedral angle
| 19> { D 20  19  18  17   C } # D for Dihedral angle
| 20> { D 19  18  17  16   C } # D for Dihedral angle
| 21> { D 18  17  16  20   C } # D for Dihedral angle
| 22> { D 17  16  20  19   C } # D for Dihedral angle
| 23> { D 15  12  16  20   C } # D for Dihedral angle
| 24> end
| 25> end
| 26>
| 27>
| 28> #%pal
| 29> #nprocs 8
| 30> #end
| 31>
| 32> * xyz 0 1
| 33> C  -21.048   26.222   46.251
| 34> C  -20.361   27.558   45.944
| 35> C  -20.329   28.222   47.341
| 36> C  -20.110   27.022   48.296
| 37> O  -20.473   25.807   47.535
| 38> H  -20.833   25.428   45.533
| 39> H  -19.344   27.382   45.576
| 40> H  -20.898   28.157   45.201
| 41> H  -19.543   28.978   47.434
| 42> H  -21.289   28.710   47.548
| 43> H  -20.733   27.082   49.195
| 44> H  -19.064   26.913   48.597
| 45> C  -23.119   27.818   46.058
| 46> H  -22.348   28.557   46.308
| 47> H  -23.350   27.912   44.989
| 48> O  -22.586   26.394   46.375
| 49> C  -24.408   28.168   46.853
| 50> C  -25.505   27.123   46.621
| 51> C  -25.052   25.979   47.561
| 52> C  -24.434   26.736   48.763
| 53> O  -24.151   28.110   48.295
| 54> H  -24.704   29.193   46.621
| 55> H  -26.475   27.521   46.938
| 56> O  -25.620   26.675   45.139
| 57> H  -25.875   25.323   47.859
| 58> H  -24.295   25.361   47.063
| 59> H  -23.503   26.277   49.114
| 60> H  -25.127   26.819   49.605
| 61> H  -24.658   26.273   44.801
| 62> *
| 63>
| 64>                          ****END OF INPUT****
 Total Charge           Charge          ....    0
 Multiplicity           Mult            ....    1
 Number of Electrons    NEL             ....  102
FINAL SINGLE POINT ENERGY      -652.821002854909
FINAL SINGLE POINT ENERGY      -652.846017183038
FINAL SINGLE POINT ENERGY      -652.854350372666
FINAL SINGLE POINT ENERGY      -652.856482262673
FINAL SINGLE POINT ENERGY      -652.856815221530
FINAL SINGLE POINT ENERGY      -652.856872677980
FINAL SINGLE POINT ENERGY      -652.856874803819
                    ***********************HURRAY********************

CARTESIAN COORDINATES (ANGSTROEM)
---------------------------------
  C    -21.132933   26.371953   46.283898
  C    -20.213474   27.549408   45.940397
  C    -20.078931   28.268889   47.312890
  C    -20.092979   27.087832   48.311748
  O    -20.662966   25.934250   47.572964
  H    -21.025367   25.509416   45.623379
  H    -19.246001   27.146594   45.624108
  H    -20.590658   28.193704   45.141554
  H    -19.157399   28.855051   47.380880
  H    -20.920198   28.941812   47.499127
  H    -20.710505   27.282962   49.191846
  H    -19.089340   26.791453   48.629066
  C    -23.159293   27.935865   46.042140
  H    -22.490777   28.759629   46.303091
  H    -23.397222   28.008693   44.971492
  O    -22.559654   26.641388   46.332150
  C    -24.442627   28.097477   46.852840
  C    -25.533823   27.044056   46.596159
  C    -25.088392   25.884442   47.539643
  C    -24.496750   26.638143   48.749212
  O    -24.212962   28.025405   48.288172
  H    -24.819777   29.107481   46.648303
  H    -26.509198   27.441445   46.884081
  O    -25.675264   26.663693   45.205069
  H    -25.926765   25.237561   47.815823
  H    -24.318694   25.293404   47.040546
  H    -23.562763   26.191652   49.098457
  H    -25.201513   26.722349   49.582461
  H    -24.918775   26.093992   44.952504

 Multiplicity           Mult            ....    1
 Number of Electrons    NEL             ....  102
 Basis Dimension        Dim             ....  149

ORBITAL ENERGIES
----------------

  NO   OCC          E(Eh)            E(eV)
   0   2.0000     -19.147140      -521.0202
   1   2.0000     -19.142684      -520.8989
   2   2.0000     -19.136130      -520.7206
   3   2.0000     -19.130715      -520.5732
   4   2.0000     -10.286112      -279.8993
   5   2.0000     -10.233759      -278.4747
   6   2.0000     -10.232547      -278.4418
   7   2.0000     -10.228257      -278.3250
   8   2.0000     -10.228236      -278.3245
   9   2.0000     -10.215713      -277.9837
  10   2.0000     -10.198226      -277.5078
  11   2.0000     -10.194631      -277.4100
  12   2.0000     -10.172786      -276.8156
  13   2.0000      -1.055081       -28.7102
  14   2.0000      -1.023719       -27.8568
  15   2.0000      -1.006242       -27.3812
  16   2.0000      -0.995327       -27.0842
  17   2.0000      -0.792789       -21.5729
  18   2.0000      -0.774043       -21.0628
  19   2.0000      -0.762231       -20.7414
  20   2.0000      -0.733964       -19.9722
  21   2.0000      -0.680336       -18.5129
  22   2.0000      -0.608489       -16.5578
  23   2.0000      -0.598943       -16.2981
  24   2.0000      -0.596282       -16.2257
  25   2.0000      -0.561738       -15.2857
  26   2.0000      -0.530208       -14.4277
  27   2.0000      -0.508495       -13.8368
  28   2.0000      -0.500214       -13.6115
  29   2.0000      -0.488962       -13.3053
  30   2.0000      -0.468447       -12.7471
  31   2.0000      -0.457672       -12.4539
  32   2.0000      -0.446733       -12.1562
  33   2.0000      -0.427434       -11.6311
  34   2.0000      -0.418982       -11.4011
  35   2.0000      -0.417765       -11.3680
  36   2.0000      -0.399660       -10.8753
  37   2.0000      -0.396243       -10.7823
  38   2.0000      -0.388918       -10.5830
  39   2.0000      -0.365955        -9.9581
  40   2.0000      -0.364127        -9.9084
  41   2.0000      -0.356475        -9.7002
  42   2.0000      -0.348343        -9.4789
  43   2.0000      -0.322796        -8.7837
  44   2.0000      -0.315012        -8.5719
  45   2.0000      -0.305347        -8.3089
  46   2.0000      -0.294566        -8.0155
  47   2.0000      -0.275670        -7.5014
  48   2.0000      -0.258157        -7.0248
  49   2.0000      -0.255245        -6.9456
  50   2.0000      -0.235719        -6.4142
  51   0.0000       0.066160         1.8003
  52   0.0000       0.083554         2.2736
  53   0.0000       0.094192         2.5631
  54   0.0000       0.097601         2.6558
  55   0.0000       0.104285         2.8377

MULLIKEN ATOMIC CHARGES
-----------------------
   0 C :    0.326924
   1 C :   -0.306779
   2 C :   -0.313956
   3 C :   -0.005477
   4 O :   -0.499523
   5 H :    0.155652
   6 H :    0.158015
   7 H :    0.150076
   8 H :    0.146538
   9 H :    0.170167
  10 H :    0.159444
  11 H :    0.144412
  12 C :   -0.016457
  13 H :    0.140391
  14 H :    0.136245
  15 O :   -0.550966
  16 C :    0.099926
  17 C :    0.090232
  18 C :   -0.310309
  19 C :   -0.010572
  20 O :   -0.528799
  21 H :    0.142245
  22 H :    0.157195
  23 O :   -0.610127
  24 H :    0.140555
  25 H :    0.174952
  26 H :    0.158102
  27 H :    0.138056
  28 H :    0.363838
Sum of atomic charges:   -0.0000000

LOEWDIN ATOMIC CHARGES
----------------------
   0 C :    0.183139
   1 C :   -0.232147
   2 C :   -0.221599
   3 C :   -0.028861
   4 O :   -0.315172
   5 H :    0.105116
   6 H :    0.123882
   7 H :    0.116858
   8 H :    0.116721
   9 H :    0.117108
  10 H :    0.110968
  11 H :    0.103786
  12 C :   -0.046142
  13 H :    0.103245
  14 H :    0.097984
  15 O :   -0.340614
  16 C :    0.019446
  17 C :    0.038941
  18 C :   -0.242212
  19 C :   -0.026169
  20 O :   -0.328157
  21 H :    0.110883
  22 H :    0.114356
  23 O :   -0.413468
  24 H :    0.113175
  25 H :    0.126569
  26 H :    0.110888
  27 H :    0.099137
  28 H :    0.282337

  Mayer bond orders larger than 0.100000
B(  0-C ,  1-C ) :   0.9349 B(  0-C ,  4-O ) :   0.9239 B(  0-C ,  5-H ) :   0.9327
B(  0-C , 15-O ) :   0.8499 B(  1-C ,  2-C ) :   0.9511 B(  1-C ,  6-H ) :   0.9338
B(  1-C ,  7-H ) :   0.9304 B(  2-C ,  3-C ) :   0.9495 B(  2-C ,  8-H ) :   0.9450
B(  2-C ,  9-H ) :   0.9319 B(  3-C ,  4-O ) :   0.8386 B(  3-C , 10-H ) :   0.9321
B(  3-C , 11-H ) :   0.9396 B( 12-C , 13-H ) :   0.9070 B( 12-C , 14-H ) :   0.9086
B( 12-C , 15-O ) :   0.8329 B( 12-C , 16-C ) :   0.9033 B( 16-C , 17-C ) :   0.8881
B( 16-C , 20-O ) :   0.8821 B( 16-C , 21-H ) :   0.9289 B( 17-C , 18-C ) :   0.9348
B( 17-C , 22-H ) :   0.9376 B( 17-C , 23-O ) :   0.8971 B( 18-C , 19-C ) :   0.9479
B( 18-C , 24-H ) :   0.9410 B( 18-C , 25-H ) :   0.9244 B( 19-C , 20-O ) :   0.8300
B( 19-C , 26-H ) :   0.9289 B( 19-C , 27-H ) :   0.9379 B( 23-O , 28-H ) :   0.7932

FINAL SINGLE POINT ENERGY      -652.856873812461

DIPOLE MOMENT
-------------
                                X             Y             Z
Electronic contribution:     -2.95999      -1.79132      -0.77511
Nuclear contribution   :      3.99506       2.19226       0.48857
                        -----------------------------------------
Total Dipole Moment    :      1.03506       0.40094      -0.28654
                        -----------------------------------------
Magnitude (a.u.)       :      1.14639
Magnitude (Debye)      :      2.91389

Rotational constants in cm-1:     0.047924     0.017138     0.015763
Rotational constants in MHz :  1436.736940   513.794756   472.561387

                             ****ORCA TERMINATED NORMALLY****
TOTAL RUN TIME: 0 days 0 hours 27 minutes 32 seconds 83 msec
