                         Program Version 4.2.1 -  RELEASE  -
|  1> # Test redundant internal optimization
|  2> #
|  3> ! RKS B3LYP  Opt TightSCF SmallPrint
|  4>
|  5> %basis
|  6>         Basis "6-31G"
|  7> end
|  8>
|  9> %geom
| 10> Constraints
| 11> { D 4  0  19  14  270.0   C } # D for Dihedral angle
| 12> { D 0  19  14  12  15.0   C } # D for Dihedral angle
| 13> { D 0  4  3  2   C } # D for Dihedral angle
| 14> { D 4  3  2  1   C } # D for Dihedral angle
| 15> { D 3  2  1  0   C } # D for Dihedral angle
| 16> { D 2  1  0  4   C } # D for Dihedral angle
| 17> { D 1  0  4  3   C } # D for Dihedral angle
| 18> { D 14  15  16  17   C } # D for Dihedral angle
| 19> { D 15  16  17  12   C } # D for Dihedral angle
| 20> { D 16  17  12  14   C } # D for Dihedral angle
| 21> { D 17  12  14  15   C } # D for Dihedral angle
| 22> { D 12  14  15  16   C } # D for Dihedral angle
| 23> end
| 24> end
| 25>
| 26>
| 27> #%pal
| 28> #nprocs 8
| 29> #end
| 30>
| 31> * xyz 0 1
| 32> C  -21.048   26.222   46.251
| 33> C  -20.361   27.558   45.944
| 34> C  -20.329   28.222   47.341
| 35> C  -20.110   27.022   48.296
| 36> O  -20.473   25.807   47.535
| 37> H  -20.833   25.428   45.533
| 38> H  -19.344   27.382   45.576
| 39> H  -20.898   28.157   45.201
| 40> H  -19.543   28.978   47.434
| 41> H  -21.289   28.710   47.548
| 42> H  -20.733   27.082   49.195
| 43> H  -19.064   26.913   48.597
| 44> C  -22.301   23.969   46.092
| 45> H  -22.775   23.104   45.602
| 46> C  -23.226   25.191   46.082
| 47> C  -24.190   24.865   47.246
| 48> C  -23.278   24.135   48.265
| 49> O  -22.081   23.693   47.516
| 50> H  -21.320   24.139   45.645
| 51> O  -22.472   26.381   46.366
| 52> H  -23.744   25.330   45.127
| 53> H  -24.660   25.757   47.672
| 54> H  -24.990   24.199   46.898
| 55> H  -23.763   23.261   48.713
| 56> H  -22.932   24.796   49.065
| 57> *
| 58>
| 59>                          ****END OF INPUT****
 Total Charge           Charge          ....    0
 Multiplicity           Mult            ....    1
 Number of Electrons    NEL             ....   86
FINAL SINGLE POINT ENERGY      -538.403272439286
FINAL SINGLE POINT ENERGY      -538.426835320471
FINAL SINGLE POINT ENERGY      -538.428665861597
FINAL SINGLE POINT ENERGY      -538.428955363379
FINAL SINGLE POINT ENERGY      -538.428994128232
FINAL SINGLE POINT ENERGY      -538.429002245889
                    ***********************HURRAY********************

CARTESIAN COORDINATES (ANGSTROEM)
---------------------------------
  C    -20.841833   26.225455   46.243481
  C    -20.367694   27.654224   45.970758
  C    -20.443970   28.289784   47.380535
  C    -20.048521   27.119368   48.308711
  O    -20.223660   25.884003   47.506356
  H    -20.500798   25.480135   45.522289
  H    -19.332843   27.628015   45.610227
  H    -20.991690   28.161537   45.232521
  H    -19.779960   29.152351   47.490655
  H    -21.469683   28.612828   47.580739
  H    -20.673137   27.052818   49.203297
  H    -18.996343   27.152608   48.607671
  C    -22.475519   23.724559   46.057469
  H    -23.158083   23.008557   45.574324
  C    -23.135442   25.101596   46.075097
  C    -24.102631   24.966856   47.263689
  C    -23.330478   24.065963   48.257256
  O    -22.268922   23.398729   47.468481
  H    -21.503876   23.666558   45.566025
  O    -22.278433   26.267738   46.325449
  H    -23.664394   25.305833   45.135946
  H    -24.348088   25.949048   47.672558
  H    -25.029568   24.485498   46.931007
  H    -23.967159   23.304555   48.720236
  H    -22.824274   24.642385   49.035224

 Multiplicity           Mult            ....    1
 Number of Electrons    NEL             ....   86
 Basis Dimension        Dim             ....  127

ORBITAL ENERGIES
----------------

  NO   OCC          E(Eh)            E(eV)
   0   2.0000     -19.138098      -520.7741
   1   2.0000     -19.130007      -520.5540
   2   2.0000     -19.125033      -520.4186
   3   2.0000     -10.274709      -279.5890
   4   2.0000     -10.240287      -278.6524
   5   2.0000     -10.225117      -278.2396
   6   2.0000     -10.218226      -278.0521
   7   2.0000     -10.215931      -277.9896
   8   2.0000     -10.181353      -277.0487
   9   2.0000     -10.180435      -277.0237
  10   2.0000     -10.180060      -277.0135
  11   2.0000      -1.046171       -28.4678
  12   2.0000      -1.009464       -27.4689
  13   2.0000      -0.984384       -26.7864
  14   2.0000      -0.789675       -21.4881
  15   2.0000      -0.772754       -21.0277
  16   2.0000      -0.735341       -20.0097
  17   2.0000      -0.720741       -19.6124
  18   2.0000      -0.616717       -16.7817
  19   2.0000      -0.593228       -16.1426
  20   2.0000      -0.592243       -16.1158
  21   2.0000      -0.563379       -15.3303
  22   2.0000      -0.522801       -14.2262
  23   2.0000      -0.497365       -13.5340
  24   2.0000      -0.483739       -13.1632
  25   2.0000      -0.473465       -12.8836
  26   2.0000      -0.447201       -12.1690
  27   2.0000      -0.439003       -11.9459
  28   2.0000      -0.429038       -11.6747
  29   2.0000      -0.410531       -11.1711
  30   2.0000      -0.398943       -10.8558
  31   2.0000      -0.375688       -10.2230
  32   2.0000      -0.372663       -10.1407
  33   2.0000      -0.361523        -9.8375
  34   2.0000      -0.357743        -9.7347
  35   2.0000      -0.350582        -9.5398
  36   2.0000      -0.340272        -9.2593
  37   2.0000      -0.319851        -8.7036
  38   2.0000      -0.302189        -8.2230
  39   2.0000      -0.287302        -7.8179
  40   2.0000      -0.262101        -7.1321
  41   2.0000      -0.242505        -6.5989
  42   2.0000      -0.230914        -6.2835
  43   0.0000       0.080109         2.1799
  44   0.0000       0.099943         2.7196
  45   0.0000       0.101393         2.7590
  46   0.0000       0.109298         2.9741
  47   0.0000       0.118635         3.2282

MULLIKEN ATOMIC CHARGES
-----------------------
   0 C :    0.294671
   1 C :   -0.255713
   2 C :   -0.296086
   3 C :   -0.002547
   4 O :   -0.496065
   5 H :    0.137764
   6 H :    0.142544
   7 H :    0.149928
   8 H :    0.137270
   9 H :    0.158585
  10 H :    0.143686
  11 H :    0.140328
  12 C :   -0.026705
  13 H :    0.131181
  14 C :    0.102162
  15 C :   -0.291926
  16 C :    0.003154
  17 O :   -0.510846
  18 H :    0.158197
  19 O :   -0.539513
  20 H :    0.133021
  21 H :    0.161944
  22 H :    0.135941
  23 H :    0.133093
  24 H :    0.155934
Sum of atomic charges:   -0.0000000

LOEWDIN ATOMIC CHARGES
----------------------
   0 C :    0.174574
   1 C :   -0.215184
   2 C :   -0.216141
   3 C :   -0.028549
   4 O :   -0.318621
   5 H :    0.095181
   6 H :    0.112102
   7 H :    0.120409
   8 H :    0.111696
   9 H :    0.117210
  10 H :    0.103099
  11 H :    0.101403
  12 C :   -0.049470
  13 H :    0.097019
  14 C :    0.045267
  15 C :   -0.227113
  16 C :   -0.028043
  17 O :   -0.323337
  18 H :    0.114769
  19 O :   -0.331011
  20 H :    0.100309
  21 H :    0.127442
  22 H :    0.109456
  23 H :    0.097774
  24 H :    0.109760

  Mayer bond orders larger than 0.100000
B(  0-C ,  1-C ) :   0.9426 B(  0-C ,  4-O ) :   0.9192 B(  0-C ,  5-H ) :   0.9172
B(  0-C , 19-O ) :   0.8525 B(  1-C ,  2-C ) :   0.9593 B(  1-C ,  6-H ) :   0.9405
B(  1-C ,  7-H ) :   0.9377 B(  2-C ,  3-C ) :   0.9529 B(  2-C ,  8-H ) :   0.9458
B(  2-C ,  9-H ) :   0.9448 B(  3-C ,  4-O ) :   0.8455 B(  3-C , 10-H ) :   0.9353
B(  3-C , 11-H ) :   0.9399 B( 12-C , 13-H ) :   0.9071 B( 12-C , 14-C ) :   0.9270
B( 12-C , 17-O ) :   0.8732 B( 12-C , 18-H ) :   0.9247 B( 14-C , 15-C ) :   0.9438
B( 14-C , 19-O ) :   0.8377 B( 14-C , 20-H ) :   0.9291 B( 15-C , 16-C ) :   0.9481
B( 15-C , 21-H ) :   0.9369 B( 15-C , 22-H ) :   0.9392 B( 16-C , 17-O ) :   0.8527
B( 16-C , 23-H ) :   0.9336 B( 16-C , 24-H ) :   0.9344

FINAL SINGLE POINT ENERGY      -538.429003295362

DIPOLE MOMENT
-------------
                                X             Y             Z
Electronic contribution:      0.85790      -2.98981      -0.47597
Nuclear contribution   :     -1.37101       3.74190      -0.05270
                        -----------------------------------------
Total Dipole Moment    :     -0.51311       0.75209      -0.52867
                        -----------------------------------------
Magnitude (a.u.)       :      1.05281
Magnitude (Debye)      :      2.67603

Rotational constants in cm-1:     0.071564     0.024456     0.023115
Rotational constants in MHz :  2145.448055   733.175681   692.976303

                             ****ORCA TERMINATED NORMALLY****
TOTAL RUN TIME: 0 days 0 hours 7 minutes 31 seconds 808 msec
