                         Program Version 4.2.0 -  RELEASE  -
|  1> # Test redundant internal optimization
|  2> #
|  3> ! RKS B3LYP  Opt TightSCF SmallPrint
|  4>
|  5> %basis
|  6>         Basis "6-31G"
|  7> end
|  8>
|  9> %geom
| 10> Constraints
| 11> { D 4  0  15  12  180.0   C } # D for Dihedral angle
| 12> { D 0  15  12  16  240.0   C } # D for Dihedral angle
| 13> { D 0  4  3  2   C } # D for Dihedral angle
| 14> { D 4  3  2  1   C } # D for Dihedral angle
| 15> { D 3  2  1  0   C } # D for Dihedral angle
| 16> { D 2  1  0  4   C } # D for Dihedral angle
| 17> { D 1  0  4  3   C } # D for Dihedral angle
| 18> { D 16  20  19  18   C } # D for Dihedral angle
| 19> { D 20  19  18  17   C } # D for Dihedral angle
| 20> { D 19  18  17  16   C } # D for Dihedral angle
| 21> { D 18  17  16  20   C } # D for Dihedral angle
| 22> { D 17  16  20  19   C } # D for Dihedral angle
| 23> { D 15  12  16  20   C } # D for Dihedral angle
| 24> end
| 25> end
| 26>
| 27>
| 28> #%pal
| 29> #nprocs 8
| 30> #end
| 31>
| 32> * xyz 0 1
| 33> C  -21.048   26.222   46.251
| 34> C  -20.361   27.558   45.944
| 35> C  -20.329   28.222   47.341
| 36> C  -20.110   27.022   48.296
| 37> O  -20.473   25.807   47.535
| 38> H  -20.833   25.428   45.533
| 39> H  -19.344   27.382   45.576
| 40> H  -20.898   28.157   45.201
| 41> H  -19.543   28.978   47.434
| 42> H  -21.289   28.710   47.548
| 43> H  -20.733   27.082   49.195
| 44> H  -19.064   26.913   48.597
| 45> C  -23.309   26.834   45.072
| 46> H  -22.571   26.938   44.267
| 47> H  -24.044   26.078   44.767
| 48> O  -22.586   26.394   46.375
| 49> C  -24.057   28.186   45.228
| 50> C  -23.079   29.337   45.488
| 51> C  -22.542   29.621   44.065
| 52> C  -23.776   29.356   43.165
| 53> O  -24.720   28.553   43.971
| 54> H  -24.839   28.078   45.982
| 55> O  -23.843   30.570   46.043
| 56> H  -22.286   29.076   46.197
| 57> H  -22.155   30.638   43.953
| 58> H  -21.731   28.925   43.823
| 59> H  -23.520   28.804   42.255
| 60> H  -24.294   30.278   42.886
| 61> H  -24.643   30.851   45.348
| 62> *
| 63>
| 64>                          ****END OF INPUT****
 Total Charge           Charge          ....    0
 Multiplicity           Mult            ....    1
 Number of Electrons    NEL             ....  102
FINAL SINGLE POINT ENERGY      -652.821865603983
FINAL SINGLE POINT ENERGY      -652.844699631285
FINAL SINGLE POINT ENERGY      -652.849354901710
FINAL SINGLE POINT ENERGY      -652.852011734024
FINAL SINGLE POINT ENERGY      -652.852320624906
FINAL SINGLE POINT ENERGY      -652.852367404951
FINAL SINGLE POINT ENERGY      -652.852369704912
                    ***********************HURRAY********************

CARTESIAN COORDINATES (ANGSTROEM)
---------------------------------
  C    -21.074529   26.215232   46.241559
  C    -20.222103   27.448830   45.940111
  C    -20.203739   28.180097   47.312472
  C    -20.188505   27.001229   48.310074
  O    -20.642785   25.818129   47.544359
  H    -20.887024   25.372037   45.567589
  H    -19.213692   27.115018   45.671223
  H    -20.601629   28.065716   45.123846
  H    -19.332876   28.832847   47.423489
  H    -21.102642   28.783396   47.452888
  H    -20.861222   27.147463   49.158673
  H    -19.184938   26.769229   48.678074
  C    -23.251478   26.862254   45.119903
  H    -22.582943   26.891208   44.245694
  H    -24.012899   26.101882   44.920620
  O    -22.515961   26.442037   46.309226
  C    -23.977791   28.213400   45.239586
  C    -23.152256   29.488490   45.472147
  C    -22.617741   29.788690   44.043248
  C    -23.794268   29.338637   43.138265
  O    -24.648630   28.455153   43.958405
  H    -24.758386   28.135549   46.002695
  O    -24.003180   30.562862   45.957419
  H    -22.373323   29.380014   46.217879
  H    -22.379453   30.849601   43.936004
  H    -21.713898   29.209804   43.831418
  H    -23.461049   28.790596   42.251453
  H    -24.416080   30.178407   42.812581
  H    -24.844980   30.560192   45.455098

 Multiplicity           Mult            ....    1
 Number of Electrons    NEL             ....  102
 Basis Dimension        Dim             ....  149

ORBITAL ENERGIES
----------------

  NO   OCC          E(Eh)            E(eV)
   0   2.0000     -19.150895      -521.1223
   1   2.0000     -19.143778      -520.9287
   2   2.0000     -19.141852      -520.8763
   3   2.0000     -19.140660      -520.8438
   4   2.0000     -10.284205      -279.8474
   5   2.0000     -10.244395      -278.7642
   6   2.0000     -10.238037      -278.5912
   7   2.0000     -10.237980      -278.5896
   8   2.0000     -10.235047      -278.5098
   9   2.0000     -10.228259      -278.3251
  10   2.0000     -10.195902      -277.4446
  11   2.0000     -10.195056      -277.4216
  12   2.0000     -10.193245      -277.3723
  13   2.0000      -1.055208       -28.7137
  14   2.0000      -1.044050       -28.4100
  15   2.0000      -1.011550       -27.5257
  16   2.0000      -0.994797       -27.0698
  17   2.0000      -0.792214       -21.5572
  18   2.0000      -0.784193       -21.3390
  19   2.0000      -0.772961       -21.0333
  20   2.0000      -0.737691       -20.0736
  21   2.0000      -0.681439       -18.5429
  22   2.0000      -0.611120       -16.6294
  23   2.0000      -0.607423       -16.5288
  24   2.0000      -0.598911       -16.2972
  25   2.0000      -0.582625       -15.8540
  26   2.0000      -0.527519       -14.3545
  27   2.0000      -0.521307       -14.1855
  28   2.0000      -0.504253       -13.7214
  29   2.0000      -0.491814       -13.3829
  30   2.0000      -0.481295       -13.0967
  31   2.0000      -0.458996       -12.4899
  32   2.0000      -0.458089       -12.4652
  33   2.0000      -0.438892       -11.9429
  34   2.0000      -0.427528       -11.6336
  35   2.0000      -0.422130       -11.4867
  36   2.0000      -0.414337       -11.2747
  37   2.0000      -0.398953       -10.8561
  38   2.0000      -0.380200       -10.3458
  39   2.0000      -0.379394       -10.3238
  40   2.0000      -0.364063        -9.9067
  41   2.0000      -0.360525        -9.8104
  42   2.0000      -0.358043        -9.7428
  43   2.0000      -0.336055        -9.1445
  44   2.0000      -0.314527        -8.5587
  45   2.0000      -0.311947        -8.4885
  46   2.0000      -0.300899        -8.1879
  47   2.0000      -0.277767        -7.5584
  48   2.0000      -0.267419        -7.2768
  49   2.0000      -0.261331        -7.1112
  50   2.0000      -0.242310        -6.5936
  51   0.0000       0.058486         1.5915
  52   0.0000       0.066913         1.8208
  53   0.0000       0.086598         2.3565
  54   0.0000       0.093975         2.5572
  55   0.0000       0.097329         2.6485

MULLIKEN ATOMIC CHARGES
-----------------------
   0 C :    0.317675
   1 C :   -0.294897
   2 C :   -0.314233
   3 C :   -0.001704
   4 O :   -0.498647
   5 H :    0.143195
   6 H :    0.152460
   7 H :    0.139497
   8 H :    0.146631
   9 H :    0.175118
  10 H :    0.158251
  11 H :    0.144199
  12 C :   -0.013454
  13 H :    0.117915
  14 H :    0.167774
  15 O :   -0.520120
  16 C :    0.055716
  17 C :    0.075575
  18 C :   -0.306436
  19 C :   -0.031349
  20 O :   -0.523936
  21 H :    0.171152
  22 O :   -0.601406
  23 H :    0.163815
  24 H :    0.164995
  25 H :    0.146821
  26 H :    0.147985
  27 H :    0.151169
  28 H :    0.366240
Sum of atomic charges:   -0.0000000

LOEWDIN ATOMIC CHARGES
----------------------
   0 C :    0.186934
   1 C :   -0.236421
   2 C :   -0.219344
   3 C :   -0.024432
   4 O :   -0.297953
   5 H :    0.095891
   6 H :    0.119985
   7 H :    0.109357
   8 H :    0.116846
   9 H :    0.116178
  10 H :    0.110968
  11 H :    0.103410
  12 C :   -0.040719
  13 H :    0.090912
  14 H :    0.118904
  15 O :   -0.343678
  16 C :    0.012659
  17 C :    0.034828
  18 C :   -0.243167
  19 C :   -0.039041
  20 O :   -0.327512
  21 H :    0.119532
  22 O :   -0.412627
  23 H :    0.118986
  24 H :    0.128017
  25 H :    0.109177
  26 H :    0.104327
  27 H :    0.104425
  28 H :    0.283560

  Mayer bond orders larger than 0.100000
B(  0-C ,  1-C ) :   0.9218 B(  0-C ,  4-O ) :   0.9408 B(  0-C ,  5-H ) :   0.9228
B(  0-C , 15-O ) :   0.8394 B(  1-C ,  2-C ) :   0.9516 B(  1-C ,  6-H ) :   0.9319
B(  1-C ,  7-H ) :   0.9195 B(  2-C ,  3-C ) :   0.9492 B(  2-C ,  8-H ) :   0.9445
B(  2-C ,  9-H ) :   0.9216 B(  3-C ,  4-O ) :   0.8342 B(  3-C , 10-H ) :   0.9339
B(  3-C , 11-H ) :   0.9394 B( 12-C , 13-H ) :   0.9259 B( 12-C , 14-H ) :   0.9246
B( 12-C , 15-O ) :   0.8410 B( 12-C , 16-C ) :   0.8901 B( 16-C , 17-C ) :   0.9128
B( 16-C , 20-O ) :   0.8308 B( 16-C , 21-H ) :   0.9244 B( 17-C , 18-C ) :   0.9110
B( 17-C , 22-O ) :   0.8935 B( 17-C , 23-H ) :   0.9066 B( 18-C , 19-C ) :   0.9392
B( 18-C , 24-H ) :   0.9373 B( 18-C , 25-H ) :   0.9218 B( 19-C , 20-O ) :   0.8416
B( 19-C , 26-H ) :   0.9351 B( 19-C , 27-H ) :   0.9371 B( 22-O , 28-H ) :   0.7926

FINAL SINGLE POINT ENERGY      -652.852370530727

DIPOLE MOMENT
-------------
                                X             Y             Z
Electronic contribution:     -4.59027      -3.22423       1.84600
Nuclear contribution   :      5.52275       3.98444      -2.86477
                        -----------------------------------------
Total Dipole Moment    :      0.93249       0.76020      -1.01877
                        -----------------------------------------
Magnitude (a.u.)       :      1.57649
Magnitude (Debye)      :      4.00713

Rotational constants in cm-1:     0.049472     0.015383     0.014036
Rotational constants in MHz :  1483.136351   461.161482   420.789030

                             ****ORCA TERMINATED NORMALLY****
TOTAL RUN TIME: 0 days 0 hours 24 minutes 8 seconds 891 msec
