                         Program Version 4.2.0 -  RELEASE  -
|  1> # Test redundant internal optimization
|  2> #
|  3> ! RKS B3LYP  Opt TightSCF SmallPrint
|  4>
|  5> %basis
|  6>         Basis "6-31G"
|  7> end
|  8>
|  9> %geom
| 10> Constraints
| 11> { D 4  0  15  12  345.0   C } # D for Dihedral angle
| 12> { D 0  15  12  16  180.0   C } # D for Dihedral angle
| 13> { D 0  4  3  2   C } # D for Dihedral angle
| 14> { D 4  3  2  1   C } # D for Dihedral angle
| 15> { D 3  2  1  0   C } # D for Dihedral angle
| 16> { D 2  1  0  4   C } # D for Dihedral angle
| 17> { D 1  0  4  3   C } # D for Dihedral angle
| 18> { D 16  20  19  18   C } # D for Dihedral angle
| 19> { D 20  19  18  17   C } # D for Dihedral angle
| 20> { D 19  18  17  16   C } # D for Dihedral angle
| 21> { D 18  17  16  20   C } # D for Dihedral angle
| 22> { D 17  16  20  19   C } # D for Dihedral angle
| 23> { D 15  12  16  20   C } # D for Dihedral angle
| 24> end
| 25> end
| 26>
| 27>
| 28> #%pal
| 29> #nprocs 8
| 30> #end
| 31>
| 32> * xyz 0 1
| 33> C  -21.048   26.222   46.251
| 34> C  -20.361   27.558   45.944
| 35> C  -20.329   28.222   47.341
| 36> C  -20.110   27.022   48.296
| 37> O  -20.473   25.807   47.535
| 38> H  -20.833   25.428   45.533
| 39> H  -19.344   27.382   45.576
| 40> H  -20.898   28.157   45.201
| 41> H  -19.543   28.978   47.434
| 42> H  -21.289   28.710   47.548
| 43> H  -20.733   27.082   49.195
| 44> H  -19.064   26.913   48.597
| 45> C  -23.221   25.764   47.645
| 46> H  -23.015   24.687   47.656
| 47> H  -22.785   26.205   48.551
| 48> O  -22.586   26.394   46.375
| 49> C  -24.760   25.969   47.712
| 50> C  -25.335   25.439   49.030
| 51> C  -24.984   26.584   50.009
| 52> C  -25.131   27.853   49.132
| 53> O  -25.086   27.399   47.726
| 54> H  -25.216   25.545   46.816
| 55> O  -26.874   25.271   48.911
| 56> H  -24.905   24.477   49.331
| 57> H  -25.637   26.607   50.888
| 58> H  -23.952   26.476   50.362
| 59> H  -24.324   28.575   49.301
| 60> H  -26.092   28.354   49.279
| 61> H  -27.326   26.223   48.611
| 62> *
| 63>
| 64>                          ****END OF INPUT****
 Total Charge           Charge          ....    0
 Multiplicity           Mult            ....    1
 Number of Electrons    NEL             ....  102
FINAL SINGLE POINT ENERGY      -652.832204655533
FINAL SINGLE POINT ENERGY      -652.855352070337
FINAL SINGLE POINT ENERGY      -652.859516088935
FINAL SINGLE POINT ENERGY      -652.860285787171
FINAL SINGLE POINT ENERGY      -652.860397800149
FINAL SINGLE POINT ENERGY      -652.860415072120
                    ***********************HURRAY********************

CARTESIAN COORDINATES (ANGSTROEM)
---------------------------------
  C    -21.142052   26.198530   46.318161
  C    -20.570107   27.570332   45.962031
  C    -20.369387   28.198878   47.358269
  C    -19.961800   26.995371   48.235816
  O    -20.383246   25.782629   47.477990
  H    -20.992511   25.417806   45.566713
  H    -19.613902   27.440504   45.441761
  H    -21.249975   28.142797   45.327687
  H    -19.611077   28.987993   47.360167
  H    -21.314448   28.629805   47.703015
  H    -20.450212   26.986490   49.214690
  H    -18.879796   26.913299   48.374685
  C    -23.116915   25.731407   47.766932
  H    -22.950739   24.644315   47.780297
  H    -22.639080   26.153139   48.659257
  O    -22.570226   26.327275   46.562179
  C    -24.614780   26.018919   47.760189
  C    -25.359336   25.491105   48.995150
  C    -25.104006   26.622338   50.025508
  C    -25.114736   27.900267   49.149916
  O    -24.908409   27.455771   47.751350
  H    -25.043022   25.617067   46.837326
  O    -26.777051   25.330922   48.715123
  H    -25.019388   24.511950   49.334716
  H    -25.878974   26.624200   50.796364
  H    -24.133337   26.479420   50.513440
  H    -24.323577   28.606396   49.421784
  H    -26.074982   28.424876   49.185324
  H    -27.086927   26.099200   48.190161

 Multiplicity           Mult            ....    1
 Number of Electrons    NEL             ....  102
 Basis Dimension        Dim             ....  149

ORBITAL ENERGIES
----------------

  NO   OCC          E(Eh)            E(eV)
   0   2.0000     -19.148913      -521.0684
   1   2.0000     -19.139771      -520.8196
   2   2.0000     -19.137692      -520.7631
   3   2.0000     -19.136624      -520.7340
   4   2.0000     -10.277510      -279.6653
   5   2.0000     -10.242229      -278.7052
   6   2.0000     -10.232010      -278.4272
   7   2.0000     -10.232005      -278.4270
   8   2.0000     -10.230409      -278.3836
   9   2.0000     -10.229545      -278.3601
  10   2.0000     -10.189728      -277.2766
  11   2.0000     -10.188218      -277.2355
  12   2.0000     -10.183697      -277.1125
  13   2.0000      -1.054750       -28.7012
  14   2.0000      -1.035186       -28.1688
  15   2.0000      -1.005450       -27.3597
  16   2.0000      -0.990612       -26.9559
  17   2.0000      -0.791639       -21.5416
  18   2.0000      -0.782201       -21.2848
  19   2.0000      -0.768219       -20.9043
  20   2.0000      -0.732652       -19.9365
  21   2.0000      -0.672055       -18.2875
  22   2.0000      -0.604625       -16.4527
  23   2.0000      -0.602439       -16.3932
  24   2.0000      -0.591885       -16.1060
  25   2.0000      -0.577464       -15.7136
  26   2.0000      -0.527795       -14.3620
  27   2.0000      -0.507629       -13.8133
  28   2.0000      -0.495332       -13.4787
  29   2.0000      -0.491932       -13.3861
  30   2.0000      -0.476667       -12.9708
  31   2.0000      -0.460125       -12.5206
  32   2.0000      -0.451719       -12.2919
  33   2.0000      -0.441405       -12.0112
  34   2.0000      -0.415493       -11.3061
  35   2.0000      -0.409599       -11.1458
  36   2.0000      -0.403973       -10.9927
  37   2.0000      -0.393542       -10.7088
  38   2.0000      -0.372885       -10.1467
  39   2.0000      -0.369388       -10.0516
  40   2.0000      -0.361552        -9.8383
  41   2.0000      -0.358325        -9.7505
  42   2.0000      -0.348859        -9.4929
  43   2.0000      -0.340215        -9.2577
  44   2.0000      -0.324267        -8.8238
  45   2.0000      -0.307362        -8.3637
  46   2.0000      -0.303040        -8.2461
  47   2.0000      -0.270763        -7.3678
  48   2.0000      -0.262303        -7.1376
  49   2.0000      -0.248901        -6.7729
  50   2.0000      -0.243993        -6.6394
  51   0.0000       0.056977         1.5504
  52   0.0000       0.078163         2.1269
  53   0.0000       0.093380         2.5410
  54   0.0000       0.099178         2.6988
  55   0.0000       0.102036         2.7765

MULLIKEN ATOMIC CHARGES
-----------------------
   0 C :    0.299106
   1 C :   -0.256103
   2 C :   -0.306852
   3 C :   -0.018199
   4 O :   -0.514089
   5 H :    0.152159
   6 H :    0.142496
   7 H :    0.167282
   8 H :    0.145164
   9 H :    0.164708
  10 H :    0.139949
  11 H :    0.150905
  12 C :    0.017946
  13 H :    0.137783
  14 H :    0.126381
  15 O :   -0.530839
  16 C :    0.062880
  17 C :    0.079325
  18 C :   -0.294785
  19 C :   -0.030838
  20 O :   -0.511200
  21 H :    0.169196
  22 O :   -0.602556
  23 H :    0.150956
  24 H :    0.164075
  25 H :    0.140319
  26 H :    0.143756
  27 H :    0.145439
  28 H :    0.365634
Sum of atomic charges:   -0.0000000

LOEWDIN ATOMIC CHARGES
----------------------
   0 C :    0.181447
   1 C :   -0.216925
   2 C :   -0.219128
   3 C :   -0.032890
   4 O :   -0.323352
   5 H :    0.101177
   6 H :    0.112553
   7 H :    0.129449
   8 H :    0.116226
   9 H :    0.119493
  10 H :    0.099144
  11 H :    0.106639
  12 C :   -0.035247
  13 H :    0.100949
  14 H :    0.092489
  15 O :   -0.331637
  16 C :    0.017863
  17 C :    0.036696
  18 C :   -0.241629
  19 C :   -0.039716
  20 O :   -0.321596
  21 H :    0.120863
  22 O :   -0.414222
  23 H :    0.115297
  24 H :    0.127096
  25 H :    0.111092
  26 H :    0.102113
  27 H :    0.102036
  28 H :    0.283720

  Mayer bond orders larger than 0.100000
B(  0-C ,  1-C ) :   0.9398 B(  0-C ,  4-O ) :   0.9030 B(  0-C ,  5-H ) :   0.9255
B(  0-C , 15-O ) :   0.8440 B(  1-C ,  2-C ) :   0.9529 B(  1-C ,  6-H ) :   0.9366
B(  1-C ,  7-H ) :   0.9344 B(  2-C ,  3-C ) :   0.9541 B(  2-C ,  8-H ) :   0.9445
B(  2-C ,  9-H ) :   0.9430 B(  3-C ,  4-O ) :   0.8322 B(  3-C , 10-H ) :   0.9321
B(  3-C , 11-H ) :   0.9402 B( 12-C , 13-H ) :   0.9126 B( 12-C , 14-H ) :   0.9154
B( 12-C , 15-O ) :   0.8318 B( 12-C , 16-C ) :   0.8996 B( 16-C , 17-C ) :   0.9014
B( 16-C , 20-O ) :   0.8606 B( 16-C , 21-H ) :   0.9228 B( 17-C , 18-C ) :   0.9108
B( 17-C , 22-O ) :   0.8934 B( 17-C , 23-H ) :   0.9335 B( 18-C , 19-C ) :   0.9404
B( 18-C , 24-H ) :   0.9372 B( 18-C , 25-H ) :   0.9343 B( 19-C , 20-O ) :   0.8550
B( 19-C , 26-H ) :   0.9341 B( 19-C , 27-H ) :   0.9372 B( 22-O , 28-H ) :   0.7936

FINAL SINGLE POINT ENERGY      -652.860417682188

DIPOLE MOMENT
-------------
                                X             Y             Z
Electronic contribution:     -3.34103      -3.39164      -3.12113
Nuclear contribution   :      4.10539       4.12514       3.76649
                        -----------------------------------------
Total Dipole Moment    :      0.76436       0.73350       0.64535
                        -----------------------------------------
Magnitude (a.u.)       :      1.24047
Magnitude (Debye)      :      3.15301

Rotational constants in cm-1:     0.056636     0.013275     0.012835
Rotational constants in MHz :  1697.892405   397.963831   384.788753

                             ****ORCA TERMINATED NORMALLY****
TOTAL RUN TIME: 0 days 0 hours 31 minutes 9 seconds 42 msec
