                         Program Version 4.2.0 -  RELEASE  -
|  1> # Test redundant internal optimization
|  2> #
|  3> ! RKS B3LYP  Opt TightSCF SmallPrint
|  4>
|  5> %basis
|  6>         Basis "6-31G"
|  7> end
|  8>
|  9> %geom
| 10> Constraints
| 11> { D 4  0  15  12  270.0   C } # D for Dihedral angle
| 12> { D 0  15  12  16  30.0   C } # D for Dihedral angle
| 13> { D 0  4  3  2   C } # D for Dihedral angle
| 14> { D 4  3  2  1   C } # D for Dihedral angle
| 15> { D 3  2  1  0   C } # D for Dihedral angle
| 16> { D 2  1  0  4   C } # D for Dihedral angle
| 17> { D 1  0  4  3   C } # D for Dihedral angle
| 18> { D 16  20  19  18   C } # D for Dihedral angle
| 19> { D 20  19  18  17   C } # D for Dihedral angle
| 20> { D 19  18  17  16   C } # D for Dihedral angle
| 21> { D 18  17  16  20   C } # D for Dihedral angle
| 22> { D 17  16  20  19   C } # D for Dihedral angle
| 23> { D 15  12  16  20   C } # D for Dihedral angle
| 24> end
| 25> end
| 26>
| 27>
| 28> #%pal
| 29> #nprocs 8
| 30> #end
| 31>
| 32> * xyz 0 1
| 33> C  -21.048   26.222   46.251
| 34> C  -20.361   27.558   45.944
| 35> C  -20.329   28.222   47.341
| 36> C  -20.110   27.022   48.296
| 37> O  -20.473   25.807   47.535
| 38> H  -20.833   25.428   45.533
| 39> H  -19.344   27.382   45.576
| 40> H  -20.898   28.157   45.201
| 41> H  -19.543   28.978   47.434
| 42> H  -21.289   28.710   47.548
| 43> H  -20.733   27.082   49.195
| 44> H  -19.064   26.913   48.597
| 45> C  -23.420   25.119   46.072
| 46> H  -24.348   25.147   46.656
| 47> H  -23.684   25.077   45.008
| 48> O  -22.586   26.394   46.375
| 49> C  -22.662   23.808   46.423
| 50> C  -23.465   22.572   46.005
| 51> C  -23.181   22.512   44.486
| 52> C  -21.716   23.006   44.382
| 53> O  -21.420   23.711   45.648
| 54> H  -22.380   23.829   47.478
| 55> H  -23.073   21.680   46.507
| 56> O  -24.980   22.690   46.330
| 57> H  -23.313   21.508   44.068
| 58> H  -23.856   23.189   43.949
| 59> H  -21.564   23.695   43.544
| 60> H  -21.002   22.182   44.298
| 61> H  -25.395   23.576   45.837
| 62> *
| 63>
| 64>                          ****END OF INPUT****
 Total Charge           Charge          ....    0
 Multiplicity           Mult            ....    1
 Number of Electrons    NEL             ....  102
FINAL SINGLE POINT ENERGY      -652.821654454683
FINAL SINGLE POINT ENERGY      -652.844854555572
FINAL SINGLE POINT ENERGY      -652.854562257686
FINAL SINGLE POINT ENERGY      -652.856326431342
FINAL SINGLE POINT ENERGY      -652.856655535104
FINAL SINGLE POINT ENERGY      -652.856721979353
FINAL SINGLE POINT ENERGY      -652.856729192133
FINAL SINGLE POINT ENERGY      -652.856730490806
                    ***********************HURRAY********************

CARTESIAN COORDINATES (ANGSTROEM)
---------------------------------
  C    -20.875270   26.256937   46.216838
  C    -20.393835   27.692878   46.000667
  C    -20.487587   28.278478   47.430331
  C    -20.107656   27.074728   48.322210
  O    -20.274367   25.869091   47.476718
  H    -20.566235   25.512133   45.488353
  H    -19.354832   27.674537   45.651484
  H    -21.006649   28.228694   45.272934
  H    -19.822848   29.134589   47.580970
  H    -21.515242   28.596013   47.628369
  H    -20.745912   26.981156   49.205215
  H    -19.059733   27.095848   48.637643
  C    -23.169336   25.172283   46.064145
  H    -24.045636   25.312119   46.704815
  H    -23.498437   25.236345   45.014094
  O    -22.319274   26.322429   46.330442
  C    -22.596698   23.777575   46.340190
  C    -23.568486   22.635181   45.991158
  C    -23.316358   22.456958   44.462276
  C    -21.803935   22.743818   44.329611
  O    -21.394990   23.471254   45.561837
  H    -22.272650   23.738726   47.383581
  H    -23.273634   21.735000   46.533954
  O    -24.949480   22.851599   46.364649
  H    -23.591738   21.458645   44.112247
  H    -23.913783   23.189189   43.903885
  H    -21.562222   23.357550   43.455959
  H    -21.209529   21.827197   44.291934
  H    -25.373650   23.495049   45.760491

 Multiplicity           Mult            ....    1
 Number of Electrons    NEL             ....  102
 Basis Dimension        Dim             ....  149

ORBITAL ENERGIES
----------------

  NO   OCC          E(Eh)            E(eV)
   0   2.0000     -19.152838      -521.1752
   1   2.0000     -19.144717      -520.9542
   2   2.0000     -19.132515      -520.6222
   3   2.0000     -19.124171      -520.3952
   4   2.0000     -10.260505      -279.2025
   5   2.0000     -10.248712      -278.8816
   6   2.0000     -10.235287      -278.5163
   7   2.0000     -10.231751      -278.4201
   8   2.0000     -10.230121      -278.3757
   9   2.0000     -10.212752      -277.9031
  10   2.0000     -10.199180      -277.5338
  11   2.0000     -10.174003      -276.8487
  12   2.0000     -10.173485      -276.8346
  13   2.0000      -1.042150       -28.3583
  14   2.0000      -1.034080       -28.1387
  15   2.0000      -1.019241       -27.7349
  16   2.0000      -0.980425       -26.6787
  17   2.0000      -0.787127       -21.4188
  18   2.0000      -0.777728       -21.1631
  19   2.0000      -0.762734       -20.7550
  20   2.0000      -0.725034       -19.7292
  21   2.0000      -0.677460       -18.4346
  22   2.0000      -0.616006       -16.7624
  23   2.0000      -0.596095       -16.2206
  24   2.0000      -0.586035       -15.9468
  25   2.0000      -0.562883       -15.3168
  26   2.0000      -0.530927       -14.4473
  27   2.0000      -0.509062       -13.8523
  28   2.0000      -0.494906       -13.4671
  29   2.0000      -0.475124       -12.9288
  30   2.0000      -0.465640       -12.6707
  31   2.0000      -0.452760       -12.3202
  32   2.0000      -0.440081       -11.9752
  33   2.0000      -0.432624       -11.7723
  34   2.0000      -0.427439       -11.6312
  35   2.0000      -0.416018       -11.3204
  36   2.0000      -0.405675       -11.0390
  37   2.0000      -0.389157       -10.5895
  38   2.0000      -0.384223       -10.4552
  39   2.0000      -0.365072        -9.9341
  40   2.0000      -0.357071        -9.7164
  41   2.0000      -0.345065        -9.3897
  42   2.0000      -0.337154        -9.1744
  43   2.0000      -0.329588        -8.9686
  44   2.0000      -0.321950        -8.7607
  45   2.0000      -0.311389        -8.4733
  46   2.0000      -0.291521        -7.9327
  47   2.0000      -0.274756        -7.4765
  48   2.0000      -0.257466        -7.0060
  49   2.0000      -0.249059        -6.7772
  50   2.0000      -0.230408        -6.2697
  51   0.0000       0.047547         1.2938
  52   0.0000       0.073128         1.9899
  53   0.0000       0.089830         2.4444
  54   0.0000       0.098100         2.6695
  55   0.0000       0.108010         2.9391

MULLIKEN ATOMIC CHARGES
-----------------------
   0 C :    0.280037
   1 C :   -0.253733
   2 C :   -0.295646
   3 C :   -0.000982
   4 O :   -0.509537
   5 H :    0.180315
   6 H :    0.140521
   7 H :    0.145803
   8 H :    0.133613
   9 H :    0.159432
  10 H :    0.141943
  11 H :    0.137200
  12 C :    0.005458
  13 H :    0.154042
  14 H :    0.110430
  15 O :   -0.541269
  16 C :    0.068575
  17 C :    0.086304
  18 C :   -0.321872
  19 C :   -0.011397
  20 O :   -0.512592
  21 H :    0.183083
  22 H :    0.171501
  23 O :   -0.598074
  24 H :    0.156245
  25 H :    0.136332
  26 H :    0.140820
  27 H :    0.155969
  28 H :    0.357478
Sum of atomic charges:   -0.0000000

LOEWDIN ATOMIC CHARGES
----------------------
   0 C :    0.168072
   1 C :   -0.215962
   2 C :   -0.216224
   3 C :   -0.029380
   4 O :   -0.324278
   5 H :    0.117081
   6 H :    0.111163
   7 H :    0.118519
   8 H :    0.109577
   9 H :    0.117735
  10 H :    0.102474
  11 H :    0.099662
  12 C :   -0.044046
  13 H :    0.116380
  14 H :    0.082831
  15 O :   -0.332291
  16 C :    0.006332
  17 C :    0.038498
  18 C :   -0.240964
  19 C :   -0.031562
  20 O :   -0.315775
  21 H :    0.127683
  22 H :    0.121480
  23 O :   -0.404675
  24 H :    0.122689
  25 H :    0.105091
  26 H :    0.101468
  27 H :    0.109245
  28 H :    0.279177

  Mayer bond orders larger than 0.100000
B(  0-C ,  1-C ) :   0.9436 B(  0-C ,  4-O ) :   0.9011 B(  0-C ,  5-H ) :   0.9007
B(  0-C , 15-O ) :   0.8312 B(  1-C ,  2-C ) :   0.9563 B(  1-C ,  6-H ) :   0.9417
B(  1-C ,  7-H ) :   0.9386 B(  2-C ,  3-C ) :   0.9547 B(  2-C ,  8-H ) :   0.9465
B(  2-C ,  9-H ) :   0.9444 B(  3-C ,  4-O ) :   0.8461 B(  3-C , 10-H ) :   0.9359
B(  3-C , 11-H ) :   0.9404 B( 12-C , 13-H ) :   0.9177 B( 12-C , 14-H ) :   0.9246
B( 12-C , 15-O ) :   0.8634 B( 12-C , 16-C ) :   0.9032 B( 16-C , 17-C ) :   0.8672
B( 16-C , 20-O ) :   0.8405 B( 16-C , 21-H ) :   0.9211 B( 17-C , 18-C ) :   0.9214
B( 17-C , 22-H ) :   0.9327 B( 17-C , 23-O ) :   0.9016 B( 18-C , 19-C ) :   0.9414
B( 18-C , 24-H ) :   0.9426 B( 18-C , 25-H ) :   0.9396 B( 19-C , 20-O ) :   0.8432
B( 19-C , 26-H ) :   0.9323 B( 19-C , 27-H ) :   0.9372 B( 23-O , 28-H ) :   0.7974

FINAL SINGLE POINT ENERGY      -652.856730319445

DIPOLE MOMENT
-------------
                                X             Y             Z
Electronic contribution:     -0.91933      -2.88409       1.66002
Nuclear contribution   :      0.58946       3.04005      -2.77141
                        -----------------------------------------
Total Dipole Moment    :     -0.32986       0.15596      -1.11138
                        -----------------------------------------
Magnitude (a.u.)       :      1.16975
Magnitude (Debye)      :      2.97326

Rotational constants in cm-1:     0.058522     0.013574     0.012730
Rotational constants in MHz :  1754.452514   406.936506   381.624132

                             ****ORCA TERMINATED NORMALLY****
TOTAL RUN TIME: 0 days 2 hours 9 minutes 55 seconds 358 msec
