                         Program Version 4.2.0 -  RELEASE  -
|  1> # Test redundant internal optimization
|  2> #
|  3> ! RKS B3LYP  Opt TightSCF SmallPrint
|  4>
|  5> %basis
|  6>         Basis "6-31G"
|  7> end
|  8>
|  9> %geom
| 10> Constraints
| 11> { D 4  0  15  12  255.0   C } # D for Dihedral angle
| 12> { D 0  15  12  16  240.0   C } # D for Dihedral angle
| 13> { D 0  4  3  2   C } # D for Dihedral angle
| 14> { D 4  3  2  1   C } # D for Dihedral angle
| 15> { D 3  2  1  0   C } # D for Dihedral angle
| 16> { D 2  1  0  4   C } # D for Dihedral angle
| 17> { D 1  0  4  3   C } # D for Dihedral angle
| 18> { D 16  20  19  18   C } # D for Dihedral angle
| 19> { D 20  19  18  17   C } # D for Dihedral angle
| 20> { D 19  18  17  16   C } # D for Dihedral angle
| 21> { D 18  17  16  20   C } # D for Dihedral angle
| 22> { D 17  16  20  19   C } # D for Dihedral angle
| 23> { D 15  12  16  20   C } # D for Dihedral angle
| 24> end
| 25> end
| 26>
| 27>
| 28> #%pal
| 29> #nprocs 8
| 30> #end
| 31>
| 32> * xyz 0 1
| 33> C  -21.048   26.222   46.251
| 34> C  -20.361   27.558   45.944
| 35> C  -20.329   28.222   47.341
| 36> C  -20.110   27.022   48.296
| 37> O  -20.473   25.807   47.535
| 38> H  -20.833   25.428   45.533
| 39> H  -19.344   27.382   45.576
| 40> H  -20.898   28.157   45.201
| 41> H  -19.543   28.978   47.434
| 42> H  -21.289   28.710   47.548
| 43> H  -20.733   27.082   49.195
| 44> H  -19.064   26.913   48.597
| 45> C  -23.431   25.260   45.734
| 46> H  -22.759   24.509   45.300
| 47> H  -24.052   24.767   46.493
| 48> O  -22.586   26.394   46.375
| 49> C  -24.376   25.775   44.613
| 50> C  -25.288   26.896   45.126
| 51> C  -24.334   28.114   45.094
| 52> C  -23.455   27.841   43.848
| 53> O  -23.602   26.402   43.537
| 54> H  -24.906   24.928   44.174
| 55> H  -26.126   27.044   44.436
| 56> O  -25.862   26.617   46.542
| 57> H  -24.867   29.069   45.028
| 58> H  -23.720   28.136   46.003
| 59> H  -22.398   28.065   44.023
| 60> H  -23.794   28.396   42.969
| 61> H  -25.039   26.466   47.249
| 62> *
| 63>
| 64>                          ****END OF INPUT****
 Total Charge           Charge          ....    0
 Multiplicity           Mult            ....    1
 Number of Electrons    NEL             ....  102
FINAL SINGLE POINT ENERGY      -652.833533537744
FINAL SINGLE POINT ENERGY      -652.856468642683
FINAL SINGLE POINT ENERGY      -652.860714849776
FINAL SINGLE POINT ENERGY      -652.863585182122
FINAL SINGLE POINT ENERGY      -652.863783763053
FINAL SINGLE POINT ENERGY      -652.863815287266
FINAL SINGLE POINT ENERGY      -652.863817683116
                    ***********************HURRAY********************

CARTESIAN COORDINATES (ANGSTROEM)
---------------------------------
  C    -21.012828   26.157144   46.249051
  C    -20.373279   27.520613   45.983256
  C    -20.364155   28.152603   47.397832
  C    -20.105629   26.934355   48.313400
  O    -20.433248   25.738795   47.501239
  H    -20.787267   25.379741   45.514393
  H    -19.350015   27.369824   45.619979
  H    -20.924517   28.106122   45.246585
  H    -19.599463   28.927145   47.509128
  H    -21.340460   28.598037   47.612575
  H    -20.729448   26.931844   49.210815
  H    -19.055222   26.839112   48.604359
  C    -23.299460   25.289292   45.779645
  H    -22.670592   24.503932   45.340170
  H    -23.898164   24.836027   46.578640
  O    -22.448626   26.317985   46.369231
  C    -24.243028   25.816594   44.703016
  C    -25.250867   26.882455   45.169020
  C    -24.425766   28.195973   45.008677
  C    -23.572264   27.907921   43.755495
  O    -23.582119   26.435114   43.561548
  H    -24.768711   24.937957   44.307699
  H    -26.123798   26.880907   44.513104
  O    -25.781265   26.667673   46.497654
  H    -25.065036   29.075601   44.893874
  H    -23.792862   28.319467   45.892125
  H    -22.538063   28.248932   43.851667
  H    -24.003109   28.346245   42.849730
  H    -25.080740   26.842588   47.161095

 Multiplicity           Mult            ....    1
 Number of Electrons    NEL             ....  102
 Basis Dimension        Dim             ....  149

ORBITAL ENERGIES
----------------

  NO   OCC          E(Eh)            E(eV)
   0   2.0000     -19.149656      -521.0886
   1   2.0000     -19.140891      -520.8501
   2   2.0000     -19.140519      -520.8400
   3   2.0000     -19.138698      -520.7904
   4   2.0000     -10.283779      -279.8358
   5   2.0000     -10.238162      -278.5946
   6   2.0000     -10.232615      -278.4436
   7   2.0000     -10.231080      -278.4018
   8   2.0000     -10.227527      -278.3052
   9   2.0000     -10.227468      -278.3036
  10   2.0000     -10.189919      -277.2818
  11   2.0000     -10.189229      -277.2630
  12   2.0000     -10.183665      -277.1116
  13   2.0000      -1.056320       -28.7439
  14   2.0000      -1.029402       -28.0115
  15   2.0000      -1.011970       -27.5371
  16   2.0000      -0.997182       -27.1347
  17   2.0000      -0.790925       -21.5222
  18   2.0000      -0.774723       -21.0813
  19   2.0000      -0.768589       -20.9144
  20   2.0000      -0.733639       -19.9633
  21   2.0000      -0.680503       -18.5174
  22   2.0000      -0.605150       -16.4670
  23   2.0000      -0.602411       -16.3924
  24   2.0000      -0.597653       -16.2630
  25   2.0000      -0.576281       -15.6814
  26   2.0000      -0.527329       -14.3493
  27   2.0000      -0.509709       -13.8699
  28   2.0000      -0.498970       -13.5777
  29   2.0000      -0.491873       -13.3846
  30   2.0000      -0.467658       -12.7256
  31   2.0000      -0.463124       -12.6022
  32   2.0000      -0.445363       -12.1189
  33   2.0000      -0.433448       -11.7947
  34   2.0000      -0.423151       -11.5145
  35   2.0000      -0.419381       -11.4119
  36   2.0000      -0.407139       -11.0788
  37   2.0000      -0.394997       -10.7484
  38   2.0000      -0.385777       -10.4975
  39   2.0000      -0.365488        -9.9454
  40   2.0000      -0.360123        -9.7994
  41   2.0000      -0.354366        -9.6428
  42   2.0000      -0.349598        -9.5130
  43   2.0000      -0.330271        -8.9871
  44   2.0000      -0.321444        -8.7469
  45   2.0000      -0.312180        -8.4949
  46   2.0000      -0.307095        -8.3565
  47   2.0000      -0.275926        -7.5083
  48   2.0000      -0.264102        -7.1866
  49   2.0000      -0.255871        -6.9626
  50   2.0000      -0.238781        -6.4976
  51   0.0000       0.063021         1.7149
  52   0.0000       0.072127         1.9627
  53   0.0000       0.084902         2.3103
  54   0.0000       0.096081         2.6145
  55   0.0000       0.102233         2.7819

MULLIKEN ATOMIC CHARGES
-----------------------
   0 C :    0.290833
   1 C :   -0.267089
   2 C :   -0.303415
   3 C :   -0.000030
   4 O :   -0.502708
   5 H :    0.152740
   6 H :    0.149083
   7 H :    0.155066
   8 H :    0.143750
   9 H :    0.156658
  10 H :    0.148502
  11 H :    0.143260
  12 C :   -0.030261
  13 H :    0.146021
  14 H :    0.153862
  15 O :   -0.538237
  16 C :    0.102722
  17 C :    0.085296
  18 C :   -0.310929
  19 C :   -0.011241
  20 O :   -0.524956
  21 H :    0.147950
  22 H :    0.163337
  23 O :   -0.605921
  24 H :    0.145884
  25 H :    0.159745
  26 H :    0.140228
  27 H :    0.143553
  28 H :    0.366295
Sum of atomic charges:    0.0000000

LOEWDIN ATOMIC CHARGES
----------------------
   0 C :    0.178530
   1 C :   -0.218626
   2 C :   -0.217185
   3 C :   -0.026967
   4 O :   -0.320124
   5 H :    0.103753
   6 H :    0.116350
   7 H :    0.117832
   8 H :    0.114694
   9 H :    0.114831
  10 H :    0.106154
  11 H :    0.103015
  12 C :   -0.043780
  13 H :    0.107402
  14 H :    0.111185
  15 O :   -0.341789
  16 C :    0.012016
  17 C :    0.036719
  18 C :   -0.241875
  19 C :   -0.025870
  20 O :   -0.325313
  21 H :    0.114506
  22 H :    0.116747
  23 O :   -0.409822
  24 H :    0.116357
  25 H :    0.118137
  26 H :    0.097187
  27 H :    0.101867
  28 H :    0.284070

  Mayer bond orders larger than 0.100000
B(  0-C ,  1-C ) :   0.9464 B(  0-C ,  4-O ) :   0.9256 B(  0-C ,  5-H ) :   0.9154
B(  0-C , 15-O ) :   0.8397 B(  1-C ,  2-C ) :   0.9558 B(  1-C ,  6-H ) :   0.9376
B(  1-C ,  7-H ) :   0.9268 B(  2-C ,  3-C ) :   0.9532 B(  2-C ,  8-H ) :   0.9450
B(  2-C ,  9-H ) :   0.9448 B(  3-C ,  4-O ) :   0.8393 B(  3-C , 10-H ) :   0.9353
B(  3-C , 11-H ) :   0.9397 B( 12-C , 13-H ) :   0.9234 B( 12-C , 14-H ) :   0.9142
B( 12-C , 15-O ) :   0.8423 B( 12-C , 16-C ) :   0.8984 B( 16-C , 17-C ) :   0.8879
B( 16-C , 20-O ) :   0.8731 B( 16-C , 21-H ) :   0.9235 B( 17-C , 18-C ) :   0.9317
B( 17-C , 22-H ) :   0.9354 B( 17-C , 23-O ) :   0.9036 B( 18-C , 19-C ) :   0.9466
B( 18-C , 24-H ) :   0.9413 B( 18-C , 25-H ) :   0.9274 B( 19-C , 20-O ) :   0.8418
B( 19-C , 26-H ) :   0.9207 B( 19-C , 27-H ) :   0.9372 B( 23-O , 28-H ) :   0.7914

FINAL SINGLE POINT ENERGY      -652.863816405146

DIPOLE MOMENT
-------------
                                X             Y             Z
Electronic contribution:     -2.57553      -4.64260      -0.52413
Nuclear contribution   :      3.21818       5.57199       0.55712
                        -----------------------------------------
Total Dipole Moment    :      0.64265       0.92939       0.03300
                        -----------------------------------------
Magnitude (a.u.)       :      1.13042
Magnitude (Debye)      :      2.87331

Rotational constants in cm-1:     0.046218     0.015901     0.015115
Rotational constants in MHz :  1385.591732   476.688519   453.129228

                             ****ORCA TERMINATED NORMALLY****
TOTAL RUN TIME: 0 days 0 hours 31 minutes 23 seconds 114 msec
