                         Program Version 4.2.0 -  RELEASE  -
|  1> # Test redundant internal optimization
|  2> #
|  3> ! RKS B3LYP  Opt TightSCF SmallPrint
|  4>
|  5> %basis
|  6>         Basis "6-31G"
|  7> end
|  8>
|  9> %geom
| 10> Constraints
| 11> { D 4  0  15  12  255.0   C } # D for Dihedral angle
| 12> { D 0  15  12  16  300.0   C } # D for Dihedral angle
| 13> { D 0  4  3  2   C } # D for Dihedral angle
| 14> { D 4  3  2  1   C } # D for Dihedral angle
| 15> { D 3  2  1  0   C } # D for Dihedral angle
| 16> { D 2  1  0  4   C } # D for Dihedral angle
| 17> { D 1  0  4  3   C } # D for Dihedral angle
| 18> { D 16  20  19  18   C } # D for Dihedral angle
| 19> { D 20  19  18  17   C } # D for Dihedral angle
| 20> { D 19  18  17  16   C } # D for Dihedral angle
| 21> { D 18  17  16  20   C } # D for Dihedral angle
| 22> { D 17  16  20  19   C } # D for Dihedral angle
| 23> { D 15  12  16  20   C } # D for Dihedral angle
| 24> end
| 25> end
| 26>
| 27>
| 28> #%pal
| 29> #nprocs 8
| 30> #end
| 31>
| 32> * xyz 0 1
| 33> C  -21.048   26.222   46.251
| 34> C  -20.361   27.558   45.944
| 35> C  -20.329   28.222   47.341
| 36> C  -20.110   27.022   48.296
| 37> O  -20.473   25.807   47.535
| 38> H  -20.833   25.428   45.533
| 39> H  -19.344   27.382   45.576
| 40> H  -20.898   28.157   45.201
| 41> H  -19.543   28.978   47.434
| 42> H  -21.289   28.710   47.548
| 43> H  -20.733   27.082   49.195
| 44> H  -19.064   26.913   48.597
| 45> C  -23.431   25.260   45.734
| 46> H  -23.188   24.307   46.221
| 47> H  -24.503   25.453   45.874
| 48> O  -22.586   26.394   46.375
| 49> C  -23.174   25.108   44.209
| 50> C  -24.106   24.061   43.589
| 51> C  -25.423   24.860   43.444
| 52> C  -24.931   26.290   43.105
| 53> O  -23.510   26.351   43.506
| 54> H  -22.111   24.923   44.042
| 55> H  -23.729   23.756   42.606
| 56> O  -24.267   22.791   44.467
| 57> H  -26.085   24.453   42.672
| 58> H  -25.973   24.856   44.392
| 59> H  -25.490   27.064   43.644
| 60> H  -24.974   26.503   42.033
| 61> H  -24.645   23.071   45.457
| 62> *
| 63>
| 64>                          ****END OF INPUT****
 Total Charge           Charge          ....    0
 Multiplicity           Mult            ....    1
 Number of Electrons    NEL             ....  102
FINAL SINGLE POINT ENERGY      -652.827136079695
FINAL SINGLE POINT ENERGY      -652.850622099766
FINAL SINGLE POINT ENERGY      -652.855636652798
FINAL SINGLE POINT ENERGY      -652.856537821732
FINAL SINGLE POINT ENERGY      -652.856708311860
FINAL SINGLE POINT ENERGY      -652.856736747535
FINAL SINGLE POINT ENERGY      -652.856743019517
FINAL SINGLE POINT ENERGY      -652.856744976831
                    ***********************HURRAY********************

CARTESIAN COORDINATES (ANGSTROEM)
---------------------------------
  C    -21.010881   26.183423   46.202494
  C    -20.414369   27.564723   45.932288
  C    -20.436128   28.200097   47.341296
  C    -20.144980   27.000071   48.270196
  O    -20.426416   25.784980   47.465556
  H    -20.747394   25.405336   45.484138
  H    -19.385643   27.452703   45.569672
  H    -20.997838   28.117600   45.193834
  H    -19.700478   29.002358   47.454131
  H    -21.430530   28.609506   47.542285
  H    -20.776515   26.986158   49.162237
  H    -19.094273   26.940516   48.570589
  C    -23.308004   25.312854   45.762065
  H    -23.130975   24.353603   46.271976
  H    -24.315858   25.660646   46.006096
  O    -22.443886   26.337169   46.323974
  C    -23.153331   25.103989   44.251693
  C    -24.128504   24.059476   43.679430
  C    -25.429793   24.900779   43.499870
  C    -24.883774   26.288371   43.097164
  O    -23.452437   26.316706   43.494429
  H    -22.118743   24.847074   44.009874
  H    -23.761719   23.720668   42.708199
  O    -24.278989   22.845444   44.450736
  H    -26.096086   24.470105   42.747813
  H    -25.974961   24.941530   44.451618
  H    -25.405535   27.113157   43.591400
  H    -24.916588   26.447708   42.015343
  H    -24.786373   23.015250   45.270602

 Multiplicity           Mult            ....    1
 Number of Electrons    NEL             ....  102
 Basis Dimension        Dim             ....  149

ORBITAL ENERGIES
----------------

  NO   OCC          E(Eh)            E(eV)
   0   2.0000     -19.153078      -521.1817
   1   2.0000     -19.141740      -520.8732
   2   2.0000     -19.137294      -520.7522
   3   2.0000     -19.130376      -520.5640
   4   2.0000     -10.271893      -279.5124
   5   2.0000     -10.249364      -278.8994
   6   2.0000     -10.235585      -278.5244
   7   2.0000     -10.234065      -278.4831
   8   2.0000     -10.231866      -278.4232
   9   2.0000     -10.217190      -278.0239
  10   2.0000     -10.198740      -277.5218
  11   2.0000     -10.177240      -276.9368
  12   2.0000     -10.175414      -276.8871
  13   2.0000      -1.046602       -28.4795
  14   2.0000      -1.036446       -28.2031
  15   2.0000      -1.019227       -27.7346
  16   2.0000      -0.987296       -26.8657
  17   2.0000      -0.786867       -21.4117
  18   2.0000      -0.779379       -21.2080
  19   2.0000      -0.765913       -20.8416
  20   2.0000      -0.729562       -19.8524
  21   2.0000      -0.680018       -18.5042
  22   2.0000      -0.615054       -16.7365
  23   2.0000      -0.603608       -16.4250
  24   2.0000      -0.589672       -16.0458
  25   2.0000      -0.564561       -15.3625
  26   2.0000      -0.534931       -14.5562
  27   2.0000      -0.513265       -13.9667
  28   2.0000      -0.494840       -13.4653
  29   2.0000      -0.484915       -13.1952
  30   2.0000      -0.466872       -12.7042
  31   2.0000      -0.451458       -12.2848
  32   2.0000      -0.443199       -12.0601
  33   2.0000      -0.434144       -11.8137
  34   2.0000      -0.430133       -11.7045
  35   2.0000      -0.423435       -11.5223
  36   2.0000      -0.407327       -11.0839
  37   2.0000      -0.393844       -10.7170
  38   2.0000      -0.381810       -10.3896
  39   2.0000      -0.366180        -9.9643
  40   2.0000      -0.357306        -9.7228
  41   2.0000      -0.348499        -9.4831
  42   2.0000      -0.342475        -9.3192
  43   2.0000      -0.334972        -9.1150
  44   2.0000      -0.319610        -8.6970
  45   2.0000      -0.311646        -8.4803
  46   2.0000      -0.298305        -8.1173
  47   2.0000      -0.275431        -7.4948
  48   2.0000      -0.266650        -7.2559
  49   2.0000      -0.245887        -6.6909
  50   2.0000      -0.235650        -6.4124
  51   0.0000       0.049852         1.3565
  52   0.0000       0.076999         2.0952
  53   0.0000       0.084651         2.3035
  54   0.0000       0.093969         2.5570
  55   0.0000       0.101348         2.7578

MULLIKEN ATOMIC CHARGES
-----------------------
   0 C :    0.278890
   1 C :   -0.252856
   2 C :   -0.300175
   3 C :   -0.000086
   4 O :   -0.510679
   5 H :    0.142763
   6 H :    0.139065
   7 H :    0.166089
   8 H :    0.137767
   9 H :    0.162472
  10 H :    0.145996
  11 H :    0.138072
  12 C :   -0.009718
  13 H :    0.136997
  14 H :    0.142778
  15 O :   -0.512577
  16 C :    0.073432
  17 C :    0.087387
  18 C :   -0.326386
  19 C :   -0.009398
  20 O :   -0.511944
  21 H :    0.157128
  22 H :    0.167853
  23 O :   -0.597654
  24 H :    0.161016
  25 H :    0.136386
  26 H :    0.148195
  27 H :    0.151069
  28 H :    0.358118
Sum of atomic charges:   -0.0000000

LOEWDIN ATOMIC CHARGES
----------------------
   0 C :    0.173582
   1 C :   -0.216797
   2 C :   -0.216657
   3 C :   -0.027220
   4 O :   -0.325341
   5 H :    0.098163
   6 H :    0.110892
   7 H :    0.128067
   8 H :    0.111951
   9 H :    0.119239
  10 H :    0.104823
  11 H :    0.100320
  12 C :   -0.047589
  13 H :    0.099908
  14 H :    0.109379
  15 O :   -0.319024
  16 C :    0.004888
  17 C :    0.036617
  18 C :   -0.241613
  19 C :   -0.029090
  20 O :   -0.321140
  21 H :    0.111621
  22 H :    0.119547
  23 O :   -0.404964
  24 H :    0.123959
  25 H :    0.105373
  26 H :    0.105183
  27 H :    0.106921
  28 H :    0.279004

  Mayer bond orders larger than 0.100000
B(  0-C ,  1-C ) :   0.9467 B(  0-C ,  4-O ) :   0.9129 B(  0-C ,  5-H ) :   0.9149
B(  0-C , 15-O ) :   0.8486 B(  1-C ,  2-C ) :   0.9573 B(  1-C ,  6-H ) :   0.9395
B(  1-C ,  7-H ) :   0.9336 B(  2-C ,  3-C ) :   0.9543 B(  2-C ,  8-H ) :   0.9456
B(  2-C ,  9-H ) :   0.9440 B(  3-C ,  4-O ) :   0.8418 B(  3-C , 10-H ) :   0.9356
B(  3-C , 11-H ) :   0.9402 B( 12-C , 13-H ) :   0.9029 B( 12-C , 14-H ) :   0.9403
B( 12-C , 15-O ) :   0.8666 B( 12-C , 16-C ) :   0.8888 B( 16-C , 17-C ) :   0.8683
B( 16-C , 20-O ) :   0.8647 B( 16-C , 21-H ) :   0.9241 B( 17-C , 18-C ) :   0.9216
B( 17-C , 22-H ) :   0.9330 B( 17-C , 23-O ) :   0.9025 B( 18-C , 19-C ) :   0.9389
B( 18-C , 24-H ) :   0.9416 B( 18-C , 25-H ) :   0.9411 B( 19-C , 20-O ) :   0.8459
B( 19-C , 26-H ) :   0.9314 B( 19-C , 27-H ) :   0.9377 B( 23-O , 28-H ) :   0.7961

FINAL SINGLE POINT ENERGY      -652.856745140817

DIPOLE MOMENT
-------------
                                X             Y             Z
Electronic contribution:      0.31975      -3.33657      -0.31429
Nuclear contribution   :     -1.10737       3.77770       0.07107
                        -----------------------------------------
Total Dipole Moment    :     -0.78762       0.44113      -0.24322
                        -----------------------------------------
Magnitude (a.u.)       :      0.93493
Magnitude (Debye)      :      2.37640

Rotational constants in cm-1:     0.059224     0.012688     0.011311
Rotational constants in MHz :  1775.498395   380.369937   339.100276

                             ****ORCA TERMINATED NORMALLY****
TOTAL RUN TIME: 0 days 0 hours 23 minutes 20 seconds 863 msec
