                         Program Version 4.2.0 -  RELEASE  -
|  1> # Test redundant internal optimization
|  2> #
|  3> ! RKS B3LYP  Opt TightSCF SmallPrint
|  4>
|  5> %basis
|  6>         Basis "6-31G"
|  7> end
|  8>
|  9> %geom
| 10> Constraints
| 11> { D 4  0  15  12  90.0   C } # D for Dihedral angle
| 12> { D 0  15  12  16  150.0   C } # D for Dihedral angle
| 13> { D 0  4  3  2   C } # D for Dihedral angle
| 14> { D 4  3  2  1   C } # D for Dihedral angle
| 15> { D 3  2  1  0   C } # D for Dihedral angle
| 16> { D 2  1  0  4   C } # D for Dihedral angle
| 17> { D 1  0  4  3   C } # D for Dihedral angle
| 18> { D 16  20  19  18   C } # D for Dihedral angle
| 19> { D 20  19  18  17   C } # D for Dihedral angle
| 20> { D 19  18  17  16   C } # D for Dihedral angle
| 21> { D 18  17  16  20   C } # D for Dihedral angle
| 22> { D 17  16  20  19   C } # D for Dihedral angle
| 23> { D 15  12  16  20   C } # D for Dihedral angle
| 24> end
| 25> end
| 26>
| 27>
| 28> #%pal
| 29> #nprocs 8
| 30> #end
| 31>
| 32> * xyz 0 1
| 33> C  -21.048   26.222   46.251
| 34> C  -20.361   27.558   45.944
| 35> C  -20.329   28.222   47.341
| 36> C  -20.110   27.022   48.296
| 37> O  -20.473   25.807   47.535
| 38> H  -20.833   25.428   45.533
| 39> H  -19.344   27.382   45.576
| 40> H  -20.898   28.157   45.201
| 41> H  -19.543   28.978   47.434
| 42> H  -21.289   28.710   47.548
| 43> H  -20.733   27.082   49.195
| 44> H  -19.064   26.913   48.597
| 45> C  -23.061   27.816   46.783
| 46> H  -23.113   27.880   47.877
| 47> H  -22.351   28.574   46.428
| 48> O  -22.586   26.394   46.375
| 49> C  -24.459   28.170   46.206
| 50> C  -25.548   27.260   46.786
| 51> C  -25.786   27.902   48.174
| 52> C  -25.594   29.414   47.900
| 53> O  -24.858   29.519   46.622
| 54> H  -24.406   28.174   45.116
| 55> O  -26.831   27.343   45.915
| 56> H  -25.243   26.210   46.850
| 57> H  -26.776   27.674   48.582
| 58> H  -25.038   27.540   48.889
| 59> H  -25.019   29.913   48.687
| 60> H  -26.544   29.939   47.769
| 61> H  -27.157   28.387   45.837
| 62> *
| 63>
| 64>                          ****END OF INPUT****
 Total Charge           Charge          ....    0
 Multiplicity           Mult            ....    1
 Number of Electrons    NEL             ....  102
FINAL SINGLE POINT ENERGY      -652.814369253623
FINAL SINGLE POINT ENERGY      -652.842586296792
FINAL SINGLE POINT ENERGY      -652.855923194709
FINAL SINGLE POINT ENERGY      -652.857961380984
FINAL SINGLE POINT ENERGY      -652.858290935623
FINAL SINGLE POINT ENERGY      -652.858338373635
FINAL SINGLE POINT ENERGY      -652.858342970848
                    ***********************HURRAY********************

CARTESIAN COORDINATES (ANGSTROEM)
---------------------------------
  C    -21.257977   26.393893   46.380515
  C    -20.304165   27.503172   45.914776
  C    -19.899953   28.173196   47.261635
  C    -19.861510   26.966088   48.233902
  O    -20.631442   25.884055   47.579041
  H    -21.307930   25.543625   45.699374
  H    -19.435197   27.035168   45.441713
  H    -20.755927   28.195421   45.198655
  H    -18.929602   28.675242   47.198126
  H    -20.636790   28.916165   47.575942
  H    -20.309041   27.184596   49.208278
  H    -18.846817   26.586784   48.386310
  C    -23.120584   28.044376   46.959820
  H    -23.174286   28.105106   48.054754
  H    -22.471332   28.847398   46.598468
  O    -22.651787   26.730125   46.548731
  C    -24.495126   28.235011   46.319297
  C    -25.571290   27.240057   46.776173
  C    -26.001523   27.848209   48.134911
  C    -25.893926   29.373501   47.892869
  O    -25.031967   29.548377   46.695086
  H    -24.390489   28.224138   45.231056
  O    -26.675189   27.204648   45.828118
  H    -25.203108   26.218154   46.844873
  H    -27.012586   27.528567   48.397937
  H    -25.321208   27.520866   48.928884
  H    -25.444949   29.910191   48.734281
  H    -26.860381   29.832552   47.662377
  H    -26.898914   28.121319   45.561098

 Multiplicity           Mult            ....    1
 Number of Electrons    NEL             ....  102
 Basis Dimension        Dim             ....  149

ORBITAL ENERGIES
----------------

  NO   OCC          E(Eh)            E(eV)
   0   2.0000     -19.148019      -521.0441
   1   2.0000     -19.145619      -520.9788
   2   2.0000     -19.141187      -520.8582
   3   2.0000     -19.133359      -520.6452
   4   2.0000     -10.282051      -279.7888
   5   2.0000     -10.235114      -278.5116
   6   2.0000     -10.233560      -278.4693
   7   2.0000     -10.233043      -278.4553
   8   2.0000     -10.232009      -278.4271
   9   2.0000     -10.230654      -278.3903
  10   2.0000     -10.196322      -277.4560
  11   2.0000     -10.196209      -277.4530
  12   2.0000     -10.186219      -277.1811
  13   2.0000      -1.053790       -28.6751
  14   2.0000      -1.035397       -28.1746
  15   2.0000      -1.003243       -27.2996
  16   2.0000      -0.999156       -27.1884
  17   2.0000      -0.792057       -21.5530
  18   2.0000      -0.782143       -21.2832
  19   2.0000      -0.771013       -20.9803
  20   2.0000      -0.733695       -19.9649
  21   2.0000      -0.681145       -18.5349
  22   2.0000      -0.607667       -16.5355
  23   2.0000      -0.603296       -16.4165
  24   2.0000      -0.598480       -16.2855
  25   2.0000      -0.575303       -15.6548
  26   2.0000      -0.524234       -14.2651
  27   2.0000      -0.516025       -14.0417
  28   2.0000      -0.505569       -13.7572
  29   2.0000      -0.490001       -13.3336
  30   2.0000      -0.473558       -12.8862
  31   2.0000      -0.461411       -12.5556
  32   2.0000      -0.449800       -12.2397
  33   2.0000      -0.438851       -11.9417
  34   2.0000      -0.428548       -11.6614
  35   2.0000      -0.415082       -11.2950
  36   2.0000      -0.408332       -11.1113
  37   2.0000      -0.391282       -10.6473
  38   2.0000      -0.386895       -10.5279
  39   2.0000      -0.366620        -9.9762
  40   2.0000      -0.364809        -9.9270
  41   2.0000      -0.358975        -9.7682
  42   2.0000      -0.355312        -9.6685
  43   2.0000      -0.330215        -8.9856
  44   2.0000      -0.317524        -8.6403
  45   2.0000      -0.308335        -8.3902
  46   2.0000      -0.299113        -8.1393
  47   2.0000      -0.273169        -7.4333
  48   2.0000      -0.269032        -7.3207
  49   2.0000      -0.256779        -6.9873
  50   2.0000      -0.245128        -6.6703
  51   0.0000       0.064185         1.7466
  52   0.0000       0.068465         1.8630
  53   0.0000       0.090143         2.4529
  54   0.0000       0.096711         2.6316
  55   0.0000       0.102767         2.7964

MULLIKEN ATOMIC CHARGES
-----------------------
   0 C :    0.311684
   1 C :   -0.296737
   2 C :   -0.314820
   3 C :   -0.007483
   4 O :   -0.500349
   5 H :    0.168133
   6 H :    0.160527
   7 H :    0.152021
   8 H :    0.147411
   9 H :    0.151701
  10 H :    0.144304
  11 H :    0.147942
  12 C :   -0.012026
  13 H :    0.135855
  14 H :    0.147870
  15 O :   -0.529833
  16 C :    0.057431
  17 C :    0.090197
  18 C :   -0.296391
  19 C :   -0.035125
  20 O :   -0.529589
  21 H :    0.163361
  22 O :   -0.602981
  23 H :    0.183197
  24 H :    0.160347
  25 H :    0.147871
  26 H :    0.146088
  27 H :    0.147889
  28 H :    0.361506
Sum of atomic charges:   -0.0000000

LOEWDIN ATOMIC CHARGES
----------------------
   0 C :    0.176585
   1 C :   -0.231633
   2 C :   -0.224145
   3 C :   -0.032061
   4 O :   -0.319602
   5 H :    0.113974
   6 H :    0.125172
   7 H :    0.118293
   8 H :    0.116867
   9 H :    0.110462
  10 H :    0.102767
  11 H :    0.104702
  12 C :   -0.042186
  13 H :    0.096332
  14 H :    0.104445
  15 O :   -0.323663
  16 C :    0.016123
  17 C :    0.038956
  18 C :   -0.240697
  19 C :   -0.039203
  20 O :   -0.333905
  21 H :    0.117378
  22 O :   -0.414951
  23 H :    0.131282
  24 H :    0.126604
  25 H :    0.115113
  26 H :    0.103518
  27 H :    0.102887
  28 H :    0.280586

  Mayer bond orders larger than 0.100000
B(  0-C ,  1-C ) :   0.9265 B(  0-C ,  4-O ) :   0.9064 B(  0-C ,  5-H ) :   0.9351
B(  0-C , 15-O ) :   0.8855 B(  1-C ,  2-C ) :   0.9534 B(  1-C ,  6-H ) :   0.9342
B(  1-C ,  7-H ) :   0.9324 B(  2-C ,  3-C ) :   0.9464 B(  2-C ,  8-H ) :   0.9455
B(  2-C ,  9-H ) :   0.9390 B(  3-C ,  4-O ) :   0.8482 B(  3-C , 10-H ) :   0.9344
B(  3-C , 11-H ) :   0.9390 B( 12-C , 13-H ) :   0.9223 B( 12-C , 14-H ) :   0.9054
B( 12-C , 15-O ) :   0.8277 B( 12-C , 16-C ) :   0.8957 B( 16-C , 17-C ) :   0.9150
B( 16-C , 20-O ) :   0.8460 B( 16-C , 21-H ) :   0.9253 B( 17-C , 18-C ) :   0.9136
B( 17-C , 22-O ) :   0.8907 B( 17-C , 23-H ) :   0.9219 B( 18-C , 19-C ) :   0.9404
B( 18-C , 24-H ) :   0.9382 B( 18-C , 25-H ) :   0.9346 B( 19-C , 20-O ) :   0.8414
B( 19-C , 26-H ) :   0.9358 B( 19-C , 27-H ) :   0.9379 B( 22-O , 28-H ) :   0.7963

FINAL SINGLE POINT ENERGY      -652.858332375528

DIPOLE MOMENT
-------------
                                X             Y             Z
Electronic contribution:     -3.25461      -3.02525      -2.72444
Nuclear contribution   :      4.07385       4.13770       3.20184
                        -----------------------------------------
Total Dipole Moment    :      0.81924       1.11245       0.47740
                        -----------------------------------------
Magnitude (a.u.)       :      1.46172
Magnitude (Debye)      :      3.71539

Rotational constants in cm-1:     0.056507     0.012556     0.012010
Rotational constants in MHz :  1694.036558   376.432293   360.064681

                             ****ORCA TERMINATED NORMALLY****
TOTAL RUN TIME: 0 days 0 hours 24 minutes 49 seconds 125 msec
