                         Program Version 4.2.0 -  RELEASE  -
|  1> # Test redundant internal optimization
|  2> #
|  3> ! RKS B3LYP  Opt TightSCF SmallPrint
|  4>
|  5> %basis
|  6>         Basis "6-31G"
|  7> end
|  8>
|  9> %geom
| 10> Constraints
| 11> { D 4  0  15  12  255.0   C } # D for Dihedral angle
| 12> { D 0  15  12  16  75.0   C } # D for Dihedral angle
| 13> { D 0  4  3  2   C } # D for Dihedral angle
| 14> { D 4  3  2  1   C } # D for Dihedral angle
| 15> { D 3  2  1  0   C } # D for Dihedral angle
| 16> { D 2  1  0  4   C } # D for Dihedral angle
| 17> { D 1  0  4  3   C } # D for Dihedral angle
| 18> { D 16  20  19  18   C } # D for Dihedral angle
| 19> { D 20  19  18  17   C } # D for Dihedral angle
| 20> { D 19  18  17  16   C } # D for Dihedral angle
| 21> { D 18  17  16  20   C } # D for Dihedral angle
| 22> { D 17  16  20  19   C } # D for Dihedral angle
| 23> { D 15  12  16  20   C } # D for Dihedral angle
| 24> end
| 25> end
| 26>
| 27>
| 28> #%pal
| 29> #nprocs 8
| 30> #end
| 31>
| 32> * xyz 0 1
| 33> C  -21.048   26.222   46.251
| 34> C  -20.361   27.558   45.944
| 35> C  -20.329   28.222   47.341
| 36> C  -20.110   27.022   48.296
| 37> O  -20.473   25.807   47.535
| 38> H  -20.833   25.428   45.533
| 39> H  -19.344   27.382   45.576
| 40> H  -20.898   28.157   45.201
| 41> H  -19.543   28.978   47.434
| 42> H  -21.289   28.710   47.548
| 43> H  -20.733   27.082   49.195
| 44> H  -19.064   26.913   48.597
| 45> C  -23.431   25.260   45.734
| 46> H  -24.469   25.598   45.626
| 47> H  -23.047   25.011   44.736
| 48> O  -22.586   26.394   46.375
| 49> C  -23.428   23.956   46.580
| 50> C  -24.173   22.825   45.863
| 51> C  -23.113   22.349   44.841
| 52> C  -21.780   22.525   45.611
| 53> O  -22.060   23.448   46.731
| 54> H  -23.800   24.179   47.582
| 55> O  -24.516   21.691   46.867
| 56> H  -25.102   23.157   45.386
| 57> H  -23.273   21.316   44.514
| 58> H  -23.133   22.989   43.951
| 59> H  -20.988   22.951   44.985
| 60> H  -21.422   21.587   46.046
| 61> H  -23.599   21.343   47.356
| 62> *
| 63>
| 64>                          ****END OF INPUT****
 Total Charge           Charge          ....    0
 Multiplicity           Mult            ....    1
 Number of Electrons    NEL             ....  102
FINAL SINGLE POINT ENERGY      -652.831724421223
FINAL SINGLE POINT ENERGY      -652.854695918143
FINAL SINGLE POINT ENERGY      -652.859244055529
FINAL SINGLE POINT ENERGY      -652.859966491724
FINAL SINGLE POINT ENERGY      -652.860062124999
FINAL SINGLE POINT ENERGY      -652.860075458115
                    ***********************HURRAY********************

CARTESIAN COORDINATES (ANGSTROEM)
---------------------------------
  C    -20.973025   26.212575   46.215417
  C    -20.437375   27.623318   45.970513
  C    -20.473461   28.230930   47.394164
  C    -20.124116   27.023683   48.291247
  O    -20.362553   25.817710   47.460932
  H    -20.698194   25.459325   45.474321
  H    -19.407000   27.560222   45.600459
  H    -21.042189   28.176177   45.248676
  H    -19.771931   29.061621   47.517097
  H    -21.482638   28.593532   47.611076
  H    -20.745953   26.962109   49.187984
  H    -19.069126   27.001945   48.581791
  C    -23.250425   25.274924   45.744146
  H    -24.255477   25.708728   45.722104
  H    -22.935106   25.090057   44.704555
  O    -22.416955   26.308467   46.324232
  C    -23.286261   23.960039   46.526695
  C    -24.146369   22.866012   45.877283
  C    -23.161034   22.263937   44.840154
  C    -21.793380   22.358012   45.561727
  O    -21.960819   23.346596   46.655895
  H    -23.618877   24.171057   47.547628
  O    -24.561432   21.879158   46.860152
  H    -25.071295   23.233900   45.430431
  H    -23.443515   21.238719   44.590186
  H    -23.169277   22.857661   43.919220
  H    -20.985969   22.687955   44.900450
  H    -21.496134   21.412610   46.025057
  H    -23.805114   21.679019   47.451409

 Multiplicity           Mult            ....    1
 Number of Electrons    NEL             ....  102
 Basis Dimension        Dim             ....  149

ORBITAL ENERGIES
----------------

  NO   OCC          E(Eh)            E(eV)
   0   2.0000     -19.141663      -520.8711
   1   2.0000     -19.138822      -520.7938
   2   2.0000     -19.137817      -520.7665
   3   2.0000     -19.126769      -520.4658
   4   2.0000     -10.270777      -279.4820
   5   2.0000     -10.244081      -278.7556
   6   2.0000     -10.234390      -278.4919
   7   2.0000     -10.231821      -278.4220
   8   2.0000     -10.231006      -278.3998
   9   2.0000     -10.214996      -277.9642
  10   2.0000     -10.191007      -277.3114
  11   2.0000     -10.177837      -276.9530
  12   2.0000     -10.177654      -276.9481
  13   2.0000      -1.045628       -28.4530
  14   2.0000      -1.034560       -28.1518
  15   2.0000      -1.006073       -27.3766
  16   2.0000      -0.987294       -26.8656
  17   2.0000      -0.786973       -21.4146
  18   2.0000      -0.778299       -21.1786
  19   2.0000      -0.764489       -20.8028
  20   2.0000      -0.726470       -19.7683
  21   2.0000      -0.673106       -18.3161
  22   2.0000      -0.604696       -16.4546
  23   2.0000      -0.596544       -16.2328
  24   2.0000      -0.589675       -16.0459
  25   2.0000      -0.576184       -15.6788
  26   2.0000      -0.524375       -14.2690
  27   2.0000      -0.509037       -13.8516
  28   2.0000      -0.494442       -13.4545
  29   2.0000      -0.481561       -13.1040
  30   2.0000      -0.471597       -12.8328
  31   2.0000      -0.455840       -12.4040
  32   2.0000      -0.449188       -12.2230
  33   2.0000      -0.436337       -11.8733
  34   2.0000      -0.421318       -11.4647
  35   2.0000      -0.409355       -11.1391
  36   2.0000      -0.394769       -10.7422
  37   2.0000      -0.391249       -10.6464
  38   2.0000      -0.374619       -10.1939
  39   2.0000      -0.367465        -9.9992
  40   2.0000      -0.357363        -9.7243
  41   2.0000      -0.348788        -9.4910
  42   2.0000      -0.342179        -9.3112
  43   2.0000      -0.334072        -9.0906
  44   2.0000      -0.314330        -8.5533
  45   2.0000      -0.303186        -8.2501
  46   2.0000      -0.293981        -7.9996
  47   2.0000      -0.272080        -7.4037
  48   2.0000      -0.265984        -7.2378
  49   2.0000      -0.249849        -6.7987
  50   2.0000      -0.231100        -6.2885
  51   0.0000       0.060945         1.6584
  52   0.0000       0.085550         2.3279
  53   0.0000       0.088972         2.4211
  54   0.0000       0.101312         2.7568
  55   0.0000       0.108353         2.9484

MULLIKEN ATOMIC CHARGES
-----------------------
   0 C :    0.302290
   1 C :   -0.255762
   2 C :   -0.298650
   3 C :   -0.001906
   4 O :   -0.490264
   5 H :    0.138031
   6 H :    0.140318
   7 H :    0.145517
   8 H :    0.136558
   9 H :    0.160579
  10 H :    0.146597
  11 H :    0.137375
  12 C :   -0.016018
  13 H :    0.152704
  14 H :    0.119288
  15 O :   -0.519348
  16 C :    0.070469
  17 C :    0.080112
  18 C :   -0.292550
  19 C :   -0.033048
  20 O :   -0.501211
  21 H :    0.168100
  22 O :   -0.602195
  23 H :    0.149110
  24 H :    0.162254
  25 H :    0.140386
  26 H :    0.145017
  27 H :    0.148865
  28 H :    0.367381
Sum of atomic charges:    0.0000000

LOEWDIN ATOMIC CHARGES
----------------------
   0 C :    0.178453
   1 C :   -0.219694
   2 C :   -0.216795
   3 C :   -0.028704
   4 O :   -0.308449
   5 H :    0.098397
   6 H :    0.111035
   7 H :    0.117909
   8 H :    0.111203
   9 H :    0.118291
  10 H :    0.105111
  11 H :    0.099887
  12 C :   -0.039355
  13 H :    0.116181
  14 H :    0.088089
  15 O :   -0.327106
  16 C :    0.005299
  17 C :    0.035754
  18 C :   -0.241401
  19 C :   -0.040008
  20 O :   -0.315295
  21 H :    0.120777
  22 O :   -0.413599
  23 H :    0.114551
  24 H :    0.126953
  25 H :    0.110996
  26 H :    0.102470
  27 H :    0.104224
  28 H :    0.284826

  Mayer bond orders larger than 0.100000
B(  0-C ,  1-C ) :   0.9433 B(  0-C ,  4-O ) :   0.9255 B(  0-C ,  5-H ) :   0.9206
B(  0-C , 15-O ) :   0.8307 B(  1-C ,  2-C ) :   0.9581 B(  1-C ,  6-H ) :   0.9396
B(  1-C ,  7-H ) :   0.9383 B(  2-C ,  3-C ) :   0.9525 B(  2-C ,  8-H ) :   0.9458
B(  2-C ,  9-H ) :   0.9443 B(  3-C ,  4-O ) :   0.8467 B(  3-C , 10-H ) :   0.9351
B(  3-C , 11-H ) :   0.9399 B( 12-C , 13-H ) :   0.9306 B( 12-C , 14-H ) :   0.9225
B( 12-C , 15-O ) :   0.8781 B( 12-C , 16-C ) :   0.8835 B( 16-C , 17-C ) :   0.8943
B( 16-C , 20-O ) :   0.8610 B( 16-C , 21-H ) :   0.9228 B( 17-C , 18-C ) :   0.9110
B( 17-C , 22-O ) :   0.8929 B( 17-C , 23-H ) :   0.9338 B( 18-C , 19-C ) :   0.9389
B( 18-C , 24-H ) :   0.9375 B( 18-C , 25-H ) :   0.9333 B( 19-C , 20-O ) :   0.8508
B( 19-C , 26-H ) :   0.9330 B( 19-C , 27-H ) :   0.9377 B( 22-O , 28-H ) :   0.7929

FINAL SINGLE POINT ENERGY      -652.860077118606

DIPOLE MOMENT
-------------
                                X             Y             Z
Electronic contribution:     -1.88018      -2.98153       2.51805
Nuclear contribution   :      2.16664       3.33777      -3.49655
                        -----------------------------------------
Total Dipole Moment    :      0.28647       0.35624      -0.97850
                        -----------------------------------------
Magnitude (a.u.)       :      1.08002
Magnitude (Debye)      :      2.74518

Rotational constants in cm-1:     0.063994     0.012996     0.012720
Rotational constants in MHz :  1918.494258   389.615843   381.335927

                             ****ORCA TERMINATED NORMALLY****
TOTAL RUN TIME: 0 days 2 hours 24 minutes 37 seconds 297 msec
