                         Program Version 4.2.1 -  RELEASE  -
|  1> # Test redundant internal optimization
|  2> #
|  3> ! RKS B3LYP  Opt TightSCF SmallPrint
|  4>
|  5> %basis
|  6>         Basis "6-31G"
|  7> end
|  8>
|  9> %geom
| 10> Constraints
| 11> { D 4  0  19  14  0.0   C } # D for Dihedral angle
| 12> { D 0  19  14  12  195.0   C } # D for Dihedral angle
| 13> { D 0  4  3  2   C } # D for Dihedral angle
| 14> { D 4  3  2  1   C } # D for Dihedral angle
| 15> { D 3  2  1  0   C } # D for Dihedral angle
| 16> { D 2  1  0  4   C } # D for Dihedral angle
| 17> { D 1  0  4  3   C } # D for Dihedral angle
| 18> { D 14  15  16  17   C } # D for Dihedral angle
| 19> { D 15  16  17  12   C } # D for Dihedral angle
| 20> { D 16  17  12  14   C } # D for Dihedral angle
| 21> { D 17  12  14  15   C } # D for Dihedral angle
| 22> { D 12  14  15  16   C } # D for Dihedral angle
| 23> end
| 24> end
| 25>
| 26>
| 27> #%pal
| 28> #nprocs 8
| 29> #end
| 30>
| 31> * xyz 0 1
| 32> C  -21.048   26.222   46.251
| 33> C  -20.361   27.558   45.944
| 34> C  -20.329   28.222   47.341
| 35> C  -20.110   27.022   48.296
| 36> O  -20.473   25.807   47.535
| 37> H  -20.833   25.428   45.533
| 38> H  -19.344   27.382   45.576
| 39> H  -20.898   28.157   45.201
| 40> H  -19.543   28.978   47.434
| 41> H  -21.289   28.710   47.548
| 42> H  -20.733   27.082   49.195
| 43> H  -19.064   26.913   48.597
| 44> C  -24.517   25.937   47.609
| 45> H  -24.973   26.015   48.608
| 46> C  -22.995   26.105   47.675
| 47> C  -22.545   24.708   48.160
| 48> C  -23.555   23.754   47.474
| 49> O  -24.707   24.588   47.064
| 50> H  -25.020   26.628   46.931
| 51> O  -22.472   26.381   46.366
| 52> H  -22.681   26.910   48.349
| 53> H  -21.508   24.479   47.894
| 54> H  -22.632   24.641   49.252
| 55> H  -23.907   22.961   48.143
| 56> H  -23.149   23.298   46.566
| 57> *
| 58>
| 59>                          ****END OF INPUT****
 Total Charge           Charge          ....    0
 Multiplicity           Mult            ....    1
 Number of Electrons    NEL             ....   86
FINAL SINGLE POINT ENERGY      -538.405027020578
FINAL SINGLE POINT ENERGY      -538.426536991042
FINAL SINGLE POINT ENERGY      -538.428191598248
FINAL SINGLE POINT ENERGY      -538.428517078463
FINAL SINGLE POINT ENERGY      -538.428558177453
FINAL SINGLE POINT ENERGY      -538.428569170730
                    ***********************HURRAY********************

CARTESIAN COORDINATES (ANGSTROEM)
---------------------------------
  C    -20.988684   26.272854   46.290903
  C    -20.445198   27.661895   45.948861
  C    -20.228938   28.272932   47.354745
  C    -19.785711   27.057638   48.200592
  O    -20.201221   25.853500   47.428921
  H    -20.830773   25.517972   45.517429
  H    -19.494091   27.558478   45.413435
  H    -21.144362   28.229860   45.332112
  H    -19.480575   29.071323   47.356679
  H    -21.169376   28.689717   47.729646
  H    -20.254156   27.021464   49.188301
  H    -18.699844   26.992713   48.315932
  C    -24.561351   25.880522   47.437190
  H    -25.178938   25.987470   48.341574
  C    -23.078814   26.032366   47.778995
  C    -22.746799   24.639798   48.348398
  C    -23.621650   23.688398   47.502669
  O    -24.669626   24.530263   46.878747
  H    -24.891453   26.583251   46.671497
  O    -22.426520   26.349193   46.509240
  H    -22.889296   26.833216   48.506457
  H    -21.681977   24.417651   48.295593
  H    -23.055398   24.617116   49.401926
  H    -24.098598   22.906557   48.104556
  H    -23.062650   23.219851   46.687604

 Multiplicity           Mult            ....    1
 Number of Electrons    NEL             ....   86
 Basis Dimension        Dim             ....  127

ORBITAL ENERGIES
----------------

  NO   OCC          E(Eh)            E(eV)
   0   2.0000     -19.153359      -521.1894
   1   2.0000     -19.134543      -520.6774
   2   2.0000     -19.121000      -520.3089
   3   2.0000     -10.281014      -279.7606
   4   2.0000     -10.238824      -278.6126
   5   2.0000     -10.235946      -278.5342
   6   2.0000     -10.216190      -277.9967
   7   2.0000     -10.213360      -277.9197
   8   2.0000     -10.193774      -277.3867
   9   2.0000     -10.186870      -277.1988
  10   2.0000     -10.174157      -276.8529
  11   2.0000      -1.054850       -28.7039
  12   2.0000      -1.009339       -27.4655
  13   2.0000      -0.985067       -26.8050
  14   2.0000      -0.794696       -21.6248
  15   2.0000      -0.776486       -21.1293
  16   2.0000      -0.740913       -20.1613
  17   2.0000      -0.719135       -19.5687
  18   2.0000      -0.615833       -16.7577
  19   2.0000      -0.604945       -16.4614
  20   2.0000      -0.591691       -16.1007
  21   2.0000      -0.561108       -15.2685
  22   2.0000      -0.523231       -14.2378
  23   2.0000      -0.498215       -13.5571
  24   2.0000      -0.486893       -13.2490
  25   2.0000      -0.481616       -13.1054
  26   2.0000      -0.452199       -12.3050
  27   2.0000      -0.445680       -12.1276
  28   2.0000      -0.420141       -11.4326
  29   2.0000      -0.409678       -11.1479
  30   2.0000      -0.405925       -11.0458
  31   2.0000      -0.385999       -10.5036
  32   2.0000      -0.371874       -10.1192
  33   2.0000      -0.362684        -9.8691
  34   2.0000      -0.361064        -9.8251
  35   2.0000      -0.360190        -9.8013
  36   2.0000      -0.346417        -9.4265
  37   2.0000      -0.327833        -8.9208
  38   2.0000      -0.306897        -8.3511
  39   2.0000      -0.290688        -7.9100
  40   2.0000      -0.263535        -7.1711
  41   2.0000      -0.248289        -6.7563
  42   2.0000      -0.227861        -6.2004
  43   0.0000       0.066963         1.8222
  44   0.0000       0.093871         2.5544
  45   0.0000       0.101334         2.7574
  46   0.0000       0.106134         2.8881
  47   0.0000       0.120917         3.2903

MULLIKEN ATOMIC CHARGES
-----------------------
   0 C :    0.308988
   1 C :   -0.257189
   2 C :   -0.310152
   3 C :   -0.017277
   4 O :   -0.515916
   5 H :    0.159749
   6 H :    0.144482
   7 H :    0.162842
   8 H :    0.148716
   9 H :    0.154950
  10 H :    0.144915
  11 H :    0.153211
  12 C :    0.005177
  13 H :    0.120217
  14 C :    0.087821
  15 C :   -0.324369
  16 C :    0.005043
  17 O :   -0.520720
  18 H :    0.166118
  19 O :   -0.542990
  20 H :    0.119725
  21 H :    0.196254
  22 H :    0.133272
  23 H :    0.131327
  24 H :    0.145807
Sum of atomic charges:   -0.0000000

LOEWDIN ATOMIC CHARGES
----------------------
   0 C :    0.184495
   1 C :   -0.219227
   2 C :   -0.219360
   3 C :   -0.032984
   4 O :   -0.319516
   5 H :    0.106463
   6 H :    0.113577
   7 H :    0.126916
   8 H :    0.117964
   9 H :    0.114076
  10 H :    0.102290
  11 H :    0.107817
  12 C :   -0.033376
  13 H :    0.088860
  14 C :    0.045890
  15 C :   -0.247697
  16 C :   -0.028037
  17 O :   -0.331072
  18 H :    0.122019
  19 O :   -0.338934
  20 H :    0.089458
  21 H :    0.139620
  22 H :    0.110099
  23 H :    0.096775
  24 H :    0.103882

  Mayer bond orders larger than 0.100000
B(  0-C ,  1-C ) :   0.9323 B(  0-C ,  4-O ) :   0.8945 B(  0-C ,  5-H ) :   0.9290
B(  0-C , 19-O ) :   0.8477 B(  1-C ,  2-C ) :   0.9534 B(  1-C ,  6-H ) :   0.9352
B(  1-C ,  7-H ) :   0.9360 B(  2-C ,  3-C ) :   0.9536 B(  2-C ,  8-H ) :   0.9442
B(  2-C ,  9-H ) :   0.9450 B(  3-C ,  4-O ) :   0.8284 B(  3-C , 10-H ) :   0.9333
B(  3-C , 11-H ) :   0.9395 B( 12-C , 13-H ) :   0.9152 B( 12-C , 14-C ) :   0.9345
B( 12-C , 17-O ) :   0.8767 B( 12-C , 18-H ) :   0.9298 B( 14-C , 15-C ) :   0.9356
B( 14-C , 19-O ) :   0.8247 B( 14-C , 20-H ) :   0.9199 B( 15-C , 16-C ) :   0.9442
B( 15-C , 21-H ) :   0.9124 B( 15-C , 22-H ) :   0.9366 B( 16-C , 17-O ) :   0.8563
B( 16-C , 23-H ) :   0.9340 B( 16-C , 24-H ) :   0.9380

FINAL SINGLE POINT ENERGY      -538.428569981251

DIPOLE MOMENT
-------------
                                X             Y             Z
Electronic contribution:     -1.96693      -2.34723      -2.43068
Nuclear contribution   :      2.93372       3.27768       3.23944
                        -----------------------------------------
Total Dipole Moment    :      0.96679       0.93045       0.80877
                        -----------------------------------------
Magnitude (a.u.)       :      1.56669
Magnitude (Debye)      :      3.98222

Rotational constants in cm-1:     0.081676     0.022673     0.021169
Rotational constants in MHz :  2448.573002   679.704892   634.632883

                             ****ORCA TERMINATED NORMALLY****
TOTAL RUN TIME: 0 days 0 hours 7 minutes 23 seconds 373 msec
