                         Program Version 4.2.0 -  RELEASE  -
|  1> # Test redundant internal optimization
|  2> #
|  3> ! RKS B3LYP  Opt TightSCF SmallPrint
|  4>
|  5> %basis
|  6>         Basis "6-31G"
|  7> end
|  8>
|  9> %geom
| 10> Constraints
| 11> { D 4  0  15  12  135.0   C } # D for Dihedral angle
| 12> { D 0  15  12  16  150.0   C } # D for Dihedral angle
| 13> { D 0  4  3  2   C } # D for Dihedral angle
| 14> { D 4  3  2  1   C } # D for Dihedral angle
| 15> { D 3  2  1  0   C } # D for Dihedral angle
| 16> { D 2  1  0  4   C } # D for Dihedral angle
| 17> { D 1  0  4  3   C } # D for Dihedral angle
| 18> { D 16  20  19  18   C } # D for Dihedral angle
| 19> { D 20  19  18  17   C } # D for Dihedral angle
| 20> { D 19  18  17  16   C } # D for Dihedral angle
| 21> { D 18  17  16  20   C } # D for Dihedral angle
| 22> { D 17  16  20  19   C } # D for Dihedral angle
| 23> { D 15  12  16  20   C } # D for Dihedral angle
| 24> end
| 25> end
| 26>
| 27>
| 28> #%pal
| 29> #nprocs 8
| 30> #end
| 31>
| 32> * xyz 0 1
| 33> C  -21.048   26.222   46.251
| 34> C  -20.361   27.558   45.944
| 35> C  -20.329   28.222   47.341
| 36> C  -20.110   27.022   48.296
| 37> O  -20.473   25.807   47.535
| 38> H  -20.833   25.428   45.533
| 39> H  -19.344   27.382   45.576
| 40> H  -20.898   28.157   45.201
| 41> H  -19.543   28.978   47.434
| 42> H  -21.289   28.710   47.548
| 43> H  -20.733   27.082   49.195
| 44> H  -19.064   26.913   48.597
| 45> C  -23.162   27.680   45.721
| 46> H  -23.158   28.493   46.457
| 47> H  -22.543   27.987   44.868
| 48> O  -22.586   26.394   46.375
| 49> C  -24.616   27.492   45.206
| 50> C  -25.585   27.227   46.363
| 51> C  -25.803   28.652   46.923
| 52> C  -25.761   29.539   45.653
| 53> O  -25.109   28.733   44.599
| 54> H  -24.623   26.730   44.425
| 55> O  -26.917   26.642   45.818
| 56> H  -25.185   26.533   47.110
| 57> H  -26.745   28.754   47.472
| 58> H  -24.988   28.916   47.607
| 59> H  -25.190   30.461   45.805
| 60> H  -26.760   29.797   45.291
| 61> H  -27.338   27.321   45.067
| 62> *
| 63>
| 64>                          ****END OF INPUT****
 Total Charge           Charge          ....    0
 Multiplicity           Mult            ....    1
 Number of Electrons    NEL             ....  102
FINAL SINGLE POINT ENERGY      -652.825497630569
FINAL SINGLE POINT ENERGY      -652.849512287609
FINAL SINGLE POINT ENERGY      -652.853992593302
FINAL SINGLE POINT ENERGY      -652.856255723817
FINAL SINGLE POINT ENERGY      -652.856470761175
FINAL SINGLE POINT ENERGY      -652.856510565847
                    ***********************HURRAY********************

CARTESIAN COORDINATES (ANGSTROEM)
---------------------------------
  C    -21.196591   26.325771   46.232956
  C    -20.228514   27.471040   45.929588
  C    -20.133783   28.187619   47.302881
  C    -20.228826   27.013120   48.302315
  O    -20.800342   25.876739   47.540211
  H    -21.108018   25.459732   45.574059
  H    -19.261238   27.035428   45.655811
  H    -20.538780   28.131232   45.116955
  H    -19.204719   28.754765   47.412456
  H    -20.970303   28.882746   47.431653
  H    -20.876531   27.226376   49.156748
  H    -19.249638   26.687554   48.664705
  C    -23.142563   27.894717   45.677871
  H    -23.117552   28.725297   46.397027
  H    -22.586573   28.200619   44.784491
  O    -22.611982   26.681313   46.274673
  C    -24.576502   27.581594   45.250720
  C    -25.535623   27.221720   46.393433
  C    -25.896523   28.620590   46.951830
  C    -25.919430   29.513604   45.685989
  O    -25.173986   28.772889   44.635628
  H    -24.562019   26.794258   44.492015
  O    -26.709619   26.530783   45.880000
  H    -25.090022   26.551698   47.126743
  H    -26.857092   28.593966   47.472066
  H    -25.131324   28.954484   47.661537
  H    -25.442818   30.486654   45.840241
  H    -26.932123   29.678628   45.305704
  H    -27.010964   26.977062   45.060693

 Multiplicity           Mult            ....    1
 Number of Electrons    NEL             ....  102
 Basis Dimension        Dim             ....  149

ORBITAL ENERGIES
----------------

  NO   OCC          E(Eh)            E(eV)
   0   2.0000     -19.145095      -520.9645
   1   2.0000     -19.142923      -520.9054
   2   2.0000     -19.141579      -520.8689
   3   2.0000     -19.132484      -520.6213
   4   2.0000     -10.283651      -279.8324
   5   2.0000     -10.235582      -278.5244
   6   2.0000     -10.232861      -278.4503
   7   2.0000     -10.232291      -278.4348
   8   2.0000     -10.231868      -278.4233
   9   2.0000     -10.229481      -278.3583
  10   2.0000     -10.196581      -277.4631
  11   2.0000     -10.196317      -277.4559
  12   2.0000     -10.186629      -277.1923
  13   2.0000      -1.053610       -28.6702
  14   2.0000      -1.035029       -28.1646
  15   2.0000      -1.002198       -27.2712
  16   2.0000      -0.995810       -27.0974
  17   2.0000      -0.793664       -21.5967
  18   2.0000      -0.780414       -21.2361
  19   2.0000      -0.769792       -20.9471
  20   2.0000      -0.734135       -19.9768
  21   2.0000      -0.680012       -18.5041
  22   2.0000      -0.607634       -16.5346
  23   2.0000      -0.602702       -16.4004
  24   2.0000      -0.597153       -16.2494
  25   2.0000      -0.575091       -15.6490
  26   2.0000      -0.521314       -14.1857
  27   2.0000      -0.518495       -14.1090
  28   2.0000      -0.504366       -13.7245
  29   2.0000      -0.492693       -13.4069
  30   2.0000      -0.473935       -12.8964
  31   2.0000      -0.457768       -12.4565
  32   2.0000      -0.452771       -12.3205
  33   2.0000      -0.440207       -11.9786
  34   2.0000      -0.430263       -11.7081
  35   2.0000      -0.412166       -11.2156
  36   2.0000      -0.408628       -11.1193
  37   2.0000      -0.391026       -10.6403
  38   2.0000      -0.384866       -10.4727
  39   2.0000      -0.368349       -10.0233
  40   2.0000      -0.363524        -9.8920
  41   2.0000      -0.360933        -9.8215
  42   2.0000      -0.354126        -9.6363
  43   2.0000      -0.331517        -9.0210
  44   2.0000      -0.316690        -8.6176
  45   2.0000      -0.306110        -8.3297
  46   2.0000      -0.295473        -8.0402
  47   2.0000      -0.271149        -7.3783
  48   2.0000      -0.267927        -7.2907
  49   2.0000      -0.256166        -6.9706
  50   2.0000      -0.243322        -6.6211
  51   0.0000       0.065017         1.7692
  52   0.0000       0.065637         1.7861
  53   0.0000       0.092062         2.5051
  54   0.0000       0.097982         2.6662
  55   0.0000       0.101545         2.7632

MULLIKEN ATOMIC CHARGES
-----------------------
   0 C :    0.319126
   1 C :   -0.297705
   2 C :   -0.307731
   3 C :   -0.001322
   4 O :   -0.494311
   5 H :    0.157564
   6 H :    0.155995
   7 H :    0.148985
   8 H :    0.147006
   9 H :    0.152212
  10 H :    0.150230
  11 H :    0.145695
  12 C :   -0.007340
  13 H :    0.127883
  14 H :    0.143076
  15 O :   -0.533884
  16 C :    0.059117
  17 C :    0.086454
  18 C :   -0.298440
  19 C :   -0.034956
  20 O :   -0.528679
  21 H :    0.165453
  22 O :   -0.602487
  23 H :    0.185790
  24 H :    0.163086
  25 H :    0.144436
  26 H :    0.144991
  27 H :    0.147872
  28 H :    0.361886
Sum of atomic charges:    0.0000000

LOEWDIN ATOMIC CHARGES
----------------------
   0 C :    0.184847
   1 C :   -0.232676
   2 C :   -0.218786
   3 C :   -0.028274
   4 O :   -0.307605
   5 H :    0.106343
   6 H :    0.122342
   7 H :    0.116486
   8 H :    0.117018
   9 H :    0.110779
  10 H :    0.106965
  11 H :    0.104552
  12 C :   -0.039164
  13 H :    0.090052
  14 H :    0.102469
  15 O :   -0.339403
  16 C :    0.016811
  17 C :    0.038412
  18 C :   -0.241743
  19 C :   -0.039413
  20 O :   -0.333174
  21 H :    0.118509
  22 O :   -0.414722
  23 H :    0.132346
  24 H :    0.127220
  25 H :    0.113040
  26 H :    0.102931
  27 H :    0.103130
  28 H :    0.280708

  Mayer bond orders larger than 0.100000
B(  0-C ,  1-C ) :   0.9351 B(  0-C ,  4-O ) :   0.9282 B(  0-C ,  5-H ) :   0.9282
B(  0-C , 15-O ) :   0.8444 B(  1-C ,  2-C ) :   0.9487 B(  1-C ,  6-H ) :   0.9336
B(  1-C ,  7-H ) :   0.9266 B(  2-C ,  3-C ) :   0.9515 B(  2-C ,  8-H ) :   0.9454
B(  2-C ,  9-H ) :   0.9434 B(  3-C ,  4-O ) :   0.8417 B(  3-C , 10-H ) :   0.9346
B(  3-C , 11-H ) :   0.9393 B( 12-C , 13-H ) :   0.9168 B( 12-C , 14-H ) :   0.9107
B( 12-C , 15-O ) :   0.8341 B( 12-C , 16-C ) :   0.8930 B( 16-C , 17-C ) :   0.9160
B( 16-C , 20-O ) :   0.8424 B( 16-C , 21-H ) :   0.9252 B( 17-C , 18-C ) :   0.9124
B( 17-C , 22-O ) :   0.8900 B( 17-C , 23-H ) :   0.9213 B( 18-C , 19-C ) :   0.9415
B( 18-C , 24-H ) :   0.9375 B( 18-C , 25-H ) :   0.9349 B( 19-C , 20-O ) :   0.8429
B( 19-C , 26-H ) :   0.9355 B( 19-C , 27-H ) :   0.9381 B( 22-O , 28-H ) :   0.7959

FINAL SINGLE POINT ENERGY      -652.856515421784

DIPOLE MOMENT
-------------
                                X             Y             Z
Electronic contribution:     -3.17969      -5.05590      -2.11394
Nuclear contribution   :      4.08866       6.58974       2.13028
                        -----------------------------------------
Total Dipole Moment    :      0.90898       1.53384       0.01634
                        -----------------------------------------
Magnitude (a.u.)       :      1.78302
Magnitude (Debye)      :      4.53209

Rotational constants in cm-1:     0.055205     0.012547     0.011981
Rotational constants in MHz :  1655.006111   376.162788   359.167901

                             ****ORCA TERMINATED NORMALLY****
TOTAL RUN TIME: 0 days 1 hours 8 minutes 39 seconds 675 msec
