                         Program Version 4.2.0 -  RELEASE  -
|  1> # Test redundant internal optimization
|  2> #
|  3> ! RKS B3LYP  Opt TightSCF SmallPrint
|  4>
|  5> %basis
|  6>         Basis "6-31G"
|  7> end
|  8>
|  9> %geom
| 10> Constraints
| 11> { D 4  0  15  12  330.0   C } # D for Dihedral angle
| 12> { D 0  15  12  16  0.0   C } # D for Dihedral angle
| 13> { D 0  4  3  2   C } # D for Dihedral angle
| 14> { D 4  3  2  1   C } # D for Dihedral angle
| 15> { D 3  2  1  0   C } # D for Dihedral angle
| 16> { D 2  1  0  4   C } # D for Dihedral angle
| 17> { D 1  0  4  3   C } # D for Dihedral angle
| 18> { D 16  20  19  18   C } # D for Dihedral angle
| 19> { D 20  19  18  17   C } # D for Dihedral angle
| 20> { D 19  18  17  16   C } # D for Dihedral angle
| 21> { D 18  17  16  20   C } # D for Dihedral angle
| 22> { D 17  16  20  19   C } # D for Dihedral angle
| 23> { D 15  12  16  20   C } # D for Dihedral angle
| 24> end
| 25> end
| 26>
| 27>
| 28> #%pal
| 29> #nprocs 8
| 30> #end
| 31>
| 32> * xyz 0 1
| 33> C  -21.048   26.222   46.251
| 34> C  -20.361   27.558   45.944
| 35> C  -20.329   28.222   47.341
| 36> C  -20.110   27.022   48.296
| 37> O  -20.473   25.807   47.535
| 38> H  -20.833   25.428   45.533
| 39> H  -19.344   27.382   45.576
| 40> H  -20.898   28.157   45.201
| 41> H  -19.543   28.978   47.434
| 42> H  -21.289   28.710   47.548
| 43> H  -20.733   27.082   49.195
| 44> H  -19.064   26.913   48.597
| 45> C  -23.271   25.476   47.424
| 46> H  -23.776   26.097   48.174
| 47> H  -24.024   24.838   46.943
| 48> O  -22.586   26.394   46.375
| 49> C  -22.264   24.547   48.158
| 50> C  -22.986   23.577   49.099
| 51> C  -23.495   22.501   48.111
| 52> C  -22.364   22.432   47.053
| 53> O  -21.577   23.676   47.198
| 54> H  -21.498   25.159   48.639
| 55> H  -22.275   23.143   49.811
| 56> O  -24.134   24.247   49.903
| 57> H  -23.675   21.534   48.591
| 58> H  -24.435   22.827   47.650
| 59> H  -22.751   22.370   46.030
| 60> H  -21.681   21.596   47.226
| 61> H  -24.860   24.688   49.211
| 62> *
| 63>
| 64>                          ****END OF INPUT****
 Total Charge           Charge          ....    0
 Multiplicity           Mult            ....    1
 Number of Electrons    NEL             ....  102
FINAL SINGLE POINT ENERGY      -652.792207488815
FINAL SINGLE POINT ENERGY      -652.824158709165
FINAL SINGLE POINT ENERGY      -652.844238515419
FINAL SINGLE POINT ENERGY      -652.847552293042
FINAL SINGLE POINT ENERGY      -652.848157487557
FINAL SINGLE POINT ENERGY      -652.848328781263
FINAL SINGLE POINT ENERGY      -652.848345125474
FINAL SINGLE POINT ENERGY      -652.848350232629
                    ***********************HURRAY********************

CARTESIAN COORDINATES (ANGSTROEM)
---------------------------------
  C    -20.902478   26.303092   46.240976
  C    -20.506722   27.749031   45.940517
  C    -20.354976   28.336347   47.362466
  C    -19.788353   27.152757   48.175445
  O    -20.076316   25.933076   47.368249
  H    -20.664859   25.572610   45.464327
  H    -19.549864   27.753492   45.405594
  H    -21.257729   28.264111   45.338465
  H    -19.698065   29.211165   47.390260
  H    -21.337272   28.631883   47.742756
  H    -20.252675   27.044932   49.160729
  H    -18.701846   27.195241   48.295458
  C    -23.061129   25.426497   47.396847
  H    -23.596937   26.097982   48.080596
  H    -23.806217   24.902147   46.783203
  O    -22.336497   26.288217   46.470806
  C    -22.296442   24.408845   48.246689
  C    -23.228714   23.532238   49.103731
  C    -23.692835   22.453530   48.074156
  C    -22.433887   22.260707   47.199292
  O    -21.566680   23.445138   47.422658
  H    -21.543574   24.910492   48.850125
  H    -22.644811   23.069177   49.901744
  O    -24.296592   24.229201   49.790000
  H    -24.018053   21.530676   48.561308
  H    -24.536713   22.840617   47.488415
  H    -22.665894   22.182532   46.132356
  H    -21.855622   21.381020   47.497923
  H    -25.005247   24.476246   49.161911

 Multiplicity           Mult            ....    1
 Number of Electrons    NEL             ....  102
 Basis Dimension        Dim             ....  149

ORBITAL ENERGIES
----------------

  NO   OCC          E(Eh)            E(eV)
   0   2.0000     -19.148184      -521.0486
   1   2.0000     -19.137751      -520.7647
   2   2.0000     -19.133004      -520.6355
   3   2.0000     -19.130303      -520.5620
   4   2.0000     -10.271286      -279.4959
   5   2.0000     -10.242895      -278.7234
   6   2.0000     -10.228020      -278.3186
   7   2.0000     -10.226919      -278.2886
   8   2.0000     -10.224184      -278.2142
   9   2.0000     -10.223256      -278.1889
  10   2.0000     -10.193149      -277.3697
  11   2.0000     -10.182242      -277.0729
  12   2.0000     -10.178517      -276.9715
  13   2.0000      -1.043261       -28.3886
  14   2.0000      -1.030450       -28.0400
  15   2.0000      -1.011047       -27.5120
  16   2.0000      -0.983165       -26.7533
  17   2.0000      -0.785223       -21.3670
  18   2.0000      -0.779227       -21.2038
  19   2.0000      -0.761970       -20.7343
  20   2.0000      -0.729233       -19.8434
  21   2.0000      -0.676437       -18.4068
  22   2.0000      -0.609153       -16.5759
  23   2.0000      -0.598350       -16.2819
  24   2.0000      -0.593382       -16.1467
  25   2.0000      -0.561603       -15.2820
  26   2.0000      -0.520925       -14.1751
  27   2.0000      -0.508007       -13.8236
  28   2.0000      -0.496565       -13.5122
  29   2.0000      -0.480372       -13.0716
  30   2.0000      -0.460975       -12.5438
  31   2.0000      -0.455764       -12.4020
  32   2.0000      -0.442437       -12.0393
  33   2.0000      -0.426072       -11.5940
  34   2.0000      -0.424769       -11.5586
  35   2.0000      -0.409020       -11.1300
  36   2.0000      -0.407110       -11.0780
  37   2.0000      -0.394401       -10.7322
  38   2.0000      -0.378969       -10.3123
  39   2.0000      -0.364675        -9.9233
  40   2.0000      -0.355394        -9.6708
  41   2.0000      -0.353336        -9.6148
  42   2.0000      -0.341131        -9.2826
  43   2.0000      -0.330987        -9.0066
  44   2.0000      -0.319928        -8.7057
  45   2.0000      -0.310644        -8.4531
  46   2.0000      -0.291468        -7.9313
  47   2.0000      -0.269432        -7.3316
  48   2.0000      -0.256054        -6.9676
  49   2.0000      -0.241896        -6.5823
  50   2.0000      -0.233453        -6.3526
  51   0.0000       0.052400         1.4259
  52   0.0000       0.079061         2.1514
  53   0.0000       0.087542         2.3822
  54   0.0000       0.094825         2.5803
  55   0.0000       0.108843         2.9618

MULLIKEN ATOMIC CHARGES
-----------------------
   0 C :    0.320000
   1 C :   -0.259732
   2 C :   -0.300494
   3 C :   -0.021110
   4 O :   -0.498719
   5 H :    0.156189
   6 H :    0.143202
   7 H :    0.157924
   8 H :    0.140952
   9 H :    0.155824
  10 H :    0.138832
  11 H :    0.150230
  12 C :    0.019474
  13 H :    0.134825
  14 H :    0.124279
  15 O :   -0.560278
  16 C :    0.075710
  17 C :    0.083724
  18 C :   -0.322695
  19 C :   -0.012466
  20 O :   -0.505086
  21 H :    0.176266
  22 H :    0.167382
  23 O :   -0.600441
  24 H :    0.154795
  25 H :    0.132430
  26 H :    0.143422
  27 H :    0.148958
  28 H :    0.356602
Sum of atomic charges:   -0.0000000

LOEWDIN ATOMIC CHARGES
----------------------
   0 C :    0.189764
   1 C :   -0.216687
   2 C :   -0.217711
   3 C :   -0.035760
   4 O :   -0.310142
   5 H :    0.103336
   6 H :    0.112788
   7 H :    0.124743
   8 H :    0.113857
   9 H :    0.115851
  10 H :    0.099189
  11 H :    0.105966
  12 C :   -0.037782
  13 H :    0.102278
  14 H :    0.093500
  15 O :   -0.345682
  16 C :    0.006948
  17 C :    0.036107
  18 C :   -0.241852
  19 C :   -0.032342
  20 O :   -0.313568
  21 H :    0.124536
  22 H :    0.119439
  23 O :   -0.407547
  24 H :    0.121277
  25 H :    0.103123
  26 H :    0.102329
  27 H :    0.105720
  28 H :    0.278322

  Mayer bond orders larger than 0.100000
B(  0-C ,  1-C ) :   0.9377 B(  0-C ,  4-O ) :   0.9006 B(  0-C ,  5-H ) :   0.9253
B(  0-C , 15-O ) :   0.8364 B(  1-C ,  2-C ) :   0.9555 B(  1-C ,  6-H ) :   0.9380
B(  1-C ,  7-H ) :   0.9366 B(  2-C ,  3-C ) :   0.9546 B(  2-C ,  8-H ) :   0.9451
B(  2-C ,  9-H ) :   0.9453 B(  3-C ,  4-O ) :   0.8405 B(  3-C , 10-H ) :   0.9319
B(  3-C , 11-H ) :   0.9397 B( 12-C , 13-H ) :   0.9117 B( 12-C , 14-H ) :   0.9294
B( 12-C , 15-O ) :   0.8460 B( 12-C , 16-C ) :   0.9045 B( 16-C , 17-C ) :   0.8651
B( 16-C , 20-O ) :   0.8467 B( 16-C , 21-H ) :   0.9174 B( 17-C , 18-C ) :   0.9209
B( 17-C , 22-H ) :   0.9339 B( 17-C , 23-O ) :   0.8968 B( 18-C , 19-C ) :   0.9376
B( 18-C , 24-H ) :   0.9427 B( 18-C , 25-H ) :   0.9401 B( 19-C , 20-O ) :   0.8537
B( 19-C , 26-H ) :   0.9317 B( 19-C , 27-H ) :   0.9376 B( 23-O , 28-H ) :   0.7982

FINAL SINGLE POINT ENERGY      -652.848350599621

DIPOLE MOMENT
-------------
                                X             Y             Z
Electronic contribution:      0.10224      -1.85587       0.28984
Nuclear contribution   :     -0.57700       1.95220      -0.48628
                        -----------------------------------------
Total Dipole Moment    :     -0.47475       0.09632      -0.19644
                        -----------------------------------------
Magnitude (a.u.)       :      0.52274
Magnitude (Debye)      :      1.32869

Rotational constants in cm-1:     0.053015     0.015052     0.014129
Rotational constants in MHz :  1589.346316   451.246847   423.567909

                             ****ORCA TERMINATED NORMALLY****
TOTAL RUN TIME: 0 days 1 hours 1 minutes 10 seconds 867 msec
