                         Program Version 4.2.0 -  RELEASE  -
|  1> # Test redundant internal optimization
|  2> #
|  3> ! RKS B3LYP  Opt TightSCF SmallPrint
|  4>
|  5> %basis
|  6>         Basis "6-31G"
|  7> end
|  8>
|  9> %geom
| 10> Constraints
| 11> { D 4  0  15  12  225.0   C } # D for Dihedral angle
| 12> { D 0  15  12  16  120.0   C } # D for Dihedral angle
| 13> { D 0  4  3  2   C } # D for Dihedral angle
| 14> { D 4  3  2  1   C } # D for Dihedral angle
| 15> { D 3  2  1  0   C } # D for Dihedral angle
| 16> { D 2  1  0  4   C } # D for Dihedral angle
| 17> { D 1  0  4  3   C } # D for Dihedral angle
| 18> { D 16  20  19  18   C } # D for Dihedral angle
| 19> { D 20  19  18  17   C } # D for Dihedral angle
| 20> { D 19  18  17  16   C } # D for Dihedral angle
| 21> { D 18  17  16  20   C } # D for Dihedral angle
| 22> { D 17  16  20  19   C } # D for Dihedral angle
| 23> { D 15  12  16  20   C } # D for Dihedral angle
| 24> end
| 25> end
| 26>
| 27>
| 28> #%pal
| 29> #nprocs 8
| 30> #end
| 31>
| 32> * xyz 0 1
| 33> C  -21.048   26.222   46.251
| 34> C  -20.361   27.558   45.944
| 35> C  -20.329   28.222   47.341
| 36> C  -20.110   27.022   48.296
| 37> O  -20.473   25.807   47.535
| 38> H  -20.833   25.428   45.533
| 39> H  -19.344   27.382   45.576
| 40> H  -20.898   28.157   45.201
| 41> H  -19.543   28.978   47.434
| 42> H  -21.289   28.710   47.548
| 43> H  -20.733   27.082   49.195
| 44> H  -19.064   26.913   48.597
| 45> C  -23.415   25.773   45.218
| 46> H  -23.989   26.564   44.718
| 47> H  -22.752   25.309   44.476
| 48> O  -22.586   26.394   46.375
| 49> C  -24.410   24.685   45.709
| 50> C  -25.126   24.014   44.532
| 51> C  -24.048   23.022   44.032
| 52> C  -23.346   22.579   45.340
| 53> O  -23.688   23.589   46.364
| 54> H  -25.077   25.120   46.455
| 55> H  -26.012   23.475   44.887
| 56> O  -25.573   25.020   43.436
| 57> H  -24.472   22.178   43.479
| 58> H  -23.342   23.537   43.370
| 59> H  -22.256   22.530   45.235
| 60> H  -23.711   21.614   45.703
| 61> H  -24.703   25.571   43.063
| 62> *
| 63>
| 64>                          ****END OF INPUT****
 Total Charge           Charge          ....    0
 Multiplicity           Mult            ....    1
 Number of Electrons    NEL             ....  102
FINAL SINGLE POINT ENERGY      -652.825277233476
FINAL SINGLE POINT ENERGY      -652.848400938300
FINAL SINGLE POINT ENERGY      -652.852626824784
FINAL SINGLE POINT ENERGY      -652.853356931337
FINAL SINGLE POINT ENERGY      -652.853479139731
FINAL SINGLE POINT ENERGY      -652.853505864496
FINAL SINGLE POINT ENERGY      -652.853509698140
FINAL SINGLE POINT ENERGY      -652.853510096857
                    ***********************HURRAY********************

CARTESIAN COORDINATES (ANGSTROEM)
---------------------------------
  C    -21.010884   26.221178   46.177808
  C    -20.362124   27.588334   45.968419
  C    -20.437402   28.200630   47.388497
  C    -20.229015   26.973301   48.301756
  O    -20.506373   25.787777   47.451077
  H    -20.743537   25.453874   45.443960
  H    -19.318498   27.455168   45.657680
  H    -20.880079   28.186058   45.214081
  H    -19.686420   28.978845   47.553348
  H    -21.429425   28.633879   47.547886
  H    -20.907094   26.953169   49.158224
  H    -19.197185   26.873557   48.652224
  C    -23.243781   25.828468   45.148281
  H    -23.814662   26.648808   44.696791
  H    -22.580938   25.402304   44.377818
  O    -22.453511   26.363736   46.238889
  C    -24.209308   24.769626   45.680984
  C    -25.078712   24.100066   44.604629
  C    -24.120385   23.000554   44.056999
  C    -23.339935   22.570156   45.318264
  O    -23.515542   23.655152   46.318202
  H    -24.810535   25.232585   46.468837
  H    -25.951453   23.644008   45.076287
  O    -25.629263   24.990630   43.602920
  H    -24.661767   22.175660   43.586696
  H    -23.453526   23.439622   43.301972
  H    -22.271321   22.424013   45.132773
  H    -23.746239   21.657417   45.763236
  H    -24.942085   25.246427   42.954463

 Multiplicity           Mult            ....    1
 Number of Electrons    NEL             ....  102
 Basis Dimension        Dim             ....  149

ORBITAL ENERGIES
----------------

  NO   OCC          E(Eh)            E(eV)
   0   2.0000     -19.149944      -521.0965
   1   2.0000     -19.135256      -520.6968
   2   2.0000     -19.134890      -520.6868
   3   2.0000     -19.132522      -520.6224
   4   2.0000     -10.275850      -279.6201
   5   2.0000     -10.244533      -278.7679
   6   2.0000     -10.232607      -278.4434
   7   2.0000     -10.228957      -278.3441
   8   2.0000     -10.226816      -278.2858
   9   2.0000     -10.218537      -278.0605
  10   2.0000     -10.196439      -277.4592
  11   2.0000     -10.181311      -277.0476
  12   2.0000     -10.180999      -277.0391
  13   2.0000      -1.047470       -28.5031
  14   2.0000      -1.032792       -28.1037
  15   2.0000      -1.014256       -27.5993
  16   2.0000      -0.989311       -26.9205
  17   2.0000      -0.783998       -21.3337
  18   2.0000      -0.780794       -21.2465
  19   2.0000      -0.765262       -20.8238
  20   2.0000      -0.727298       -19.7908
  21   2.0000      -0.679630       -18.4937
  22   2.0000      -0.611462       -16.6387
  23   2.0000      -0.594470       -16.1764
  24   2.0000      -0.588433       -16.0121
  25   2.0000      -0.577845       -15.7240
  26   2.0000      -0.528432       -14.3794
  27   2.0000      -0.509104       -13.8534
  28   2.0000      -0.498625       -13.5683
  29   2.0000      -0.485263       -13.2047
  30   2.0000      -0.464486       -12.6393
  31   2.0000      -0.455922       -12.4063
  32   2.0000      -0.448162       -12.1951
  33   2.0000      -0.432044       -11.7565
  34   2.0000      -0.429114       -11.6768
  35   2.0000      -0.415179       -11.2976
  36   2.0000      -0.406364       -11.0577
  37   2.0000      -0.392550       -10.6818
  38   2.0000      -0.379806       -10.3350
  39   2.0000      -0.366146        -9.9633
  40   2.0000      -0.354685        -9.6515
  41   2.0000      -0.350930        -9.5493
  42   2.0000      -0.346468        -9.4279
  43   2.0000      -0.330004        -8.9799
  44   2.0000      -0.313797        -8.5388
  45   2.0000      -0.307163        -8.3583
  46   2.0000      -0.304018        -8.2728
  47   2.0000      -0.270529        -7.3615
  48   2.0000      -0.260918        -7.0999
  49   2.0000      -0.248003        -6.7485
  50   2.0000      -0.231825        -6.3083
  51   0.0000       0.048727         1.3259
  52   0.0000       0.068663         1.8684
  53   0.0000       0.089750         2.4422
  54   0.0000       0.095917         2.6100
  55   0.0000       0.108641         2.9563

MULLIKEN ATOMIC CHARGES
-----------------------
   0 C :    0.296849
   1 C :   -0.255921
   2 C :   -0.300754
   3 C :   -0.000351
   4 O :   -0.494510
   5 H :    0.133195
   6 H :    0.139252
   7 H :    0.140531
   8 H :    0.139178
   9 H :    0.162842
  10 H :    0.154938
  11 H :    0.138075
  12 C :   -0.020415
  13 H :    0.143513
  14 H :    0.107847
  15 O :   -0.508395
  16 C :    0.106718
  17 C :    0.085105
  18 C :   -0.325626
  19 C :   -0.010495
  20 O :   -0.500309
  21 H :    0.166363
  22 H :    0.167542
  23 O :   -0.600945
  24 H :    0.158166
  25 H :    0.128353
  26 H :    0.145796
  27 H :    0.149410
  28 H :    0.354048
Sum of atomic charges:   -0.0000000

LOEWDIN ATOMIC CHARGES
----------------------
   0 C :    0.181794
   1 C :   -0.226211
   2 C :   -0.217114
   3 C :   -0.025820
   4 O :   -0.304849
   5 H :    0.094367
   6 H :    0.110580
   7 H :    0.114515
   8 H :    0.112810
   9 H :    0.119523
  10 H :    0.109589
  11 H :    0.100461
  12 C :   -0.045984
  13 H :    0.105340
  14 H :    0.084476
  15 O :   -0.324214
  16 C :    0.016081
  17 C :    0.034290
  18 C :   -0.241912
  19 C :   -0.030188
  20 O :   -0.310492
  21 H :    0.121106
  22 H :    0.119902
  23 O :   -0.408142
  24 H :    0.122761
  25 H :    0.101073
  26 H :    0.103219
  27 H :    0.106400
  28 H :    0.276641

  Mayer bond orders larger than 0.100000
B(  0-C ,  1-C ) :   0.9354 B(  0-C ,  4-O ) :   0.9398 B(  0-C ,  5-H ) :   0.9184
B(  0-C , 15-O ) :   0.8365 B(  1-C ,  2-C ) :   0.9573 B(  1-C ,  6-H ) :   0.9356
B(  1-C ,  7-H ) :   0.9395 B(  2-C ,  3-C ) :   0.9541 B(  2-C ,  8-H ) :   0.9454
B(  2-C ,  9-H ) :   0.9434 B(  3-C ,  4-O ) :   0.8397 B(  3-C , 10-H ) :   0.9341
B(  3-C , 11-H ) :   0.9398 B( 12-C , 13-H ) :   0.9153 B( 12-C , 14-H ) :   0.9191
B( 12-C , 15-O ) :   0.8615 B( 12-C , 16-C ) :   0.8941 B( 16-C , 17-C ) :   0.8686
B( 16-C , 20-O ) :   0.8731 B( 16-C , 21-H ) :   0.9300 B( 17-C , 18-C ) :   0.9239
B( 17-C , 22-H ) :   0.9323 B( 17-C , 23-O ) :   0.8943 B( 18-C , 19-C ) :   0.9380
B( 18-C , 24-H ) :   0.9422 B( 18-C , 25-H ) :   0.9410 B( 19-C , 20-O ) :   0.8531
B( 19-C , 26-H ) :   0.9307 B( 19-C , 27-H ) :   0.9380 B( 23-O , 28-H ) :   0.7997

FINAL SINGLE POINT ENERGY      -652.853510027529

DIPOLE MOMENT
-------------
                                X             Y             Z
Electronic contribution:     -2.96692      -1.87787       1.60397
Nuclear contribution   :      3.59083       2.10862      -2.84726
                        -----------------------------------------
Total Dipole Moment    :      0.62392       0.23075      -1.24329
                        -----------------------------------------
Magnitude (a.u.)       :      1.41007
Magnitude (Debye)      :      3.58411

Rotational constants in cm-1:     0.058753     0.012712     0.011481
Rotational constants in MHz :  1761.375666   381.103604   344.186882

                             ****ORCA TERMINATED NORMALLY****
TOTAL RUN TIME: 0 days 2 hours 0 minutes 22 seconds 876 msec
