                         Program Version 4.2.0 -  RELEASE  -
|  1> # Test redundant internal optimization
|  2> #
|  3> ! RKS B3LYP  Opt TightSCF SmallPrint
|  4>
|  5> %basis
|  6>         Basis "6-31G"
|  7> end
|  8>
|  9> %geom
| 10> Constraints
| 11> { D 4  0  15  12  150.0   C } # D for Dihedral angle
| 12> { D 0  15  12  16  75.0   C } # D for Dihedral angle
| 13> { D 0  4  3  2   C } # D for Dihedral angle
| 14> { D 4  3  2  1   C } # D for Dihedral angle
| 15> { D 3  2  1  0   C } # D for Dihedral angle
| 16> { D 2  1  0  4   C } # D for Dihedral angle
| 17> { D 1  0  4  3   C } # D for Dihedral angle
| 18> { D 16  20  19  18   C } # D for Dihedral angle
| 19> { D 20  19  18  17   C } # D for Dihedral angle
| 20> { D 19  18  17  16   C } # D for Dihedral angle
| 21> { D 18  17  16  20   C } # D for Dihedral angle
| 22> { D 17  16  20  19   C } # D for Dihedral angle
| 23> { D 15  12  16  20   C } # D for Dihedral angle
| 24> end
| 25> end
| 26>
| 27>
| 28> #%pal
| 29> #nprocs 8
| 30> #end
| 31>
| 32> * xyz 0 1
| 33> C  -21.048   26.222   46.251
| 34> C  -20.361   27.558   45.944
| 35> C  -20.329   28.222   47.341
| 36> C  -20.110   27.022   48.296
| 37> O  -20.473   25.807   47.535
| 38> H  -20.833   25.428   45.533
| 39> H  -19.344   27.382   45.576
| 40> H  -20.898   28.157   45.201
| 41> H  -19.543   28.978   47.434
| 42> H  -21.289   28.710   47.548
| 43> H  -20.733   27.082   49.195
| 44> H  -19.064   26.913   48.597
| 45> C  -23.210   27.459   45.431
| 46> H  -24.222   27.701   45.779
| 47> H  -22.613   28.380   45.444
| 48> O  -22.586   26.394   46.375
| 49> C  -23.301   26.975   43.958
| 50> C  -24.259   25.786   43.821
| 51> C  -25.637   26.489   43.838
| 52> C  -25.362   27.820   43.095
| 53> O  -23.896   28.016   43.113
| 54> H  -22.295   26.792   43.578
| 55> H  -24.095   25.280   42.863
| 56> O  -24.100   24.741   44.959
| 57> H  -26.421   25.896   43.356
| 58> H  -25.949   26.679   44.872
| 59> H  -25.844   28.677   43.578
| 60> H  -25.670   27.785   42.047
| 61> H  -24.261   25.226   45.929
| 62> *
| 63>
| 64>                          ****END OF INPUT****
 Total Charge           Charge          ....    0
 Multiplicity           Mult            ....    1
 Number of Electrons    NEL             ....  102
FINAL SINGLE POINT ENERGY      -652.823639378501
FINAL SINGLE POINT ENERGY      -652.849511371721
FINAL SINGLE POINT ENERGY      -652.856385108702
FINAL SINGLE POINT ENERGY      -652.859110122705
FINAL SINGLE POINT ENERGY      -652.860080953392
FINAL SINGLE POINT ENERGY      -652.860468721006
FINAL SINGLE POINT ENERGY      -652.860575424692
FINAL SINGLE POINT ENERGY      -652.860591048468
                    ***********************HURRAY********************

CARTESIAN COORDINATES (ANGSTROEM)
---------------------------------
  C    -21.118173   26.267519   46.235278
  C    -20.255374   27.492428   45.938584
  C    -20.253200   28.224541   47.304214
  C    -20.258851   27.058788   48.314424
  O    -20.710548   25.867585   47.548049
  H    -20.968563   25.410044   45.576546
  H    -19.248032   27.140817   45.689071
  H    -20.602585   28.113304   45.109517
  H    -19.382960   28.876557   47.423685
  H    -21.154642   28.837504   47.410212
  H    -20.943384   27.214383   49.151512
  H    -19.262418   26.822023   48.697250
  C    -23.196742   27.536248   45.431344
  H    -24.172983   27.714064   45.889232
  H    -22.647343   28.483055   45.430420
  O    -22.565108   26.541743   46.304320
  C    -23.343744   27.018506   43.995310
  C    -24.263934   25.794163   43.851867
  C    -25.672433   26.453105   43.886295
  C    -25.452481   27.795266   43.159224
  O    -23.977408   28.045116   43.168588
  H    -22.354581   26.839056   43.560553
  H    -24.100784   25.340541   42.868512
  O    -24.062726   24.747558   44.821072
  H    -26.423543   25.825771   43.399312
  H    -25.981273   26.593004   44.928328
  H    -25.952847   28.639569   43.643211
  H    -25.754030   27.760735   42.108647
  H    -23.665309   25.124004   45.642422

 Multiplicity           Mult            ....    1
 Number of Electrons    NEL             ....  102
 Basis Dimension        Dim             ....  149

ORBITAL ENERGIES
----------------

  NO   OCC          E(Eh)            E(eV)
   0   2.0000     -19.159613      -521.3596
   1   2.0000     -19.148965      -521.0698
   2   2.0000     -19.143626      -520.9245
   3   2.0000     -19.118276      -520.2347
   4   2.0000     -10.291405      -280.0434
   5   2.0000     -10.240344      -278.6539
   6   2.0000     -10.236923      -278.5608
   7   2.0000     -10.234056      -278.4828
   8   2.0000     -10.233300      -278.4623
   9   2.0000     -10.230019      -278.3730
  10   2.0000     -10.200613      -277.5728
  11   2.0000     -10.198406      -277.5127
  12   2.0000     -10.182575      -277.0819
  13   2.0000      -1.063112       -28.9287
  14   2.0000      -1.028108       -27.9762
  15   2.0000      -1.006290       -27.3825
  16   2.0000      -0.994732       -27.0680
  17   2.0000      -0.797846       -21.7105
  18   2.0000      -0.776211       -21.1218
  19   2.0000      -0.770045       -20.9540
  20   2.0000      -0.741681       -20.1822
  21   2.0000      -0.685373       -18.6499
  22   2.0000      -0.611019       -16.6267
  23   2.0000      -0.606850       -16.5132
  24   2.0000      -0.598797       -16.2941
  25   2.0000      -0.573541       -15.6068
  26   2.0000      -0.538378       -14.6500
  27   2.0000      -0.515456       -14.0263
  28   2.0000      -0.505678       -13.7602
  29   2.0000      -0.491063       -13.3625
  30   2.0000      -0.475571       -12.9409
  31   2.0000      -0.463372       -12.6090
  32   2.0000      -0.447741       -12.1837
  33   2.0000      -0.435377       -11.8472
  34   2.0000      -0.425756       -11.5854
  35   2.0000      -0.421151       -11.4601
  36   2.0000      -0.409055       -11.1310
  37   2.0000      -0.394683       -10.7399
  38   2.0000      -0.388759       -10.5787
  39   2.0000      -0.371056       -10.0970
  40   2.0000      -0.369379       -10.0513
  41   2.0000      -0.365153        -9.9363
  42   2.0000      -0.351055        -9.5527
  43   2.0000      -0.339413        -9.2359
  44   2.0000      -0.326182        -8.8759
  45   2.0000      -0.312505        -8.5037
  46   2.0000      -0.295916        -8.0523
  47   2.0000      -0.278944        -7.5905
  48   2.0000      -0.266582        -7.2541
  49   2.0000      -0.251452        -6.8424
  50   2.0000      -0.240404        -6.5417
  51   0.0000       0.056937         1.5493
  52   0.0000       0.070784         1.9261
  53   0.0000       0.090890         2.4732
  54   0.0000       0.094942         2.5835
  55   0.0000       0.098881         2.6907

MULLIKEN ATOMIC CHARGES
-----------------------
   0 C :    0.312602
   1 C :   -0.302924
   2 C :   -0.301657
   3 C :   -0.002647
   4 O :   -0.494779
   5 H :    0.164325
   6 H :    0.160309
   7 H :    0.154038
   8 H :    0.149442
   9 H :    0.156705
  10 H :    0.156867
  11 H :    0.148220
  12 C :   -0.045952
  13 H :    0.163749
  14 H :    0.153191
  15 O :   -0.544446
  16 C :    0.051909
  17 C :    0.119138
  18 C :   -0.310504
  19 C :   -0.019907
  20 O :   -0.521882
  21 H :    0.148854
  22 H :    0.149817
  23 O :   -0.636516
  24 H :    0.155448
  25 H :    0.147703
  26 H :    0.142735
  27 H :    0.151242
  28 H :    0.394919
Sum of atomic charges:   -0.0000000

LOEWDIN ATOMIC CHARGES
----------------------
   0 C :    0.180247
   1 C :   -0.232147
   2 C :   -0.216853
   3 C :   -0.025470
   4 O :   -0.300676
   5 H :    0.108162
   6 H :    0.124118
   7 H :    0.118692
   8 H :    0.118170
   9 H :    0.114092
  10 H :    0.110911
  11 H :    0.106192
  12 C :   -0.053313
  13 H :    0.116672
  14 H :    0.106861
  15 O :   -0.339579
  16 C :    0.002860
  17 C :    0.041567
  18 C :   -0.240184
  19 C :   -0.031448
  20 O :   -0.326388
  21 H :    0.107551
  22 H :    0.107663
  23 O :   -0.430753
  24 H :    0.123035
  25 H :    0.112000
  26 H :    0.102374
  27 H :    0.107032
  28 H :    0.288611

  Mayer bond orders larger than 0.100000
B(  0-C ,  1-C ) :   0.9372 B(  0-C ,  4-O ) :   0.9421 B(  0-C ,  5-H ) :   0.9221
B(  0-C , 15-O ) :   0.7941 B(  1-C ,  2-C ) :   0.9484 B(  1-C ,  6-H ) :   0.9331
B(  1-C ,  7-H ) :   0.9255 B(  2-C ,  3-C ) :   0.9529 B(  2-C ,  8-H ) :   0.9448
B(  2-C ,  9-H ) :   0.9437 B(  3-C ,  4-O ) :   0.8322 B(  3-C , 10-H ) :   0.9343
B(  3-C , 11-H ) :   0.9393 B( 12-C , 13-H ) :   0.9352 B( 12-C , 14-H ) :   0.9159
B( 12-C , 15-O ) :   0.8100 B( 12-C , 16-C ) :   0.8810 B( 16-C , 17-C ) :   0.9072
B( 16-C , 20-O ) :   0.8538 B( 16-C , 21-H ) :   0.9296 B( 17-C , 18-C ) :   0.9009
B( 17-C , 22-H ) :   0.9330 B( 17-C , 23-O ) :   0.9374 B( 18-C , 19-C ) :   0.9397
B( 18-C , 24-H ) :   0.9438 B( 18-C , 25-H ) :   0.9427 B( 19-C , 20-O ) :   0.8295
B( 19-C , 26-H ) :   0.9342 B( 19-C , 27-H ) :   0.9384 B( 23-O , 28-H ) :   0.7235

FINAL SINGLE POINT ENERGY      -652.860592495224

DIPOLE MOMENT
-------------
                                X             Y             Z
Electronic contribution:     -0.25281      -3.89841      -0.21633
Nuclear contribution   :      0.68799       5.27142       0.26860
                        -----------------------------------------
Total Dipole Moment    :      0.43518       1.37301       0.05227
                        -----------------------------------------
Magnitude (a.u.)       :      1.44127
Magnitude (Debye)      :      3.66342

Rotational constants in cm-1:     0.059649     0.013888     0.012372
Rotational constants in MHz :  1788.222294   416.352781   370.888907

                             ****ORCA TERMINATED NORMALLY****
TOTAL RUN TIME: 0 days 0 hours 39 minutes 11 seconds 386 msec
