                         Program Version 4.2.1 -  RELEASE  -
|  1> # Test redundant internal optimization
|  2> #
|  3> ! RKS B3LYP  Opt TightSCF SmallPrint
|  4>
|  5> %basis
|  6>         Basis "6-31G"
|  7> end
|  8>
|  9> %geom
| 10> Constraints
| 11> { D 4  0  19  14  150.0   C } # D for Dihedral angle
| 12> { D 0  19  14  12  60.0   C } # D for Dihedral angle
| 13> { D 0  4  3  2   C } # D for Dihedral angle
| 14> { D 4  3  2  1   C } # D for Dihedral angle
| 15> { D 3  2  1  0   C } # D for Dihedral angle
| 16> { D 2  1  0  4   C } # D for Dihedral angle
| 17> { D 1  0  4  3   C } # D for Dihedral angle
| 18> { D 14  15  16  17   C } # D for Dihedral angle
| 19> { D 15  16  17  12   C } # D for Dihedral angle
| 20> { D 16  17  12  14   C } # D for Dihedral angle
| 21> { D 17  12  14  15   C } # D for Dihedral angle
| 22> { D 12  14  15  16   C } # D for Dihedral angle
| 23> end
| 24> end
| 25>
| 26>
| 27> #%pal
| 28> #nprocs 8
| 29> #end
| 30>
| 31> * xyz 0 1
| 32> C  -21.048   26.222   46.251
| 33> C  -20.361   27.558   45.944
| 34> C  -20.329   28.222   47.341
| 35> C  -20.110   27.022   48.296
| 36> O  -20.473   25.807   47.535
| 37> H  -20.833   25.428   45.533
| 38> H  -19.344   27.382   45.576
| 39> H  -20.898   28.157   45.201
| 40> H  -19.543   28.978   47.434
| 41> H  -21.289   28.710   47.548
| 42> H  -20.733   27.082   49.195
| 43> H  -19.064   26.913   48.597
| 44> C  -22.747   26.995   44.027
| 45> H  -22.898   27.855   43.355
| 46> C  -23.030   27.370   45.486
| 47> C  -24.576   27.327   45.527
| 48> C  -24.921   26.165   44.562
| 49> O  -23.719   25.937   43.730
| 50> H  -21.755   26.575   43.852
| 51> O  -22.472   26.381   46.366
| 52> H  -22.625   28.349   45.765
| 53> H  -24.970   27.164   46.534
| 54> H  -24.990   28.273   45.154
| 55> H  -25.770   26.397   43.910
| 56> H  -25.128   25.229   45.092
| 57> *
| 58>
| 59>                          ****END OF INPUT****
 Total Charge           Charge          ....    0
 Multiplicity           Mult            ....    1
 Number of Electrons    NEL             ....   86
FINAL SINGLE POINT ENERGY      -538.415840918689
FINAL SINGLE POINT ENERGY      -538.424889637839
FINAL SINGLE POINT ENERGY      -538.426158074353
FINAL SINGLE POINT ENERGY      -538.426445630131
FINAL SINGLE POINT ENERGY      -538.426469670319
FINAL SINGLE POINT ENERGY      -538.426482800261
                    ***********************HURRAY********************

CARTESIAN COORDINATES (ANGSTROEM)
---------------------------------
  C    -21.017230   26.238226   46.254828
  C    -20.170918   27.480839   45.971965
  C    -20.212688   28.220148   47.336666
  C    -20.217540   27.053416   48.348311
  O    -20.627342   25.852726   47.582269
  H    -20.823664   25.381710   45.605643
  H    -19.149187   27.157951   45.742251
  H    -20.521394   28.095607   45.140357
  H    -19.357988   28.889193   47.474139
  H    -21.128868   28.814185   47.421712
  H    -20.920515   27.201589   49.172106
  H    -19.223799   26.842529   48.754274
  C    -22.883438   27.144105   43.914026
  H    -23.178107   28.013419   43.305372
  C    -23.079422   27.453727   45.397726
  C    -24.597843   27.246753   45.560384
  C    -24.906019   26.078913   44.594362
  O    -23.758020   25.999415   43.660646
  H    -21.872123   26.843059   43.634996
  O    -22.458107   26.482766   46.287679
  H    -22.765043   28.473042   45.658086
  H    -24.843122   27.018266   46.599510
  H    -25.127701   28.159528   45.263920
  H    -25.823661   26.238606   44.018330
  H    -24.962260   25.118283   45.111440

 Multiplicity           Mult            ....    1
 Number of Electrons    NEL             ....   86
 Basis Dimension        Dim             ....  127

ORBITAL ENERGIES
----------------

  NO   OCC          E(Eh)            E(eV)
   0   2.0000     -19.139144      -520.8026
   1   2.0000     -19.136947      -520.7428
   2   2.0000     -19.129953      -520.5525
   3   2.0000     -10.278986      -279.7054
   4   2.0000     -10.242578      -278.7147
   5   2.0000     -10.226619      -278.2805
   6   2.0000     -10.226592      -278.2797
   7   2.0000     -10.218986      -278.0728
   8   2.0000     -10.193421      -277.3771
   9   2.0000     -10.193064      -277.3674
  10   2.0000     -10.185035      -277.1489
  11   2.0000      -1.052172       -28.6311
  12   2.0000      -1.015895       -27.6439
  13   2.0000      -0.987488       -26.8709
  14   2.0000      -0.790951       -21.5229
  15   2.0000      -0.783383       -21.3169
  16   2.0000      -0.738072       -20.0840
  17   2.0000      -0.729107       -19.8400
  18   2.0000      -0.620421       -16.8825
  19   2.0000      -0.605930       -16.4882
  20   2.0000      -0.594419       -16.1750
  21   2.0000      -0.564057       -15.3488
  22   2.0000      -0.525024       -14.2866
  23   2.0000      -0.500060       -13.6073
  24   2.0000      -0.493953       -13.4411
  25   2.0000      -0.484685       -13.1890
  26   2.0000      -0.453846       -12.3498
  27   2.0000      -0.449967       -12.2442
  28   2.0000      -0.429622       -11.6906
  29   2.0000      -0.418043       -11.3755
  30   2.0000      -0.407756       -11.0956
  31   2.0000      -0.385195       -10.4817
  32   2.0000      -0.371182       -10.1004
  33   2.0000      -0.367364        -9.9965
  34   2.0000      -0.365587        -9.9481
  35   2.0000      -0.359068        -9.7707
  36   2.0000      -0.352463        -9.5910
  37   2.0000      -0.314149        -8.5484
  38   2.0000      -0.307806        -8.3758
  39   2.0000      -0.293333        -7.9820
  40   2.0000      -0.261815        -7.1244
  41   2.0000      -0.250239        -6.8093
  42   2.0000      -0.236562        -6.4372
  43   0.0000       0.070758         1.9254
  44   0.0000       0.094923         2.5830
  45   0.0000       0.098600         2.6830
  46   0.0000       0.100022         2.7217
  47   0.0000       0.110270         3.0006

MULLIKEN ATOMIC CHARGES
-----------------------
   0 C :    0.314698
   1 C :   -0.297486
   2 C :   -0.301939
   3 C :    0.000501
   4 O :   -0.498785
   5 H :    0.159800
   6 H :    0.154037
   7 H :    0.141910
   8 H :    0.145108
   9 H :    0.152849
  10 H :    0.152118
  11 H :    0.143523
  12 C :   -0.009067
  13 H :    0.126105
  14 C :    0.070686
  15 C :   -0.288242
  16 C :    0.005359
  17 O :   -0.521861
  18 H :    0.151902
  19 O :   -0.519267
  20 H :    0.119362
  21 H :    0.170293
  22 H :    0.136658
  23 H :    0.133600
  24 H :    0.158138
Sum of atomic charges:   -0.0000000

LOEWDIN ATOMIC CHARGES
----------------------
   0 C :    0.183288
   1 C :   -0.235158
   2 C :   -0.217306
   3 C :   -0.026416
   4 O :   -0.303505
   5 H :    0.106170
   6 H :    0.120635
   7 H :    0.112540
   8 H :    0.115721
   9 H :    0.111601
  10 H :    0.108075
  11 H :    0.103381
  12 C :   -0.051925
  13 H :    0.092851
  14 C :    0.035368
  15 C :   -0.220289
  16 C :   -0.025120
  17 O :   -0.330785
  18 H :    0.110836
  19 O :   -0.330227
  20 H :    0.089955
  21 H :    0.132013
  22 H :    0.109487
  23 H :    0.097632
  24 H :    0.111179

  Mayer bond orders larger than 0.100000
B(  0-C ,  1-C ) :   0.9286 B(  0-C ,  4-O ) :   0.9271 B(  0-C ,  5-H ) :   0.9232
B(  0-C , 19-O ) :   0.8381 B(  1-C ,  2-C ) :   0.9482 B(  1-C ,  6-H ) :   0.9344
B(  1-C ,  7-H ) :   0.9277 B(  2-C ,  3-C ) :   0.9533 B(  2-C ,  8-H ) :   0.9451
B(  2-C ,  9-H ) :   0.9438 B(  3-C ,  4-O ) :   0.8396 B(  3-C , 10-H ) :   0.9344
B(  3-C , 11-H ) :   0.9395 B( 12-C , 13-H ) :   0.9097 B( 12-C , 14-C ) :   0.9056
B( 12-C , 17-O ) :   0.8748 B( 12-C , 18-H ) :   0.9305 B( 14-C , 15-C ) :   0.9535
B( 14-C , 19-O ) :   0.8435 B( 14-C , 20-H ) :   0.9121 B( 15-C , 16-C ) :   0.9460
B( 15-C , 21-H ) :   0.9351 B( 15-C , 22-H ) :   0.9421 B( 16-C , 17-O ) :   0.8504
B( 16-C , 23-H ) :   0.9337 B( 16-C , 24-H ) :   0.9364

FINAL SINGLE POINT ENERGY      -538.426483248652

DIPOLE MOMENT
-------------
                                X             Y             Z
Electronic contribution:     -0.43067      -4.62344      -0.23180
Nuclear contribution   :      0.74751       6.22378       0.30299
                        -----------------------------------------
Total Dipole Moment    :      0.31684       1.60033       0.07120
                        -----------------------------------------
Magnitude (a.u.)       :      1.63295
Magnitude (Debye)      :      4.15063

Rotational constants in cm-1:     0.085689     0.020757     0.020189
Rotational constants in MHz :  2568.878757   622.268949   605.248137

                             ****ORCA TERMINATED NORMALLY****
TOTAL RUN TIME: 0 days 0 hours 15 minutes 54 seconds 319 msec
