                         Program Version 4.2.0 -  RELEASE  -
|  1> # Test redundant internal optimization
|  2> #
|  3> ! RKS B3LYP  Opt TightSCF SmallPrint
|  4>
|  5> %basis
|  6>         Basis "6-31G"
|  7> end
|  8>
|  9> %geom
| 10> Constraints
| 11> { D 4  0  15  12  180.0   C } # D for Dihedral angle
| 12> { D 0  15  12  16  90.0   C } # D for Dihedral angle
| 13> { D 0  4  3  2   C } # D for Dihedral angle
| 14> { D 4  3  2  1   C } # D for Dihedral angle
| 15> { D 3  2  1  0   C } # D for Dihedral angle
| 16> { D 2  1  0  4   C } # D for Dihedral angle
| 17> { D 1  0  4  3   C } # D for Dihedral angle
| 18> { D 16  20  19  18   C } # D for Dihedral angle
| 19> { D 20  19  18  17   C } # D for Dihedral angle
| 20> { D 19  18  17  16   C } # D for Dihedral angle
| 21> { D 18  17  16  20   C } # D for Dihedral angle
| 22> { D 17  16  20  19   C } # D for Dihedral angle
| 23> { D 15  12  16  20   C } # D for Dihedral angle
| 24> end
| 25> end
| 26>
| 27>
| 28> #%pal
| 29> #nprocs 8
| 30> #end
| 31>
| 32> * xyz 0 1
| 33> C  -21.048   26.222   46.251
| 34> C  -20.361   27.558   45.944
| 35> C  -20.329   28.222   47.341
| 36> C  -20.110   27.022   48.296
| 37> O  -20.473   25.807   47.535
| 38> H  -20.833   25.428   45.533
| 39> H  -19.344   27.382   45.576
| 40> H  -20.898   28.157   45.201
| 41> H  -19.543   28.978   47.434
| 42> H  -21.289   28.710   47.548
| 43> H  -20.733   27.082   49.195
| 44> H  -19.064   26.913   48.597
| 45> C  -23.309   26.834   45.072
| 46> H  -24.192   27.431   45.332
| 47> H  -22.645   27.453   44.455
| 48> O  -22.586   26.394   46.375
| 49> C  -23.771   25.629   44.206
| 50> C  -22.599   24.697   43.878
| 51> C  -22.459   23.894   45.194
| 52> C  -23.924   23.756   45.679
| 53> O  -24.705   24.785   44.958
| 54> H  -24.309   26.002   43.333
| 55> O  -22.979   23.757   42.702
| 56> H  -21.683   25.234   43.610
| 57> H  -21.974   22.924   45.051
| 58> H  -21.865   24.462   45.920
| 59> H  -24.027   23.917   46.757
| 60> H  -24.359   22.785   45.423
| 61> H  -23.894   23.208   42.950
| 62> *
| 63>
| 64>                          ****END OF INPUT****
 Total Charge           Charge          ....    0
 Multiplicity           Mult            ....    1
 Number of Electrons    NEL             ....  102
FINAL SINGLE POINT ENERGY      -652.810561383574
FINAL SINGLE POINT ENERGY      -652.839645833543
FINAL SINGLE POINT ENERGY      -652.851329240190
FINAL SINGLE POINT ENERGY      -652.853886814819
FINAL SINGLE POINT ENERGY      -652.854292283851
FINAL SINGLE POINT ENERGY      -652.854326440888
FINAL SINGLE POINT ENERGY      -652.854329452770
                    ***********************HURRAY********************

CARTESIAN COORDINATES (ANGSTROEM)
---------------------------------
  C    -20.965067   26.293297   46.358484
  C    -20.235939   27.583437   45.985858
  C    -20.326946   28.398256   47.301975
  C    -20.217430   27.305482   48.384568
  O    -20.530010   26.025328   47.696026
  H    -20.703587   25.430830   45.745453
  H    -19.193020   27.344156   45.746594
  H    -20.665125   28.109534   45.129354
  H    -19.535276   29.149192   47.383474
  H    -21.294178   28.905240   47.359642
  H    -20.925215   27.437815   49.206174
  H    -19.205425   27.202586   48.786822
  C    -23.136567   26.773349   45.192217
  H    -24.004844   27.348627   45.525046
  H    -22.540367   27.414810   44.525890
  O    -22.416809   26.482759   46.423588
  C    -23.677609   25.592254   44.372122
  C    -22.701158   24.560302   43.782363
  C    -22.528260   23.564070   44.968023
  C    -23.938252   23.566710   45.616050
  O    -24.626160   24.781570   45.130342
  H    -24.247787   26.047824   43.550972
  O    -23.282922   23.915702   42.617003
  H    -21.761810   24.989411   43.430216
  H    -22.236455   22.579388   44.593258
  H    -21.776484   23.899967   45.680811
  H    -23.891354   23.603909   46.707720
  H    -24.545559   22.707858   45.311954
  H    -24.195386   23.629338   42.834001

 Multiplicity           Mult            ....    1
 Number of Electrons    NEL             ....  102
 Basis Dimension        Dim             ....  149

ORBITAL ENERGIES
----------------

  NO   OCC          E(Eh)            E(eV)
   0   2.0000     -19.146123      -520.9925
   1   2.0000     -19.144764      -520.9555
   2   2.0000     -19.140225      -520.8320
   3   2.0000     -19.139292      -520.8066
   4   2.0000     -10.284121      -279.8452
   5   2.0000     -10.243666      -278.7443
   6   2.0000     -10.235715      -278.5280
   7   2.0000     -10.234724      -278.5010
   8   2.0000     -10.228271      -278.3254
   9   2.0000     -10.224894      -278.2335
  10   2.0000     -10.192571      -277.3540
  11   2.0000     -10.190414      -277.2953
  12   2.0000     -10.184347      -277.1302
  13   2.0000      -1.057122       -28.7657
  14   2.0000      -1.036868       -28.2146
  15   2.0000      -1.007268       -27.4091
  16   2.0000      -0.995095       -27.0779
  17   2.0000      -0.790427       -21.5086
  18   2.0000      -0.777151       -21.1474
  19   2.0000      -0.769850       -20.9487
  20   2.0000      -0.737762       -20.0755
  21   2.0000      -0.679870       -18.5002
  22   2.0000      -0.608373       -16.5547
  23   2.0000      -0.602466       -16.3939
  24   2.0000      -0.600628       -16.3439
  25   2.0000      -0.574532       -15.6338
  26   2.0000      -0.526145       -14.3171
  27   2.0000      -0.512299       -13.9404
  28   2.0000      -0.504106       -13.7174
  29   2.0000      -0.489888       -13.3305
  30   2.0000      -0.471982       -12.8433
  31   2.0000      -0.459875       -12.5138
  32   2.0000      -0.453619       -12.3436
  33   2.0000      -0.443879       -12.0786
  34   2.0000      -0.425146       -11.5688
  35   2.0000      -0.414811       -11.2876
  36   2.0000      -0.405803       -11.0424
  37   2.0000      -0.391331       -10.6487
  38   2.0000      -0.383524       -10.4362
  39   2.0000      -0.367533       -10.0011
  40   2.0000      -0.361403        -9.8343
  41   2.0000      -0.359487        -9.7821
  42   2.0000      -0.353752        -9.6261
  43   2.0000      -0.330677        -8.9982
  44   2.0000      -0.317957        -8.6521
  45   2.0000      -0.306182        -8.3316
  46   2.0000      -0.304892        -8.2965
  47   2.0000      -0.271476        -7.3872
  48   2.0000      -0.269676        -7.3382
  49   2.0000      -0.261466        -7.1149
  50   2.0000      -0.237028        -6.4499
  51   0.0000       0.065678         1.7872
  52   0.0000       0.076375         2.0783
  53   0.0000       0.094761         2.5786
  54   0.0000       0.096404         2.6233
  55   0.0000       0.103356         2.8125

MULLIKEN ATOMIC CHARGES
-----------------------
   0 C :    0.302361
   1 C :   -0.283768
   2 C :   -0.294529
   3 C :   -0.000561
   4 O :   -0.505999
   5 H :    0.138522
   6 H :    0.149849
   7 H :    0.143756
   8 H :    0.143593
   9 H :    0.160438
  10 H :    0.157148
  11 H :    0.143421
  12 C :   -0.028229
  13 H :    0.171690
  14 H :    0.117032
  15 O :   -0.506106
  16 C :    0.081542
  17 C :    0.067751
  18 C :   -0.302722
  19 C :   -0.027091
  20 O :   -0.521961
  21 H :    0.151726
  22 O :   -0.602239
  23 H :    0.143251
  24 H :    0.156118
  25 H :    0.173547
  26 H :    0.167291
  27 H :    0.138298
  28 H :    0.365871
Sum of atomic charges:   -0.0000000

LOEWDIN ATOMIC CHARGES
----------------------
   0 C :    0.174540
   1 C :   -0.231635
   2 C :   -0.215570
   3 C :   -0.023886
   4 O :   -0.303649
   5 H :    0.092948
   6 H :    0.116481
   7 H :    0.113098
   8 H :    0.115187
   9 H :    0.118063
  10 H :    0.111148
  11 H :    0.103336
  12 C :   -0.046162
  13 H :    0.125028
  14 H :    0.090733
  15 O :   -0.328755
  16 C :    0.004695
  17 C :    0.033402
  18 C :   -0.242579
  19 C :   -0.034638
  20 O :   -0.327810
  21 H :    0.115182
  22 O :   -0.413545
  23 H :    0.110453
  24 H :    0.122854
  25 H :    0.125034
  26 H :    0.114918
  27 H :    0.097202
  28 H :    0.283928

  Mayer bond orders larger than 0.100000
B(  0-C ,  1-C ) :   0.9277 B(  0-C ,  4-O ) :   0.9405 B(  0-C ,  5-H ) :   0.9004
B(  0-C , 15-O ) :   0.8322 B(  1-C ,  2-C ) :   0.9508 B(  1-C ,  6-H ) :   0.9337
B(  1-C ,  7-H ) :   0.9304 B(  2-C ,  3-C ) :   0.9557 B(  2-C ,  8-H ) :   0.9449
B(  2-C ,  9-H ) :   0.9449 B(  3-C ,  4-O ) :   0.8316 B(  3-C , 10-H ) :   0.9344
B(  3-C , 11-H ) :   0.9396 B( 12-C , 13-H ) :   0.9312 B( 12-C , 14-H ) :   0.9035
B( 12-C , 15-O ) :   0.8809 B( 12-C , 16-C ) :   0.8822 B( 16-C , 17-C ) :   0.9067
B( 16-C , 20-O ) :   0.8710 B( 16-C , 21-H ) :   0.9139 B( 17-C , 18-C ) :   0.9195
B( 17-C , 22-O ) :   0.8882 B( 17-C , 23-H ) :   0.9342 B( 18-C , 19-C ) :   0.9407
B( 18-C , 24-H ) :   0.9375 B( 18-C , 25-H ) :   0.9131 B( 19-C , 20-O ) :   0.8414
B( 19-C , 26-H ) :   0.9312 B( 19-C , 27-H ) :   0.9366 B( 22-O , 28-H ) :   0.7938

FINAL SINGLE POINT ENERGY      -652.854327311260

DIPOLE MOMENT
-------------
                                X             Y             Z
Electronic contribution:     -3.73776      -2.94046      -0.90164
Nuclear contribution   :      4.44968       3.71632       0.81724
                        -----------------------------------------
Total Dipole Moment    :      0.71193       0.77587      -0.08440
                        -----------------------------------------
Magnitude (a.u.)       :      1.05638
Magnitude (Debye)      :      2.68510

Rotational constants in cm-1:     0.056908     0.013946     0.013573
Rotational constants in MHz :  1706.061395   418.098533   406.900914

                             ****ORCA TERMINATED NORMALLY****
TOTAL RUN TIME: 0 days 0 hours 41 minutes 25 seconds 115 msec
