                         Program Version 4.2.0 -  RELEASE  -
|  1> # Test redundant internal optimization
|  2> #
|  3> ! RKS B3LYP  Opt TightSCF SmallPrint
|  4>
|  5> %basis
|  6>         Basis "6-31G"
|  7> end
|  8>
|  9> %geom
| 10> Constraints
| 11> { D 4  0  15  12  300.0   C } # D for Dihedral angle
| 12> { D 0  15  12  16  210.0   C } # D for Dihedral angle
| 13> { D 0  4  3  2   C } # D for Dihedral angle
| 14> { D 4  3  2  1   C } # D for Dihedral angle
| 15> { D 3  2  1  0   C } # D for Dihedral angle
| 16> { D 2  1  0  4   C } # D for Dihedral angle
| 17> { D 1  0  4  3   C } # D for Dihedral angle
| 18> { D 16  20  19  18   C } # D for Dihedral angle
| 19> { D 20  19  18  17   C } # D for Dihedral angle
| 20> { D 19  18  17  16   C } # D for Dihedral angle
| 21> { D 18  17  16  20   C } # D for Dihedral angle
| 22> { D 17  16  20  19   C } # D for Dihedral angle
| 23> { D 15  12  16  20   C } # D for Dihedral angle
| 24> end
| 25> end
| 26>
| 27>
| 28> #%pal
| 29> #nprocs 8
| 30> #end
| 31>
| 32> * xyz 0 1
| 33> C  -21.048   26.222   46.251
| 34> C  -20.361   27.558   45.944
| 35> C  -20.329   28.222   47.341
| 36> C  -20.110   27.022   48.296
| 37> O  -20.473   25.807   47.535
| 38> H  -20.833   25.428   45.533
| 39> H  -19.344   27.382   45.576
| 40> H  -20.898   28.157   45.201
| 41> H  -19.543   28.978   47.434
| 42> H  -21.289   28.710   47.548
| 43> H  -20.733   27.082   49.195
| 44> H  -19.064   26.913   48.597
| 45> C  -23.362   25.116   46.798
| 46> H  -22.821   24.230   46.442
| 47> H  -23.436   25.056   47.891
| 48> O  -22.586   26.394   46.375
| 49> C  -24.805   25.072   46.223
| 50> C  -25.595   26.328   46.607
| 51> C  -25.056   27.361   45.587
| 52> C  -24.818   26.509   44.316
| 53> O  -24.774   25.097   44.757
| 54> H  -25.278   24.133   46.517
| 55> O  -27.114   26.088   46.391
| 56> H  -25.438   26.636   47.646
| 57> H  -25.752   28.187   45.411
| 58> H  -24.113   27.788   45.948
| 59> H  -23.877   26.758   43.814
| 60> H  -25.637   26.595   43.596
| 61> H  -27.295   25.779   45.355
| 62> *
| 63>
| 64>                          ****END OF INPUT****
 Total Charge           Charge          ....    0
 Multiplicity           Mult            ....    1
 Number of Electrons    NEL             ....  102
FINAL SINGLE POINT ENERGY      -652.840787181333
FINAL SINGLE POINT ENERGY      -652.864529105231
FINAL SINGLE POINT ENERGY      -652.868779218978
FINAL SINGLE POINT ENERGY      -652.869884627105
FINAL SINGLE POINT ENERGY      -652.869999965851
FINAL SINGLE POINT ENERGY      -652.870014267348
                    ***********************HURRAY********************

CARTESIAN COORDINATES (ANGSTROEM)
---------------------------------
  C    -21.089013   26.143430   46.275897
  C    -20.442925   27.490744   45.953670
  C    -20.407044   28.163920   47.343976
  C    -20.144239   26.980421   48.302093
  O    -20.493809   25.754283   47.536816
  H    -20.881132   25.325157   45.578785
  H    -19.430946   27.319322   45.570474
  H    -21.011598   28.056602   45.212712
  H    -19.634765   28.935849   47.418242
  H    -21.376584   28.624456   47.555453
  H    -20.753413   27.017347   49.208828
  H    -19.090640   26.884115   48.579864
  C    -23.270337   25.174996   46.808497
  H    -22.760009   24.268115   46.458378
  H    -23.314748   25.140567   47.903883
  O    -22.513209   26.347036   46.378470
  C    -24.676191   25.190668   46.216731
  C    -25.569429   26.386971   46.572349
  C    -25.117758   27.441088   45.526704
  C    -24.809369   26.580738   44.276308
  O    -24.647948   25.186913   44.753323
  H    -25.166688   24.259045   46.525203
  O    -26.976073   26.036456   46.433548
  H    -25.460242   26.726013   47.602852
  H    -25.905652   28.179231   45.353302
  H    -24.214313   27.938669   45.882560
  H    -23.887391   26.889830   43.776607
  H    -25.627462   26.578563   43.547351
  H    -27.109070   25.587455   45.572124

 Multiplicity           Mult            ....    1
 Number of Electrons    NEL             ....  102
 Basis Dimension        Dim             ....  149

ORBITAL ENERGIES
----------------

  NO   OCC          E(Eh)            E(eV)
   0   2.0000     -19.150306      -521.1063
   1   2.0000     -19.144464      -520.9474
   2   2.0000     -19.136839      -520.7399
   3   2.0000     -19.133409      -520.6465
   4   2.0000     -10.282092      -279.7899
   5   2.0000     -10.235027      -278.5093
   6   2.0000     -10.232243      -278.4335
   7   2.0000     -10.230017      -278.3729
   8   2.0000     -10.229201      -278.3507
   9   2.0000     -10.222549      -278.1697
  10   2.0000     -10.189794      -277.2784
  11   2.0000     -10.189557      -277.2719
  12   2.0000     -10.175268      -276.8831
  13   2.0000      -1.059652       -28.8346
  14   2.0000      -1.031073       -28.0569
  15   2.0000      -1.002850       -27.2889
  16   2.0000      -0.994694       -27.0670
  17   2.0000      -0.793577       -21.5943
  18   2.0000      -0.775171       -21.0935
  19   2.0000      -0.763158       -20.7666
  20   2.0000      -0.732627       -19.9358
  21   2.0000      -0.672470       -18.2988
  22   2.0000      -0.603649       -16.4261
  23   2.0000      -0.596920       -16.2430
  24   2.0000      -0.595752       -16.2112
  25   2.0000      -0.575928       -15.6718
  26   2.0000      -0.525909       -14.3107
  27   2.0000      -0.507681       -13.8147
  28   2.0000      -0.496322       -13.5056
  29   2.0000      -0.488511       -13.2931
  30   2.0000      -0.468795       -12.7566
  31   2.0000      -0.463442       -12.6109
  32   2.0000      -0.447665       -12.1816
  33   2.0000      -0.433001       -11.7826
  34   2.0000      -0.423725       -11.5301
  35   2.0000      -0.409384       -11.1399
  36   2.0000      -0.401845       -10.9348
  37   2.0000      -0.386426       -10.5152
  38   2.0000      -0.379592       -10.3292
  39   2.0000      -0.363471        -9.8905
  40   2.0000      -0.361690        -9.8421
  41   2.0000      -0.356627        -9.7043
  42   2.0000      -0.348396        -9.4803
  43   2.0000      -0.338608        -9.2140
  44   2.0000      -0.321229        -8.7411
  45   2.0000      -0.305239        -8.3060
  46   2.0000      -0.298786        -8.1304
  47   2.0000      -0.274802        -7.4777
  48   2.0000      -0.263751        -7.1770
  49   2.0000      -0.258105        -7.0234
  50   2.0000      -0.241369        -6.5680
  51   0.0000       0.066883         1.8200
  52   0.0000       0.084041         2.2869
  53   0.0000       0.094104         2.5607
  54   0.0000       0.105403         2.8682
  55   0.0000       0.109051         2.9674

MULLIKEN ATOMIC CHARGES
-----------------------
   0 C :    0.290859
   1 C :   -0.264860
   2 C :   -0.300553
   3 C :   -0.005387
   4 O :   -0.513629
   5 H :    0.154022
   6 H :    0.148755
   7 H :    0.154965
   8 H :    0.143749
   9 H :    0.159391
  10 H :    0.146708
  11 H :    0.145532
  12 C :    0.012617
  13 H :    0.146047
  14 H :    0.143924
  15 O :   -0.532255
  16 C :    0.062154
  17 C :    0.081121
  18 C :   -0.287043
  19 C :   -0.020530
  20 O :   -0.528684
  21 H :    0.155531
  22 O :   -0.605217
  23 H :    0.149618
  24 H :    0.147903
  25 H :    0.171691
  26 H :    0.144938
  27 H :    0.136017
  28 H :    0.362616
Sum of atomic charges:   -0.0000000

LOEWDIN ATOMIC CHARGES
----------------------
   0 C :    0.173473
   1 C :   -0.214323
   2 C :   -0.216613
   3 C :   -0.028339
   4 O :   -0.329816
   5 H :    0.100651
   6 H :    0.116330
   7 H :    0.122632
   8 H :    0.114652
   9 H :    0.117068
  10 H :    0.105065
  11 H :    0.104248
  12 C :   -0.034570
  13 H :    0.108555
  14 H :    0.104867
  15 O :   -0.330359
  16 C :    0.012702
  17 C :    0.039871
  18 C :   -0.242016
  19 C :   -0.033919
  20 O :   -0.331805
  21 H :    0.115975
  22 O :   -0.418344
  23 H :    0.115290
  24 H :    0.118221
  25 H :    0.128195
  26 H :    0.104538
  27 H :    0.095975
  28 H :    0.281796

  Mayer bond orders larger than 0.100000
B(  0-C ,  1-C ) :   0.9520 B(  0-C ,  4-O ) :   0.8979 B(  0-C ,  5-H ) :   0.9169
B(  0-C , 15-O ) :   0.8541 B(  1-C ,  2-C ) :   0.9548 B(  1-C ,  6-H ) :   0.9393
B(  1-C ,  7-H ) :   0.9364 B(  2-C ,  3-C ) :   0.9553 B(  2-C ,  8-H ) :   0.9450
B(  2-C ,  9-H ) :   0.9448 B(  3-C ,  4-O ) :   0.8368 B(  3-C , 10-H ) :   0.9357
B(  3-C , 11-H ) :   0.9404 B( 12-C , 13-H ) :   0.9170 B( 12-C , 14-H ) :   0.9157
B( 12-C , 15-O ) :   0.8293 B( 12-C , 16-C ) :   0.9039 B( 16-C , 17-C ) :   0.9096
B( 16-C , 20-O ) :   0.8678 B( 16-C , 21-H ) :   0.9222 B( 17-C , 18-C ) :   0.9233
B( 17-C , 22-O ) :   0.8905 B( 17-C , 23-H ) :   0.9364 B( 18-C , 19-C ) :   0.9462
B( 18-C , 24-H ) :   0.9374 B( 18-C , 25-H ) :   0.9195 B( 19-C , 20-O ) :   0.8407
B( 19-C , 26-H ) :   0.9350 B( 19-C , 27-H ) :   0.9370 B( 22-O , 28-H ) :   0.7961

FINAL SINGLE POINT ENERGY      -652.870014708775

DIPOLE MOMENT
-------------
                                X             Y             Z
Electronic contribution:     -3.12326      -4.76146      -0.46277
Nuclear contribution   :      3.95093       5.57344       0.38145
                        -----------------------------------------
Total Dipole Moment    :      0.82767       0.81197      -0.08132
                        -----------------------------------------
Magnitude (a.u.)       :      1.16230
Magnitude (Debye)      :      2.95434

Rotational constants in cm-1:     0.056755     0.013572     0.013268
Rotational constants in MHz :  1701.483001   406.886972   397.761280

                             ****ORCA TERMINATED NORMALLY****
TOTAL RUN TIME: 0 days 0 hours 22 minutes 8 seconds 673 msec
