                         Program Version 4.2.1 -  RELEASE  -
|  1> # Test redundant internal optimization
|  2> #
|  3> ! RKS B3LYP  Opt TightSCF SmallPrint
|  4>
|  5> %basis
|  6>         Basis "6-31G"
|  7> end
|  8>
|  9> %geom
| 10> Constraints
| 11> { D 4  0  19  14  60.0   C } # D for Dihedral angle
| 12> { D 0  19  14  12  135.0   C } # D for Dihedral angle
| 13> { D 0  4  3  2   C } # D for Dihedral angle
| 14> { D 4  3  2  1   C } # D for Dihedral angle
| 15> { D 3  2  1  0   C } # D for Dihedral angle
| 16> { D 2  1  0  4   C } # D for Dihedral angle
| 17> { D 1  0  4  3   C } # D for Dihedral angle
| 18> { D 14  15  16  17   C } # D for Dihedral angle
| 19> { D 15  16  17  12   C } # D for Dihedral angle
| 20> { D 16  17  12  14   C } # D for Dihedral angle
| 21> { D 17  12  14  15   C } # D for Dihedral angle
| 22> { D 12  14  15  16   C } # D for Dihedral angle
| 23> end
| 24> end
| 25>
| 26>
| 27> #%pal
| 28> #nprocs 8
| 29> #end
| 30>
| 31> * xyz 0 1
| 32> C  -21.048   26.222   46.251
| 33> C  -20.361   27.558   45.944
| 34> C  -20.329   28.222   47.341
| 35> C  -20.110   27.022   48.296
| 36> O  -20.473   25.807   47.535
| 37> H  -20.833   25.428   45.533
| 38> H  -19.344   27.382   45.576
| 39> H  -20.898   28.157   45.201
| 40> H  -19.543   28.978   47.434
| 41> H  -21.289   28.710   47.548
| 42> H  -20.733   27.082   49.195
| 43> H  -19.064   26.913   48.597
| 44> C  -23.986   28.249   46.742
| 45> H  -24.115   29.172   47.329
| 46> C  -22.882   27.363   47.331
| 47> C  -23.616   26.692   48.515
| 48> C  -25.058   26.508   47.978
| 49> O  -25.194   27.421   46.821
| 50> H  -23.846   28.510   45.692
| 51> O  -22.472   26.381   46.366
| 52> H  -21.998   27.929   47.645
| 53> H  -23.159   25.744   48.817
| 54> H  -23.612   27.357   49.388
| 55> H  -25.820   26.759   48.724
| 56> H  -25.241   25.494   47.611
| 57> *
| 58>
| 59>                          ****END OF INPUT****
 Total Charge           Charge          ....    0
 Multiplicity           Mult            ....    1
 Number of Electrons    NEL             ....   86
FINAL SINGLE POINT ENERGY      -538.370394391036
FINAL SINGLE POINT ENERGY      -538.420866933316
FINAL SINGLE POINT ENERGY      -538.424634076063
FINAL SINGLE POINT ENERGY      -538.425404317763
FINAL SINGLE POINT ENERGY      -538.425536963005
FINAL SINGLE POINT ENERGY      -538.425604931472
FINAL SINGLE POINT ENERGY      -538.425612677276
FINAL SINGLE POINT ENERGY      -538.425612878988
                    ***********************HURRAY********************

CARTESIAN COORDINATES (ANGSTROEM)
---------------------------------
  C    -21.097293   26.353201   46.415368
  C    -20.244693   27.534084   45.922876
  C    -19.880238   28.252076   47.257388
  C    -19.727576   27.064990   48.243918
  O    -20.412844   25.910832   47.613861
  H    -21.062928   25.506298   45.727605
  H    -19.345637   27.136821   45.441020
  H    -20.776677   28.170908   45.211569
  H    -18.952135   28.827310   47.176349
  H    -20.665634   28.947867   47.563007
  H    -20.176424   27.256141   49.223721
  H    -18.681642   26.776669   48.383276
  C    -24.228752   28.246298   46.789260
  H    -24.528147   29.128262   47.376433
  C    -23.116675   27.476365   47.503167
  C    -23.913228   26.682761   48.559036
  C    -25.235834   26.350967   47.829702
  O    -25.323848   27.284876   46.685180
  H    -23.958242   28.549142   45.776873
  O    -22.515969   26.537141   46.558412
  H    -22.372927   28.133307   47.956613
  H    -23.360338   25.794969   48.872793
  H    -24.093309   27.314904   49.436807
  H    -26.115181   26.484299   48.469623
  H    -25.237828   25.339512   47.416143

 Multiplicity           Mult            ....    1
 Number of Electrons    NEL             ....   86
 Basis Dimension        Dim             ....  127

ORBITAL ENERGIES
----------------

  NO   OCC          E(Eh)            E(eV)
   0   2.0000     -19.144555      -520.9498
   1   2.0000     -19.141145      -520.8570
   2   2.0000     -19.124142      -520.3944
   3   2.0000     -10.279907      -279.7305
   4   2.0000     -10.240901      -278.6691
   5   2.0000     -10.233370      -278.4642
   6   2.0000     -10.220689      -278.1191
   7   2.0000     -10.215665      -277.9824
   8   2.0000     -10.197543      -277.4893
   9   2.0000     -10.192927      -277.3636
  10   2.0000     -10.180510      -277.0258
  11   2.0000      -1.053152       -28.6577
  12   2.0000      -1.013142       -27.5690
  13   2.0000      -0.990772       -26.9603
  14   2.0000      -0.792218       -21.5574
  15   2.0000      -0.784422       -21.3452
  16   2.0000      -0.739918       -20.1342
  17   2.0000      -0.723190       -19.6790
  18   2.0000      -0.620752       -16.8915
  19   2.0000      -0.607929       -16.5426
  20   2.0000      -0.595074       -16.1928
  21   2.0000      -0.566111       -15.4047
  22   2.0000      -0.525594       -14.3021
  23   2.0000      -0.504849       -13.7376
  24   2.0000      -0.483621       -13.1600
  25   2.0000      -0.480909       -13.0862
  26   2.0000      -0.452722       -12.3192
  27   2.0000      -0.446817       -12.1585
  28   2.0000      -0.425611       -11.5815
  29   2.0000      -0.418968       -11.4007
  30   2.0000      -0.412616       -11.2278
  31   2.0000      -0.387680       -10.5493
  32   2.0000      -0.373579       -10.1656
  33   2.0000      -0.368794       -10.0354
  34   2.0000      -0.363713        -9.8971
  35   2.0000      -0.361251        -9.8301
  36   2.0000      -0.343482        -9.3466
  37   2.0000      -0.318177        -8.6580
  38   2.0000      -0.307714        -8.3733
  39   2.0000      -0.294464        -8.0128
  40   2.0000      -0.266616        -7.2550
  41   2.0000      -0.253520        -6.8986
  42   2.0000      -0.229397        -6.2422
  43   0.0000       0.064927         1.7668
  44   0.0000       0.090858         2.4724
  45   0.0000       0.095884         2.6091
  46   0.0000       0.109996         2.9931
  47   0.0000       0.118094         3.2135

MULLIKEN ATOMIC CHARGES
-----------------------
   0 C :    0.298944
   1 C :   -0.271341
   2 C :   -0.320645
   3 C :   -0.012318
   4 O :   -0.507109
   5 H :    0.167620
   6 H :    0.156068
   7 H :    0.151219
   8 H :    0.146962
   9 H :    0.150056
  10 H :    0.143246
  11 H :    0.150075
  12 C :    0.015887
  13 H :    0.119384
  14 C :    0.055223
  15 C :   -0.285207
  16 C :    0.006033
  17 O :   -0.519779
  18 H :    0.154491
  19 O :   -0.515394
  20 H :    0.123946
  21 H :    0.171657
  22 H :    0.133731
  23 H :    0.132004
  24 H :    0.155249
Sum of atomic charges:   -0.0000000

LOEWDIN ATOMIC CHARGES
----------------------
   0 C :    0.175663
   1 C :   -0.228218
   2 C :   -0.225686
   3 C :   -0.035419
   4 O :   -0.324386
   5 H :    0.114060
   6 H :    0.122041
   7 H :    0.119860
   8 H :    0.116405
   9 H :    0.107217
  10 H :    0.101331
  11 H :    0.106245
  12 C :   -0.036809
  13 H :    0.088670
  14 C :    0.035201
  15 C :   -0.229747
  16 C :   -0.026385
  17 O :   -0.328933
  18 H :    0.116395
  19 O :   -0.312421
  20 H :    0.098286
  21 H :    0.131704
  22 H :    0.108337
  23 H :    0.096882
  24 H :    0.109708

  Mayer bond orders larger than 0.100000
B(  0-C ,  1-C ) :   0.9146 B(  0-C ,  4-O ) :   0.8926 B(  0-C ,  5-H ) :   0.9361
B(  0-C , 19-O ) :   0.9125 B(  1-C ,  2-C ) :   0.9546 B(  1-C ,  6-H ) :   0.9349
B(  1-C ,  7-H ) :   0.9372 B(  2-C ,  3-C ) :   0.9459 B(  2-C ,  8-H ) :   0.9439
B(  2-C ,  9-H ) :   0.9370 B(  3-C ,  4-O ) :   0.8480 B(  3-C , 10-H ) :   0.9335
B(  3-C , 11-H ) :   0.9383 B( 12-C , 13-H ) :   0.9129 B( 12-C , 14-C ) :   0.9347
B( 12-C , 17-O ) :   0.8768 B( 12-C , 18-H ) :   0.9331 B( 14-C , 15-C ) :   0.9411
B( 14-C , 19-O ) :   0.8169 B( 14-C , 20-H ) :   0.9088 B( 15-C , 16-C ) :   0.9485
B( 15-C , 21-H ) :   0.9360 B( 15-C , 22-H ) :   0.9394 B( 16-C , 17-O ) :   0.8510
B( 16-C , 23-H ) :   0.9340 B( 16-C , 24-H ) :   0.9361

FINAL SINGLE POINT ENERGY      -538.425611575134

DIPOLE MOMENT
-------------
                                X             Y             Z
Electronic contribution:     -2.20034      -3.25931      -2.18366
Nuclear contribution   :      3.28065       4.29224       2.81808
                        -----------------------------------------
Total Dipole Moment    :      1.08031       1.03293       0.63442
                        -----------------------------------------
Magnitude (a.u.)       :      1.62373
Magnitude (Debye)      :      4.12720

Rotational constants in cm-1:     0.079480     0.021807     0.020589
Rotational constants in MHz :  2382.761834   653.770375   617.247071

                             ****ORCA TERMINATED NORMALLY****
TOTAL RUN TIME: 0 days 0 hours 19 minutes 9 seconds 776 msec
