                         Program Version 4.2.0 -  RELEASE  -
|  1> # Test redundant internal optimization
|  2> #
|  3> ! RKS B3LYP  Opt TightSCF SmallPrint
|  4>
|  5> %basis
|  6>         Basis "6-31G"
|  7> end
|  8>
|  9> %geom
| 10> Constraints
| 11> { D 4  0  15  12  240.0   C } # D for Dihedral angle
| 12> { D 0  15  12  16  105.0   C } # D for Dihedral angle
| 13> { D 0  4  3  2   C } # D for Dihedral angle
| 14> { D 4  3  2  1   C } # D for Dihedral angle
| 15> { D 3  2  1  0   C } # D for Dihedral angle
| 16> { D 2  1  0  4   C } # D for Dihedral angle
| 17> { D 1  0  4  3   C } # D for Dihedral angle
| 18> { D 16  20  19  18   C } # D for Dihedral angle
| 19> { D 20  19  18  17   C } # D for Dihedral angle
| 20> { D 19  18  17  16   C } # D for Dihedral angle
| 21> { D 18  17  16  20   C } # D for Dihedral angle
| 22> { D 17  16  20  19   C } # D for Dihedral angle
| 23> { D 15  12  16  20   C } # D for Dihedral angle
| 24> end
| 25> end
| 26>
| 27>
| 28> #%pal
| 29> #nprocs 8
| 30> #end
| 31>
| 32> * xyz 0 1
| 33> C  -21.048   26.222   46.251
| 34> C  -20.361   27.558   45.944
| 35> C  -20.329   28.222   47.341
| 36> C  -20.110   27.022   48.296
| 37> O  -20.473   25.807   47.535
| 38> H  -20.833   25.428   45.533
| 39> H  -19.344   27.382   45.576
| 40> H  -20.898   28.157   45.201
| 41> H  -19.543   28.978   47.434
| 42> H  -21.289   28.710   47.548
| 43> H  -20.733   27.082   49.195
| 44> H  -19.064   26.913   48.597
| 45> C  -23.430   25.483   45.442
| 46> H  -24.220   26.080   44.970
| 47> H  -22.801   25.058   44.649
| 48> O  -22.586   26.394   46.375
| 49> C  -24.097   24.302   46.200
| 50> C  -24.824   23.360   45.233
| 51> C  -23.651   22.531   44.660
| 52> C  -22.689   22.402   45.868
| 53> O  -23.078   23.455   46.830
| 54> H  -24.724   24.699   47.001
| 55> O  -25.809   22.449   46.016
| 56> H  -25.388   23.891   44.458
| 57> H  -23.968   21.557   44.273
| 58> H  -23.169   23.077   43.840
| 59> H  -21.640   22.544   45.586
| 60> H  -22.791   21.442   46.382
| 61> H  -25.266   21.907   46.798
| 62> *
| 63>
| 64>                          ****END OF INPUT****
 Total Charge           Charge          ....    0
 Multiplicity           Mult            ....    1
 Number of Electrons    NEL             ....  102
FINAL SINGLE POINT ENERGY      -652.831710968171
FINAL SINGLE POINT ENERGY      -652.854364819286
FINAL SINGLE POINT ENERGY      -652.858305920157
FINAL SINGLE POINT ENERGY      -652.858987448615
FINAL SINGLE POINT ENERGY      -652.859052647952
FINAL SINGLE POINT ENERGY      -652.859062255097
                    ***********************HURRAY********************

CARTESIAN COORDINATES (ANGSTROEM)
---------------------------------
  C    -21.023054   26.192149   46.186740
  C    -20.432933   27.583696   45.961855
  C    -20.480298   28.186875   47.387239
  C    -20.194256   26.963687   48.285574
  O    -20.456947   25.772231   47.440786
  H    -20.754687   25.436228   45.443065
  H    -19.396604   27.489205   45.615074
  H    -21.000416   28.161777   45.229119
  H    -19.753108   28.991636   47.530131
  H    -21.481195   28.582828   47.583788
  H    -20.839348   26.916406   49.166165
  H    -19.147555   26.901994   48.599047
  C    -23.284310   25.492959   45.399475
  H    -24.069353   26.143490   44.995606
  H    -22.681958   25.119862   44.556878
  O    -22.467394   26.310089   46.273078
  C    -23.926798   24.333649   46.161318
  C    -24.775897   23.395516   45.290995
  C    -23.696123   22.462417   44.685024
  C    -22.665587   22.327797   45.834271
  O    -22.924570   23.452546   46.765685
  H    -24.509552   24.744952   46.990853
  O    -25.727998   22.655308   46.103588
  H    -25.376869   23.907846   44.537972
  H    -24.134418   21.506711   44.388857
  H    -23.248009   22.924430   43.798125
  H    -21.629707   22.383408   45.486491
  H    -22.791059   21.401706   46.403650
  H    -25.285997   22.370605   46.931549

 Multiplicity           Mult            ....    1
 Number of Electrons    NEL             ....  102
 Basis Dimension        Dim             ....  149

ORBITAL ENERGIES
----------------

  NO   OCC          E(Eh)            E(eV)
   0   2.0000     -19.139620      -520.8156
   1   2.0000     -19.138296      -520.7795
   2   2.0000     -19.137833      -520.7669
   3   2.0000     -19.130954      -520.5797
   4   2.0000     -10.275301      -279.6051
   5   2.0000     -10.242915      -278.7239
   6   2.0000     -10.235266      -278.5157
   7   2.0000     -10.230776      -278.3936
   8   2.0000     -10.229080      -278.3474
   9   2.0000     -10.217768      -278.0396
  10   2.0000     -10.189774      -277.2779
  11   2.0000     -10.180403      -277.0229
  12   2.0000     -10.180246      -277.0186
  13   2.0000      -1.047546       -28.5052
  14   2.0000      -1.034327       -28.1455
  15   2.0000      -1.005109       -27.3504
  16   2.0000      -0.989784       -26.9334
  17   2.0000      -0.786640       -21.4056
  18   2.0000      -0.779263       -21.2048
  19   2.0000      -0.765287       -20.8245
  20   2.0000      -0.727501       -19.7963
  21   2.0000      -0.673798       -18.3350
  22   2.0000      -0.603349       -16.4180
  23   2.0000      -0.594432       -16.1753
  24   2.0000      -0.591416       -16.0932
  25   2.0000      -0.582413       -15.8483
  26   2.0000      -0.524746       -14.2791
  27   2.0000      -0.509412       -13.8618
  28   2.0000      -0.494551       -13.4574
  29   2.0000      -0.484000       -13.1703
  30   2.0000      -0.472736       -12.8638
  31   2.0000      -0.456097       -12.4110
  32   2.0000      -0.451793       -12.2939
  33   2.0000      -0.438585       -11.9345
  34   2.0000      -0.422727       -11.5030
  35   2.0000      -0.409406       -11.1405
  36   2.0000      -0.393641       -10.7115
  37   2.0000      -0.393407       -10.7052
  38   2.0000      -0.373387       -10.1604
  39   2.0000      -0.368953       -10.0397
  40   2.0000      -0.355354        -9.6697
  41   2.0000      -0.351504        -9.5649
  42   2.0000      -0.345766        -9.4088
  43   2.0000      -0.333444        -9.0735
  44   2.0000      -0.310117        -8.4387
  45   2.0000      -0.303773        -8.2661
  46   2.0000      -0.302717        -8.2374
  47   2.0000      -0.271001        -7.3743
  48   2.0000      -0.264706        -7.2030
  49   2.0000      -0.249363        -6.7855
  50   2.0000      -0.233156        -6.3445
  51   0.0000       0.061712         1.6793
  52   0.0000       0.085283         2.3207
  53   0.0000       0.086102         2.3430
  54   0.0000       0.101514         2.7623
  55   0.0000       0.109172         2.9707

MULLIKEN ATOMIC CHARGES
-----------------------
   0 C :    0.297354
   1 C :   -0.254113
   2 C :   -0.300336
   3 C :   -0.000322
   4 O :   -0.492228
   5 H :    0.134875
   6 H :    0.139741
   7 H :    0.143291
   8 H :    0.138485
   9 H :    0.162000
  10 H :    0.152222
  11 H :    0.137807
  12 C :   -0.016649
  13 H :    0.144055
  14 H :    0.119402
  15 O :   -0.510863
  16 C :    0.076374
  17 C :    0.079225
  18 C :   -0.295810
  19 C :   -0.027318
  20 O :   -0.504299
  21 H :    0.168765
  22 O :   -0.603764
  23 H :    0.148957
  24 H :    0.163112
  25 H :    0.138087
  26 H :    0.147428
  27 H :    0.146813
  28 H :    0.367710
Sum of atomic charges:    0.0000000

LOEWDIN ATOMIC CHARGES
----------------------
   0 C :    0.180425
   1 C :   -0.222749
   2 C :   -0.216944
   3 C :   -0.026604
   4 O :   -0.307130
   5 H :    0.095699
   6 H :    0.110767
   7 H :    0.116515
   8 H :    0.112358
   9 H :    0.119057
  10 H :    0.108150
  11 H :    0.100245
  12 C :   -0.038033
  13 H :    0.108399
  14 H :    0.090463
  15 O :   -0.325418
  16 C :    0.008444
  17 C :    0.034401
  18 C :   -0.241449
  19 C :   -0.037922
  20 O :   -0.317709
  21 H :    0.120790
  22 O :   -0.415211
  23 H :    0.113957
  24 H :    0.127168
  25 H :    0.109761
  26 H :    0.104446
  27 H :    0.103232
  28 H :    0.284893

  Mayer bond orders larger than 0.100000
B(  0-C ,  1-C ) :   0.9405 B(  0-C ,  4-O ) :   0.9362 B(  0-C ,  5-H ) :   0.9192
B(  0-C , 15-O ) :   0.8335 B(  1-C ,  2-C ) :   0.9582 B(  1-C ,  6-H ) :   0.9373
B(  1-C ,  7-H ) :   0.9390 B(  2-C ,  3-C ) :   0.9533 B(  2-C ,  8-H ) :   0.9455
B(  2-C ,  9-H ) :   0.9438 B(  3-C ,  4-O ) :   0.8420 B(  3-C , 10-H ) :   0.9344
B(  3-C , 11-H ) :   0.9398 B( 12-C , 13-H ) :   0.9259 B( 12-C , 14-H ) :   0.9212
B( 12-C , 15-O ) :   0.8708 B( 12-C , 16-C ) :   0.8840 B( 16-C , 17-C ) :   0.8949
B( 16-C , 20-O ) :   0.8691 B( 16-C , 21-H ) :   0.9243 B( 17-C , 18-C ) :   0.9099
B( 17-C , 22-O ) :   0.8915 B( 17-C , 23-H ) :   0.9336 B( 18-C , 19-C ) :   0.9384
B( 18-C , 24-H ) :   0.9374 B( 18-C , 25-H ) :   0.9348 B( 19-C , 20-O ) :   0.8522
B( 19-C , 26-H ) :   0.9340 B( 19-C , 27-H ) :   0.9380 B( 22-O , 28-H ) :   0.7922

FINAL SINGLE POINT ENERGY      -652.859064129666

DIPOLE MOMENT
-------------
                                X             Y             Z
Electronic contribution:     -2.84144      -2.59129       2.37342
Nuclear contribution   :      3.39764       2.98504      -3.34013
                        -----------------------------------------
Total Dipole Moment    :      0.55621       0.39375      -0.96671
                        -----------------------------------------
Magnitude (a.u.)       :      1.18277
Magnitude (Debye)      :      3.00635

Rotational constants in cm-1:     0.066013     0.012375     0.011922
Rotational constants in MHz :  1979.018061   370.999356   357.411069

                             ****ORCA TERMINATED NORMALLY****
TOTAL RUN TIME: 0 days 0 hours 22 minutes 36 seconds 941 msec
