                         Program Version 4.2.0 -  RELEASE  -
|  1> # Test redundant internal optimization
|  2> #
|  3> ! RKS B3LYP  Opt TightSCF SmallPrint
|  4>
|  5> %basis
|  6>         Basis "6-31G"
|  7> end
|  8>
|  9> %geom
| 10> Constraints
| 11> { D 4  0  15  12  255.0   C } # D for Dihedral angle
| 12> { D 0  15  12  16  270.0   C } # D for Dihedral angle
| 13> { D 0  4  3  2   C } # D for Dihedral angle
| 14> { D 4  3  2  1   C } # D for Dihedral angle
| 15> { D 3  2  1  0   C } # D for Dihedral angle
| 16> { D 2  1  0  4   C } # D for Dihedral angle
| 17> { D 1  0  4  3   C } # D for Dihedral angle
| 18> { D 16  20  19  18   C } # D for Dihedral angle
| 19> { D 20  19  18  17   C } # D for Dihedral angle
| 20> { D 19  18  17  16   C } # D for Dihedral angle
| 21> { D 18  17  16  20   C } # D for Dihedral angle
| 22> { D 17  16  20  19   C } # D for Dihedral angle
| 23> { D 15  12  16  20   C } # D for Dihedral angle
| 24> end
| 25> end
| 26>
| 27>
| 28> #%pal
| 29> #nprocs 8
| 30> #end
| 31>
| 32> * xyz 0 1
| 33> C  -21.048   26.222   46.251
| 34> C  -20.361   27.558   45.944
| 35> C  -20.329   28.222   47.341
| 36> C  -20.110   27.022   48.296
| 37> O  -20.473   25.807   47.535
| 38> H  -20.833   25.428   45.533
| 39> H  -19.344   27.382   45.576
| 40> H  -20.898   28.157   45.201
| 41> H  -19.543   28.978   47.434
| 42> H  -21.289   28.710   47.548
| 43> H  -20.733   27.082   49.195
| 44> H  -19.064   26.913   48.597
| 45> C  -23.431   25.260   45.734
| 46> H  -22.872   24.317   45.787
| 47> H  -24.376   25.130   46.278
| 48> O  -22.586   26.394   46.375
| 49> C  -23.778   25.538   44.245
| 50> C  -24.484   26.888   44.080
| 51> C  -23.294   27.875   44.147
| 52> C  -22.151   27.094   43.450
| 53> O  -22.553   25.671   43.449
| 54> H  -24.330   24.687   43.841
| 55> H  -24.974   26.939   43.102
| 56> O  -25.551   27.157   45.177
| 57> H  -23.506   28.830   43.657
| 58> H  -23.036   28.084   45.192
| 59> H  -21.194   27.197   43.972
| 60> H  -22.018   27.392   42.406
| 61> H  -25.082   27.111   46.166
| 62> *
| 63>
| 64>                          ****END OF INPUT****
 Total Charge           Charge          ....    0
 Multiplicity           Mult            ....    1
 Number of Electrons    NEL             ....  102
FINAL SINGLE POINT ENERGY      -652.820880666606
FINAL SINGLE POINT ENERGY      -652.845887696697
FINAL SINGLE POINT ENERGY      -652.859515964897
FINAL SINGLE POINT ENERGY      -652.862333164358
FINAL SINGLE POINT ENERGY      -652.862723423326
FINAL SINGLE POINT ENERGY      -652.862760755291
FINAL SINGLE POINT ENERGY      -652.862766702486
                    ***********************HURRAY********************

CARTESIAN COORDINATES (ANGSTROEM)
---------------------------------
  C    -20.970414   26.187500   46.308082
  C    -20.325094   27.559098   46.100182
  C    -20.340519   28.145296   47.536738
  C    -20.098963   26.894575   48.411978
  O    -20.412867   25.729543   47.554486
  H    -20.751771   25.433586   45.549681
  H    -19.295165   27.421794   45.749810
  H    -20.860594   28.181611   45.384094
  H    -19.577401   28.914592   47.686555
  H    -21.321925   28.581295   47.746734
  H    -20.738067   26.861787   49.297885
  H    -19.053591   26.787902   48.717307
  C    -23.260003   25.354379   45.814654
  H    -22.760639   24.378757   45.881179
  H    -24.166714   25.306681   46.426695
  O    -22.411374   26.366401   46.435956
  C    -23.678844   25.589410   44.364384
  C    -24.524239   26.847521   44.100382
  C    -23.425795   27.928673   43.863193
  C    -22.316201   27.132139   43.143086
  O    -22.584961   25.692635   43.404814
  H    -24.239997   24.690488   44.077467
  H    -25.134345   26.704068   43.206386
  O    -25.468062   27.169988   45.147492
  H    -23.792173   28.773031   43.273082
  H    -23.083868   28.294375   44.836413
  H    -21.310016   27.374234   43.491298
  H    -22.352217   27.263155   42.056905
  H    -24.985182   27.480485   45.942081

 Multiplicity           Mult            ....    1
 Number of Electrons    NEL             ....  102
 Basis Dimension        Dim             ....  149

ORBITAL ENERGIES
----------------

  NO   OCC          E(Eh)            E(eV)
   0   2.0000     -19.147672      -521.0346
   1   2.0000     -19.144912      -520.9595
   2   2.0000     -19.143931      -520.9328
   3   2.0000     -19.139134      -520.8023
   4   2.0000     -10.280125      -279.7364
   5   2.0000     -10.241658      -278.6897
   6   2.0000     -10.233320      -278.4628
   7   2.0000     -10.231839      -278.4225
   8   2.0000     -10.231422      -278.4112
   9   2.0000     -10.225501      -278.2500
  10   2.0000     -10.188977      -277.2562
  11   2.0000     -10.188841      -277.2525
  12   2.0000     -10.188327      -277.2385
  13   2.0000      -1.054238       -28.6873
  14   2.0000      -1.032743       -28.1024
  15   2.0000      -1.015635       -27.6368
  16   2.0000      -0.995043       -27.0765
  17   2.0000      -0.789902       -21.4943
  18   2.0000      -0.778291       -21.1784
  19   2.0000      -0.769908       -20.9503
  20   2.0000      -0.733215       -19.9518
  21   2.0000      -0.682252       -18.5650
  22   2.0000      -0.609620       -16.5886
  23   2.0000      -0.601546       -16.3689
  24   2.0000      -0.598376       -16.2826
  25   2.0000      -0.573871       -15.6158
  26   2.0000      -0.528121       -14.3709
  27   2.0000      -0.510006       -13.8780
  28   2.0000      -0.505394       -13.7525
  29   2.0000      -0.487965       -13.2782
  30   2.0000      -0.465924       -12.6784
  31   2.0000      -0.460232       -12.5235
  32   2.0000      -0.449686       -12.2366
  33   2.0000      -0.436798       -11.8859
  34   2.0000      -0.425859       -11.5882
  35   2.0000      -0.416609       -11.3365
  36   2.0000      -0.410224       -11.1628
  37   2.0000      -0.396769       -10.7966
  38   2.0000      -0.386067       -10.5054
  39   2.0000      -0.365109        -9.9351
  40   2.0000      -0.361552        -9.8383
  41   2.0000      -0.356086        -9.6896
  42   2.0000      -0.349366        -9.5067
  43   2.0000      -0.333015        -9.0618
  44   2.0000      -0.321950        -8.7607
  45   2.0000      -0.313009        -8.5174
  46   2.0000      -0.308501        -8.3947
  47   2.0000      -0.276734        -7.5303
  48   2.0000      -0.266602        -7.2546
  49   2.0000      -0.254638        -6.9291
  50   2.0000      -0.240541        -6.5455
  51   0.0000       0.064125         1.7449
  52   0.0000       0.074396         2.0244
  53   0.0000       0.084517         2.2998
  54   0.0000       0.095415         2.5964
  55   0.0000       0.101102         2.7511

MULLIKEN ATOMIC CHARGES
-----------------------
   0 C :    0.282387
   1 C :   -0.265231
   2 C :   -0.303565
   3 C :    0.001658
   4 O :   -0.504177
   5 H :    0.167131
   6 H :    0.148027
   7 H :    0.146543
   8 H :    0.142475
   9 H :    0.157031
  10 H :    0.149921
  11 H :    0.141888
  12 C :   -0.044563
  13 H :    0.154488
  14 H :    0.157023
  15 O :   -0.532483
  16 C :    0.096115
  17 C :    0.090755
  18 C :   -0.320692
  19 C :   -0.019784
  20 O :   -0.524960
  21 H :    0.150036
  22 H :    0.164643
  23 O :   -0.605502
  24 H :    0.150032
  25 H :    0.159270
  26 H :    0.143421
  27 H :    0.150244
  28 H :    0.367868
Sum of atomic charges:   -0.0000000

LOEWDIN ATOMIC CHARGES
----------------------
   0 C :    0.173868
   1 C :   -0.220981
   2 C :   -0.216878
   3 C :   -0.026210
   4 O :   -0.317746
   5 H :    0.111506
   6 H :    0.115567
   7 H :    0.115158
   8 H :    0.114154
   9 H :    0.116076
  10 H :    0.106867
  11 H :    0.102357
  12 C :   -0.049333
  13 H :    0.110140
  14 H :    0.117499
  15 O :   -0.343959
  16 C :    0.006764
  17 C :    0.037499
  18 C :   -0.243211
  19 C :   -0.031185
  20 O :   -0.326480
  21 H :    0.115889
  22 H :    0.117302
  23 O :   -0.409012
  24 H :    0.118928
  25 H :    0.115377
  26 H :    0.099972
  27 H :    0.105270
  28 H :    0.284802

  Mayer bond orders larger than 0.100000
B(  0-C ,  1-C ) :   0.9440 B(  0-C ,  4-O ) :   0.9204 B(  0-C ,  5-H ) :   0.9121
B(  0-C , 15-O ) :   0.8306 B(  1-C ,  2-C ) :   0.9520 B(  1-C ,  6-H ) :   0.9382
B(  1-C ,  7-H ) :   0.9281 B(  2-C ,  3-C ) :   0.9539 B(  2-C ,  8-H ) :   0.9451
B(  2-C ,  9-H ) :   0.9449 B(  3-C ,  4-O ) :   0.8383 B(  3-C , 10-H ) :   0.9351
B(  3-C , 11-H ) :   0.9399 B( 12-C , 13-H ) :   0.9250 B( 12-C , 14-H ) :   0.9200
B( 12-C , 15-O ) :   0.8600 B( 12-C , 16-C ) :   0.8926 B( 16-C , 17-C ) :   0.8851
B( 16-C , 20-O ) :   0.8670 B( 16-C , 21-H ) :   0.9217 B( 17-C , 18-C ) :   0.9272
B( 17-C , 22-H ) :   0.9360 B( 17-C , 23-O ) :   0.9056 B( 18-C , 19-C ) :   0.9456
B( 18-C , 24-H ) :   0.9403 B( 18-C , 25-H ) :   0.9252 B( 19-C , 20-O ) :   0.8386
B( 19-C , 26-H ) :   0.9212 B( 19-C , 27-H ) :   0.9367 B( 23-O , 28-H ) :   0.7907

FINAL SINGLE POINT ENERGY      -652.862766070395

DIPOLE MOMENT
-------------
                                X             Y             Z
Electronic contribution:     -2.77797      -4.55189      -0.36662
Nuclear contribution   :      3.32636       5.54416       0.31051
                        -----------------------------------------
Total Dipole Moment    :      0.54839       0.99227      -0.05610
                        -----------------------------------------
Magnitude (a.u.)       :      1.13511
Magnitude (Debye)      :      2.88523

Rotational constants in cm-1:     0.047551     0.016050     0.015493
Rotational constants in MHz :  1425.556709   481.168361   464.466217

                             ****ORCA TERMINATED NORMALLY****
TOTAL RUN TIME: 0 days 0 hours 17 minutes 18 seconds 275 msec
