                         Program Version 4.2.0 -  RELEASE  -
|  1> # Test redundant internal optimization
|  2> #
|  3> ! RKS B3LYP  Opt TightSCF SmallPrint
|  4>
|  5> %basis
|  6>         Basis "6-31G"
|  7> end
|  8>
|  9> %geom
| 10> Constraints
| 11> { D 4  0  15  12  165.0   C } # D for Dihedral angle
| 12> { D 0  15  12  16  105.0   C } # D for Dihedral angle
| 13> { D 0  4  3  2   C } # D for Dihedral angle
| 14> { D 4  3  2  1   C } # D for Dihedral angle
| 15> { D 3  2  1  0   C } # D for Dihedral angle
| 16> { D 2  1  0  4   C } # D for Dihedral angle
| 17> { D 1  0  4  3   C } # D for Dihedral angle
| 18> { D 16  20  19  18   C } # D for Dihedral angle
| 19> { D 20  19  18  17   C } # D for Dihedral angle
| 20> { D 19  18  17  16   C } # D for Dihedral angle
| 21> { D 18  17  16  20   C } # D for Dihedral angle
| 22> { D 17  16  20  19   C } # D for Dihedral angle
| 23> { D 15  12  16  20   C } # D for Dihedral angle
| 24> end
| 25> end
| 26>
| 27>
| 28> #%pal
| 29> #nprocs 8
| 30> #end
| 31>
| 32> * xyz 0 1
| 33> C  -21.048   26.222   46.251
| 34> C  -20.361   27.558   45.944
| 35> C  -20.329   28.222   47.341
| 36> C  -20.110   27.022   48.296
| 37> O  -20.473   25.807   47.535
| 38> H  -20.833   25.428   45.533
| 39> H  -19.344   27.382   45.576
| 40> H  -20.898   28.157   45.201
| 41> H  -19.543   28.978   47.434
| 42> H  -21.289   28.710   47.548
| 43> H  -20.733   27.082   49.195
| 44> H  -19.064   26.913   48.597
| 45> C  -23.260   27.170   45.210
| 46> H  -23.963   27.904   45.623
| 47> H  -22.507   27.710   44.622
| 48> O  -22.586   26.394   46.375
| 49> C  -24.039   26.240   44.240
| 50> C  -24.592   27.021   43.043
| 51> C  -23.336   27.157   42.150
| 52> C  -22.587   25.823   42.390
| 53> O  -23.135   25.253   43.640
| 54> H  -24.791   25.684   44.804
| 55> O  -25.688   26.189   42.324
| 56> H  -25.021   27.990   43.323
| 57> H  -23.580   27.315   41.094
| 58> H  -22.727   28.007   42.483
| 59> H  -21.506   25.962   42.503
| 60> H  -22.769   25.093   41.596
| 61> H  -25.280   25.215   42.034
| 62> *
| 63>
| 64>                          ****END OF INPUT****
 Total Charge           Charge          ....    0
 Multiplicity           Mult            ....    1
 Number of Electrons    NEL             ....  102
FINAL SINGLE POINT ENERGY      -652.827488508622
FINAL SINGLE POINT ENERGY      -652.850791753623
FINAL SINGLE POINT ENERGY      -652.855352008029
FINAL SINGLE POINT ENERGY      -652.856194560829
FINAL SINGLE POINT ENERGY      -652.856314323459
FINAL SINGLE POINT ENERGY      -652.856331959891
                    ***********************HURRAY********************

CARTESIAN COORDINATES (ANGSTROEM)
---------------------------------
  C    -21.027587   26.272725   46.167638
  C    -20.221686   27.558981   45.986407
  C    -20.323260   28.207234   47.392671
  C    -20.309482   26.979968   48.328048
  O    -20.656835   25.817732   47.474837
  H    -20.805631   25.470590   45.461182
  H    -19.184330   27.285376   45.760381
  H    -20.571852   28.216514   45.187265
  H    -19.498954   28.897556   47.595269
  H    -21.265004   28.756987   47.485695
  H    -21.038523   27.048879   49.139417
  H    -19.319080   26.776875   48.746373
  C    -23.141008   27.241707   45.168457
  H    -23.856090   27.907720   45.668134
  H    -22.437727   27.860765   44.598529
  O    -22.476158   26.482430   46.207685
  C    -23.891945   26.287991   44.240233
  C    -24.614503   26.953828   43.059508
  C    -23.457604   27.127169   42.041324
  C    -22.586377   25.868467   42.278602
  O    -22.970135   25.333084   43.608507
  H    -24.580069   25.688764   44.843102
  O    -25.666963   26.096923   42.539745
  H    -25.107302   27.893368   43.314843
  H    -23.847489   27.191031   41.022621
  H    -22.898463   28.045615   42.253208
  H    -21.514067   26.088648   42.276632
  H    -22.780277   25.079598   41.545137
  H    -25.343600   25.171476   42.513551

 Multiplicity           Mult            ....    1
 Number of Electrons    NEL             ....  102
 Basis Dimension        Dim             ....  149

ORBITAL ENERGIES
----------------

  NO   OCC          E(Eh)            E(eV)
   0   2.0000     -19.147117      -521.0195
   1   2.0000     -19.141266      -520.8603
   2   2.0000     -19.136383      -520.7275
   3   2.0000     -19.134686      -520.6813
   4   2.0000     -10.275004      -279.5971
   5   2.0000     -10.246244      -278.8145
   6   2.0000     -10.235681      -278.5270
   7   2.0000     -10.234738      -278.5014
   8   2.0000     -10.233762      -278.4748
   9   2.0000     -10.223202      -278.1875
  10   2.0000     -10.194348      -277.4023
  11   2.0000     -10.189895      -277.2811
  12   2.0000     -10.188628      -277.2467
  13   2.0000      -1.050091       -28.5744
  14   2.0000      -1.038548       -28.2603
  15   2.0000      -1.009539       -27.4709
  16   2.0000      -0.988243       -26.8915
  17   2.0000      -0.788465       -21.4552
  18   2.0000      -0.785967       -21.3873
  19   2.0000      -0.770200       -20.9582
  20   2.0000      -0.731971       -19.9180
  21   2.0000      -0.679689       -18.4953
  22   2.0000      -0.607986       -16.5441
  23   2.0000      -0.603814       -16.4306
  24   2.0000      -0.595283       -16.1985
  25   2.0000      -0.575836       -15.6693
  26   2.0000      -0.530085       -14.4244
  27   2.0000      -0.505608       -13.7583
  28   2.0000      -0.502857       -13.6834
  29   2.0000      -0.491771       -13.3818
  30   2.0000      -0.479284       -13.0420
  31   2.0000      -0.460370       -12.5273
  32   2.0000      -0.452295       -12.3076
  33   2.0000      -0.445933       -12.1345
  34   2.0000      -0.426443       -11.6041
  35   2.0000      -0.407300       -11.0832
  36   2.0000      -0.402989       -10.9659
  37   2.0000      -0.398616       -10.8469
  38   2.0000      -0.378029       -10.2867
  39   2.0000      -0.375565       -10.2196
  40   2.0000      -0.367329        -9.9955
  41   2.0000      -0.355584        -9.6759
  42   2.0000      -0.351947        -9.5770
  43   2.0000      -0.335217        -9.1217
  44   2.0000      -0.311379        -8.4731
  45   2.0000      -0.310418        -8.4469
  46   2.0000      -0.294886        -8.0242
  47   2.0000      -0.274883        -7.4800
  48   2.0000      -0.266166        -7.2428
  49   2.0000      -0.254981        -6.9384
  50   2.0000      -0.237122        -6.4524
  51   0.0000       0.057674         1.5694
  52   0.0000       0.076562         2.0833
  53   0.0000       0.086324         2.3490
  54   0.0000       0.097142         2.6434
  55   0.0000       0.103833         2.8254

MULLIKEN ATOMIC CHARGES
-----------------------
   0 C :    0.310889
   1 C :   -0.293896
   2 C :   -0.298974
   3 C :    0.001283
   4 O :   -0.497120
   5 H :    0.164880
   6 H :    0.151673
   7 H :    0.139140
   8 H :    0.142189
   9 H :    0.154372
  10 H :    0.153623
  11 H :    0.141312
  12 C :   -0.018491
  13 H :    0.145090
  14 H :    0.116776
  15 O :   -0.508892
  16 C :    0.072350
  17 C :    0.076721
  18 C :   -0.286652
  19 C :   -0.038761
  20 O :   -0.515700
  21 H :    0.173382
  22 O :   -0.601101
  23 H :    0.151103
  24 H :    0.163582
  25 H :    0.137319
  26 H :    0.145546
  27 H :    0.151541
  28 H :    0.366814
Sum of atomic charges:   -0.0000000

LOEWDIN ATOMIC CHARGES
----------------------
   0 C :    0.185787
   1 C :   -0.235247
   2 C :   -0.217535
   3 C :   -0.025988
   4 O :   -0.300815
   5 H :    0.108918
   6 H :    0.118404
   7 H :    0.109922
   8 H :    0.114120
   9 H :    0.114040
  10 H :    0.109073
  11 H :    0.102239
  12 C :   -0.044088
  13 H :    0.108836
  14 H :    0.089871
  15 O :   -0.328273
  16 C :    0.010109
  17 C :    0.034390
  18 C :   -0.239397
  19 C :   -0.041826
  20 O :   -0.326726
  21 H :    0.122929
  22 O :   -0.413416
  23 H :    0.115275
  24 H :    0.127406
  25 H :    0.109772
  26 H :    0.102661
  27 H :    0.104954
  28 H :    0.284605

  Mayer bond orders larger than 0.100000
B(  0-C ,  1-C ) :   0.9301 B(  0-C ,  4-O ) :   0.9323 B(  0-C ,  5-H ) :   0.9168
B(  0-C , 15-O ) :   0.8293 B(  1-C ,  2-C ) :   0.9481 B(  1-C ,  6-H ) :   0.9338
B(  1-C ,  7-H ) :   0.9276 B(  2-C ,  3-C ) :   0.9559 B(  2-C ,  8-H ) :   0.9451
B(  2-C ,  9-H ) :   0.9463 B(  3-C ,  4-O ) :   0.8385 B(  3-C , 10-H ) :   0.9343
B(  3-C , 11-H ) :   0.9398 B( 12-C , 13-H ) :   0.9259 B( 12-C , 14-H ) :   0.9120
B( 12-C , 15-O ) :   0.8689 B( 12-C , 16-C ) :   0.8847 B( 16-C , 17-C ) :   0.8938
B( 16-C , 20-O ) :   0.8578 B( 16-C , 21-H ) :   0.9241 B( 17-C , 18-C ) :   0.9096
B( 17-C , 22-O ) :   0.8939 B( 17-C , 23-H ) :   0.9339 B( 18-C , 19-C ) :   0.9403
B( 18-C , 24-H ) :   0.9373 B( 18-C , 25-H ) :   0.9350 B( 19-C , 20-O ) :   0.8515
B( 19-C , 26-H ) :   0.9339 B( 19-C , 27-H ) :   0.9371 B( 22-O , 28-H ) :   0.7933

FINAL SINGLE POINT ENERGY      -652.856335090445

DIPOLE MOMENT
-------------
                                X             Y             Z
Electronic contribution:     -3.67372      -5.63074       0.96350
Nuclear contribution   :      4.53017       7.07209      -1.68125
                        -----------------------------------------
Total Dipole Moment    :      0.85646       1.44135      -0.71774
                        -----------------------------------------
Magnitude (a.u.)       :      1.82378
Magnitude (Debye)      :      4.63568

Rotational constants in cm-1:     0.067615     0.012070     0.011898
Rotational constants in MHz :  2027.045321   361.859516   356.704447

                             ****ORCA TERMINATED NORMALLY****
TOTAL RUN TIME: 0 days 0 hours 20 minutes 15 seconds 923 msec
