                         Program Version 4.2.0 -  RELEASE  -
|  1> # Test redundant internal optimization
|  2> #
|  3> ! RKS B3LYP  Opt TightSCF SmallPrint
|  4>
|  5> %basis
|  6>         Basis "6-31G"
|  7> end
|  8>
|  9> %geom
| 10> Constraints
| 11> { D 4  0  15  12  345.0   C } # D for Dihedral angle
| 12> { D 0  15  12  16  240.0   C } # D for Dihedral angle
| 13> { D 0  4  3  2   C } # D for Dihedral angle
| 14> { D 4  3  2  1   C } # D for Dihedral angle
| 15> { D 3  2  1  0   C } # D for Dihedral angle
| 16> { D 2  1  0  4   C } # D for Dihedral angle
| 17> { D 1  0  4  3   C } # D for Dihedral angle
| 18> { D 16  20  19  18   C } # D for Dihedral angle
| 19> { D 20  19  18  17   C } # D for Dihedral angle
| 20> { D 19  18  17  16   C } # D for Dihedral angle
| 21> { D 18  17  16  20   C } # D for Dihedral angle
| 22> { D 17  16  20  19   C } # D for Dihedral angle
| 23> { D 15  12  16  20   C } # D for Dihedral angle
| 24> end
| 25> end
| 26>
| 27>
| 28> #%pal
| 29> #nprocs 8
| 30> #end
| 31>
| 32> * xyz 0 1
| 33> C  -21.048   26.222   46.251
| 34> C  -20.361   27.558   45.944
| 35> C  -20.329   28.222   47.341
| 36> C  -20.110   27.022   48.296
| 37> O  -20.473   25.807   47.535
| 38> H  -20.833   25.428   45.533
| 39> H  -19.344   27.382   45.576
| 40> H  -20.898   28.157   45.201
| 41> H  -19.543   28.978   47.434
| 42> H  -21.289   28.710   47.548
| 43> H  -20.733   27.082   49.195
| 44> H  -19.064   26.913   48.597
| 45> C  -23.221   25.764   47.645
| 46> H  -22.433   25.301   48.252
| 47> H  -23.712   26.536   48.252
| 48> O  -22.586   26.394   46.375
| 49> C  -24.281   24.679   47.311
| 50> C  -23.644   23.476   46.608
| 51> C  -23.014   22.714   47.798
| 52> C  -24.026   22.957   48.946
| 53> O  -24.847   24.119   48.544
| 54> H  -25.105   25.140   46.763
| 55> H  -24.419   22.868   46.126
| 56> O  -22.600   23.881   45.531
| 57> H  -22.867   21.649   47.591
| 58> H  -22.037   23.145   48.046
| 59> H  -23.533   23.179   49.899
| 60> H  -24.707   22.114   49.088
| 61> H  -21.815   24.490   45.991
| 62> *
| 63>
| 64>                          ****END OF INPUT****
 Total Charge           Charge          ....    0
 Multiplicity           Mult            ....    1
 Number of Electrons    NEL             ....  102
FINAL SINGLE POINT ENERGY      -652.816248956398
FINAL SINGLE POINT ENERGY      -652.845027991733
FINAL SINGLE POINT ENERGY      -652.854201880664
FINAL SINGLE POINT ENERGY      -652.856414187999
FINAL SINGLE POINT ENERGY      -652.856796022018
FINAL SINGLE POINT ENERGY      -652.856879443507
FINAL SINGLE POINT ENERGY      -652.856894084212
FINAL SINGLE POINT ENERGY      -652.856897131342
                    ***********************HURRAY********************

CARTESIAN COORDINATES (ANGSTROEM)
---------------------------------
  C    -21.002316   26.250679   46.336390
  C    -20.436530   27.633323   46.012982
  C    -20.367663   28.280759   47.414487
  C    -20.005068   27.097375   48.336560
  O    -20.334009   25.865923   47.556986
  H    -20.753096   25.482273   45.595805
  H    -19.437137   27.523521   45.576209
  H    -21.075204   28.179488   45.316270
  H    -19.629962   29.086985   47.468587
  H    -21.345926   28.693582   47.678786
  H    -20.574898   27.081511   49.268911
  H    -18.937010   27.038959   48.562016
  C    -23.140575   25.775293   47.606509
  H    -22.403338   25.362267   48.302115
  H    -23.673877   26.587702   48.109276
  O    -22.448440   26.354444   46.454292
  C    -24.174929   24.699001   47.231313
  C    -23.661615   23.403170   46.574248
  C    -23.064090   22.636384   47.798404
  C    -24.023646   23.029377   48.941684
  O    -24.752951   24.246068   48.497572
  H    -24.983739   25.146215   46.648356
  H    -24.527373   22.856079   46.190983
  O    -22.788598   23.516475   45.437270
  H    -23.025988   21.557841   47.624006
  H    -22.042280   22.989140   47.985553
  H    -23.505981   23.251327   49.880317
  H    -24.779594   22.261573   49.131795
  H    -21.976167   24.000266   45.679319

 Multiplicity           Mult            ....    1
 Number of Electrons    NEL             ....  102
 Basis Dimension        Dim             ....  149

ORBITAL ENERGIES
----------------

  NO   OCC          E(Eh)            E(eV)
   0   2.0000     -19.160667      -521.3883
   1   2.0000     -19.143734      -520.9275
   2   2.0000     -19.137965      -520.7705
   3   2.0000     -19.135766      -520.7107
   4   2.0000     -10.290883      -280.0292
   5   2.0000     -10.239384      -278.6278
   6   2.0000     -10.235611      -278.5251
   7   2.0000     -10.226666      -278.2817
   8   2.0000     -10.226636      -278.2809
   9   2.0000     -10.224859      -278.2325
  10   2.0000     -10.195439      -277.4320
  11   2.0000     -10.191675      -277.3296
  12   2.0000     -10.184193      -277.1260
  13   2.0000      -1.063395       -28.9364
  14   2.0000      -1.027201       -27.9516
  15   2.0000      -1.010171       -27.4881
  16   2.0000      -0.997277       -27.1373
  17   2.0000      -0.797472       -21.7003
  18   2.0000      -0.773025       -21.0351
  19   2.0000      -0.767050       -20.8725
  20   2.0000      -0.736234       -20.0339
  21   2.0000      -0.676385       -18.4054
  22   2.0000      -0.610681       -16.6175
  23   2.0000      -0.607231       -16.5236
  24   2.0000      -0.596316       -16.2266
  25   2.0000      -0.568989       -15.4830
  26   2.0000      -0.525219       -14.2919
  27   2.0000      -0.522196       -14.2097
  28   2.0000      -0.502731       -13.6800
  29   2.0000      -0.491144       -13.3647
  30   2.0000      -0.471212       -12.8223
  31   2.0000      -0.459562       -12.5053
  32   2.0000      -0.443975       -12.0812
  33   2.0000      -0.428325       -11.6553
  34   2.0000      -0.425813       -11.5870
  35   2.0000      -0.412033       -11.2120
  36   2.0000      -0.407440       -11.0870
  37   2.0000      -0.401752       -10.9322
  38   2.0000      -0.379792       -10.3347
  39   2.0000      -0.368265       -10.0210
  40   2.0000      -0.364724        -9.9246
  41   2.0000      -0.357095        -9.7170
  42   2.0000      -0.353535        -9.6202
  43   2.0000      -0.337701        -9.1893
  44   2.0000      -0.328659        -8.9433
  45   2.0000      -0.305603        -8.3159
  46   2.0000      -0.302883        -8.2419
  47   2.0000      -0.275216        -7.4890
  48   2.0000      -0.267393        -7.2761
  49   2.0000      -0.258671        -7.0388
  50   2.0000      -0.234051        -6.3689
  51   0.0000       0.053772         1.4632
  52   0.0000       0.077084         2.0976
  53   0.0000       0.087134         2.3710
  54   0.0000       0.094227         2.5641
  55   0.0000       0.102215         2.7814

MULLIKEN ATOMIC CHARGES
-----------------------
   0 C :    0.280876
   1 C :   -0.256214
   2 C :   -0.304450
   3 C :   -0.015857
   4 O :   -0.516030
   5 H :    0.142568
   6 H :    0.145800
   7 H :    0.167824
   8 H :    0.149508
   9 H :    0.161878
  10 H :    0.150523
  11 H :    0.153889
  12 C :   -0.033446
  13 H :    0.159412
  14 H :    0.154767
  15 O :   -0.538157
  16 C :    0.080456
  17 C :    0.092575
  18 C :   -0.327670
  19 C :   -0.012500
  20 O :   -0.522305
  21 H :    0.158437
  22 H :    0.163235
  23 O :   -0.603260
  24 H :    0.155846
  25 H :    0.150667
  26 H :    0.141331
  27 H :    0.149374
  28 H :    0.370927
Sum of atomic charges:   -0.0000000

LOEWDIN ATOMIC CHARGES
----------------------
   0 C :    0.173195
   1 C :   -0.215702
   2 C :   -0.216894
   3 C :   -0.029475
   4 O :   -0.324940
   5 H :    0.090468
   6 H :    0.114112
   7 H :    0.129872
   8 H :    0.118573
   9 H :    0.118844
  10 H :    0.106375
  11 H :    0.108909
  12 C :   -0.053039
  13 H :    0.109173
  14 H :    0.111410
  15 O :   -0.344425
  16 C :    0.017743
  17 C :    0.037546
  18 C :   -0.245958
  19 C :   -0.031409
  20 O :   -0.323836
  21 H :    0.114996
  22 H :    0.116313
  23 O :   -0.400122
  24 H :    0.122131
  25 H :    0.112720
  26 H :    0.101198
  27 H :    0.105803
  28 H :    0.276422

  Mayer bond orders larger than 0.100000
B(  0-C ,  1-C ) :   0.9357 B(  0-C ,  4-O ) :   0.9126 B(  0-C ,  5-H ) :   0.9052
B(  0-C , 15-O ) :   0.8531 B(  1-C ,  2-C ) :   0.9535 B(  1-C ,  6-H ) :   0.9358
B(  1-C ,  7-H ) :   0.9344 B(  2-C ,  3-C ) :   0.9553 B(  2-C ,  8-H ) :   0.9441
B(  2-C ,  9-H ) :   0.9444 B(  3-C ,  4-O ) :   0.8207 B(  3-C , 10-H ) :   0.9343
B(  3-C , 11-H ) :   0.9403 B( 12-C , 13-H ) :   0.9096 B( 12-C , 14-H ) :   0.9318
B( 12-C , 15-O ) :   0.8148 B( 12-C , 16-C ) :   0.9006 B( 16-C , 17-C ) :   0.8900
B( 16-C , 20-O ) :   0.8344 B( 16-C , 21-H ) :   0.9321 B( 17-C , 18-C ) :   0.9158
B( 17-C , 22-H ) :   0.9327 B( 17-C , 23-O ) :   0.9270 B( 18-C , 19-C ) :   0.9400
B( 18-C , 24-H ) :   0.9419 B( 18-C , 25-H ) :   0.9389 B( 19-C , 20-O ) :   0.8366
B( 19-C , 26-H ) :   0.9336 B( 19-C , 27-H ) :   0.9382 B( 23-O , 28-H ) :   0.7692

FINAL SINGLE POINT ENERGY      -652.856897435081

DIPOLE MOMENT
-------------
                                X             Y             Z
Electronic contribution:     -3.09350      -1.87060      -2.29760
Nuclear contribution   :      4.17119       2.44915       2.95836
                        -----------------------------------------
Total Dipole Moment    :      1.07769       0.57855       0.66076
                        -----------------------------------------
Magnitude (a.u.)       :      1.39023
Magnitude (Debye)      :      3.53369

Rotational constants in cm-1:     0.050580     0.015201     0.014230
Rotational constants in MHz :  1516.348442   455.728625   426.591975

                             ****ORCA TERMINATED NORMALLY****
TOTAL RUN TIME: 0 days 0 hours 38 minutes 28 seconds 153 msec
