                         Program Version 4.2.0 -  RELEASE  -
|  1> # Test redundant internal optimization
|  2> #
|  3> ! RKS B3LYP  Opt TightSCF SmallPrint
|  4>
|  5> %basis
|  6>         Basis "6-31G"
|  7> end
|  8>
|  9> %geom
| 10> Constraints
| 11> { D 4  0  15  12  300.0   C } # D for Dihedral angle
| 12> { D 0  15  12  16  30.0   C } # D for Dihedral angle
| 13> { D 0  4  3  2   C } # D for Dihedral angle
| 14> { D 4  3  2  1   C } # D for Dihedral angle
| 15> { D 3  2  1  0   C } # D for Dihedral angle
| 16> { D 2  1  0  4   C } # D for Dihedral angle
| 17> { D 1  0  4  3   C } # D for Dihedral angle
| 18> { D 16  20  19  18   C } # D for Dihedral angle
| 19> { D 20  19  18  17   C } # D for Dihedral angle
| 20> { D 19  18  17  16   C } # D for Dihedral angle
| 21> { D 18  17  16  20   C } # D for Dihedral angle
| 22> { D 17  16  20  19   C } # D for Dihedral angle
| 23> { D 15  12  16  20   C } # D for Dihedral angle
| 24> end
| 25> end
| 26>
| 27>
| 28> #%pal
| 29> #nprocs 8
| 30> #end
| 31>
| 32> * xyz 0 1
| 33> C  -21.048   26.222   46.251
| 34> C  -20.361   27.558   45.944
| 35> C  -20.329   28.222   47.341
| 36> C  -20.110   27.022   48.296
| 37> O  -20.473   25.807   47.535
| 38> H  -20.833   25.428   45.533
| 39> H  -19.344   27.382   45.576
| 40> H  -20.898   28.157   45.201
| 41> H  -19.543   28.978   47.434
| 42> H  -21.289   28.710   47.548
| 43> H  -20.733   27.082   49.195
| 44> H  -19.064   26.913   48.597
| 45> C  -23.362   25.116   46.798
| 46> H  -24.263   25.407   47.351
| 47> H  -23.671   24.545   45.913
| 48> O  -22.586   26.394   46.375
| 49> C  -22.518   24.173   47.699
| 50> C  -23.271   22.872   48.001
| 51> C  -23.052   22.072   46.695
| 52> C  -21.622   22.487   46.264
| 53> O  -21.309   23.735   46.993
| 54> H  -22.191   24.722   48.585
| 55> H  -22.809   22.358   48.851
| 56> O  -24.773   23.097   48.324
| 57> H  -23.147   20.991   46.837
| 58> H  -23.786   22.377   45.939
| 59> H  -21.546   22.673   45.187
| 60> H  -20.869   21.748   46.551
| 61> H  -25.258   23.610   47.486
| 62> *
| 63>
| 64>                          ****END OF INPUT****
 Total Charge           Charge          ....    0
 Multiplicity           Mult            ....    1
 Number of Electrons    NEL             ....  102
FINAL SINGLE POINT ENERGY      -652.814274899866
FINAL SINGLE POINT ENERGY      -652.838253039987
FINAL SINGLE POINT ENERGY      -652.850929509153
FINAL SINGLE POINT ENERGY      -652.852623528879
FINAL SINGLE POINT ENERGY      -652.853007642456
FINAL SINGLE POINT ENERGY      -652.853062130996
FINAL SINGLE POINT ENERGY      -652.853070360323
FINAL SINGLE POINT ENERGY      -652.853071485475
                    ***********************HURRAY********************

CARTESIAN COORDINATES (ANGSTROEM)
---------------------------------
  C    -20.890195   26.284477   46.230474
  C    -20.470316   27.730758   45.964858
  C    -20.455106   28.321753   47.393252
  C    -19.965825   27.140519   48.258167
  O    -20.171915   25.918931   47.434689
  H    -20.595357   25.546241   45.481619
  H    -19.467568   27.734779   45.522447
  H    -21.160871   28.244189   45.292680
  H    -19.805685   29.198437   47.479977
  H    -21.470200   28.613530   47.676943
  H    -20.521193   27.036534   49.194409
  H    -18.895569   27.189988   48.480519
  C    -23.107499   25.134527   46.783954
  H    -23.973181   25.552479   47.308163
  H    -23.468234   24.660790   45.855890
  O    -22.325352   26.298822   46.394380
  C    -22.477222   24.061952   47.675951
  C    -23.418811   22.873840   47.949777
  C    -23.212608   22.001958   46.672634
  C    -21.718340   22.218075   46.349966
  O    -21.293671   23.445253   47.075865
  H    -22.123613   24.523499   48.599760
  H    -23.069428   22.340130   48.836014
  O    -24.793661   23.216245   48.246867
  H    -23.464760   20.952099   46.844847
  H    -23.857168   22.375542   45.865674
  H    -21.529007   22.351125   45.279830
  H    -21.093095   21.399174   46.717451
  H    -25.262550   23.492352   47.432945

 Multiplicity           Mult            ....    1
 Number of Electrons    NEL             ....  102
 Basis Dimension        Dim             ....  149

ORBITAL ENERGIES
----------------

  NO   OCC          E(Eh)            E(eV)
   0   2.0000     -19.149775      -521.0919
   1   2.0000     -19.134654      -520.6804
   2   2.0000     -19.134609      -520.6792
   3   2.0000     -19.128027      -520.5001
   4   2.0000     -10.267781      -279.4005
   5   2.0000     -10.244789      -278.7749
   6   2.0000     -10.228697      -278.3370
   7   2.0000     -10.228052      -278.3195
   8   2.0000     -10.226921      -278.2887
   9   2.0000     -10.215633      -277.9815
  10   2.0000     -10.194561      -277.4081
  11   2.0000     -10.176913      -276.9279
  12   2.0000     -10.176658      -276.9209
  13   2.0000      -1.042404       -28.3653
  14   2.0000      -1.031328       -28.0639
  15   2.0000      -1.011903       -27.5353
  16   2.0000      -0.982733       -26.7415
  17   2.0000      -0.783532       -21.3210
  18   2.0000      -0.779310       -21.2061
  19   2.0000      -0.761110       -20.7109
  20   2.0000      -0.726261       -19.7626
  21   2.0000      -0.676275       -18.4024
  22   2.0000      -0.610407       -16.6100
  23   2.0000      -0.595749       -16.2112
  24   2.0000      -0.588878       -16.0242
  25   2.0000      -0.562511       -15.3067
  26   2.0000      -0.523845       -14.2545
  27   2.0000      -0.508594       -13.8396
  28   2.0000      -0.493987       -13.4421
  29   2.0000      -0.476611       -12.9692
  30   2.0000      -0.460495       -12.5307
  31   2.0000      -0.454138       -12.3577
  32   2.0000      -0.442921       -12.0525
  33   2.0000      -0.427473       -11.6321
  34   2.0000      -0.423243       -11.5170
  35   2.0000      -0.411205       -11.1894
  36   2.0000      -0.404974       -11.0199
  37   2.0000      -0.390637       -10.6298
  38   2.0000      -0.380180       -10.3452
  39   2.0000      -0.362576        -9.8662
  40   2.0000      -0.354397        -9.6436
  41   2.0000      -0.348684        -9.4882
  42   2.0000      -0.338431        -9.2092
  43   2.0000      -0.329810        -8.9746
  44   2.0000      -0.321021        -8.7354
  45   2.0000      -0.309886        -8.4324
  46   2.0000      -0.283624        -7.7178
  47   2.0000      -0.270009        -7.3473
  48   2.0000      -0.256121        -6.9694
  49   2.0000      -0.248376        -6.7587
  50   2.0000      -0.231906        -6.3105
  51   0.0000       0.051377         1.3980
  52   0.0000       0.076342         2.0774
  53   0.0000       0.091288         2.4841
  54   0.0000       0.097571         2.6550
  55   0.0000       0.109662         2.9841

MULLIKEN ATOMIC CHARGES
-----------------------
   0 C :    0.309106
   1 C :   -0.261200
   2 C :   -0.295805
   3 C :   -0.011046
   4 O :   -0.491842
   5 H :    0.147318
   6 H :    0.143204
   7 H :    0.153863
   8 H :    0.136028
   9 H :    0.158021
  10 H :    0.139576
  11 H :    0.142055
  12 C :    0.007708
  13 H :    0.150085
  14 H :    0.112710
  15 O :   -0.545883
  16 C :    0.080250
  17 C :    0.083862
  18 C :   -0.324236
  19 C :   -0.016877
  20 O :   -0.494068
  21 H :    0.166801
  22 H :    0.169641
  23 O :   -0.600036
  24 H :    0.157082
  25 H :    0.132983
  26 H :    0.141398
  27 H :    0.152083
  28 H :    0.357218
Sum of atomic charges:   -0.0000000

LOEWDIN ATOMIC CHARGES
----------------------
   0 C :    0.181044
   1 C :   -0.215224
   2 C :   -0.216602
   3 C :   -0.033407
   4 O :   -0.311957
   5 H :    0.099807
   6 H :    0.112914
   7 H :    0.122563
   8 H :    0.110941
   9 H :    0.117056
  10 H :    0.100618
  11 H :    0.102085
  12 C :   -0.043429
  13 H :    0.114226
  14 H :    0.084413
  15 O :   -0.333943
  16 C :    0.008703
  17 C :    0.037153
  18 C :   -0.242849
  19 C :   -0.034721
  20 O :   -0.306662
  21 H :    0.121294
  22 H :    0.120313
  23 O :   -0.406846
  24 H :    0.122050
  25 H :    0.103504
  26 H :    0.101019
  27 H :    0.107165
  28 H :    0.278770

  Mayer bond orders larger than 0.100000
B(  0-C ,  1-C ) :   0.9445 B(  0-C ,  4-O ) :   0.9022 B(  0-C ,  5-H ) :   0.9220
B(  0-C , 15-O ) :   0.8406 B(  1-C ,  2-C ) :   0.9564 B(  1-C ,  6-H ) :   0.9409
B(  1-C ,  7-H ) :   0.9367 B(  2-C ,  3-C ) :   0.9535 B(  2-C ,  8-H ) :   0.9458
B(  2-C ,  9-H ) :   0.9449 B(  3-C ,  4-O ) :   0.8471 B(  3-C , 10-H ) :   0.9352
B(  3-C , 11-H ) :   0.9402 B( 12-C , 13-H ) :   0.9191 B( 12-C , 14-H ) :   0.9241
B( 12-C , 15-O ) :   0.8564 B( 12-C , 16-C ) :   0.9006 B( 16-C , 17-C ) :   0.8677
B( 16-C , 20-O ) :   0.8516 B( 16-C , 21-H ) :   0.9247 B( 17-C , 18-C ) :   0.9223
B( 17-C , 22-H ) :   0.9333 B( 17-C , 23-O ) :   0.8985 B( 18-C , 19-C ) :   0.9370
B( 18-C , 24-H ) :   0.9418 B( 18-C , 25-H ) :   0.9394 B( 19-C , 20-O ) :   0.8537
B( 19-C , 26-H ) :   0.9316 B( 19-C , 27-H ) :   0.9371 B( 23-O , 28-H ) :   0.7979

FINAL SINGLE POINT ENERGY      -652.853071519555

DIPOLE MOMENT
-------------
                                X             Y             Z
Electronic contribution:     -0.73590      -1.79970       1.16888
Nuclear contribution   :      0.46660       1.71894      -1.83889
                        -----------------------------------------
Total Dipole Moment    :     -0.26930      -0.08076      -0.67000
                        -----------------------------------------
Magnitude (a.u.)       :      0.72660
Magnitude (Debye)      :      1.84687

Rotational constants in cm-1:     0.055909     0.014571     0.013673
Rotational constants in MHz :  1676.111944   436.827843   409.905395

                             ****ORCA TERMINATED NORMALLY****
TOTAL RUN TIME: 0 days 2 hours 17 minutes 17 seconds 264 msec
