                         Program Version 4.2.0 -  RELEASE  -
|  1> # Test redundant internal optimization
|  2> #
|  3> ! RKS B3LYP  Opt TightSCF SmallPrint
|  4>
|  5> %basis
|  6>         Basis "6-31G"
|  7> end
|  8>
|  9> %geom
| 10> Constraints
| 11> { D 4  0  15  12  210.0   C } # D for Dihedral angle
| 12> { D 0  15  12  16  75.0   C } # D for Dihedral angle
| 13> { D 0  4  3  2   C } # D for Dihedral angle
| 14> { D 4  3  2  1   C } # D for Dihedral angle
| 15> { D 3  2  1  0   C } # D for Dihedral angle
| 16> { D 2  1  0  4   C } # D for Dihedral angle
| 17> { D 1  0  4  3   C } # D for Dihedral angle
| 18> { D 16  20  19  18   C } # D for Dihedral angle
| 19> { D 20  19  18  17   C } # D for Dihedral angle
| 20> { D 19  18  17  16   C } # D for Dihedral angle
| 21> { D 18  17  16  20   C } # D for Dihedral angle
| 22> { D 17  16  20  19   C } # D for Dihedral angle
| 23> { D 15  12  16  20   C } # D for Dihedral angle
| 24> end
| 25> end
| 26>
| 27>
| 28> #%pal
| 29> #nprocs 8
| 30> #end
| 31>
| 32> * xyz 0 1
| 33> C  -21.048   26.222   46.251
| 34> C  -20.361   27.558   45.944
| 35> C  -20.329   28.222   47.341
| 36> C  -20.110   27.022   48.296
| 37> O  -20.473   25.807   47.535
| 38> H  -20.833   25.428   45.533
| 39> H  -19.344   27.382   45.576
| 40> H  -20.898   28.157   45.201
| 41> H  -19.543   28.978   47.434
| 42> H  -21.289   28.710   47.548
| 43> H  -20.733   27.082   49.195
| 44> H  -19.064   26.913   48.597
| 45> C  -23.389   26.110   45.076
| 46> H  -24.402   26.518   45.181
| 47> H  -22.911   26.596   44.215
| 48> O  -22.586   26.394   46.375
| 49> C  -23.503   24.593   44.760
| 50> C  -24.311   23.860   45.836
| 51> C  -25.763   24.211   45.431
| 52> C  -25.697   24.248   43.884
| 53> O  -24.269   24.383   43.527
| 54> H  -22.504   24.188   44.589
| 55> O  -24.068   22.329   45.733
| 56> H  -24.064   24.180   46.854
| 57> H  -26.494   23.484   45.800
| 58> H  -26.037   25.194   45.831
| 59> H  -26.254   25.090   43.461
| 60> H  -26.058   23.322   43.428
| 61> H  -24.310   21.984   44.721
| 62> *
| 63>
| 64>                          ****END OF INPUT****
 Total Charge           Charge          ....    0
 Multiplicity           Mult            ....    1
 Number of Electrons    NEL             ....  102
FINAL SINGLE POINT ENERGY      -652.836292217587
FINAL SINGLE POINT ENERGY      -652.858304848295
FINAL SINGLE POINT ENERGY      -652.861484157378
FINAL SINGLE POINT ENERGY      -652.862066260602
FINAL SINGLE POINT ENERGY      -652.862155892333
FINAL SINGLE POINT ENERGY      -652.862165124759
FINAL SINGLE POINT ENERGY      -652.862167219207
                    ***********************HURRAY********************

CARTESIAN COORDINATES (ANGSTROEM)
---------------------------------
  C    -21.085200   26.175868   46.182567
  C    -20.374076   27.498801   45.908138
  C    -20.415134   28.178207   47.297203
  C    -20.261421   26.989373   48.268314
  O    -20.598303   25.777593   47.472401
  H    -20.857709   25.367961   45.482647
  H    -19.341090   27.300546   45.597976
  H    -20.863324   28.088726   45.127792
  H    -19.626274   28.925789   47.423109
  H    -21.383545   28.667255   47.437676
  H    -20.936865   27.040567   49.125494
  H    -19.234586   26.854571   48.620341
  C    -23.304192   26.128850   45.071995
  H    -24.271063   26.604345   45.254155
  H    -22.851649   26.610363   44.193546
  O    -22.527554   26.384238   46.278140
  C    -23.476855   24.633145   44.782827
  C    -24.260047   23.855551   45.849487
  C    -25.722677   24.218199   45.488042
  C    -25.695089   24.315435   43.942585
  O    -24.268219   24.469214   43.555931
  H    -22.509445   24.158160   44.595610
  O    -24.014376   22.426394   45.732648
  H    -23.975648   24.124562   46.865425
  H    -26.410587   23.452112   45.854294
  H    -26.001586   25.174133   45.943868
  H    -26.260635   25.169682   43.557458
  H    -26.062330   23.406504   43.456011
  H    -24.055522   22.168856   44.787320

 Multiplicity           Mult            ....    1
 Number of Electrons    NEL             ....  102
 Basis Dimension        Dim             ....  149

ORBITAL ENERGIES
----------------

  NO   OCC          E(Eh)            E(eV)
   0   2.0000     -19.146439      -521.0011
   1   2.0000     -19.144600      -520.9510
   2   2.0000     -19.140700      -520.8449
   3   2.0000     -19.134490      -520.6759
   4   2.0000     -10.280697      -279.7520
   5   2.0000     -10.234940      -278.5069
   6   2.0000     -10.233837      -278.4769
   7   2.0000     -10.233670      -278.4723
   8   2.0000     -10.232878      -278.4508
   9   2.0000     -10.224802      -278.2310
  10   2.0000     -10.187519      -277.2165
  11   2.0000     -10.186818      -277.1974
  12   2.0000     -10.186019      -277.1757
  13   2.0000      -1.053819       -28.6759
  14   2.0000      -1.036046       -28.1922
  15   2.0000      -1.003985       -27.3198
  16   2.0000      -0.995828       -27.0978
  17   2.0000      -0.787755       -21.4359
  18   2.0000      -0.778654       -21.1882
  19   2.0000      -0.766476       -20.8569
  20   2.0000      -0.733529       -19.9603
  21   2.0000      -0.676173       -18.3996
  22   2.0000      -0.605320       -16.4716
  23   2.0000      -0.602551       -16.3963
  24   2.0000      -0.599112       -16.3027
  25   2.0000      -0.573087       -15.5945
  26   2.0000      -0.522178       -14.2092
  27   2.0000      -0.519517       -14.1368
  28   2.0000      -0.495011       -13.4699
  29   2.0000      -0.489995       -13.3334
  30   2.0000      -0.468418       -12.7463
  31   2.0000      -0.460774       -12.5383
  32   2.0000      -0.454714       -12.3734
  33   2.0000      -0.436414       -11.8754
  34   2.0000      -0.424403       -11.5486
  35   2.0000      -0.412238       -11.2176
  36   2.0000      -0.402294       -10.9470
  37   2.0000      -0.392061       -10.6685
  38   2.0000      -0.374635       -10.1943
  39   2.0000      -0.367977       -10.0132
  40   2.0000      -0.362842        -9.8734
  41   2.0000      -0.357009        -9.7147
  42   2.0000      -0.354355        -9.6425
  43   2.0000      -0.332214        -9.0400
  44   2.0000      -0.314408        -8.5555
  45   2.0000      -0.312723        -8.5096
  46   2.0000      -0.304028        -8.2730
  47   2.0000      -0.274011        -7.4562
  48   2.0000      -0.264266        -7.1910
  49   2.0000      -0.256681        -6.9846
  50   2.0000      -0.239400        -6.5144
  51   0.0000       0.063422         1.7258
  52   0.0000       0.073972         2.0129
  53   0.0000       0.092941         2.5290
  54   0.0000       0.097534         2.6540
  55   0.0000       0.101358         2.7581

MULLIKEN ATOMIC CHARGES
-----------------------
   0 C :    0.287078
   1 C :   -0.260661
   2 C :   -0.299128
   3 C :   -0.002002
   4 O :   -0.501488
   5 H :    0.143932
   6 H :    0.144676
   7 H :    0.144969
   8 H :    0.142050
   9 H :    0.161931
  10 H :    0.154141
  11 H :    0.142543
  12 C :   -0.030965
  13 H :    0.152712
  14 H :    0.140945
  15 O :   -0.509062
  16 C :    0.047041
  17 C :    0.094804
  18 C :   -0.300712
  19 C :   -0.032657
  20 O :   -0.527403
  21 H :    0.162275
  22 O :   -0.602163
  23 H :    0.181811
  24 H :    0.163402
  25 H :    0.147114
  26 H :    0.146891
  27 H :    0.146974
  28 H :    0.360950
Sum of atomic charges:   -0.0000000

LOEWDIN ATOMIC CHARGES
----------------------
   0 C :    0.176543
   1 C :   -0.226038
   2 C :   -0.216727
   3 C :   -0.025012
   4 O :   -0.305640
   5 H :    0.098329
   6 H :    0.113438
   7 H :    0.115953
   8 H :    0.114422
   9 H :    0.119158
  10 H :    0.109402
  11 H :    0.102932
  12 C :   -0.045315
  13 H :    0.113251
  14 H :    0.100052
  15 O :   -0.333401
  16 C :    0.002658
  17 C :    0.039106
  18 C :   -0.241393
  19 C :   -0.038695
  20 O :   -0.332121
  21 H :    0.112328
  22 O :   -0.413630
  23 H :    0.130600
  24 H :    0.127345
  25 H :    0.114816
  26 H :    0.104090
  27 H :    0.103007
  28 H :    0.280540

  Mayer bond orders larger than 0.100000
B(  0-C ,  1-C ) :   0.9339 B(  0-C ,  4-O ) :   0.9396 B(  0-C ,  5-H ) :   0.9157
B(  0-C , 15-O ) :   0.8245 B(  1-C ,  2-C ) :   0.9536 B(  1-C ,  6-H ) :   0.9346
B(  1-C ,  7-H ) :   0.9370 B(  2-C ,  3-C ) :   0.9556 B(  2-C ,  8-H ) :   0.9450
B(  2-C ,  9-H ) :   0.9437 B(  3-C ,  4-O ) :   0.8348 B(  3-C , 10-H ) :   0.9345
B(  3-C , 11-H ) :   0.9397 B( 12-C , 13-H ) :   0.9399 B( 12-C , 14-H ) :   0.9181
B( 12-C , 15-O ) :   0.8530 B( 12-C , 16-C ) :   0.8752 B( 16-C , 17-C ) :   0.9104
B( 16-C , 20-O ) :   0.8385 B( 16-C , 21-H ) :   0.9227 B( 17-C , 18-C ) :   0.9136
B( 17-C , 22-O ) :   0.8892 B( 17-C , 23-H ) :   0.9225 B( 18-C , 19-C ) :   0.9408
B( 18-C , 24-H ) :   0.9376 B( 18-C , 25-H ) :   0.9341 B( 19-C , 20-O ) :   0.8411
B( 19-C , 26-H ) :   0.9356 B( 19-C , 27-H ) :   0.9381 B( 22-O , 28-H ) :   0.7971

FINAL SINGLE POINT ENERGY      -652.862166724089

DIPOLE MOMENT
-------------
                                X             Y             Z
Electronic contribution:     -0.00809      -4.58285      -0.54303
Nuclear contribution   :     -0.18256       5.71317       0.08343
                        -----------------------------------------
Total Dipole Moment    :     -0.19065       1.13032      -0.45960
                        -----------------------------------------
Magnitude (a.u.)       :      1.23499
Magnitude (Debye)      :      3.13909

Rotational constants in cm-1:     0.061140     0.012390     0.011472
Rotational constants in MHz :  1832.941422   371.438506   343.927404

                             ****ORCA TERMINATED NORMALLY****
TOTAL RUN TIME: 0 days 1 hours 9 minutes 31 seconds 698 msec
