                         Program Version 4.2.0 -  RELEASE  -
|  1> # Test redundant internal optimization
|  2> #
|  3> ! RKS B3LYP  Opt TightSCF SmallPrint
|  4>
|  5> %basis
|  6>         Basis "6-31G"
|  7> end
|  8>
|  9> %geom
| 10> Constraints
| 11> { D 4  0  15  12  120.0   C } # D for Dihedral angle
| 12> { D 0  15  12  16  195.0   C } # D for Dihedral angle
| 13> { D 0  4  3  2   C } # D for Dihedral angle
| 14> { D 4  3  2  1   C } # D for Dihedral angle
| 15> { D 3  2  1  0   C } # D for Dihedral angle
| 16> { D 2  1  0  4   C } # D for Dihedral angle
| 17> { D 1  0  4  3   C } # D for Dihedral angle
| 18> { D 16  20  19  18   C } # D for Dihedral angle
| 19> { D 20  19  18  17   C } # D for Dihedral angle
| 20> { D 19  18  17  16   C } # D for Dihedral angle
| 21> { D 18  17  16  20   C } # D for Dihedral angle
| 22> { D 17  16  20  19   C } # D for Dihedral angle
| 23> { D 15  12  16  20   C } # D for Dihedral angle
| 24> end
| 25> end
| 26>
| 27>
| 28> #%pal
| 29> #nprocs 8
| 30> #end
| 31>
| 32> * xyz 0 1
| 33> C  -21.048   26.222   46.251
| 34> C  -20.361   27.558   45.944
| 35> C  -20.329   28.222   47.341
| 36> C  -20.110   27.022   48.296
| 37> O  -20.473   25.807   47.535
| 38> H  -20.833   25.428   45.533
| 39> H  -19.344   27.382   45.576
| 40> H  -20.898   28.157   45.201
| 41> H  -19.543   28.978   47.434
| 42> H  -21.289   28.710   47.548
| 43> H  -20.733   27.082   49.195
| 44> H  -19.064   26.913   48.597
| 45> C  -23.119   27.818   46.058
| 46> H  -22.477   28.562   46.546
| 47> H  -23.098   28.004   44.976
| 48> O  -22.586   26.394   46.375
| 49> C  -24.578   28.036   46.547
| 50> C  -25.522   26.972   45.974
| 51> C  -25.230   25.765   46.897
| 52> C  -24.961   26.429   48.270
| 53> O  -24.665   27.852   47.999
| 54> H  -24.876   29.065   46.336
| 55> O  -26.997   27.433   46.125
| 56> H  -25.335   26.754   44.917
| 57> H  -26.057   25.049   46.934
| 58> H  -24.339   25.230   46.546
| 59> H  -24.112   25.978   48.795
| 60> H  -25.837   26.402   48.926
| 61> H  -27.208   27.657   47.177
| 62> *
| 63>
| 64>                          ****END OF INPUT****
 Total Charge           Charge          ....    0
 Multiplicity           Mult            ....    1
 Number of Electrons    NEL             ....  102
FINAL SINGLE POINT ENERGY      -652.822726690902
FINAL SINGLE POINT ENERGY      -652.846965498097
FINAL SINGLE POINT ENERGY      -652.854392880542
FINAL SINGLE POINT ENERGY      -652.856386231825
FINAL SINGLE POINT ENERGY      -652.856648324538
FINAL SINGLE POINT ENERGY      -652.856691313712
FINAL SINGLE POINT ENERGY      -652.856693230420
                    ***********************HURRAY********************

CARTESIAN COORDINATES (ANGSTROEM)
---------------------------------
  C    -21.170176   26.366796   46.313203
  C    -20.250728   27.536547   45.944291
  C    -20.089454   28.267380   47.307857
  C    -20.092696   27.094168   48.317052
  O    -20.680537   25.938217   47.597940
  H    -21.070094   25.497704   45.659945
  H    -19.290983   27.127905   45.612679
  H    -20.641678   28.177571   45.149109
  H    -19.162962   28.847874   47.355823
  H    -20.921052   28.951290   47.496667
  H    -20.691113   27.298073   49.208577
  H    -19.084338   26.796540   48.618011
  C    -23.183555   27.926997   46.065991
  H    -22.645478   28.736920   46.567553
  H    -23.169975   28.118951   44.982436
  O    -22.597167   26.632748   46.365199
  C    -24.625681   27.955396   46.571903
  C    -25.591627   26.910775   45.992311
  C    -25.292149   25.675186   46.882297
  C    -24.990895   26.304603   48.264116
  O    -24.686630   27.736831   48.015484
  H    -25.015807   28.963729   46.384973
  O    -26.968523   27.367860   46.116076
  H    -25.448596   26.722242   44.927801
  H    -26.149543   24.995749   46.901183
  H    -24.413238   25.155582   46.499797
  H    -24.124021   25.845765   48.744707
  H    -25.847378   26.274086   48.946507
  H    -27.125927   27.657513   47.039513

 Multiplicity           Mult            ....    1
 Number of Electrons    NEL             ....  102
 Basis Dimension        Dim             ....  149

ORBITAL ENERGIES
----------------

  NO   OCC          E(Eh)            E(eV)
   0   2.0000     -19.145660      -520.9799
   1   2.0000     -19.141885      -520.8772
   2   2.0000     -19.134163      -520.6670
   3   2.0000     -19.131908      -520.6057
   4   2.0000     -10.284443      -279.8539
   5   2.0000     -10.236633      -278.5529
   6   2.0000     -10.232754      -278.4474
   7   2.0000     -10.232338      -278.4361
   8   2.0000     -10.228723      -278.3377
   9   2.0000     -10.216493      -278.0049
  10   2.0000     -10.198304      -277.5099
  11   2.0000     -10.195875      -277.4439
  12   2.0000     -10.169868      -276.7362
  13   2.0000      -1.054454       -28.6931
  14   2.0000      -1.028880       -27.9972
  15   2.0000      -1.002151       -27.2699
  16   2.0000      -0.993225       -27.0270
  17   2.0000      -0.793116       -21.5818
  18   2.0000      -0.778329       -21.1794
  19   2.0000      -0.760672       -20.6989
  20   2.0000      -0.734388       -19.9837
  21   2.0000      -0.677575       -18.4378
  22   2.0000      -0.609132       -16.5753
  23   2.0000      -0.600164       -16.3313
  24   2.0000      -0.592043       -16.1103
  25   2.0000      -0.567869       -15.4525
  26   2.0000      -0.526622       -14.3301
  27   2.0000      -0.508808       -13.8454
  28   2.0000      -0.502077       -13.6622
  29   2.0000      -0.483760       -13.1638
  30   2.0000      -0.473748       -12.8913
  31   2.0000      -0.457941       -12.4612
  32   2.0000      -0.447677       -12.1819
  33   2.0000      -0.435882       -11.8609
  34   2.0000      -0.426258       -11.5991
  35   2.0000      -0.411962       -11.2101
  36   2.0000      -0.404105       -10.9963
  37   2.0000      -0.387985       -10.5576
  38   2.0000      -0.382125       -10.3982
  39   2.0000      -0.364266        -9.9122
  40   2.0000      -0.361521        -9.8375
  41   2.0000      -0.357597        -9.7307
  42   2.0000      -0.352433        -9.5902
  43   2.0000      -0.325803        -8.8656
  44   2.0000      -0.314904        -8.5690
  45   2.0000      -0.301862        -8.2141
  46   2.0000      -0.292433        -7.9575
  47   2.0000      -0.273565        -7.4441
  48   2.0000      -0.261398        -7.1130
  49   2.0000      -0.254714        -6.9311
  50   2.0000      -0.238963        -6.5025
  51   0.0000       0.068944         1.8761
  52   0.0000       0.078405         2.1335
  53   0.0000       0.091328         2.4852
  54   0.0000       0.105761         2.8779
  55   0.0000       0.109546         2.9809

MULLIKEN ATOMIC CHARGES
-----------------------
   0 C :    0.323862
   1 C :   -0.301144
   2 C :   -0.312989
   3 C :   -0.004664
   4 O :   -0.497623
   5 H :    0.157519
   6 H :    0.158190
   7 H :    0.146607
   8 H :    0.146936
   9 H :    0.162363
  10 H :    0.156896
  11 H :    0.145039
  12 C :    0.010341
  13 H :    0.137624
  14 H :    0.124606
  15 O :   -0.538933
  16 C :    0.071249
  17 C :    0.075827
  18 C :   -0.286298
  19 C :   -0.022661
  20 O :   -0.530549
  21 H :    0.151055
  22 O :   -0.605115
  23 H :    0.148532
  24 H :    0.145502
  25 H :    0.180271
  26 H :    0.163116
  27 H :    0.132101
  28 H :    0.362341
Sum of atomic charges:    0.0000000

LOEWDIN ATOMIC CHARGES
----------------------
   0 C :    0.182249
   1 C :   -0.230960
   2 C :   -0.220919
   3 C :   -0.029329
   4 O :   -0.313780
   5 H :    0.105936
   6 H :    0.124023
   7 H :    0.115761
   8 H :    0.116785
   9 H :    0.113375
  10 H :    0.110043
  11 H :    0.104089
  12 C :   -0.035370
  13 H :    0.100125
  14 H :    0.092061
  15 O :   -0.331971
  16 C :    0.016196
  17 C :    0.039386
  18 C :   -0.241345
  19 C :   -0.033553
  20 O :   -0.332465
  21 H :    0.113540
  22 O :   -0.418685
  23 H :    0.114623
  24 H :    0.116641
  25 H :    0.133408
  26 H :    0.114179
  27 H :    0.094240
  28 H :    0.281717

  Mayer bond orders larger than 0.100000
B(  0-C ,  1-C ) :   0.9329 B(  0-C ,  4-O ) :   0.9231 B(  0-C ,  5-H ) :   0.9322
B(  0-C , 15-O ) :   0.8566 B(  1-C ,  2-C ) :   0.9514 B(  1-C ,  6-H ) :   0.9342
B(  1-C ,  7-H ) :   0.9312 B(  2-C ,  3-C ) :   0.9493 B(  2-C ,  8-H ) :   0.9450
B(  2-C ,  9-H ) :   0.9348 B(  3-C ,  4-O ) :   0.8409 B(  3-C , 10-H ) :   0.9333
B(  3-C , 11-H ) :   0.9394 B( 12-C , 13-H ) :   0.9011 B( 12-C , 14-H ) :   0.9114
B( 12-C , 15-O ) :   0.8450 B( 12-C , 16-C ) :   0.8989 B( 16-C , 17-C ) :   0.9095
B( 16-C , 20-O ) :   0.8794 B( 16-C , 21-H ) :   0.9232 B( 17-C , 18-C ) :   0.9248
B( 17-C , 22-O ) :   0.8897 B( 17-C , 23-H ) :   0.9361 B( 18-C , 19-C ) :   0.9466
B( 18-C , 24-H ) :   0.9377 B( 18-C , 25-H ) :   0.9173 B( 19-C , 20-O ) :   0.8329
B( 19-C , 26-H ) :   0.9317 B( 19-C , 27-H ) :   0.9372 B( 22-O , 28-H ) :   0.7963

FINAL SINGLE POINT ENERGY      -652.856691620610

DIPOLE MOMENT
-------------
                                X             Y             Z
Electronic contribution:     -3.66335      -1.51484       0.16799
Nuclear contribution   :      4.80816       2.12866      -0.46359
                        -----------------------------------------
Total Dipole Moment    :      1.14481       0.61382      -0.29559
                        -----------------------------------------
Magnitude (a.u.)       :      1.33219
Magnitude (Debye)      :      3.38617

Rotational constants in cm-1:     0.058882     0.014314     0.013747
Rotational constants in MHz :  1765.240659   429.130040   412.136244

                             ****ORCA TERMINATED NORMALLY****
TOTAL RUN TIME: 0 days 0 hours 31 minutes 58 seconds 540 msec
