                         Program Version 4.2.0 -  RELEASE  -
|  1> # Test redundant internal optimization
|  2> #
|  3> ! RKS B3LYP  Opt TightSCF SmallPrint
|  4>
|  5> %basis
|  6>         Basis "6-31G"
|  7> end
|  8>
|  9> %geom
| 10> Constraints
| 11> { D 4  0  15  12  270.0   C } # D for Dihedral angle
| 12> { D 0  15  12  16  165.0   C } # D for Dihedral angle
| 13> { D 0  4  3  2   C } # D for Dihedral angle
| 14> { D 4  3  2  1   C } # D for Dihedral angle
| 15> { D 3  2  1  0   C } # D for Dihedral angle
| 16> { D 2  1  0  4   C } # D for Dihedral angle
| 17> { D 1  0  4  3   C } # D for Dihedral angle
| 18> { D 16  20  19  18   C } # D for Dihedral angle
| 19> { D 20  19  18  17   C } # D for Dihedral angle
| 20> { D 19  18  17  16   C } # D for Dihedral angle
| 21> { D 18  17  16  20   C } # D for Dihedral angle
| 22> { D 17  16  20  19   C } # D for Dihedral angle
| 23> { D 15  12  16  20   C } # D for Dihedral angle
| 24> end
| 25> end
| 26>
| 27>
| 28> #%pal
| 29> #nprocs 8
| 30> #end
| 31>
| 32> * xyz 0 1
| 33> C  -21.048   26.222   46.251
| 34> C  -20.361   27.558   45.944
| 35> C  -20.329   28.222   47.341
| 36> C  -20.110   27.022   48.296
| 37> O  -20.473   25.807   47.535
| 38> H  -20.833   25.428   45.533
| 39> H  -19.344   27.382   45.576
| 40> H  -20.898   28.157   45.201
| 41> H  -19.543   28.978   47.434
| 42> H  -21.289   28.710   47.548
| 43> H  -20.733   27.082   49.195
| 44> H  -19.064   26.913   48.597
| 45> C  -23.420   25.119   46.072
| 46> H  -23.429   24.941   44.990
| 47> H  -22.972   24.243   46.560
| 48> O  -22.586   26.394   46.375
| 49> C  -24.890   25.232   46.562
| 50> C  -24.955   25.571   48.056
| 51> C  -24.679   27.094   48.044
| 52> C  -25.366   27.566   46.738
| 53> O  -25.563   26.358   45.906
| 54> H  -25.432   24.328   46.280
| 55> O  -26.376   25.276   48.607
| 56> H  -24.229   25.013   48.656
| 57> H  -25.072   27.603   48.930
| 58> H  -23.600   27.281   48.001
| 59> H  -24.760   28.290   46.183
| 60> H  -26.355   27.997   46.919
| 61> H  -27.121   25.826   48.021
| 62> *
| 63>
| 64>                          ****END OF INPUT****
 Total Charge           Charge          ....    0
 Multiplicity           Mult            ....    1
 Number of Electrons    NEL             ....  102
FINAL SINGLE POINT ENERGY      -652.838549567599
FINAL SINGLE POINT ENERGY      -652.861877591237
FINAL SINGLE POINT ENERGY      -652.865939464103
FINAL SINGLE POINT ENERGY      -652.867032052055
FINAL SINGLE POINT ENERGY      -652.867153621744
FINAL SINGLE POINT ENERGY      -652.867170348953
                    ***********************HURRAY********************

CARTESIAN COORDINATES (ANGSTROEM)
---------------------------------
  C    -21.086097   26.147655   46.235061
  C    -20.442611   27.497589   45.916661
  C    -20.422918   28.175564   47.306653
  C    -20.164152   26.992884   48.267329
  O    -20.500803   25.766200   47.501646
  H    -20.864306   25.340327   45.531174
  H    -19.424226   27.333569   45.546620
  H    -21.008541   28.056295   45.168744
  H    -19.653859   28.950065   47.386556
  H    -21.394993   28.636061   47.507744
  H    -20.782287   27.027669   49.168109
  H    -19.112733   26.902523   48.555461
  C    -23.316824   25.149780   46.094215
  H    -23.333291   24.950230   45.014929
  H    -22.875409   24.286331   46.611408
  O    -22.513599   26.343805   46.342166
  C    -24.749544   25.341123   46.578942
  C    -24.945451   25.633894   48.073654
  C    -24.732947   27.169919   48.126108
  C    -25.335925   27.650698   46.782120
  O    -25.415139   26.457874   45.905951
  H    -25.304523   24.435557   46.303583
  O    -26.283004   25.246603   48.498253
  H    -24.266178   25.080357   48.722025
  H    -25.234662   27.600992   48.996642
  H    -23.665051   27.387079   48.168137
  H    -24.711435   28.402230   46.292146
  H    -26.353572   28.041614   46.886394
  H    -26.935920   25.608515   47.862572

 Multiplicity           Mult            ....    1
 Number of Electrons    NEL             ....  102
 Basis Dimension        Dim             ....  149

ORBITAL ENERGIES
----------------

  NO   OCC          E(Eh)            E(eV)
   0   2.0000     -19.149560      -521.0860
   1   2.0000     -19.142827      -520.9028
   2   2.0000     -19.136661      -520.7350
   3   2.0000     -19.132994      -520.6352
   4   2.0000     -10.282887      -279.8116
   5   2.0000     -10.234526      -278.4956
   6   2.0000     -10.233482      -278.4672
   7   2.0000     -10.232986      -278.4537
   8   2.0000     -10.228755      -278.3386
   9   2.0000     -10.221963      -278.1537
  10   2.0000     -10.189644      -277.2743
  11   2.0000     -10.188455      -277.2420
  12   2.0000     -10.175613      -276.8925
  13   2.0000      -1.058173       -28.7943
  14   2.0000      -1.030988       -28.0546
  15   2.0000      -1.002938       -27.2913
  16   2.0000      -0.995374       -27.0855
  17   2.0000      -0.792316       -21.5600
  18   2.0000      -0.775409       -21.0999
  19   2.0000      -0.763423       -20.7738
  20   2.0000      -0.732729       -19.9386
  21   2.0000      -0.673418       -18.3246
  22   2.0000      -0.602453       -16.3936
  23   2.0000      -0.597340       -16.2545
  24   2.0000      -0.594495       -16.1770
  25   2.0000      -0.580501       -15.7962
  26   2.0000      -0.526015       -14.3136
  27   2.0000      -0.505435       -13.7536
  28   2.0000      -0.498715       -13.5707
  29   2.0000      -0.485651       -13.2152
  30   2.0000      -0.474047       -12.8995
  31   2.0000      -0.459919       -12.5150
  32   2.0000      -0.446737       -12.1563
  33   2.0000      -0.435336       -11.8461
  34   2.0000      -0.423138       -11.5142
  35   2.0000      -0.411404       -11.1949
  36   2.0000      -0.405338       -11.0298
  37   2.0000      -0.385924       -10.5015
  38   2.0000      -0.376177       -10.2363
  39   2.0000      -0.366226        -9.9655
  40   2.0000      -0.360031        -9.7970
  41   2.0000      -0.356244        -9.6939
  42   2.0000      -0.349408        -9.5079
  43   2.0000      -0.331781        -9.0282
  44   2.0000      -0.322897        -8.7865
  45   2.0000      -0.307856        -8.3772
  46   2.0000      -0.300456        -8.1758
  47   2.0000      -0.273440        -7.4407
  48   2.0000      -0.264766        -7.2047
  49   2.0000      -0.253055        -6.8860
  50   2.0000      -0.241560        -6.5732
  51   0.0000       0.063785         1.7357
  52   0.0000       0.082930         2.2566
  53   0.0000       0.089286         2.4296
  54   0.0000       0.103119         2.8060
  55   0.0000       0.105268         2.8645

MULLIKEN ATOMIC CHARGES
-----------------------
   0 C :    0.284742
   1 C :   -0.257140
   2 C :   -0.305202
   3 C :   -0.002286
   4 O :   -0.508952
   5 H :    0.144559
   6 H :    0.146681
   7 H :    0.156969
   8 H :    0.144204
   9 H :    0.160347
  10 H :    0.146925
  11 H :    0.144390
  12 C :    0.005151
  13 H :    0.145298
  14 H :    0.142760
  15 O :   -0.523579
  16 C :    0.059880
  17 C :    0.074870
  18 C :   -0.286494
  19 C :   -0.021101
  20 O :   -0.526640
  21 H :    0.155601
  22 O :   -0.603134
  23 H :    0.157289
  24 H :    0.144789
  25 H :    0.171042
  26 H :    0.149853
  27 H :    0.136747
  28 H :    0.362431
Sum of atomic charges:    0.0000000

LOEWDIN ATOMIC CHARGES
----------------------
   0 C :    0.172893
   1 C :   -0.215457
   2 C :   -0.216918
   3 C :   -0.027942
   4 O :   -0.327809
   5 H :    0.099798
   6 H :    0.114999
   7 H :    0.124124
   8 H :    0.114955
   9 H :    0.115911
  10 H :    0.104843
  11 H :    0.103893
  12 C :   -0.038063
  13 H :    0.104289
  14 H :    0.104898
  15 O :   -0.329832
  16 C :    0.014424
  17 C :    0.039479
  18 C :   -0.240787
  19 C :   -0.033684
  20 O :   -0.330849
  21 H :    0.116309
  22 O :   -0.416939
  23 H :    0.118916
  24 H :    0.117189
  25 H :    0.126182
  26 H :    0.107149
  27 H :    0.096425
  28 H :    0.281604

  Mayer bond orders larger than 0.100000
B(  0-C ,  1-C ) :   0.9467 B(  0-C ,  4-O ) :   0.9141 B(  0-C ,  5-H ) :   0.9189
B(  0-C , 15-O ) :   0.8539 B(  1-C ,  2-C ) :   0.9564 B(  1-C ,  6-H ) :   0.9393
B(  1-C ,  7-H ) :   0.9364 B(  2-C ,  3-C ) :   0.9543 B(  2-C ,  8-H ) :   0.9450
B(  2-C ,  9-H ) :   0.9429 B(  3-C ,  4-O ) :   0.8380 B(  3-C , 10-H ) :   0.9347
B(  3-C , 11-H ) :   0.9397 B( 12-C , 13-H ) :   0.9184 B( 12-C , 14-H ) :   0.9077
B( 12-C , 15-O ) :   0.8355 B( 12-C , 16-C ) :   0.9162 B( 16-C , 17-C ) :   0.9088
B( 16-C , 20-O ) :   0.8716 B( 16-C , 21-H ) :   0.9216 B( 17-C , 18-C ) :   0.9238
B( 17-C , 22-O ) :   0.8898 B( 17-C , 23-H ) :   0.9338 B( 18-C , 19-C ) :   0.9478
B( 18-C , 24-H ) :   0.9377 B( 18-C , 25-H ) :   0.9177 B( 19-C , 20-O ) :   0.8404
B( 19-C , 26-H ) :   0.9341 B( 19-C , 27-H ) :   0.9368 B( 22-O , 28-H ) :   0.7959

FINAL SINGLE POINT ENERGY      -652.867170148815

DIPOLE MOMENT
-------------
                                X             Y             Z
Electronic contribution:     -3.52075      -4.26392      -1.06637
Nuclear contribution   :      4.34032       5.02008       0.79660
                        -----------------------------------------
Total Dipole Moment    :      0.81956       0.75616      -0.26977
                        -----------------------------------------
Magnitude (a.u.)       :      1.14728
Magnitude (Debye)      :      2.91614

Rotational constants in cm-1:     0.050124     0.014756     0.014588
Rotational constants in MHz :  1502.674978   442.363306   437.333509

                             ****ORCA TERMINATED NORMALLY****
TOTAL RUN TIME: 0 days 1 hours 11 minutes 20 seconds 163 msec
