                         Program Version 4.2.0 -  RELEASE  -
|  1> # Test redundant internal optimization
|  2> #
|  3> ! RKS B3LYP  Opt TightSCF SmallPrint
|  4>
|  5> %basis
|  6>         Basis "6-31G"
|  7> end
|  8>
|  9> %geom
| 10> Constraints
| 11> { D 4  0  15  12  120.0   C } # D for Dihedral angle
| 12> { D 0  15  12  16  90.0   C } # D for Dihedral angle
| 13> { D 0  4  3  2   C } # D for Dihedral angle
| 14> { D 4  3  2  1   C } # D for Dihedral angle
| 15> { D 3  2  1  0   C } # D for Dihedral angle
| 16> { D 2  1  0  4   C } # D for Dihedral angle
| 17> { D 1  0  4  3   C } # D for Dihedral angle
| 18> { D 16  20  19  18   C } # D for Dihedral angle
| 19> { D 20  19  18  17   C } # D for Dihedral angle
| 20> { D 19  18  17  16   C } # D for Dihedral angle
| 21> { D 18  17  16  20   C } # D for Dihedral angle
| 22> { D 17  16  20  19   C } # D for Dihedral angle
| 23> { D 15  12  16  20   C } # D for Dihedral angle
| 24> end
| 25> end
| 26>
| 27>
| 28> #%pal
| 29> #nprocs 8
| 30> #end
| 31>
| 32> * xyz 0 1
| 33> C  -21.048   26.222   46.251
| 34> C  -20.361   27.558   45.944
| 35> C  -20.329   28.222   47.341
| 36> C  -20.110   27.022   48.296
| 37> O  -20.473   25.807   47.535
| 38> H  -20.833   25.428   45.533
| 39> H  -19.344   27.382   45.576
| 40> H  -20.898   28.157   45.201
| 41> H  -19.543   28.978   47.434
| 42> H  -21.289   28.710   47.548
| 43> H  -20.733   27.082   49.195
| 44> H  -19.064   26.913   48.597
| 45> C  -23.119   27.818   46.058
| 46> H  -24.020   28.008   46.654
| 47> H  -22.369   28.576   46.319
| 48> O  -22.586   26.394   46.375
| 49> C  -23.477   28.005   44.557
| 50> C  -24.642   27.098   44.146
| 51> C  -25.858   27.882   44.693
| 52> C  -25.441   29.361   44.494
| 53> O  -23.974   29.363   44.314
| 54> H  -22.574   27.882   43.956
| 55> O  -24.710   26.988   42.598
| 56> H  -24.567   26.086   44.559
| 57> H  -26.790   27.638   44.172
| 58> H  -26.001   27.660   45.757
| 59> H  -25.699   29.988   45.354
| 60> H  -25.877   29.800   43.593
| 61> H  -24.786   27.991   42.161
| 62> *
| 63>
| 64>                          ****END OF INPUT****
 Total Charge           Charge          ....    0
 Multiplicity           Mult            ....    1
 Number of Electrons    NEL             ....  102
FINAL SINGLE POINT ENERGY      -652.822203955339
FINAL SINGLE POINT ENERGY      -652.846332117341
FINAL SINGLE POINT ENERGY      -652.853315520641
FINAL SINGLE POINT ENERGY      -652.855462429897
FINAL SINGLE POINT ENERGY      -652.855757438800
FINAL SINGLE POINT ENERGY      -652.855813500119
                    ***********************HURRAY********************

CARTESIAN COORDINATES (ANGSTROEM)
---------------------------------
  C    -21.186191   26.346780   46.282349
  C    -20.252439   27.513197   45.938628
  C    -20.069470   28.204468   47.321272
  C    -20.082508   27.001624   48.295791
  O    -20.692046   25.876814   47.550359
  H    -21.107056   25.494084   45.605940
  H    -19.300885   27.097081   45.592529
  H    -20.629728   28.183985   45.162569
  H    -19.134410   28.770070   47.377815
  H    -20.889586   28.896106   47.534871
  H    -20.668488   27.187735   49.200101
  H    -19.075804   26.682606   48.580330
  C    -23.196707   27.937498   46.103531
  H    -24.092208   27.978219   46.730224
  H    -22.544861   28.765251   46.397006
  O    -22.612658   26.629978   46.358300
  C    -23.557013   28.099848   44.623883
  C    -24.619857   27.121974   44.104040
  C    -25.926498   27.787805   44.601863
  C    -25.621075   29.302008   44.487275
  O    -24.143335   29.427578   44.401322
  H    -22.653352   28.046121   44.008589
  O    -24.573609   27.031003   42.652300
  H    -24.477007   26.106074   44.469520
  H    -26.776949   27.477038   43.990356
  H    -26.127629   27.498017   45.638704
  H    -25.976766   29.875896   45.348537
  H    -26.034821   29.747499   43.577051
  H    -24.492044   27.932640   42.275946

 Multiplicity           Mult            ....    1
 Number of Electrons    NEL             ....  102
 Basis Dimension        Dim             ....  149

ORBITAL ENERGIES
----------------

  NO   OCC          E(Eh)            E(eV)
   0   2.0000     -19.148027      -521.0443
   1   2.0000     -19.143560      -520.9227
   2   2.0000     -19.139757      -520.8193
   3   2.0000     -19.136784      -520.7384
   4   2.0000     -10.281849      -279.7833
   5   2.0000     -10.237232      -278.5692
   6   2.0000     -10.234643      -278.4988
   7   2.0000     -10.234371      -278.4914
   8   2.0000     -10.234242      -278.4879
   9   2.0000     -10.228348      -278.3275
  10   2.0000     -10.196533      -277.4618
  11   2.0000     -10.195543      -277.4348
  12   2.0000     -10.188841      -277.2525
  13   2.0000      -1.051554       -28.6142
  14   2.0000      -1.037927       -28.2434
  15   2.0000      -1.006208       -27.3803
  16   2.0000      -0.995982       -27.1020
  17   2.0000      -0.791571       -21.5397
  18   2.0000      -0.782476       -21.2923
  19   2.0000      -0.770746       -20.9731
  20   2.0000      -0.736395       -20.0383
  21   2.0000      -0.681683       -18.5495
  22   2.0000      -0.607372       -16.5274
  23   2.0000      -0.604173       -16.4404
  24   2.0000      -0.603535       -16.4230
  25   2.0000      -0.573142       -15.5960
  26   2.0000      -0.530120       -14.4253
  27   2.0000      -0.512260       -13.9393
  28   2.0000      -0.502119       -13.6634
  29   2.0000      -0.493340       -13.4245
  30   2.0000      -0.475106       -12.9283
  31   2.0000      -0.461527       -12.5588
  32   2.0000      -0.449362       -12.2278
  33   2.0000      -0.440749       -11.9934
  34   2.0000      -0.429259       -11.6807
  35   2.0000      -0.413890       -11.2625
  36   2.0000      -0.409228       -11.1357
  37   2.0000      -0.394134       -10.7249
  38   2.0000      -0.385370       -10.4864
  39   2.0000      -0.371409       -10.1066
  40   2.0000      -0.364727        -9.9247
  41   2.0000      -0.359297        -9.7770
  42   2.0000      -0.357023        -9.7151
  43   2.0000      -0.332295        -9.0422
  44   2.0000      -0.316811        -8.6209
  45   2.0000      -0.309534        -8.4229
  46   2.0000      -0.294109        -8.0031
  47   2.0000      -0.279432        -7.6037
  48   2.0000      -0.267288        -7.2733
  49   2.0000      -0.258179        -7.0254
  50   2.0000      -0.241346        -6.5673
  51   0.0000       0.062226         1.6932
  52   0.0000       0.070118         1.9080
  53   0.0000       0.086614         2.3569
  54   0.0000       0.095611         2.6017
  55   0.0000       0.099503         2.7076

MULLIKEN ATOMIC CHARGES
-----------------------
   0 C :    0.318504
   1 C :   -0.308872
   2 C :   -0.311095
   3 C :   -0.003866
   4 O :   -0.495014
   5 H :    0.162945
   6 H :    0.160060
   7 H :    0.152594
   8 H :    0.147971
   9 H :    0.156039
  10 H :    0.149538
  11 H :    0.146028
  12 C :   -0.019164
  13 H :    0.151808
  14 H :    0.142946
  15 O :   -0.529897
  16 C :    0.051075
  17 C :    0.090464
  18 C :   -0.297346
  19 C :   -0.031942
  20 O :   -0.528573
  21 H :    0.154994
  22 O :   -0.604113
  23 H :    0.177563
  24 H :    0.162413
  25 H :    0.148317
  26 H :    0.148426
  27 H :    0.146692
  28 H :    0.361507
Sum of atomic charges:   -0.0000000

LOEWDIN ATOMIC CHARGES
----------------------
   0 C :    0.180794
   1 C :   -0.233198
   2 C :   -0.221094
   3 C :   -0.029819
   4 O :   -0.311281
   5 H :    0.108853
   6 H :    0.125201
   7 H :    0.117170
   8 H :    0.117219
   9 H :    0.110875
  10 H :    0.106174
  11 H :    0.104465
  12 C :   -0.041732
  13 H :    0.111704
  14 H :    0.102861
  15 O :   -0.330147
  16 C :    0.003487
  17 C :    0.037762
  18 C :   -0.240203
  19 C :   -0.038050
  20 O :   -0.333790
  21 H :    0.108798
  22 O :   -0.415595
  23 H :    0.128562
  24 H :    0.127168
  25 H :    0.115796
  26 H :    0.104708
  27 H :    0.102587
  28 H :    0.280726

  Mayer bond orders larger than 0.100000
B(  0-C ,  1-C ) :   0.9309 B(  0-C ,  4-O ) :   0.9204 B(  0-C ,  5-H ) :   0.9312
B(  0-C , 15-O ) :   0.8598 B(  1-C ,  2-C ) :   0.9503 B(  1-C ,  6-H ) :   0.9338
B(  1-C ,  7-H ) :   0.9261 B(  2-C ,  3-C ) :   0.9481 B(  2-C ,  8-H ) :   0.9452
B(  2-C ,  9-H ) :   0.9368 B(  3-C ,  4-O ) :   0.8444 B(  3-C , 10-H ) :   0.9343
B(  3-C , 11-H ) :   0.9393 B( 12-C , 13-H ) :   0.9378 B( 12-C , 14-H ) :   0.9040
B( 12-C , 15-O ) :   0.8439 B( 12-C , 16-C ) :   0.8761 B( 16-C , 17-C ) :   0.9115
B( 16-C , 20-O ) :   0.8436 B( 16-C , 21-H ) :   0.9234 B( 17-C , 18-C ) :   0.9150
B( 17-C , 22-O ) :   0.8888 B( 17-C , 23-H ) :   0.9232 B( 18-C , 19-C ) :   0.9400
B( 18-C , 24-H ) :   0.9380 B( 18-C , 25-H ) :   0.9340 B( 19-C , 20-O ) :   0.8399
B( 19-C , 26-H ) :   0.9355 B( 19-C , 27-H ) :   0.9382 B( 22-O , 28-H ) :   0.7969

FINAL SINGLE POINT ENERGY      -652.855819154063

DIPOLE MOMENT
-------------
                                X             Y             Z
Electronic contribution:     -0.90884      -3.27330      -1.89518
Nuclear contribution   :      1.08025       4.48494       2.13455
                        -----------------------------------------
Total Dipole Moment    :      0.17141       1.21164       0.23937
                        -----------------------------------------
Magnitude (a.u.)       :      1.24689
Magnitude (Debye)      :      3.16935

Rotational constants in cm-1:     0.060051     0.012616     0.012054
Rotational constants in MHz :  1800.295923   378.212028   361.383954

                             ****ORCA TERMINATED NORMALLY****
TOTAL RUN TIME: 0 days 1 hours 8 minutes 41 seconds 321 msec
