                         Program Version 4.2.0 -  RELEASE  -
|  1> # Test redundant internal optimization
|  2> #
|  3> ! RKS B3LYP  Opt TightSCF SmallPrint
|  4>
|  5> %basis
|  6>         Basis "6-31G"
|  7> end
|  8>
|  9> %geom
| 10> Constraints
| 11> { D 4  0  15  12  75.0   C } # D for Dihedral angle
| 12> { D 0  15  12  16  195.0   C } # D for Dihedral angle
| 13> { D 0  4  3  2   C } # D for Dihedral angle
| 14> { D 4  3  2  1   C } # D for Dihedral angle
| 15> { D 3  2  1  0   C } # D for Dihedral angle
| 16> { D 2  1  0  4   C } # D for Dihedral angle
| 17> { D 1  0  4  3   C } # D for Dihedral angle
| 18> { D 16  20  19  18   C } # D for Dihedral angle
| 19> { D 20  19  18  17   C } # D for Dihedral angle
| 20> { D 19  18  17  16   C } # D for Dihedral angle
| 21> { D 18  17  16  20   C } # D for Dihedral angle
| 22> { D 17  16  20  19   C } # D for Dihedral angle
| 23> { D 15  12  16  20   C } # D for Dihedral angle
| 24> end
| 25> end
| 26>
| 27>
| 28> #%pal
| 29> #nprocs 8
| 30> #end
| 31>
| 32> * xyz 0 1
| 33> C  -21.048   26.222   46.251
| 34> C  -20.361   27.558   45.944
| 35> C  -20.329   28.222   47.341
| 36> C  -20.110   27.022   48.296
| 37> O  -20.473   25.807   47.535
| 38> H  -20.833   25.428   45.533
| 39> H  -19.344   27.382   45.576
| 40> H  -20.898   28.157   45.201
| 41> H  -19.543   28.978   47.434
| 42> H  -21.289   28.710   47.548
| 43> H  -20.733   27.082   49.195
| 44> H  -19.064   26.913   48.597
| 45> C  -23.049   27.675   47.122
| 46> H  -22.442   27.806   48.026
| 47> H  -22.914   28.560   46.487
| 48> O  -22.586   26.394   46.375
| 49> C  -24.544   27.618   47.541
| 50> C  -25.451   27.345   46.335
| 51> C  -25.284   25.817   46.157
| 52> C  -25.140   25.306   47.612
| 53> O  -24.783   26.481   48.437
| 54> H  -24.794   28.522   48.099
| 55> O  -26.922   27.698   46.685
| 56> H  -25.163   27.911   45.443
| 57> H  -26.128   25.356   45.634
| 58> H  -24.375   25.603   45.581
| 59> H  -24.359   24.545   47.715
| 60> H  -26.078   24.907   48.009
| 61> H  -27.233   27.142   47.576
| 62> *
| 63>
| 64>                          ****END OF INPUT****
 Total Charge           Charge          ....    0
 Multiplicity           Mult            ....    1
 Number of Electrons    NEL             ....  102
FINAL SINGLE POINT ENERGY      -652.813384557994
FINAL SINGLE POINT ENERGY      -652.841467447828
FINAL SINGLE POINT ENERGY      -652.856154036209
FINAL SINGLE POINT ENERGY      -652.858734972197
FINAL SINGLE POINT ENERGY      -652.859083314673
FINAL SINGLE POINT ENERGY      -652.859136625130
FINAL SINGLE POINT ENERGY      -652.859143342789
                    ***********************HURRAY********************

CARTESIAN COORDINATES (ANGSTROEM)
---------------------------------
  C    -21.186538   26.368039   46.437145
  C    -20.325759   27.549195   45.967165
  C    -20.011721   28.277095   47.306860
  C    -19.885665   27.099090   48.306776
  O    -20.544014   25.938008   47.657210
  H    -21.141094   25.510034   45.764909
  H    -19.409237   27.154918   45.517149
  H    -20.831444   28.182581   45.232862
  H    -19.087736   28.861201   47.251363
  H    -20.817222   28.960713   47.584976
  H    -20.373072   27.291517   49.266986
  H    -18.844721   26.814499   48.485179
  C    -23.160606   27.741425   47.218085
  H    -22.661327   27.890244   48.182107
  H    -23.034723   28.643633   46.601875
  O    -22.610592   26.573925   46.547140
  C    -24.644979   27.521036   47.511292
  C    -25.559769   27.268995   46.304108
  C    -25.376169   25.744326   46.079376
  C    -25.214039   25.197935   47.519032
  O    -24.863152   26.360878   48.370767
  H    -24.998043   28.398814   48.066483
  O    -26.935502   27.622119   46.625518
  H    -25.309297   27.869012   45.428665
  H    -26.240658   25.323527   45.557951
  H    -24.470134   25.569103   45.498140
  H    -24.412846   24.458968   47.595818
  H    -26.139302   24.773449   47.922747
  H    -27.180637   27.202720   47.477316

 Multiplicity           Mult            ....    1
 Number of Electrons    NEL             ....  102
 Basis Dimension        Dim             ....  149

ORBITAL ENERGIES
----------------

  NO   OCC          E(Eh)            E(eV)
   0   2.0000     -19.150813      -521.1201
   1   2.0000     -19.143965      -520.9338
   2   2.0000     -19.134490      -520.6759
   3   2.0000     -19.132891      -520.6324
   4   2.0000     -10.283076      -279.8167
   5   2.0000     -10.236326      -278.5446
   6   2.0000     -10.234059      -278.4829
   7   2.0000     -10.233045      -278.4553
   8   2.0000     -10.231792      -278.4212
   9   2.0000     -10.217998      -278.0458
  10   2.0000     -10.196761      -277.4680
  11   2.0000     -10.196090      -277.4497
  12   2.0000     -10.172271      -276.8016
  13   2.0000      -1.056674       -28.7536
  14   2.0000      -1.029948       -28.0263
  15   2.0000      -1.003884       -27.3171
  16   2.0000      -0.995475       -27.0882
  17   2.0000      -0.792684       -21.5700
  18   2.0000      -0.780429       -21.2366
  19   2.0000      -0.762551       -20.7501
  20   2.0000      -0.734799       -19.9949
  21   2.0000      -0.677857       -18.4454
  22   2.0000      -0.608445       -16.5566
  23   2.0000      -0.604042       -16.4368
  24   2.0000      -0.593703       -16.1555
  25   2.0000      -0.569073       -15.4853
  26   2.0000      -0.523742       -14.2517
  27   2.0000      -0.511749       -13.9254
  28   2.0000      -0.501575       -13.6485
  29   2.0000      -0.483021       -13.1437
  30   2.0000      -0.476904       -12.9772
  31   2.0000      -0.457758       -12.4562
  32   2.0000      -0.449175       -12.2227
  33   2.0000      -0.435994       -11.8640
  34   2.0000      -0.424476       -11.5506
  35   2.0000      -0.417030       -11.3480
  36   2.0000      -0.403442       -10.9782
  37   2.0000      -0.387093       -10.5333
  38   2.0000      -0.383434       -10.4338
  39   2.0000      -0.365470        -9.9450
  40   2.0000      -0.364243        -9.9116
  41   2.0000      -0.359328        -9.7778
  42   2.0000      -0.349490        -9.5101
  43   2.0000      -0.325644        -8.8612
  44   2.0000      -0.318025        -8.6539
  45   2.0000      -0.307843        -8.3768
  46   2.0000      -0.296764        -8.0754
  47   2.0000      -0.274101        -7.4587
  48   2.0000      -0.262713        -7.1488
  49   2.0000      -0.256963        -6.9923
  50   2.0000      -0.239715        -6.5230
  51   0.0000       0.066993         1.8230
  52   0.0000       0.076408         2.0792
  53   0.0000       0.087426         2.3790
  54   0.0000       0.103691         2.8216
  55   0.0000       0.108234         2.9452

MULLIKEN ATOMIC CHARGES
-----------------------
   0 C :    0.306566
   1 C :   -0.283100
   2 C :   -0.316112
   3 C :   -0.011487
   4 O :   -0.499108
   5 H :    0.163347
   6 H :    0.157940
   7 H :    0.148622
   8 H :    0.147535
   9 H :    0.148627
  10 H :    0.151086
  11 H :    0.148167
  12 C :    0.004845
  13 H :    0.151134
  14 H :    0.123892
  15 O :   -0.525176
  16 C :    0.064765
  17 C :    0.075526
  18 C :   -0.284761
  19 C :   -0.020396
  20 O :   -0.524297
  21 H :    0.153105
  22 O :   -0.605250
  23 H :    0.147541
  24 H :    0.145809
  25 H :    0.174989
  26 H :    0.161068
  27 H :    0.132094
  28 H :    0.363032
Sum of atomic charges:   -0.0000000

LOEWDIN ATOMIC CHARGES
----------------------
   0 C :    0.174618
   1 C :   -0.229374
   2 C :   -0.224874
   3 C :   -0.033237
   4 O :   -0.317446
   5 H :    0.111994
   6 H :    0.123284
   7 H :    0.117697
   8 H :    0.116791
   9 H :    0.109978
  10 H :    0.105319
  11 H :    0.105311
  12 C :   -0.040644
  13 H :    0.106795
  14 H :    0.092480
  15 O :   -0.318874
  16 C :    0.015680
  17 C :    0.039087
  18 C :   -0.241459
  19 C :   -0.032507
  20 O :   -0.327827
  21 H :    0.114684
  22 O :   -0.418794
  23 H :    0.113933
  24 H :    0.116954
  25 H :    0.130680
  26 H :    0.112895
  27 H :    0.094788
  28 H :    0.282067

  Mayer bond orders larger than 0.100000
B(  0-C ,  1-C ) :   0.9208 B(  0-C ,  4-O ) :   0.9110 B(  0-C ,  5-H ) :   0.9369
B(  0-C , 15-O ) :   0.8895 B(  1-C ,  2-C ) :   0.9544 B(  1-C ,  6-H ) :   0.9354
B(  1-C ,  7-H ) :   0.9362 B(  2-C ,  3-C ) :   0.9478 B(  2-C ,  8-H ) :   0.9451
B(  2-C ,  9-H ) :   0.9402 B(  3-C ,  4-O ) :   0.8439 B(  3-C , 10-H ) :   0.9322
B(  3-C , 11-H ) :   0.9385 B( 12-C , 13-H ) :   0.9094 B( 12-C , 14-H ) :   0.9073
B( 12-C , 15-O ) :   0.8433 B( 12-C , 16-C ) :   0.9011 B( 16-C , 17-C ) :   0.9078
B( 16-C , 20-O ) :   0.8832 B( 16-C , 21-H ) :   0.9230 B( 17-C , 18-C ) :   0.9255
B( 17-C , 22-O ) :   0.8898 B( 17-C , 23-H ) :   0.9363 B( 18-C , 19-C ) :   0.9453
B( 18-C , 24-H ) :   0.9376 B( 18-C , 25-H ) :   0.9186 B( 19-C , 20-O ) :   0.8350
B( 19-C , 26-H ) :   0.9327 B( 19-C , 27-H ) :   0.9376 B( 22-O , 28-H ) :   0.7956

FINAL SINGLE POINT ENERGY      -652.859142242079

DIPOLE MOMENT
-------------
                                X             Y             Z
Electronic contribution:     -3.72969      -2.23121       1.29616
Nuclear contribution   :      4.78125       2.90555      -1.66834
                        -----------------------------------------
Total Dipole Moment    :      1.05156       0.67435      -0.37218
                        -----------------------------------------
Magnitude (a.u.)       :      1.30348
Magnitude (Debye)      :      3.31317

Rotational constants in cm-1:     0.060053     0.013688     0.013232
Rotational constants in MHz :  1800.343717   410.341750   396.689090

                             ****ORCA TERMINATED NORMALLY****
TOTAL RUN TIME: 0 days 0 hours 29 minutes 6 seconds 118 msec
