                         Program Version 4.2.0 -  RELEASE  -
|  1> # Test redundant internal optimization
|  2> #
|  3> ! RKS B3LYP  Opt TightSCF SmallPrint
|  4>
|  5> %basis
|  6>         Basis "6-31G"
|  7> end
|  8>
|  9> %geom
| 10> Constraints
| 11> { D 4  0  15  12  315.0   C } # D for Dihedral angle
| 12> { D 0  15  12  16  225.0   C } # D for Dihedral angle
| 13> { D 0  4  3  2   C } # D for Dihedral angle
| 14> { D 4  3  2  1   C } # D for Dihedral angle
| 15> { D 3  2  1  0   C } # D for Dihedral angle
| 16> { D 2  1  0  4   C } # D for Dihedral angle
| 17> { D 1  0  4  3   C } # D for Dihedral angle
| 18> { D 16  20  19  18   C } # D for Dihedral angle
| 19> { D 20  19  18  17   C } # D for Dihedral angle
| 20> { D 19  18  17  16   C } # D for Dihedral angle
| 21> { D 18  17  16  20   C } # D for Dihedral angle
| 22> { D 17  16  20  19   C } # D for Dihedral angle
| 23> { D 15  12  16  20   C } # D for Dihedral angle
| 24> end
| 25> end
| 26>
| 27>
| 28> #%pal
| 29> #nprocs 8
| 30> #end
| 31>
| 32> * xyz 0 1
| 33> C  -21.048   26.222   46.251
| 34> C  -20.361   27.558   45.944
| 35> C  -20.329   28.222   47.341
| 36> C  -20.110   27.022   48.296
| 37> O  -20.473   25.807   47.535
| 38> H  -20.833   25.428   45.533
| 39> H  -19.344   27.382   45.576
| 40> H  -20.898   28.157   45.201
| 41> H  -19.543   28.978   47.434
| 42> H  -21.289   28.710   47.548
| 43> H  -20.733   27.082   49.195
| 44> H  -19.064   26.913   48.597
| 45> C  -23.319   25.255   47.135
| 46> H  -22.647   24.393   47.231
| 47> H  -23.600   25.584   48.144
| 48> O  -22.586   26.394   46.375
| 49> C  -24.613   24.787   46.413
| 50> C  -24.294   24.151   45.056
| 51> C  -23.831   22.735   45.474
| 52> C  -24.728   22.419   46.697
| 53> O  -25.263   23.713   47.172
| 54> H  -25.318   25.619   46.368
| 55> H  -25.202   24.095   44.444
| 56> O  -23.212   24.927   44.257
| 57> H  -23.943   21.998   44.673
| 58> H  -22.774   22.755   45.764
| 59> H  -24.173   21.940   47.511
| 60> H  -25.584   21.792   46.436
| 61> H  -22.294   24.994   44.851
| 62> *
| 63>
| 64>                          ****END OF INPUT****
 Total Charge           Charge          ....    0
 Multiplicity           Mult            ....    1
 Number of Electrons    NEL             ....  102
FINAL SINGLE POINT ENERGY      -652.824875295089
FINAL SINGLE POINT ENERGY      -652.851887945092
FINAL SINGLE POINT ENERGY      -652.858799735698
FINAL SINGLE POINT ENERGY      -652.861775885772
FINAL SINGLE POINT ENERGY      -652.863134956140
FINAL SINGLE POINT ENERGY      -652.864436934996
FINAL SINGLE POINT ENERGY      -652.865820040770
FINAL SINGLE POINT ENERGY      -652.866906661258
FINAL SINGLE POINT ENERGY      -652.867697672023
FINAL SINGLE POINT ENERGY      -652.868098572968
FINAL SINGLE POINT ENERGY      -652.868045562576
FINAL SINGLE POINT ENERGY      -652.868219392313
FINAL SINGLE POINT ENERGY      -652.868226108018
FINAL SINGLE POINT ENERGY      -652.868227010019
                    ***********************HURRAY********************

CARTESIAN COORDINATES (ANGSTROEM)
---------------------------------
  C    -21.030417   26.110867   46.317237
  C    -20.417462   27.462248   45.957575
  C    -20.419249   28.182333   47.323156
  C    -20.138246   27.043858   48.326200
  O    -20.446165   25.781017   47.592783
  H    -20.808306   25.275403   45.647696
  H    -19.397413   27.303951   45.590484
  H    -20.989886   27.992195   45.192850
  H    -19.669627   28.977613   47.378992
  H    -21.404011   28.622734   47.503794
  H    -20.762493   27.089420   49.221817
  H    -19.087004   26.979656   48.619698
  C    -23.201554   25.254834   47.170380
  H    -22.536108   24.409284   47.367854
  H    -23.499858   25.683376   48.130496
  O    -22.480124   26.285016   46.394547
  C    -24.446810   24.815889   46.391393
  C    -24.179982   24.144779   45.035077
  C    -23.804285   22.698232   45.466229
  C    -24.707207   22.455670   46.694518
  O    -25.156135   23.797196   47.162790
  H    -25.130471   25.665283   46.294497
  H    -25.115521   24.129495   44.461095
  O    -23.142434   24.753309   44.230632
  H    -23.975291   21.973065   44.665673
  H    -22.740113   22.677597   45.721055
  H    -24.189322   21.950686   47.516065
  H    -25.612279   21.892432   46.448646
  H    -22.918227   25.624565   44.628773

 Multiplicity           Mult            ....    1
 Number of Electrons    NEL             ....  102
 Basis Dimension        Dim             ....  149

ORBITAL ENERGIES
----------------

  NO   OCC          E(Eh)            E(eV)
   0   2.0000     -19.159070      -521.3448
   1   2.0000     -19.153254      -521.1865
   2   2.0000     -19.139808      -520.8207
   3   2.0000     -19.123844      -520.3863
   4   2.0000     -10.286861      -279.9197
   5   2.0000     -10.233995      -278.4812
   6   2.0000     -10.233278      -278.4616
   7   2.0000     -10.232997      -278.4540
   8   2.0000     -10.230009      -278.3727
   9   2.0000     -10.226406      -278.2747
  10   2.0000     -10.193005      -277.3658
  11   2.0000     -10.192283      -277.3461
  12   2.0000     -10.180811      -277.0339
  13   2.0000      -1.064040       -28.9540
  14   2.0000      -1.026497       -27.9324
  15   2.0000      -1.005993       -27.3745
  16   2.0000      -0.995917       -27.1003
  17   2.0000      -0.796863       -21.6838
  18   2.0000      -0.773280       -21.0420
  19   2.0000      -0.766691       -20.8627
  20   2.0000      -0.734925       -19.9983
  21   2.0000      -0.675695       -18.3866
  22   2.0000      -0.607935       -16.5428
  23   2.0000      -0.597951       -16.2711
  24   2.0000      -0.594890       -16.1878
  25   2.0000      -0.576251       -15.6806
  26   2.0000      -0.525870       -14.3097
  27   2.0000      -0.518423       -14.1070
  28   2.0000      -0.498796       -13.5729
  29   2.0000      -0.492315       -13.3966
  30   2.0000      -0.471320       -12.8253
  31   2.0000      -0.456018       -12.4089
  32   2.0000      -0.442801       -12.0492
  33   2.0000      -0.436131       -11.8677
  34   2.0000      -0.426986       -11.6189
  35   2.0000      -0.413165       -11.2428
  36   2.0000      -0.410243       -11.1633
  37   2.0000      -0.387279       -10.5384
  38   2.0000      -0.378889       -10.3101
  39   2.0000      -0.366887        -9.9835
  40   2.0000      -0.364845        -9.9279
  41   2.0000      -0.358037        -9.7427
  42   2.0000      -0.353155        -9.6098
  43   2.0000      -0.338925        -9.2226
  44   2.0000      -0.335491        -9.1292
  45   2.0000      -0.309712        -8.4277
  46   2.0000      -0.292637        -7.9630
  47   2.0000      -0.276735        -7.5303
  48   2.0000      -0.269197        -7.3252
  49   2.0000      -0.253702        -6.9036
  50   2.0000      -0.242470        -6.5979
  51   0.0000       0.059493         1.6189
  52   0.0000       0.079190         2.1549
  53   0.0000       0.093916         2.5556
  54   0.0000       0.098516         2.6808
  55   0.0000       0.107403         2.9226

MULLIKEN ATOMIC CHARGES
-----------------------
   0 C :    0.277682
   1 C :   -0.262201
   2 C :   -0.300290
   3 C :   -0.010239
   4 O :   -0.513015
   5 H :    0.166813
   6 H :    0.151900
   7 H :    0.158838
   8 H :    0.146301
   9 H :    0.163513
  10 H :    0.150900
  11 H :    0.149685
  12 C :   -0.005989
  13 H :    0.162639
  14 H :    0.158137
  15 O :   -0.558155
  16 C :    0.040836
  17 C :    0.112380
  18 C :   -0.300354
  19 C :   -0.023079
  20 O :   -0.518897
  21 H :    0.158236
  22 H :    0.143558
  23 O :   -0.639262
  24 H :    0.153075
  25 H :    0.154093
  26 H :    0.145412
  27 H :    0.150259
  28 H :    0.387224
Sum of atomic charges:    0.0000000

LOEWDIN ATOMIC CHARGES
----------------------
   0 C :    0.169407
   1 C :   -0.214240
   2 C :   -0.216220
   3 C :   -0.028011
   4 O :   -0.321405
   5 H :    0.105993
   6 H :    0.117924
   7 H :    0.124637
   8 H :    0.116492
   9 H :    0.119826
  10 H :    0.107314
  11 H :    0.106740
  12 C :   -0.043529
  13 H :    0.114268
  14 H :    0.114163
  15 O :   -0.347759
  16 C :    0.012414
  17 C :    0.039020
  18 C :   -0.231582
  19 C :   -0.032417
  20 O :   -0.321983
  21 H :    0.113111
  22 H :    0.100540
  23 O :   -0.435041
  24 H :    0.121680
  25 H :    0.115363
  26 H :    0.103476
  27 H :    0.106044
  28 H :    0.283775

  Mayer bond orders larger than 0.100000
B(  0-C ,  1-C ) :   0.9481 B(  0-C ,  4-O ) :   0.9113 B(  0-C ,  5-H ) :   0.9111
B(  0-C , 15-O ) :   0.8055 B(  1-C ,  2-C ) :   0.9527 B(  1-C ,  6-H ) :   0.9376
B(  1-C ,  7-H ) :   0.9361 B(  2-C ,  3-C ) :   0.9565 B(  2-C ,  8-H ) :   0.9444
B(  2-C ,  9-H ) :   0.9441 B(  3-C ,  4-O ) :   0.8273 B(  3-C , 10-H ) :   0.9354
B(  3-C , 11-H ) :   0.9402 B( 12-C , 13-H ) :   0.9182 B( 12-C , 14-H ) :   0.9320
B( 12-C , 15-O ) :   0.7829 B( 12-C , 16-C ) :   0.9035 B( 16-C , 17-C ) :   0.9149
B( 16-C , 20-O ) :   0.8577 B( 16-C , 21-H ) :   0.9282 B( 17-C , 18-C ) :   0.9178
B( 17-C , 22-H ) :   0.9242 B( 17-C , 23-O ) :   0.9157 B( 18-C , 19-C ) :   0.9409
B( 18-C , 24-H ) :   0.9438 B( 18-C , 25-H ) :   0.9401 B( 19-C , 20-O ) :   0.8338
B( 19-C , 26-H ) :   0.9337 B( 19-C , 27-H ) :   0.9379 B( 23-O , 28-H ) :   0.7321

FINAL SINGLE POINT ENERGY      -652.868226900230

DIPOLE MOMENT
-------------
                                X             Y             Z
Electronic contribution:     -2.62718      -0.96561      -0.61409
Nuclear contribution   :      3.25764       1.52857       0.94325
                        -----------------------------------------
Total Dipole Moment    :      0.63047       0.56296       0.32916
                        -----------------------------------------
Magnitude (a.u.)       :      0.90706
Magnitude (Debye)      :      2.30556

Rotational constants in cm-1:     0.057473     0.014053     0.012935
Rotational constants in MHz :  1722.987755   421.303315   387.783528

                             ****ORCA TERMINATED NORMALLY****
TOTAL RUN TIME: 0 days 1 hours 47 minutes 24 seconds 805 msec
