                         Program Version 4.2.0 -  RELEASE  -
|  1> # Test redundant internal optimization
|  2> #
|  3> ! RKS B3LYP  Opt TightSCF SmallPrint
|  4>
|  5> %basis
|  6>         Basis "6-31G"
|  7> end
|  8>
|  9> %geom
| 10> Constraints
| 11> { D 4  0  15  12  135.0   C } # D for Dihedral angle
| 12> { D 0  15  12  16  105.0   C } # D for Dihedral angle
| 13> { D 0  4  3  2   C } # D for Dihedral angle
| 14> { D 4  3  2  1   C } # D for Dihedral angle
| 15> { D 3  2  1  0   C } # D for Dihedral angle
| 16> { D 2  1  0  4   C } # D for Dihedral angle
| 17> { D 1  0  4  3   C } # D for Dihedral angle
| 18> { D 16  20  19  18   C } # D for Dihedral angle
| 19> { D 20  19  18  17   C } # D for Dihedral angle
| 20> { D 19  18  17  16   C } # D for Dihedral angle
| 21> { D 18  17  16  20   C } # D for Dihedral angle
| 22> { D 17  16  20  19   C } # D for Dihedral angle
| 23> { D 15  12  16  20   C } # D for Dihedral angle
| 24> end
| 25> end
| 26>
| 27>
| 28> #%pal
| 29> #nprocs 8
| 30> #end
| 31>
| 32> * xyz 0 1
| 33> C  -21.048   26.222   46.251
| 34> C  -20.361   27.558   45.944
| 35> C  -20.329   28.222   47.341
| 36> C  -20.110   27.022   48.296
| 37> O  -20.473   25.807   47.535
| 38> H  -20.833   25.428   45.533
| 39> H  -19.344   27.382   45.576
| 40> H  -20.898   28.157   45.201
| 41> H  -19.543   28.978   47.434
| 42> H  -21.289   28.710   47.548
| 43> H  -20.733   27.082   49.195
| 44> H  -19.064   26.913   48.597
| 45> C  -23.162   27.680   45.721
| 46> H  -23.872   28.151   46.411
| 47> H  -22.358   28.398   45.513
| 48> O  -22.586   26.394   46.375
| 49> C  -23.898   27.394   44.382
| 50> C  -25.144   26.530   44.606
| 51> C  -26.162   27.575   45.122
| 52> C  -25.789   28.851   44.327
| 53> O  -24.420   28.639   43.809
| 54> H  -23.187   26.985   43.663
| 55> H  -25.479   26.101   43.655
| 56> O  -24.909   25.370   45.612
| 57> H  -27.201   27.271   44.960
| 58> H  -26.024   27.735   46.198
| 59> H  -25.802   29.752   44.949
| 60> H  -26.440   29.010   43.463
| 61> H  -24.573   25.777   46.571
| 62> *
| 63>
| 64>                          ****END OF INPUT****
 Total Charge           Charge          ....    0
 Multiplicity           Mult            ....    1
 Number of Electrons    NEL             ....  102
FINAL SINGLE POINT ENERGY      -652.816553597452
FINAL SINGLE POINT ENERGY      -652.842576338858
FINAL SINGLE POINT ENERGY      -652.852850985929
FINAL SINGLE POINT ENERGY      -652.855962045557
FINAL SINGLE POINT ENERGY      -652.857584359580
FINAL SINGLE POINT ENERGY      -652.858482707522
FINAL SINGLE POINT ENERGY      -652.858848836190
FINAL SINGLE POINT ENERGY      -652.858945626992
FINAL SINGLE POINT ENERGY      -652.858956500772
                    ***********************HURRAY********************

CARTESIAN COORDINATES (ANGSTROEM)
---------------------------------
  C    -21.158958   26.316790   46.266645
  C    -20.213456   27.475762   45.952367
  C    -20.135232   28.208293   47.316516
  C    -20.209383   27.045962   48.329907
  O    -20.758860   25.889895   47.575873
  H    -21.064557   25.447602   45.614146
  H    -19.239597   27.047286   45.691372
  H    -20.521735   28.117516   45.123970
  H    -19.217555   28.794504   47.419832
  H    -20.985726   28.888417   47.435915
  H    -20.865034   27.253891   49.178954
  H    -19.226107   26.739779   48.697055
  C    -23.185158   27.852959   45.723531
  H    -23.865201   28.258324   46.479898
  H    -22.442031   28.618634   45.490096
  O    -22.586669   26.654586   46.318631
  C    -23.939430   27.469569   44.445277
  C    -25.130411   26.521212   44.663770
  C    -26.229661   27.505242   45.158726
  C    -25.937079   28.791216   44.359374
  O    -24.534269   28.666992   43.854581
  H    -23.230007   27.075120   43.710370
  H    -25.429273   26.106373   43.694559
  O    -24.899422   25.410164   45.548117
  H    -27.233933   27.112614   44.978361
  H    -26.117372   27.653054   46.238496
  H    -26.012392   29.703607   44.959027
  H    -26.575010   28.894805   43.477227
  H    -24.087482   25.573831   46.085407

 Multiplicity           Mult            ....    1
 Number of Electrons    NEL             ....  102
 Basis Dimension        Dim             ....  149

ORBITAL ENERGIES
----------------

  NO   OCC          E(Eh)            E(eV)
   0   2.0000     -19.159885      -521.3670
   1   2.0000     -19.149695      -521.0897
   2   2.0000     -19.141544      -520.8679
   3   2.0000     -19.110589      -520.0256
   4   2.0000     -10.294539      -280.1287
   5   2.0000     -10.241463      -278.6844
   6   2.0000     -10.235132      -278.5121
   7   2.0000     -10.234150      -278.4854
   8   2.0000     -10.229486      -278.3585
   9   2.0000     -10.227450      -278.3031
  10   2.0000     -10.203793      -277.6593
  11   2.0000     -10.201296      -277.5914
  12   2.0000     -10.178934      -276.9829
  13   2.0000      -1.063183       -28.9307
  14   2.0000      -1.025930       -27.9170
  15   2.0000      -1.005869       -27.3711
  16   2.0000      -0.989976       -26.9386
  17   2.0000      -0.800400       -21.7800
  18   2.0000      -0.776375       -21.1262
  19   2.0000      -0.768389       -20.9089
  20   2.0000      -0.740642       -20.1539
  21   2.0000      -0.685246       -18.6465
  22   2.0000      -0.613375       -16.6908
  23   2.0000      -0.603307       -16.4168
  24   2.0000      -0.596218       -16.2239
  25   2.0000      -0.575068       -15.6484
  26   2.0000      -0.537216       -14.6184
  27   2.0000      -0.515375       -14.0241
  28   2.0000      -0.509205       -13.8562
  29   2.0000      -0.489039       -13.3074
  30   2.0000      -0.476567       -12.9680
  31   2.0000      -0.463647       -12.6165
  32   2.0000      -0.444459       -12.0943
  33   2.0000      -0.435530       -11.8514
  34   2.0000      -0.425488       -11.5781
  35   2.0000      -0.422980       -11.5099
  36   2.0000      -0.409920       -11.1545
  37   2.0000      -0.391422       -10.6511
  38   2.0000      -0.388425       -10.5696
  39   2.0000      -0.372599       -10.1389
  40   2.0000      -0.366769        -9.9803
  41   2.0000      -0.365734        -9.9521
  42   2.0000      -0.347367        -9.4523
  43   2.0000      -0.341216        -9.2849
  44   2.0000      -0.323828        -8.8118
  45   2.0000      -0.312468        -8.5027
  46   2.0000      -0.286897        -7.8069
  47   2.0000      -0.280869        -7.6428
  48   2.0000      -0.268742        -7.3128
  49   2.0000      -0.245897        -6.6912
  50   2.0000      -0.238529        -6.4907
  51   0.0000       0.056361         1.5337
  52   0.0000       0.071537         1.9466
  53   0.0000       0.092346         2.5129
  54   0.0000       0.097617         2.6563
  55   0.0000       0.099567         2.7093

MULLIKEN ATOMIC CHARGES
-----------------------
   0 C :    0.326965
   1 C :   -0.307593
   2 C :   -0.306055
   3 C :   -0.003719
   4 O :   -0.491651
   5 H :    0.163754
   6 H :    0.162324
   7 H :    0.154647
   8 H :    0.150513
   9 H :    0.156197
  10 H :    0.155595
  11 H :    0.149388
  12 C :   -0.032205
  13 H :    0.157732
  14 H :    0.154281
  15 O :   -0.565015
  16 C :    0.050449
  17 C :    0.130222
  18 C :   -0.307294
  19 C :   -0.019903
  20 O :   -0.522344
  21 H :    0.150153
  22 H :    0.145243
  23 O :   -0.641871
  24 H :    0.151308
  25 H :    0.149450
  26 H :    0.139484
  27 H :    0.150794
  28 H :    0.399153
Sum of atomic charges:   -0.0000000

LOEWDIN ATOMIC CHARGES
----------------------
   0 C :    0.186016
   1 C :   -0.231785
   2 C :   -0.218617
   3 C :   -0.026920
   4 O :   -0.304477
   5 H :    0.109464
   6 H :    0.125754
   7 H :    0.118646
   8 H :    0.118936
   9 H :    0.113091
  10 H :    0.109976
  11 H :    0.106705
  12 C :   -0.047881
  13 H :    0.110708
  14 H :    0.109879
  15 O :   -0.344217
  16 C :    0.007634
  17 C :    0.043378
  18 C :   -0.238346
  19 C :   -0.032119
  20 O :   -0.327474
  21 H :    0.109372
  22 H :    0.104735
  23 O :   -0.434051
  24 H :    0.121444
  25 H :    0.112444
  26 H :    0.100839
  27 H :    0.106695
  28 H :    0.290171

  Mayer bond orders larger than 0.100000
B(  0-C ,  1-C ) :   0.9393 B(  0-C ,  4-O ) :   0.9413 B(  0-C ,  5-H ) :   0.9277
B(  0-C , 15-O ) :   0.8027 B(  1-C ,  2-C ) :   0.9481 B(  1-C ,  6-H ) :   0.9321
B(  1-C ,  7-H ) :   0.9257 B(  2-C ,  3-C ) :   0.9510 B(  2-C ,  8-H ) :   0.9449
B(  2-C ,  9-H ) :   0.9430 B(  3-C ,  4-O ) :   0.8349 B(  3-C , 10-H ) :   0.9342
B(  3-C , 11-H ) :   0.9392 B( 12-C , 13-H ) :   0.9322 B( 12-C , 14-H ) :   0.9136
B( 12-C , 15-O ) :   0.7955 B( 12-C , 16-C ) :   0.8868 B( 16-C , 17-C ) :   0.9122
B( 16-C , 20-O ) :   0.8538 B( 16-C , 21-H ) :   0.9317 B( 17-C , 18-C ) :   0.9000
B( 17-C , 22-H ) :   0.9314 B( 17-C , 23-O ) :   0.9376 B( 18-C , 19-C ) :   0.9386
B( 18-C , 24-H ) :   0.9450 B( 18-C , 25-H ) :   0.9425 B( 19-C , 20-O ) :   0.8316
B( 19-C , 26-H ) :   0.9349 B( 19-C , 27-H ) :   0.9385 B( 23-O , 28-H ) :   0.7209

FINAL SINGLE POINT ENERGY      -652.858958715570

DIPOLE MOMENT
-------------
                                X             Y             Z
Electronic contribution:     -0.84517      -4.30747      -1.00499
Nuclear contribution   :      1.77645       5.68071       1.12593
                        -----------------------------------------
Total Dipole Moment    :      0.93128       1.37324       0.12095
                        -----------------------------------------
Magnitude (a.u.)       :      1.66364
Magnitude (Debye)      :      4.22864

Rotational constants in cm-1:     0.056820     0.013556     0.012180
Rotational constants in MHz :  1703.428267   406.392386   365.142012

                             ****ORCA TERMINATED NORMALLY****
TOTAL RUN TIME: 0 days 1 hours 16 minutes 41 seconds 703 msec
