                         Program Version 4.2.0 -  RELEASE  -
|  1> # Test redundant internal optimization
|  2> #
|  3> ! RKS B3LYP  Opt TightSCF SmallPrint
|  4>
|  5> %basis
|  6>         Basis "6-31G"
|  7> end
|  8>
|  9> %geom
| 10> Constraints
| 11> { D 4  0  15  12  315.0   C } # D for Dihedral angle
| 12> { D 0  15  12  16  165.0   C } # D for Dihedral angle
| 13> { D 0  4  3  2   C } # D for Dihedral angle
| 14> { D 4  3  2  1   C } # D for Dihedral angle
| 15> { D 3  2  1  0   C } # D for Dihedral angle
| 16> { D 2  1  0  4   C } # D for Dihedral angle
| 17> { D 1  0  4  3   C } # D for Dihedral angle
| 18> { D 16  20  19  18   C } # D for Dihedral angle
| 19> { D 20  19  18  17   C } # D for Dihedral angle
| 20> { D 19  18  17  16   C } # D for Dihedral angle
| 21> { D 18  17  16  20   C } # D for Dihedral angle
| 22> { D 17  16  20  19   C } # D for Dihedral angle
| 23> { D 15  12  16  20   C } # D for Dihedral angle
| 24> end
| 25> end
| 26>
| 27>
| 28> #%pal
| 29> #nprocs 8
| 30> #end
| 31>
| 32> * xyz 0 1
| 33> C  -21.048   26.222   46.251
| 34> C  -20.361   27.558   45.944
| 35> C  -20.329   28.222   47.341
| 36> C  -20.110   27.022   48.296
| 37> O  -20.473   25.807   47.535
| 38> H  -20.833   25.428   45.533
| 39> H  -19.344   27.382   45.576
| 40> H  -20.898   28.157   45.201
| 41> H  -19.543   28.978   47.434
| 42> H  -21.289   28.710   47.548
| 43> H  -20.733   27.082   49.195
| 44> H  -19.064   26.913   48.597
| 45> C  -23.319   25.255   47.135
| 46> H  -23.372   24.367   46.492
| 47> H  -22.769   24.986   48.046
| 48> O  -22.586   26.394   46.375
| 49> C  -24.764   25.644   47.552
| 50> C  -25.415   24.543   48.398
| 51> C  -24.780   24.798   49.786
| 52> C  -24.646   26.341   49.833
| 53> O  -24.745   26.814   48.436
| 54> H  -25.331   25.924   46.661
| 55> O  -26.953   24.751   48.451
| 56> H  -25.215   23.535   48.019
| 57> H  -25.388   24.407   50.608
| 58> H  -23.794   24.323   49.842
| 59> H  -23.689   26.666   50.255
| 60> H  -25.459   26.814   50.392
| 61> H  -27.176   25.755   48.829
| 62> *
| 63>
| 64>                          ****END OF INPUT****
 Total Charge           Charge          ....    0
 Multiplicity           Mult            ....    1
 Number of Electrons    NEL             ....  102
FINAL SINGLE POINT ENERGY      -652.836637426496
FINAL SINGLE POINT ENERGY      -652.860986868478
FINAL SINGLE POINT ENERGY      -652.865395788583
FINAL SINGLE POINT ENERGY      -652.866220218283
FINAL SINGLE POINT ENERGY      -652.866338903093
FINAL SINGLE POINT ENERGY      -652.866352860015
                    ***********************HURRAY********************

CARTESIAN COORDINATES (ANGSTROEM)
---------------------------------
  C    -21.111940   26.161782   46.261192
  C    -20.594157   27.573481   45.987833
  C    -20.532787   28.165424   47.412126
  C    -20.123407   26.958972   48.283484
  O    -20.417176   25.749177   47.464457
  H    -20.880196   25.402253   45.506709
  H    -19.597967   27.513241   45.534582
  H    -21.257958   28.128322   45.321530
  H    -19.824198   28.995310   47.493645
  H    -21.526662   28.520626   47.698018
  H    -20.685125   26.896196   49.219195
  H    -19.051906   26.930232   48.502431
  C    -23.179804   25.176872   47.165348
  H    -23.271476   24.292041   46.514920
  H    -22.570604   24.903992   48.033598
  O    -22.540705   26.266468   46.449407
  C    -24.567619   25.658495   47.573126
  C    -25.370570   24.634028   48.388906
  C    -24.810067   24.861529   49.817041
  C    -24.544272   26.386727   49.850744
  O    -24.505733   26.840479   48.440063
  H    -25.112812   25.968882   46.676686
  O    -26.795512   24.915419   48.317834
  H    -25.262166   23.605787   48.041485
  H    -25.531437   24.536026   50.570774
  H    -23.885039   24.291591   49.955426
  H    -23.594800   26.639151   50.334364
  H    -25.345494   26.942456   50.348407
  H    -26.934409   25.883042   48.397666

 Multiplicity           Mult            ....    1
 Number of Electrons    NEL             ....  102
 Basis Dimension        Dim             ....  149

ORBITAL ENERGIES
----------------

  NO   OCC          E(Eh)            E(eV)
   0   2.0000     -19.143487      -520.9208
   1   2.0000     -19.140447      -520.8380
   2   2.0000     -19.139908      -520.8234
   3   2.0000     -19.138378      -520.7818
   4   2.0000     -10.276620      -279.6410
   5   2.0000     -10.242484      -278.7122
   6   2.0000     -10.232545      -278.4417
   7   2.0000     -10.230483      -278.3856
   8   2.0000     -10.226343      -278.2730
   9   2.0000     -10.226055      -278.2651
  10   2.0000     -10.189074      -277.2588
  11   2.0000     -10.182212      -277.0721
  12   2.0000     -10.181334      -277.0482
  13   2.0000      -1.054583       -28.6967
  14   2.0000      -1.035108       -28.1667
  15   2.0000      -1.005640       -27.3649
  16   2.0000      -0.990874       -26.9630
  17   2.0000      -0.790117       -21.5002
  18   2.0000      -0.780585       -21.2408
  19   2.0000      -0.766248       -20.8507
  20   2.0000      -0.729524       -19.8514
  21   2.0000      -0.671087       -18.2612
  22   2.0000      -0.604182       -16.4406
  23   2.0000      -0.598475       -16.2853
  24   2.0000      -0.588911       -16.0251
  25   2.0000      -0.578883       -15.7522
  26   2.0000      -0.527178       -14.3453
  27   2.0000      -0.509126       -13.8540
  28   2.0000      -0.489692       -13.3252
  29   2.0000      -0.488797       -13.3008
  30   2.0000      -0.478154       -13.0112
  31   2.0000      -0.459026       -12.4907
  32   2.0000      -0.448189       -12.1958
  33   2.0000      -0.443890       -12.0789
  34   2.0000      -0.416931       -11.3453
  35   2.0000      -0.403599       -10.9825
  36   2.0000      -0.399632       -10.8745
  37   2.0000      -0.393956       -10.7201
  38   2.0000      -0.372735       -10.1426
  39   2.0000      -0.370789       -10.0897
  40   2.0000      -0.361323        -9.8321
  41   2.0000      -0.354413        -9.6441
  42   2.0000      -0.345116        -9.3911
  43   2.0000      -0.335140        -9.1196
  44   2.0000      -0.325797        -8.8654
  45   2.0000      -0.306701        -8.3458
  46   2.0000      -0.296357        -8.0643
  47   2.0000      -0.270863        -7.3705
  48   2.0000      -0.260759        -7.0956
  49   2.0000      -0.255318        -6.9476
  50   2.0000      -0.245457        -6.6792
  51   0.0000       0.058735         1.5983
  52   0.0000       0.085157         2.3172
  53   0.0000       0.092390         2.5141
  54   0.0000       0.101456         2.7607
  55   0.0000       0.104198         2.8354

MULLIKEN ATOMIC CHARGES
-----------------------
   0 C :    0.295276
   1 C :   -0.261585
   2 C :   -0.301332
   3 C :   -0.010774
   4 O :   -0.517347
   5 H :    0.143065
   6 H :    0.142034
   7 H :    0.162570
   8 H :    0.139218
   9 H :    0.178055
  10 H :    0.143296
  11 H :    0.145005
  12 C :   -0.001608
  13 H :    0.124178
  14 H :    0.156682
  15 O :   -0.521491
  16 C :    0.064058
  17 C :    0.075796
  18 C :   -0.292710
  19 C :   -0.031614
  20 O :   -0.512366
  21 H :    0.169329
  22 O :   -0.601476
  23 H :    0.151787
  24 H :    0.161285
  25 H :    0.146586
  26 H :    0.142422
  27 H :    0.146406
  28 H :    0.365256
Sum of atomic charges:   -0.0000000

LOEWDIN ATOMIC CHARGES
----------------------
   0 C :    0.176353
   1 C :   -0.213989
   2 C :   -0.217375
   3 C :   -0.028991
   4 O :   -0.329768
   5 H :    0.095376
   6 H :    0.112272
   7 H :    0.127203
   8 H :    0.113065
   9 H :    0.127021
  10 H :    0.102287
  11 H :    0.103604
  12 C :   -0.046320
  13 H :    0.094035
  14 H :    0.107507
  15 O :   -0.322798
  16 C :    0.018212
  17 C :    0.036241
  18 C :   -0.240689
  19 C :   -0.039279
  20 O :   -0.323045
  21 H :    0.120203
  22 O :   -0.414253
  23 H :    0.115528
  24 H :    0.126061
  25 H :    0.114187
  26 H :    0.101457
  27 H :    0.102263
  28 H :    0.283632

  Mayer bond orders larger than 0.100000
B(  0-C ,  1-C ) :   0.9502 B(  0-C ,  4-O ) :   0.8971 B(  0-C ,  5-H ) :   0.9205
B(  0-C , 15-O ) :   0.8553 B(  1-C ,  2-C ) :   0.9550 B(  1-C ,  6-H ) :   0.9395
B(  1-C ,  7-H ) :   0.9349 B(  2-C ,  3-C ) :   0.9568 B(  2-C ,  8-H ) :   0.9447
B(  2-C ,  9-H ) :   0.9386 B(  3-C ,  4-O ) :   0.8315 B(  3-C , 10-H ) :   0.9352
B(  3-C , 11-H ) :   0.9406 B( 12-C , 13-H ) :   0.9133 B( 12-C , 14-H ) :   0.9073
B( 12-C , 15-O ) :   0.8336 B( 12-C , 16-C ) :   0.9022 B( 16-C , 17-C ) :   0.9021
B( 16-C , 20-O ) :   0.8607 B( 16-C , 21-H ) :   0.9232 B( 17-C , 18-C ) :   0.9101
B( 17-C , 22-O ) :   0.8962 B( 17-C , 23-H ) :   0.9335 B( 18-C , 19-C ) :   0.9397
B( 18-C , 24-H ) :   0.9379 B( 18-C , 25-H ) :   0.9339 B( 19-C , 20-O ) :   0.8531
B( 19-C , 26-H ) :   0.9342 B( 19-C , 27-H ) :   0.9374 B( 22-O , 28-H ) :   0.7936

FINAL SINGLE POINT ENERGY      -652.866355752040

DIPOLE MOMENT
-------------
                                X             Y             Z
Electronic contribution:     -3.24752      -1.52163      -2.54434
Nuclear contribution   :      3.92307       1.72998       3.02178
                        -----------------------------------------
Total Dipole Moment    :      0.67555       0.20835       0.47744
                        -----------------------------------------
Magnitude (a.u.)       :      0.85307
Magnitude (Debye)      :      2.16833

Rotational constants in cm-1:     0.057594     0.013747     0.013005
Rotational constants in MHz :  1726.619430   412.132380   389.890183

                             ****ORCA TERMINATED NORMALLY****
TOTAL RUN TIME: 0 days 0 hours 21 minutes 56 seconds 245 msec
