                         Program Version 4.2.0 -  RELEASE  -
|  1> # Test redundant internal optimization
|  2> #
|  3> ! RKS B3LYP  Opt TightSCF SmallPrint
|  4>
|  5> %basis
|  6>         Basis "6-31G"
|  7> end
|  8>
|  9> %geom
| 10> Constraints
| 11> { D 4  0  15  12  240.0   C } # D for Dihedral angle
| 12> { D 0  15  12  16  75.0   C } # D for Dihedral angle
| 13> { D 0  4  3  2   C } # D for Dihedral angle
| 14> { D 4  3  2  1   C } # D for Dihedral angle
| 15> { D 3  2  1  0   C } # D for Dihedral angle
| 16> { D 2  1  0  4   C } # D for Dihedral angle
| 17> { D 1  0  4  3   C } # D for Dihedral angle
| 18> { D 16  20  19  18   C } # D for Dihedral angle
| 19> { D 20  19  18  17   C } # D for Dihedral angle
| 20> { D 19  18  17  16   C } # D for Dihedral angle
| 21> { D 18  17  16  20   C } # D for Dihedral angle
| 22> { D 17  16  20  19   C } # D for Dihedral angle
| 23> { D 15  12  16  20   C } # D for Dihedral angle
| 24> end
| 25> end
| 26>
| 27>
| 28> #%pal
| 29> #nprocs 8
| 30> #end
| 31>
| 32> * xyz 0 1
| 33> C  -21.048   26.222   46.251
| 34> C  -20.361   27.558   45.944
| 35> C  -20.329   28.222   47.341
| 36> C  -20.110   27.022   48.296
| 37> O  -20.473   25.807   47.535
| 38> H  -20.833   25.428   45.533
| 39> H  -19.344   27.382   45.576
| 40> H  -20.898   28.157   45.201
| 41> H  -19.543   28.978   47.434
| 42> H  -21.289   28.710   47.548
| 43> H  -20.733   27.082   49.195
| 44> H  -19.064   26.913   48.597
| 45> C  -23.430   25.483   45.442
| 46> H  -24.458   25.863   45.398
| 47> H  -23.018   25.489   44.425
| 48> O  -22.586   26.394   46.375
| 49> C  -23.475   24.006   45.925
| 50> C  -24.217   23.115   44.923
| 51> C  -23.133   22.890   43.841
| 52> C  -21.822   22.831   44.664
| 53> O  -22.122   23.443   45.977
| 54> H  -23.874   23.974   46.941
| 55> O  -24.609   21.771   45.593
| 56> H  -25.125   23.581   44.523
| 57> H  -23.300   21.980   43.256
| 58> H  -23.114   23.737   43.145
| 59> H  -21.003   23.384   44.190
| 60> H  -21.494   21.805   44.854
| 61> H  -23.715   21.287   46.000
| 62> *
| 63>
| 64>                          ****END OF INPUT****
 Total Charge           Charge          ....    0
 Multiplicity           Mult            ....    1
 Number of Electrons    NEL             ....  102
FINAL SINGLE POINT ENERGY      -652.832312728395
FINAL SINGLE POINT ENERGY      -652.854819400866
FINAL SINGLE POINT ENERGY      -652.859096219779
FINAL SINGLE POINT ENERGY      -652.859799271607
FINAL SINGLE POINT ENERGY      -652.859900746838
FINAL SINGLE POINT ENERGY      -652.859912479962
                    ***********************HURRAY********************

CARTESIAN COORDINATES (ANGSTROEM)
---------------------------------
  C    -20.968849   26.214905   46.197122
  C    -20.399269   27.615361   45.973469
  C    -20.471110   28.221497   47.396261
  C    -20.174350   27.006492   48.301585
  O    -20.408206   25.807313   47.459669
  H    -20.693400   25.456767   45.465102
  H    -19.358486   27.535752   45.636499
  H    -20.968628   28.183141   45.233761
  H    -19.759168   29.038990   47.544342
  H    -21.480503   28.601199   47.580700
  H    -20.827194   26.953985   49.176606
  H    -19.130127   26.963831   48.626543
  C    -23.252833   25.502406   45.445619
  H    -24.250063   25.948990   45.515939
  H    -22.917536   25.583723   44.399080
  O    -22.418056   26.324253   46.297278
  C    -23.325694   24.033667   45.870915
  C    -24.185078   23.147857   44.956903
  C    -23.183579   22.801965   43.822770
  C    -21.830776   22.693003   44.569366
  O    -22.009655   23.384420   45.871194
  H    -23.677695   23.992504   46.905974
  O    -24.636912   21.958928   45.659300
  H    -25.093756   23.632033   44.595573
  H    -23.472180   21.873979   43.323176
  H    -23.164752   23.603830   43.075583
  H    -21.006672   23.163891   44.024565
  H    -21.553979   21.658239   44.791075
  H    -23.901493   21.611078   46.207034

 Multiplicity           Mult            ....    1
 Number of Electrons    NEL             ....  102
 Basis Dimension        Dim             ....  149

ORBITAL ENERGIES
----------------

  NO   OCC          E(Eh)            E(eV)
   0   2.0000     -19.145757      -520.9825
   1   2.0000     -19.140293      -520.8339
   2   2.0000     -19.135563      -520.7051
   3   2.0000     -19.127770      -520.4931
   4   2.0000     -10.268914      -279.4314
   5   2.0000     -10.245546      -278.7955
   6   2.0000     -10.235183      -278.5135
   7   2.0000     -10.233827      -278.4766
   8   2.0000     -10.233432      -278.4658
   9   2.0000     -10.215566      -277.9797
  10   2.0000     -10.193088      -277.3680
  11   2.0000     -10.177992      -276.9572
  12   2.0000     -10.177828      -276.9528
  13   2.0000      -1.045857       -28.4592
  14   2.0000      -1.036132       -28.1946
  15   2.0000      -1.008343       -27.4384
  16   2.0000      -0.986648       -26.8481
  17   2.0000      -0.787965       -21.4416
  18   2.0000      -0.778698       -21.1895
  19   2.0000      -0.765955       -20.8427
  20   2.0000      -0.726708       -19.7747
  21   2.0000      -0.674186       -18.3455
  22   2.0000      -0.606713       -16.5095
  23   2.0000      -0.597811       -16.2673
  24   2.0000      -0.589774       -16.0486
  25   2.0000      -0.576318       -15.6824
  26   2.0000      -0.526569       -14.3287
  27   2.0000      -0.508060       -13.8250
  28   2.0000      -0.496233       -13.5032
  29   2.0000      -0.483236       -13.1495
  30   2.0000      -0.472759       -12.8644
  31   2.0000      -0.456596       -12.4246
  32   2.0000      -0.448470       -12.2035
  33   2.0000      -0.438760       -11.9393
  34   2.0000      -0.423445       -11.5225
  35   2.0000      -0.409645       -11.1470
  36   2.0000      -0.397119       -10.8062
  37   2.0000      -0.391152       -10.6438
  38   2.0000      -0.376310       -10.2399
  39   2.0000      -0.367412        -9.9978
  40   2.0000      -0.360977        -9.8227
  41   2.0000      -0.349083        -9.4990
  42   2.0000      -0.343609        -9.3501
  43   2.0000      -0.334729        -9.1085
  44   2.0000      -0.312969        -8.5163
  45   2.0000      -0.305009        -8.2997
  46   2.0000      -0.296756        -8.0751
  47   2.0000      -0.274005        -7.4560
  48   2.0000      -0.266512        -7.2522
  49   2.0000      -0.250446        -6.8150
  50   2.0000      -0.231091        -6.2883
  51   0.0000       0.059141         1.6093
  52   0.0000       0.083862         2.2820
  53   0.0000       0.088913         2.4194
  54   0.0000       0.100096         2.7238
  55   0.0000       0.107426         2.9232

MULLIKEN ATOMIC CHARGES
-----------------------
   0 C :    0.295749
   1 C :   -0.253327
   2 C :   -0.298991
   3 C :   -0.000680
   4 O :   -0.495515
   5 H :    0.150329
   6 H :    0.139169
   7 H :    0.141072
   8 H :    0.136709
   9 H :    0.160754
  10 H :    0.148134
  11 H :    0.137290
  12 C :   -0.018415
  13 H :    0.152989
  14 H :    0.118153
  15 O :   -0.518676
  16 C :    0.070144
  17 C :    0.079831
  18 C :   -0.293990
  19 C :   -0.033374
  20 O :   -0.507728
  21 H :    0.172714
  22 O :   -0.601736
  23 H :    0.150916
  24 H :    0.163959
  25 H :    0.142674
  26 H :    0.142968
  27 H :    0.151489
  28 H :    0.367389
Sum of atomic charges:   -0.0000000

LOEWDIN ATOMIC CHARGES
----------------------
   0 C :    0.177761
   1 C :   -0.222368
   2 C :   -0.216906
   3 C :   -0.027742
   4 O :   -0.307482
   5 H :    0.105045
   6 H :    0.110263
   7 H :    0.115535
   8 H :    0.111394
   9 H :    0.118476
  10 H :    0.105929
  11 H :    0.099881
  12 C :   -0.039533
  13 H :    0.116660
  14 H :    0.087124
  15 O :   -0.330254
  16 C :    0.005543
  17 C :    0.035904
  18 C :   -0.241514
  19 C :   -0.039960
  20 O :   -0.319514
  21 H :    0.122462
  22 O :   -0.413263
  23 H :    0.115317
  24 H :    0.127657
  25 H :    0.111730
  26 H :    0.101493
  27 H :    0.105446
  28 H :    0.284916

  Mayer bond orders larger than 0.100000
B(  0-C ,  1-C ) :   0.9395 B(  0-C ,  4-O ) :   0.9287 B(  0-C ,  5-H ) :   0.9157
B(  0-C , 15-O ) :   0.8210 B(  1-C ,  2-C ) :   0.9568 B(  1-C ,  6-H ) :   0.9382
B(  1-C ,  7-H ) :   0.9391 B(  2-C ,  3-C ) :   0.9535 B(  2-C ,  8-H ) :   0.9459
B(  2-C ,  9-H ) :   0.9439 B(  3-C ,  4-O ) :   0.8449 B(  3-C , 10-H ) :   0.9349
B(  3-C , 11-H ) :   0.9399 B( 12-C , 13-H ) :   0.9305 B( 12-C , 14-H ) :   0.9234
B( 12-C , 15-O ) :   0.8779 B( 12-C , 16-C ) :   0.8837 B( 16-C , 17-C ) :   0.8936
B( 16-C , 20-O ) :   0.8563 B( 16-C , 21-H ) :   0.9229 B( 17-C , 18-C ) :   0.9103
B( 17-C , 22-O ) :   0.8921 B( 17-C , 23-H ) :   0.9338 B( 18-C , 19-C ) :   0.9388
B( 18-C , 24-H ) :   0.9373 B( 18-C , 25-H ) :   0.9337 B( 19-C , 20-O ) :   0.8484
B( 19-C , 26-H ) :   0.9333 B( 19-C , 27-H ) :   0.9377 B( 22-O , 28-H ) :   0.7932

FINAL SINGLE POINT ENERGY      -652.859914555410

DIPOLE MOMENT
-------------
                                X             Y             Z
Electronic contribution:     -2.00247      -3.74871       2.49702
Nuclear contribution   :      2.30265       4.30585      -3.56314
                        -----------------------------------------
Total Dipole Moment    :      0.30018       0.55714      -1.06612
                        -----------------------------------------
Magnitude (a.u.)       :      1.23980
Magnitude (Debye)      :      3.15133

Rotational constants in cm-1:     0.065732     0.012566     0.012410
Rotational constants in MHz :  1970.606439   376.728250   372.041959

                             ****ORCA TERMINATED NORMALLY****
TOTAL RUN TIME: 0 days 0 hours 31 minutes 9 seconds 435 msec
