                         Program Version 4.2.0 -  RELEASE  -
|  1> # Test redundant internal optimization
|  2> #
|  3> ! RKS B3LYP  Opt TightSCF SmallPrint
|  4>
|  5> %basis
|  6>         Basis "6-31G"
|  7> end
|  8>
|  9> %geom
| 10> Constraints
| 11> { D 4  0  15  12  285.0   C } # D for Dihedral angle
| 12> { D 0  15  12  16  120.0   C } # D for Dihedral angle
| 13> { D 0  4  3  2   C } # D for Dihedral angle
| 14> { D 4  3  2  1   C } # D for Dihedral angle
| 15> { D 3  2  1  0   C } # D for Dihedral angle
| 16> { D 2  1  0  4   C } # D for Dihedral angle
| 17> { D 1  0  4  3   C } # D for Dihedral angle
| 18> { D 16  20  19  18   C } # D for Dihedral angle
| 19> { D 20  19  18  17   C } # D for Dihedral angle
| 20> { D 19  18  17  16   C } # D for Dihedral angle
| 21> { D 18  17  16  20   C } # D for Dihedral angle
| 22> { D 17  16  20  19   C } # D for Dihedral angle
| 23> { D 15  12  16  20   C } # D for Dihedral angle
| 24> end
| 25> end
| 26>
| 27>
| 28> #%pal
| 29> #nprocs 8
| 30> #end
| 31>
| 32> * xyz 0 1
| 33> C  -21.048   26.222   46.251
| 34> C  -20.361   27.558   45.944
| 35> C  -20.329   28.222   47.341
| 36> C  -20.110   27.022   48.296
| 37> O  -20.473   25.807   47.535
| 38> H  -20.833   25.428   45.533
| 39> H  -19.344   27.382   45.576
| 40> H  -20.898   28.157   45.201
| 41> H  -19.543   28.978   47.434
| 42> H  -21.289   28.710   47.548
| 43> H  -20.733   27.082   49.195
| 44> H  -19.064   26.913   48.597
| 45> C  -23.396   25.070   46.435
| 46> H  -24.090   25.031   45.586
| 47> H  -22.723   24.205   46.368
| 48> O  -22.586   26.394   46.375
| 49> C  -24.219   24.928   47.746
| 50> C  -25.305   26.005   47.840
| 51> C  -26.399   25.430   46.909
| 52> C  -26.287   23.901   47.139
| 53> O  -24.962   23.664   47.750
| 54> H  -23.535   24.900   48.596
| 55> H  -25.673   26.079   48.870
| 56> O  -24.813   27.410   47.395
| 57> H  -27.397   25.814   47.139
| 58> H  -26.175   25.682   45.866
| 59> H  -26.360   23.331   46.207
| 60> H  -27.038   23.529   47.841
| 61> H  -24.439   27.360   46.366
| 62> *
| 63>
| 64>                          ****END OF INPUT****
 Total Charge           Charge          ....    0
 Multiplicity           Mult            ....    1
 Number of Electrons    NEL             ....  102
FINAL SINGLE POINT ENERGY      -652.835881105232
FINAL SINGLE POINT ENERGY      -652.860931026042
FINAL SINGLE POINT ENERGY      -652.867231528710
FINAL SINGLE POINT ENERGY      -652.869408419326
FINAL SINGLE POINT ENERGY      -652.870610589686
FINAL SINGLE POINT ENERGY      -652.871217533806
FINAL SINGLE POINT ENERGY      -652.871411202833
FINAL SINGLE POINT ENERGY      -652.871459497749
FINAL SINGLE POINT ENERGY      -652.871461434129
                    ***********************HURRAY********************

CARTESIAN COORDINATES (ANGSTROEM)
---------------------------------
  C    -21.075453   26.122063   46.232123
  C    -20.525814   27.521116   45.955536
  C    -20.601448   28.173659   47.355270
  C    -20.285643   26.999884   48.307437
  O    -20.505901   25.762508   47.508199
  H    -20.791538   25.335923   45.527844
  H    -19.487612   27.436357   45.615884
  H    -21.104869   28.052036   45.197267
  H    -19.897104   29.002767   47.469685
  H    -21.611485   28.554376   47.536064
  H    -20.935033   26.970936   49.185385
  H    -19.240527   26.977843   48.628353
  C    -23.292338   24.979550   46.352888
  H    -23.934331   24.948392   45.466110
  H    -22.623918   24.112941   46.343670
  O    -22.517340   26.227828   46.294061
  C    -24.109611   24.974704   47.649046
  C    -25.157075   26.095117   47.758306
  C    -26.319417   25.525052   46.894603
  C    -26.248537   24.008673   47.168010
  O    -24.889347   23.741633   47.730096
  H    -23.416298   24.969451   48.494818
  H    -25.482568   26.168753   48.801739
  O    -24.721120   27.410059   47.356276
  H    -27.282349   25.962328   47.170916
  H    -26.131832   25.764707   45.842053
  H    -26.382418   23.397729   46.270072
  H    -26.967044   23.683346   47.925955
  H    -23.884032   27.334269   46.841333

 Multiplicity           Mult            ....    1
 Number of Electrons    NEL             ....  102
 Basis Dimension        Dim             ....  149

ORBITAL ENERGIES
----------------

  NO   OCC          E(Eh)            E(eV)
   0   2.0000     -19.164654      -521.4967
   1   2.0000     -19.149246      -521.0775
   2   2.0000     -19.138508      -520.7853
   3   2.0000     -19.114515      -520.1324
   4   2.0000     -10.292066      -280.0614
   5   2.0000     -10.237138      -278.5667
   6   2.0000     -10.231595      -278.4158
   7   2.0000     -10.230419      -278.3839
   8   2.0000     -10.229330      -278.3542
   9   2.0000     -10.225228      -278.2426
  10   2.0000     -10.194032      -277.3937
  11   2.0000     -10.191745      -277.3315
  12   2.0000     -10.178220      -276.9634
  13   2.0000      -1.066796       -29.0290
  14   2.0000      -1.023470       -27.8500
  15   2.0000      -1.006472       -27.3875
  16   2.0000      -0.992377       -27.0040
  17   2.0000      -0.796951       -21.6861
  18   2.0000      -0.771743       -21.0002
  19   2.0000      -0.766530       -20.8584
  20   2.0000      -0.734838       -19.9960
  21   2.0000      -0.678416       -18.4606
  22   2.0000      -0.605974       -16.4894
  23   2.0000      -0.600026       -16.3275
  24   2.0000      -0.594019       -16.1641
  25   2.0000      -0.582615       -15.8538
  26   2.0000      -0.527577       -14.3561
  27   2.0000      -0.521460       -14.1897
  28   2.0000      -0.498717       -13.5708
  29   2.0000      -0.485930       -13.2228
  30   2.0000      -0.473186       -12.8761
  31   2.0000      -0.459597       -12.5063
  32   2.0000      -0.440657       -11.9909
  33   2.0000      -0.435928       -11.8622
  34   2.0000      -0.424349       -11.5471
  35   2.0000      -0.416744       -11.3402
  36   2.0000      -0.407381       -11.0854
  37   2.0000      -0.387953       -10.5567
  38   2.0000      -0.381469       -10.3803
  39   2.0000      -0.366289        -9.9672
  40   2.0000      -0.363803        -9.8996
  41   2.0000      -0.355525        -9.6743
  42   2.0000      -0.348607        -9.4861
  43   2.0000      -0.345507        -9.4017
  44   2.0000      -0.328403        -8.9363
  45   2.0000      -0.313434        -8.5290
  46   2.0000      -0.291153        -7.9227
  47   2.0000      -0.283201        -7.7063
  48   2.0000      -0.262627        -7.1464
  49   2.0000      -0.248536        -6.7630
  50   2.0000      -0.240149        -6.5348
  51   0.0000       0.056862         1.5473
  52   0.0000       0.083428         2.2702
  53   0.0000       0.093230         2.5369
  54   0.0000       0.097512         2.6534
  55   0.0000       0.105428         2.8688

MULLIKEN ATOMIC CHARGES
-----------------------
   0 C :    0.293519
   1 C :   -0.264739
   2 C :   -0.304978
   3 C :   -0.008649
   4 O :   -0.507672
   5 H :    0.152688
   6 H :    0.151602
   7 H :    0.158408
   8 H :    0.146937
   9 H :    0.167768
  10 H :    0.155371
  11 H :    0.147950
  12 C :   -0.026644
  13 H :    0.149100
  14 H :    0.167773
  15 O :   -0.560901
  16 C :    0.057595
  17 C :    0.117928
  18 C :   -0.297810
  19 C :   -0.023160
  20 O :   -0.520963
  21 H :    0.166891
  22 H :    0.145530
  23 O :   -0.646264
  24 H :    0.148983
  25 H :    0.144091
  26 H :    0.141896
  27 H :    0.149835
  28 H :    0.397914
Sum of atomic charges:   -0.0000000

LOEWDIN ATOMIC CHARGES
----------------------
   0 C :    0.176397
   1 C :   -0.215640
   2 C :   -0.216683
   3 C :   -0.028061
   4 O :   -0.326101
   5 H :    0.103093
   6 H :    0.117716
   7 H :    0.124426
   8 H :    0.116972
   9 H :    0.120518
  10 H :    0.109200
  11 H :    0.105823
  12 C :   -0.043931
  13 H :    0.105827
  14 H :    0.119601
  15 O :   -0.339666
  16 C :    0.013329
  17 C :    0.041758
  18 C :   -0.236201
  19 C :   -0.033152
  20 O :   -0.324801
  21 H :    0.118608
  22 H :    0.104933
  23 O :   -0.437446
  24 H :    0.120459
  25 H :    0.110421
  26 H :    0.101701
  27 H :    0.105985
  28 H :    0.284915

  Mayer bond orders larger than 0.100000
B(  0-C ,  1-C ) :   0.9511 B(  0-C ,  4-O ) :   0.9230 B(  0-C ,  5-H ) :   0.9213
B(  0-C , 15-O ) :   0.8226 B(  1-C ,  2-C ) :   0.9546 B(  1-C ,  6-H ) :   0.9390
B(  1-C ,  7-H ) :   0.9357 B(  2-C ,  3-C ) :   0.9533 B(  2-C ,  8-H ) :   0.9446
B(  2-C ,  9-H ) :   0.9408 B(  3-C ,  4-O ) :   0.8297 B(  3-C , 10-H ) :   0.9345
B(  3-C , 11-H ) :   0.9401 B( 12-C , 13-H ) :   0.9327 B( 12-C , 14-H ) :   0.9250
B( 12-C , 15-O ) :   0.7802 B( 12-C , 16-C ) :   0.8976 B( 16-C , 17-C ) :   0.9123
B( 16-C , 20-O ) :   0.8523 B( 16-C , 21-H ) :   0.9272 B( 17-C , 18-C ) :   0.9011
B( 17-C , 22-H ) :   0.9320 B( 17-C , 23-O ) :   0.9327 B( 18-C , 19-C ) :   0.9385
B( 18-C , 24-H ) :   0.9456 B( 18-C , 25-H ) :   0.9435 B( 19-C , 20-O ) :   0.8354
B( 19-C , 26-H ) :   0.9341 B( 19-C , 27-H ) :   0.9382 B( 23-O , 28-H ) :   0.7186

FINAL SINGLE POINT ENERGY      -652.871462317520

DIPOLE MOMENT
-------------
                                X             Y             Z
Electronic contribution:      0.15291      -2.69772       0.82902
Nuclear contribution   :      0.38834       2.99314      -1.50061
                        -----------------------------------------
Total Dipole Moment    :      0.54125       0.29542      -0.67159
                        -----------------------------------------
Magnitude (a.u.)       :      0.91173
Magnitude (Debye)      :      2.31744

Rotational constants in cm-1:     0.056885     0.014372     0.013370
Rotational constants in MHz :  1705.355903   430.856536   400.822105

                             ****ORCA TERMINATED NORMALLY****
TOTAL RUN TIME: 0 days 0 hours 31 minutes 53 seconds 532 msec
