                         Program Version 4.2.0 -  RELEASE  -
|  1> # Test redundant internal optimization
|  2> #
|  3> ! RKS B3LYP  Opt TightSCF SmallPrint
|  4>
|  5> %basis
|  6>         Basis "6-31G"
|  7> end
|  8>
|  9> %geom
| 10> Constraints
| 11> { D 4  0  15  12  195.0   C } # D for Dihedral angle
| 12> { D 0  15  12  16  0.0   C } # D for Dihedral angle
| 13> { D 0  4  3  2   C } # D for Dihedral angle
| 14> { D 4  3  2  1   C } # D for Dihedral angle
| 15> { D 3  2  1  0   C } # D for Dihedral angle
| 16> { D 2  1  0  4   C } # D for Dihedral angle
| 17> { D 1  0  4  3   C } # D for Dihedral angle
| 18> { D 16  20  19  18   C } # D for Dihedral angle
| 19> { D 20  19  18  17   C } # D for Dihedral angle
| 20> { D 19  18  17  16   C } # D for Dihedral angle
| 21> { D 18  17  16  20   C } # D for Dihedral angle
| 22> { D 17  16  20  19   C } # D for Dihedral angle
| 23> { D 15  12  16  20   C } # D for Dihedral angle
| 24> end
| 25> end
| 26>
| 27>
| 28> #%pal
| 29> #nprocs 8
| 30> #end
| 31>
| 32> * xyz 0 1
| 33> C  -21.048   26.222   46.251
| 34> C  -20.361   27.558   45.944
| 35> C  -20.329   28.222   47.341
| 36> C  -20.110   27.022   48.296
| 37> O  -20.473   25.807   47.535
| 38> H  -20.833   25.428   45.533
| 39> H  -19.344   27.382   45.576
| 40> H  -20.898   28.157   45.201
| 41> H  -19.543   28.978   47.434
| 42> H  -21.289   28.710   47.548
| 43> H  -20.733   27.082   49.195
| 44> H  -19.064   26.913   48.597
| 45> C  -23.353   26.472   45.026
| 46> H  -24.084   25.655   44.978
| 47> H  -23.895   27.423   44.948
| 48> O  -22.586   26.394   46.375
| 49> C  -22.413   26.361   43.794
| 50> C  -21.738   24.986   43.731
| 51> C  -22.868   24.108   43.143
| 52> C  -23.586   25.070   42.163
| 53> O  -23.187   26.440   42.551
| 54> H  -21.721   27.205   43.794
| 55> O  -20.521   25.034   42.767
| 56> H  -21.389   24.632   44.708
| 57> H  -22.491   23.210   42.644
| 58> H  -23.549   23.788   43.940
| 59> H  -24.676   24.986   42.216
| 60> H  -23.270   24.923   41.127
| 61> H  -20.846   25.386   41.780
| 62> *
| 63>
| 64>                          ****END OF INPUT****
 Total Charge           Charge          ....    0
 Multiplicity           Mult            ....    1
 Number of Electrons    NEL             ....  102
FINAL SINGLE POINT ENERGY      -652.802914827844
FINAL SINGLE POINT ENERGY      -652.831992751520
FINAL SINGLE POINT ENERGY      -652.846596405114
FINAL SINGLE POINT ENERGY      -652.848593308468
FINAL SINGLE POINT ENERGY      -652.849005068201
FINAL SINGLE POINT ENERGY      -652.849063518943
FINAL SINGLE POINT ENERGY      -652.849067900802
                    ***********************HURRAY********************

CARTESIAN COORDINATES (ANGSTROEM)
---------------------------------
  C    -20.871739   26.232725   46.355018
  C    -20.106892   27.535374   46.123370
  C    -20.365042   28.299669   47.446342
  C    -20.387347   27.168322   48.495040
  O    -20.605865   25.913270   47.729340
  H    -20.529017   25.381097   45.768072
  H    -19.039784   27.313276   46.001157
  H    -20.447110   28.085544   45.241870
  H    -19.595378   29.048683   47.654576
  H    -21.336112   28.800584   47.400085
  H    -21.192697   27.274204   49.226390
  H    -19.433123   27.052002   49.018171
  C    -23.058083   26.462670   44.989333
  H    -23.830987   25.689557   45.080654
  H    -23.568509   27.430738   44.949387
  O    -22.307987   26.428734   46.246640
  C    -22.348468   26.285417   43.632028
  C    -21.678919   24.927138   43.357505
  C    -22.905525   24.028018   43.024964
  C    -23.853317   25.004289   42.282395
  O    -23.399817   26.375004   42.613293
  H    -21.649871   27.103964   43.438970
  O    -20.758164   25.032869   42.237393
  H    -21.086177   24.530953   44.176799
  H    -22.601891   23.176550   42.411466
  H    -23.358541   23.649113   43.946554
  H    -24.898993   24.895070   42.585609
  H    -23.793442   24.900757   41.194135
  H    -21.189202   25.528407   41.509447

 Multiplicity           Mult            ....    1
 Number of Electrons    NEL             ....  102
 Basis Dimension        Dim             ....  149

ORBITAL ENERGIES
----------------

  NO   OCC          E(Eh)            E(eV)
   0   2.0000     -19.154563      -521.2222
   1   2.0000     -19.145820      -520.9843
   2   2.0000     -19.138171      -520.7761
   3   2.0000     -19.135847      -520.7129
   4   2.0000     -10.280375      -279.7432
   5   2.0000     -10.248943      -278.8879
   6   2.0000     -10.245161      -278.7850
   7   2.0000     -10.239116      -278.6205
   8   2.0000     -10.233563      -278.4694
   9   2.0000     -10.222894      -278.1791
  10   2.0000     -10.195495      -277.4335
  11   2.0000     -10.185730      -277.1678
  12   2.0000     -10.184824      -277.1431
  13   2.0000      -1.050510       -28.5858
  14   2.0000      -1.045468       -28.4486
  15   2.0000      -1.015047       -27.6208
  16   2.0000      -0.987535       -26.8722
  17   2.0000      -0.786671       -21.4064
  18   2.0000      -0.784091       -21.3362
  19   2.0000      -0.772074       -21.0092
  20   2.0000      -0.737279       -20.0624
  21   2.0000      -0.679958       -18.5026
  22   2.0000      -0.612194       -16.6586
  23   2.0000      -0.607038       -16.5183
  24   2.0000      -0.597793       -16.2668
  25   2.0000      -0.578343       -15.7375
  26   2.0000      -0.530620       -14.4389
  27   2.0000      -0.515840       -14.0367
  28   2.0000      -0.502647       -13.6777
  29   2.0000      -0.483099       -13.1458
  30   2.0000      -0.479076       -13.0363
  31   2.0000      -0.462073       -12.5737
  32   2.0000      -0.447479       -12.1765
  33   2.0000      -0.440313       -11.9815
  34   2.0000      -0.428215       -11.6523
  35   2.0000      -0.419990       -11.4285
  36   2.0000      -0.402540       -10.9537
  37   2.0000      -0.399986       -10.8842
  38   2.0000      -0.378714       -10.3053
  39   2.0000      -0.376880       -10.2554
  40   2.0000      -0.364057        -9.9065
  41   2.0000      -0.357235        -9.7209
  42   2.0000      -0.353088        -9.6080
  43   2.0000      -0.338066        -9.1992
  44   2.0000      -0.316996        -8.6259
  45   2.0000      -0.312174        -8.4947
  46   2.0000      -0.304533        -8.2868
  47   2.0000      -0.278560        -7.5800
  48   2.0000      -0.257981        -7.0200
  49   2.0000      -0.253131        -6.8880
  50   2.0000      -0.244596        -6.6558
  51   0.0000       0.057570         1.5666
  52   0.0000       0.070511         1.9187
  53   0.0000       0.084794         2.3074
  54   0.0000       0.087534         2.3819
  55   0.0000       0.096117         2.6155

MULLIKEN ATOMIC CHARGES
-----------------------
   0 C :    0.293908
   1 C :   -0.270831
   2 C :   -0.297867
   3 C :   -0.001664
   4 O :   -0.501434
   5 H :    0.144151
   6 H :    0.148151
   7 H :    0.142772
   8 H :    0.141515
   9 H :    0.161157
  10 H :    0.154102
  11 H :    0.142157
  12 C :    0.009605
  13 H :    0.143730
  14 H :    0.158488
  15 O :   -0.530741
  16 C :    0.023546
  17 C :    0.076178
  18 C :   -0.300042
  19 C :   -0.036621
  20 O :   -0.522979
  21 H :    0.162642
  22 O :   -0.600850
  23 H :    0.169203
  24 H :    0.165633
  25 H :    0.156070
  26 H :    0.153203
  27 H :    0.151274
  28 H :    0.365547
Sum of atomic charges:    0.0000000

LOEWDIN ATOMIC CHARGES
----------------------
   0 C :    0.181658
   1 C :   -0.230142
   2 C :   -0.216312
   3 C :   -0.025492
   4 O :   -0.303733
   5 H :    0.095209
   6 H :    0.115599
   7 H :    0.112172
   8 H :    0.114186
   9 H :    0.118450
  10 H :    0.109201
  11 H :    0.102227
  12 C :   -0.040660
  13 H :    0.104951
  14 H :    0.113824
  15 O :   -0.342870
  16 C :    0.003095
  17 C :    0.032770
  18 C :   -0.240457
  19 C :   -0.040313
  20 O :   -0.324345
  21 H :    0.112299
  22 O :   -0.413490
  23 H :    0.118376
  24 H :    0.128663
  25 H :    0.119598
  26 H :    0.107325
  27 H :    0.104540
  28 H :    0.283671

  Mayer bond orders larger than 0.100000
B(  0-C ,  1-C ) :   0.9293 B(  0-C ,  4-O ) :   0.9339 B(  0-C ,  5-H ) :   0.9033
B(  0-C , 15-O ) :   0.8332 B(  1-C ,  2-C ) :   0.9516 B(  1-C ,  6-H ) :   0.9333
B(  1-C ,  7-H ) :   0.9348 B(  2-C ,  3-C ) :   0.9544 B(  2-C ,  8-H ) :   0.9448
B(  2-C ,  9-H ) :   0.9444 B(  3-C ,  4-O ) :   0.8346 B(  3-C , 10-H ) :   0.9350
B(  3-C , 11-H ) :   0.9396 B( 12-C , 13-H ) :   0.9279 B( 12-C , 14-H ) :   0.9217
B( 12-C , 15-O ) :   0.8393 B( 12-C , 16-C ) :   0.8875 B( 16-C , 17-C ) :   0.8999
B( 16-C , 20-O ) :   0.8260 B( 16-C , 21-H ) :   0.9202 B( 17-C , 18-C ) :   0.9103
B( 17-C , 22-O ) :   0.8941 B( 17-C , 23-H ) :   0.9161 B( 18-C , 19-C ) :   0.9410
B( 18-C , 24-H ) :   0.9369 B( 18-C , 25-H ) :   0.9319 B( 19-C , 20-O ) :   0.8384
B( 19-C , 26-H ) :   0.9343 B( 19-C , 27-H ) :   0.9369 B( 22-O , 28-H ) :   0.7936

FINAL SINGLE POINT ENERGY      -652.849068813255

DIPOLE MOMENT
-------------
                                X             Y             Z
Electronic contribution:     -0.45796      -1.45727      -0.94338
Nuclear contribution   :      0.30813       1.75787       0.46659
                        -----------------------------------------
Total Dipole Moment    :     -0.14983       0.30060      -0.47679
                        -----------------------------------------
Magnitude (a.u.)       :      0.58322
Magnitude (Debye)      :      1.48241

Rotational constants in cm-1:     0.059006     0.013022     0.012588
Rotational constants in MHz :  1768.964409   390.380705   377.368725

                             ****ORCA TERMINATED NORMALLY****
TOTAL RUN TIME: 0 days 0 hours 21 minutes 49 seconds 116 msec
