                         Program Version 4.2.0 -  RELEASE  -
|  1> # Test redundant internal optimization
|  2> #
|  3> ! RKS B3LYP  Opt TightSCF SmallPrint
|  4>
|  5> %basis
|  6>         Basis "6-31G"
|  7> end
|  8>
|  9> %geom
| 10> Constraints
| 11> { D 4  0  15  12  195.0   C } # D for Dihedral angle
| 12> { D 0  15  12  16  180.0   C } # D for Dihedral angle
| 13> { D 0  4  3  2   C } # D for Dihedral angle
| 14> { D 4  3  2  1   C } # D for Dihedral angle
| 15> { D 3  2  1  0   C } # D for Dihedral angle
| 16> { D 2  1  0  4   C } # D for Dihedral angle
| 17> { D 1  0  4  3   C } # D for Dihedral angle
| 18> { D 16  20  19  18   C } # D for Dihedral angle
| 19> { D 20  19  18  17   C } # D for Dihedral angle
| 20> { D 19  18  17  16   C } # D for Dihedral angle
| 21> { D 18  17  16  20   C } # D for Dihedral angle
| 22> { D 17  16  20  19   C } # D for Dihedral angle
| 23> { D 15  12  16  20   C } # D for Dihedral angle
| 24> end
| 25> end
| 26>
| 27>
| 28> #%pal
| 29> #nprocs 8
| 30> #end
| 31>
| 32> * xyz 0 1
| 33> C  -21.048   26.222   46.251
| 34> C  -20.361   27.558   45.944
| 35> C  -20.329   28.222   47.341
| 36> C  -20.110   27.022   48.296
| 37> O  -20.473   25.807   47.535
| 38> H  -20.833   25.428   45.533
| 39> H  -19.344   27.382   45.576
| 40> H  -20.898   28.157   45.201
| 41> H  -19.543   28.978   47.434
| 42> H  -21.289   28.710   47.548
| 43> H  -20.733   27.082   49.195
| 44> H  -19.064   26.913   48.597
| 45> C  -23.353   26.472   45.026
| 46> H  -22.979   27.325   44.447
| 47> H  -23.189   25.560   44.438
| 48> O  -22.586   26.394   46.375
| 49> C  -24.885   26.644   45.216
| 50> C  -25.217   27.984   45.883
| 51> C  -25.098   28.965   44.692
| 52> C  -25.618   28.129   43.495
| 53> O  -25.558   26.712   43.914
| 54> H  -25.282   25.770   45.735
| 55> O  -26.670   27.960   46.432
| 56> H  -24.541   28.233   46.708
| 57> H  -25.674   29.883   44.840
| 58> H  -24.050   29.247   44.541
| 59> H  -25.009   28.262   42.595
| 60> H  -26.661   28.350   43.253
| 61> H  -27.366   27.712   45.621
| 62> *
| 63>
| 64>                          ****END OF INPUT****
 Total Charge           Charge          ....    0
 Multiplicity           Mult            ....    1
 Number of Electrons    NEL             ....  102
FINAL SINGLE POINT ENERGY      -652.834969395972
FINAL SINGLE POINT ENERGY      -652.858606924484
FINAL SINGLE POINT ENERGY      -652.862277068487
FINAL SINGLE POINT ENERGY      -652.862934290526
FINAL SINGLE POINT ENERGY      -652.863024521611
FINAL SINGLE POINT ENERGY      -652.863035588428
                    ***********************HURRAY********************

CARTESIAN COORDINATES (ANGSTROEM)
---------------------------------
  C    -21.139799   26.216540   46.190244
  C    -20.394839   27.517727   45.899820
  C    -20.462840   28.239796   47.267979
  C    -20.360921   27.075325   48.274859
  O    -20.698491   25.849215   47.503006
  H    -20.911727   25.383199   45.516688
  H    -19.357968   27.286701   45.629345
  H    -20.837488   28.100585   45.087018
  H    -19.661310   28.973591   47.395063
  H    -21.422420   28.755270   47.368971
  H    -21.059375   27.162655   49.110429
  H    -19.347238   26.931924   48.659899
  C    -23.253164   26.461711   44.953883
  H    -22.856117   27.272673   44.324799
  H    -23.117446   25.516492   44.409686
  O    -22.582031   26.418065   46.241624
  C    -24.739512   26.677897   45.229193
  C    -25.087623   28.003102   45.921806
  C    -25.053148   28.996640   44.732584
  C    -25.595617   28.153397   43.551655
  O    -25.469565   26.730545   43.957831
  H    -25.130986   25.828928   45.795581
  O    -26.408406   27.939315   46.527470
  H    -24.401531   28.252227   46.729140
  H    -25.667143   29.875139   44.944795
  H    -24.027575   29.332762   44.545586
  H    -25.037260   28.308458   42.623517
  H    -26.656046   28.338724   43.355681
  H    -27.023414   27.484398   45.913849

 Multiplicity           Mult            ....    1
 Number of Electrons    NEL             ....  102
 Basis Dimension        Dim             ....  149

ORBITAL ENERGIES
----------------

  NO   OCC          E(Eh)            E(eV)
   0   2.0000     -19.146751      -521.0096
   1   2.0000     -19.146603      -521.0056
   2   2.0000     -19.143223      -520.9136
   3   2.0000     -19.135208      -520.6955
   4   2.0000     -10.283298      -279.8228
   5   2.0000     -10.236866      -278.5593
   6   2.0000     -10.235048      -278.5098
   7   2.0000     -10.234434      -278.4931
   8   2.0000     -10.233567      -278.4695
   9   2.0000     -10.227437      -278.3027
  10   2.0000     -10.191700      -277.3302
  11   2.0000     -10.190492      -277.2974
  12   2.0000     -10.189463      -277.2694
  13   2.0000      -1.057796       -28.7841
  14   2.0000      -1.037344       -28.2276
  15   2.0000      -1.005191       -27.3527
  16   2.0000      -0.999545       -27.1990
  17   2.0000      -0.791032       -21.5251
  18   2.0000      -0.781434       -21.2639
  19   2.0000      -0.770180       -20.9577
  20   2.0000      -0.732747       -19.9391
  21   2.0000      -0.677761       -18.4428
  22   2.0000      -0.605621       -16.4798
  23   2.0000      -0.604656       -16.4535
  24   2.0000      -0.591757       -16.1025
  25   2.0000      -0.583933       -15.8896
  26   2.0000      -0.526321       -14.3219
  27   2.0000      -0.517870       -14.0920
  28   2.0000      -0.500963       -13.6319
  29   2.0000      -0.492569       -13.4035
  30   2.0000      -0.474014       -12.8986
  31   2.0000      -0.456727       -12.4282
  32   2.0000      -0.452907       -12.3242
  33   2.0000      -0.446936       -12.1618
  34   2.0000      -0.426444       -11.6041
  35   2.0000      -0.416720       -11.3395
  36   2.0000      -0.403875       -10.9900
  37   2.0000      -0.393734       -10.7140
  38   2.0000      -0.378021       -10.2865
  39   2.0000      -0.369090       -10.0435
  40   2.0000      -0.364678        -9.9234
  41   2.0000      -0.359177        -9.7737
  42   2.0000      -0.355772        -9.6811
  43   2.0000      -0.333578        -9.0771
  44   2.0000      -0.317815        -8.6482
  45   2.0000      -0.312358        -8.4997
  46   2.0000      -0.304272        -8.2797
  47   2.0000      -0.272290        -7.4094
  48   2.0000      -0.262414        -7.1406
  49   2.0000      -0.257263        -7.0005
  50   2.0000      -0.248490        -6.7618
  51   0.0000       0.058949         1.6041
  52   0.0000       0.065492         1.7821
  53   0.0000       0.091113         2.4793
  54   0.0000       0.099254         2.7008
  55   0.0000       0.102255         2.7825

MULLIKEN ATOMIC CHARGES
-----------------------
   0 C :    0.309585
   1 C :   -0.274632
   2 C :   -0.298815
   3 C :   -0.002849
   4 O :   -0.502376
   5 H :    0.140654
   6 H :    0.148792
   7 H :    0.139618
   8 H :    0.143960
   9 H :    0.158111
  10 H :    0.157462
  11 H :    0.143593
  12 C :   -0.010326
  13 H :    0.122940
  14 H :    0.147098
  15 O :   -0.516800
  16 C :    0.059446
  17 C :    0.085784
  18 C :   -0.294540
  19 C :   -0.030761
  20 O :   -0.528564
  21 H :    0.172908
  22 O :   -0.601223
  23 H :    0.174523
  24 H :    0.162763
  25 H :    0.138260
  26 H :    0.144098
  27 H :    0.148269
  28 H :    0.363021
Sum of atomic charges:   -0.0000000

LOEWDIN ATOMIC CHARGES
----------------------
   0 C :    0.180856
   1 C :   -0.230198
   2 C :   -0.216717
   3 C :   -0.024902
   4 O :   -0.302218
   5 H :    0.097357
   6 H :    0.116123
   7 H :    0.112028
   8 H :    0.115300
   9 H :    0.115852
  10 H :    0.111059
  11 H :    0.103515
  12 C :   -0.041888
  13 H :    0.086152
  14 H :    0.103898
  15 O :   -0.334065
  16 C :    0.020179
  17 C :    0.038076
  18 C :   -0.240834
  19 C :   -0.038501
  20 O :   -0.331041
  21 H :    0.122005
  22 O :   -0.413422
  23 H :    0.125516
  24 H :    0.126945
  25 H :    0.110442
  26 H :    0.102976
  27 H :    0.103685
  28 H :    0.281823

  Mayer bond orders larger than 0.100000
B(  0-C ,  1-C ) :   0.9293 B(  0-C ,  4-O ) :   0.9403 B(  0-C ,  5-H ) :   0.9201
B(  0-C , 15-O ) :   0.8240 B(  1-C ,  2-C ) :   0.9524 B(  1-C ,  6-H ) :   0.9339
B(  1-C ,  7-H ) :   0.9347 B(  2-C ,  3-C ) :   0.9553 B(  2-C ,  8-H ) :   0.9449
B(  2-C ,  9-H ) :   0.9441 B(  3-C ,  4-O ) :   0.8347 B(  3-C , 10-H ) :   0.9340
B(  3-C , 11-H ) :   0.9396 B( 12-C , 13-H ) :   0.9118 B( 12-C , 14-H ) :   0.9142
B( 12-C , 15-O ) :   0.8308 B( 12-C , 16-C ) :   0.9063 B( 16-C , 17-C ) :   0.9127
B( 16-C , 20-O ) :   0.8418 B( 16-C , 21-H ) :   0.9242 B( 17-C , 18-C ) :   0.9108
B( 17-C , 22-O ) :   0.8926 B( 17-C , 23-H ) :   0.9236 B( 18-C , 19-C ) :   0.9417
B( 18-C , 24-H ) :   0.9378 B( 18-C , 25-H ) :   0.9358 B( 19-C , 20-O ) :   0.8445
B( 19-C , 26-H ) :   0.9360 B( 19-C , 27-H ) :   0.9378 B( 22-O , 28-H ) :   0.7952

FINAL SINGLE POINT ENERGY      -652.863037518208

DIPOLE MOMENT
-------------
                                X             Y             Z
Electronic contribution:     -3.57661      -5.29522       1.39349
Nuclear contribution   :      4.39493       6.43401      -2.32475
                        -----------------------------------------
Total Dipole Moment    :      0.81832       1.13879      -0.93126
                        -----------------------------------------
Magnitude (a.u.)       :      1.68337
Magnitude (Debye)      :      4.27878

Rotational constants in cm-1:     0.053477     0.012817     0.012432
Rotational constants in MHz :  1603.197190   384.232707   372.702056

                             ****ORCA TERMINATED NORMALLY****
TOTAL RUN TIME: 0 days 0 hours 17 minutes 13 seconds 738 msec
