                         Program Version 4.2.0 -  RELEASE  -
|  1> # Test redundant internal optimization
|  2> #
|  3> ! RKS B3LYP  Opt TightSCF SmallPrint
|  4>
|  5> %basis
|  6>         Basis "6-31G"
|  7> end
|  8>
|  9> %geom
| 10> Constraints
| 11> { D 4  0  15  12  0.0   C } # D for Dihedral angle
| 12> { D 0  15  12  16  105.0   C } # D for Dihedral angle
| 13> { D 0  4  3  2   C } # D for Dihedral angle
| 14> { D 4  3  2  1   C } # D for Dihedral angle
| 15> { D 3  2  1  0   C } # D for Dihedral angle
| 16> { D 2  1  0  4   C } # D for Dihedral angle
| 17> { D 1  0  4  3   C } # D for Dihedral angle
| 18> { D 16  20  19  18   C } # D for Dihedral angle
| 19> { D 20  19  18  17   C } # D for Dihedral angle
| 20> { D 19  18  17  16   C } # D for Dihedral angle
| 21> { D 18  17  16  20   C } # D for Dihedral angle
| 22> { D 17  16  20  19   C } # D for Dihedral angle
| 23> { D 15  12  16  20   C } # D for Dihedral angle
| 24> end
| 25> end
| 26>
| 27>
| 28> #%pal
| 29> #nprocs 8
| 30> #end
| 31>
| 32> * xyz 0 1
| 33> C  -21.048   26.222   46.251
| 34> C  -20.361   27.558   45.944
| 35> C  -20.329   28.222   47.341
| 36> C  -20.110   27.022   48.296
| 37> O  -20.473   25.807   47.535
| 38> H  -20.833   25.428   45.533
| 39> H  -19.344   27.382   45.576
| 40> H  -20.898   28.157   45.201
| 41> H  -19.543   28.978   47.434
| 42> H  -21.289   28.710   47.548
| 43> H  -20.733   27.082   49.195
| 44> H  -19.064   26.913   48.597
| 45> C  -23.172   26.101   47.783
| 46> H  -24.069   25.477   47.680
| 47> H  -22.443   25.554   48.396
| 48> O  -22.586   26.394   46.375
| 49> C  -23.562   27.393   48.553
| 50> C  -24.027   27.074   49.978
| 51> C  -22.679   26.862   50.707
| 52> C  -21.742   27.885   50.018
| 53> O  -22.388   28.252   48.740
| 54> H  -24.282   27.960   47.958
| 55> H  -24.564   27.930   50.400
| 56> O  -24.954   25.830   50.053
| 57> H  -22.750   27.024   51.788
| 58> H  -22.320   25.839   50.545
| 59> H  -20.748   27.470   49.811
| 60> H  -21.628   28.805   50.598
| 61> H  -24.437   24.958   49.637
| 62> *
| 63>
| 64>                          ****END OF INPUT****
 Total Charge           Charge          ....    0
 Multiplicity           Mult            ....    1
 Number of Electrons    NEL             ....  102
FINAL SINGLE POINT ENERGY      -652.657931963083
FINAL SINGLE POINT ENERGY      -652.734538023309
FINAL SINGLE POINT ENERGY      -652.780015299530
FINAL SINGLE POINT ENERGY      -652.808276479402
FINAL SINGLE POINT ENERGY      -652.825405110913
FINAL SINGLE POINT ENERGY      -652.835728582282
FINAL SINGLE POINT ENERGY      -652.841600818886
FINAL SINGLE POINT ENERGY      -652.844757239178
FINAL SINGLE POINT ENERGY      -652.846371676107
FINAL SINGLE POINT ENERGY      -652.847197657787
FINAL SINGLE POINT ENERGY      -652.851745489303
FINAL SINGLE POINT ENERGY      -652.851755830936
FINAL SINGLE POINT ENERGY      -652.851770667874
FINAL SINGLE POINT ENERGY      -652.851786656714
FINAL SINGLE POINT ENERGY      -652.851855748085
FINAL SINGLE POINT ENERGY      -652.851846803718
FINAL SINGLE POINT ENERGY      -652.851874470573
FINAL SINGLE POINT ENERGY      -652.851888076994
FINAL SINGLE POINT ENERGY      -652.851883916064
                    ***********************HURRAY********************

CARTESIAN COORDINATES (ANGSTROEM)
---------------------------------
  C    -21.057224   26.272752   46.249561
  C    -20.431162   27.581245   45.764424
  C    -19.986167   28.235018   47.096923
  C    -19.560392   27.023666   47.953355
  O    -20.182492   25.832128   47.305615
  H    -21.005745   25.480955   45.494737
  H    -19.572838   27.339735   45.127091
  H    -21.138344   28.193062   45.199782
  H    -19.165602   28.946606   46.957992
  H    -20.831486   28.744001   47.562000
  H    -19.900201   27.080676   48.986407
  H    -18.480224   26.845435   47.937763
  C    -23.092410   26.078358   47.824975
  H    -24.005742   25.520133   47.593130
  H    -22.416935   25.427581   48.400977
  O    -22.476905   26.378653   46.549994
  C    -23.513454   27.303573   48.645525
  C    -24.226196   26.973722   49.969612
  C    -23.026834   26.878187   50.960879
  C    -22.056643   27.954051   50.432663
  O    -22.469670   28.249183   49.028998
  H    -24.172426   27.890529   47.994236
  H    -24.882324   27.802275   50.243347
  O    -25.092660   25.815927   49.946343
  H    -23.329739   27.048911   51.996997
  H    -22.582054   25.876165   50.895572
  H    -21.013997   27.630208   50.448883
  H    -22.140534   28.895059   50.984771
  H    -24.565600   24.991206   49.918448

 Multiplicity           Mult            ....    1
 Number of Electrons    NEL             ....  102
 Basis Dimension        Dim             ....  149

ORBITAL ENERGIES
----------------

  NO   OCC          E(Eh)            E(eV)
   0   2.0000     -19.153234      -521.1860
   1   2.0000     -19.150579      -521.1138
   2   2.0000     -19.144517      -520.9488
   3   2.0000     -19.131515      -520.5950
   4   2.0000     -10.272888      -279.5395
   5   2.0000     -10.249399      -278.9003
   6   2.0000     -10.238514      -278.6041
   7   2.0000     -10.231777      -278.4208
   8   2.0000     -10.230359      -278.3822
   9   2.0000     -10.222447      -278.1669
  10   2.0000     -10.200135      -277.5598
  11   2.0000     -10.175934      -276.9012
  12   2.0000     -10.171142      -276.7708
  13   2.0000      -1.046293       -28.4711
  14   2.0000      -1.037957       -28.2442
  15   2.0000      -1.022065       -27.8118
  16   2.0000      -0.988597       -26.9011
  17   2.0000      -0.788718       -21.4621
  18   2.0000      -0.780039       -21.2259
  19   2.0000      -0.767509       -20.8850
  20   2.0000      -0.732765       -19.9395
  21   2.0000      -0.680162       -18.5082
  22   2.0000      -0.617659       -16.8074
  23   2.0000      -0.600045       -16.3281
  24   2.0000      -0.588353       -16.0099
  25   2.0000      -0.566859       -15.4250
  26   2.0000      -0.528000       -14.3676
  27   2.0000      -0.514967       -14.0130
  28   2.0000      -0.493008       -13.4154
  29   2.0000      -0.485686       -13.2162
  30   2.0000      -0.473361       -12.8808
  31   2.0000      -0.463840       -12.6217
  32   2.0000      -0.442893       -12.0517
  33   2.0000      -0.434142       -11.8136
  34   2.0000      -0.428088       -11.6489
  35   2.0000      -0.418451       -11.3866
  36   2.0000      -0.405844       -11.0436
  37   2.0000      -0.394090       -10.7237
  38   2.0000      -0.384236       -10.4556
  39   2.0000      -0.365056        -9.9337
  40   2.0000      -0.356574        -9.7029
  41   2.0000      -0.349206        -9.5024
  42   2.0000      -0.347492        -9.4557
  43   2.0000      -0.329910        -8.9773
  44   2.0000      -0.324720        -8.8361
  45   2.0000      -0.314358        -8.5541
  46   2.0000      -0.295559        -8.0426
  47   2.0000      -0.274852        -7.4791
  48   2.0000      -0.267559        -7.2807
  49   2.0000      -0.256754        -6.9866
  50   2.0000      -0.232262        -6.3202
  51   0.0000       0.048517         1.3202
  52   0.0000       0.064501         1.7552
  53   0.0000       0.087099         2.3701
  54   0.0000       0.096921         2.6374
  55   0.0000       0.100253         2.7280

MULLIKEN ATOMIC CHARGES
-----------------------
   0 C :    0.320438
   1 C :   -0.265245
   2 C :   -0.323686
   3 C :   -0.023915
   4 O :   -0.519767
   5 H :    0.151438
   6 H :    0.141635
   7 H :    0.155887
   8 H :    0.133105
   9 H :    0.204244
  10 H :    0.141333
  11 H :    0.144543
  12 C :   -0.022314
  13 H :    0.156001
  14 H :    0.134915
  15 O :   -0.545123
  16 C :    0.097844
  17 C :    0.082239
  18 C :   -0.317427
  19 C :   -0.019146
  20 O :   -0.517060
  21 H :    0.163452
  22 H :    0.170074
  23 O :   -0.598101
  24 H :    0.160163
  25 H :    0.138343
  26 H :    0.143269
  27 H :    0.154341
  28 H :    0.358520
Sum of atomic charges:   -0.0000000

LOEWDIN ATOMIC CHARGES
----------------------
   0 C :    0.188195
   1 C :   -0.219772
   2 C :   -0.230834
   3 C :   -0.031668
   4 O :   -0.322436
   5 H :    0.098818
   6 H :    0.112177
   7 H :    0.124168
   8 H :    0.110303
   9 H :    0.136363
  10 H :    0.099103
  11 H :    0.101970
  12 C :   -0.045933
  13 H :    0.115727
  14 H :    0.097215
  15 O :   -0.340344
  16 C :    0.007109
  17 C :    0.036656
  18 C :   -0.239201
  19 C :   -0.031479
  20 O :   -0.316060
  21 H :    0.116572
  22 H :    0.120313
  23 O :   -0.404379
  24 H :    0.124240
  25 H :    0.107099
  26 H :    0.098792
  27 H :    0.107535
  28 H :    0.279751

  Mayer bond orders larger than 0.100000
B(  0-C ,  1-C ) :   0.9277 B(  0-C ,  4-O ) :   0.9134 B(  0-C ,  5-H ) :   0.9337
B(  0-C , 15-O ) :   0.8435 B(  1-C ,  2-C ) :   0.9597 B(  1-C ,  6-H ) :   0.9363
B(  1-C ,  7-H ) :   0.9369 B(  2-C ,  3-C ) :   0.9598 B(  2-C ,  8-H ) :   0.9438
B(  2-C ,  9-H ) :   0.9102 B(  3-C ,  4-O ) :   0.8267 B(  3-C , 10-H ) :   0.9191
B(  3-C , 11-H ) :   0.9402 B( 12-C , 13-H ) :   0.9149 B( 12-C , 14-H ) :   0.9186
B( 12-C , 15-O ) :   0.8555 B( 12-C , 16-C ) :   0.8922 B( 16-C , 17-C ) :   0.8648
B( 16-C , 20-O ) :   0.8478 B( 16-C , 21-H ) :   0.9302 B( 17-C , 18-C ) :   0.9226
B( 17-C , 22-H ) :   0.9327 B( 17-C , 23-O ) :   0.9017 B( 18-C , 19-C ) :   0.9432
B( 18-C , 24-H ) :   0.9410 B( 18-C , 25-H ) :   0.9407 B( 19-C , 20-O ) :   0.8423
B( 19-C , 26-H ) :   0.9135 B( 19-C , 27-H ) :   0.9376 B( 23-O , 28-H ) :   0.7968

FINAL SINGLE POINT ENERGY      -652.851884788017

DIPOLE MOMENT
-------------
                                X             Y             Z
Electronic contribution:     -3.56700      -2.24570      -1.89736
Nuclear contribution   :      4.20146       2.40075       2.79975
                        -----------------------------------------
Total Dipole Moment    :      0.63446       0.15505       0.90239
                        -----------------------------------------
Magnitude (a.u.)       :      1.11395
Magnitude (Debye)      :      2.83145

Rotational constants in cm-1:     0.047265     0.017625     0.015238
Rotational constants in MHz :  1416.973677   528.369350   456.818698

                             ****ORCA TERMINATED NORMALLY****
TOTAL RUN TIME: 0 days 10 hours 25 minutes 38 seconds 296 msec
