                         Program Version 4.2.1 -  RELEASE  -
|  1> # Test redundant internal optimization
|  2> #
|  3> ! RKS B3LYP  Opt TightSCF SmallPrint
|  4>
|  5> %basis
|  6>         Basis "6-31G"
|  7> end
|  8>
|  9> %geom
| 10> Constraints
| 11> { D 4  0  19  14  105.0   C } # D for Dihedral angle
| 12> { D 0  19  14  12  90.0   C } # D for Dihedral angle
| 13> { D 0  4  3  2   C } # D for Dihedral angle
| 14> { D 4  3  2  1   C } # D for Dihedral angle
| 15> { D 3  2  1  0   C } # D for Dihedral angle
| 16> { D 2  1  0  4   C } # D for Dihedral angle
| 17> { D 1  0  4  3   C } # D for Dihedral angle
| 18> { D 14  15  16  17   C } # D for Dihedral angle
| 19> { D 15  16  17  12   C } # D for Dihedral angle
| 20> { D 16  17  12  14   C } # D for Dihedral angle
| 21> { D 17  12  14  15   C } # D for Dihedral angle
| 22> { D 12  14  15  16   C } # D for Dihedral angle
| 23> end
| 24> end
| 25>
| 26>
| 27> #%pal
| 28> #nprocs 8
| 29> #end
| 30>
| 31> * xyz 0 1
| 32> C  -21.048   26.222   46.251
| 33> C  -20.361   27.558   45.944
| 34> C  -20.329   28.222   47.341
| 35> C  -20.110   27.022   48.296
| 36> O  -20.473   25.807   47.535
| 37> H  -20.833   25.428   45.533
| 38> H  -19.344   27.382   45.576
| 39> H  -20.898   28.157   45.201
| 40> H  -19.543   28.978   47.434
| 41> H  -21.289   28.710   47.548
| 42> H  -20.733   27.082   49.195
| 43> H  -19.064   26.913   48.597
| 44> C  -23.191   28.252   44.986
| 45> H  -23.246   29.352   44.955
| 46> C  -22.914   27.747   46.406
| 47> C  -24.314   27.850   47.055
| 48> C  -25.270   27.497   45.888
| 49> O  -24.491   27.665   44.641
| 50> H  -22.477   27.909   44.236
| 51> O  -22.472   26.381   46.366
| 52> H  -22.158   28.340   46.933
| 53> H  -24.436   27.179   47.912
| 54> H  -24.494   28.874   47.404
| 55> H  -26.149   28.149   45.852
| 56> H  -25.603   26.455   45.921
| 57> *
| 58>
| 59>                          ****END OF INPUT****
 Total Charge           Charge          ....    0
 Multiplicity           Mult            ....    1
 Number of Electrons    NEL             ....   86
FINAL SINGLE POINT ENERGY      -538.379958836886
FINAL SINGLE POINT ENERGY      -538.419577096563
FINAL SINGLE POINT ENERGY      -538.422746550105
FINAL SINGLE POINT ENERGY      -538.423253034898
FINAL SINGLE POINT ENERGY      -538.423301420420
FINAL SINGLE POINT ENERGY      -538.423318000938
FINAL SINGLE POINT ENERGY      -538.423318219088
                    ***********************HURRAY********************

CARTESIAN COORDINATES (ANGSTROEM)
---------------------------------
  C    -21.119610   26.335493   46.381453
  C    -20.146319   27.448136   45.965245
  C    -19.899945   28.189744   47.314081
  C    -19.937842   27.027558   48.339502
  O    -20.610283   25.898263   47.661184
  H    -21.065849   25.453373   45.741802
  H    -19.221332   26.979352   45.615222
  H    -20.522107   28.098423   45.171700
  H    -18.938372   28.712494   47.325862
  H    -20.677947   28.930711   47.514679
  H    -20.488417   27.278289   49.251190
  H    -18.936056   26.683577   48.612528
  C    -23.406798   28.462702   45.017928
  H    -23.645178   29.537868   45.039996
  C    -23.130238   27.951079   46.431437
  C    -24.558443   27.775538   46.984770
  C    -25.366258   27.313780   45.749231
  O    -24.553272   27.675730   44.564096
  H    -22.596630   28.285539   44.308447
  O    -22.537278   26.619804   46.423198
  H    -22.545759   28.655795   47.030692
  H    -24.566242   27.047524   47.798626
  H    -24.927216   28.735808   47.363437
  H    -26.342416   27.804675   45.675946
  H    -25.500192   26.229744   45.723749

 Multiplicity           Mult            ....    1
 Number of Electrons    NEL             ....   86
 Basis Dimension        Dim             ....  127

ORBITAL ENERGIES
----------------

  NO   OCC          E(Eh)            E(eV)
   0   2.0000     -19.139397      -520.8095
   1   2.0000     -19.138800      -520.7932
   2   2.0000     -19.127573      -520.4877
   3   2.0000     -10.279530      -279.7202
   4   2.0000     -10.243593      -278.7423
   5   2.0000     -10.229131      -278.3488
   6   2.0000     -10.224530      -278.2236
   7   2.0000     -10.217910      -278.0435
   8   2.0000     -10.197166      -277.4790
   9   2.0000     -10.196739      -277.4674
  10   2.0000     -10.184389      -277.1313
  11   2.0000      -1.050231       -28.5782
  12   2.0000      -1.014280       -27.6000
  13   2.0000      -0.989612       -26.9287
  14   2.0000      -0.792036       -21.5524
  15   2.0000      -0.786204       -21.3937
  16   2.0000      -0.739058       -20.1108
  17   2.0000      -0.726847       -19.7785
  18   2.0000      -0.622439       -16.9374
  19   2.0000      -0.607700       -16.5363
  20   2.0000      -0.596562       -16.2333
  21   2.0000      -0.565493       -15.3878
  22   2.0000      -0.524433       -14.2706
  23   2.0000      -0.504765       -13.7354
  24   2.0000      -0.487934       -13.2774
  25   2.0000      -0.483883       -13.1671
  26   2.0000      -0.453623       -12.3437
  27   2.0000      -0.446920       -12.1613
  28   2.0000      -0.430992       -11.7279
  29   2.0000      -0.418048       -11.3757
  30   2.0000      -0.413397       -11.2491
  31   2.0000      -0.389098       -10.5879
  32   2.0000      -0.371284       -10.1031
  33   2.0000      -0.368890       -10.0380
  34   2.0000      -0.365924        -9.9573
  35   2.0000      -0.361909        -9.8481
  36   2.0000      -0.347487        -9.4556
  37   2.0000      -0.314221        -8.5504
  38   2.0000      -0.304955        -8.2982
  39   2.0000      -0.290592        -7.9074
  40   2.0000      -0.266702        -7.2573
  41   2.0000      -0.252107        -6.8602
  42   2.0000      -0.233561        -6.3555
  43   0.0000       0.066335         1.8051
  44   0.0000       0.087932         2.3928
  45   0.0000       0.092938         2.5290
  46   0.0000       0.107902         2.9362
  47   0.0000       0.110738         3.0133

MULLIKEN ATOMIC CHARGES
-----------------------
   0 C :    0.314242
   1 C :   -0.300206
   2 C :   -0.312978
   3 C :   -0.004970
   4 O :   -0.496567
   5 H :    0.166547
   6 H :    0.160625
   7 H :    0.145788
   8 H :    0.146538
   9 H :    0.149158
  10 H :    0.144840
  11 H :    0.146526
  12 C :    0.002303
  13 H :    0.122118
  14 C :    0.057770
  15 C :   -0.286718
  16 C :    0.003322
  17 O :   -0.519042
  18 H :    0.154200
  19 O :   -0.521136
  20 H :    0.126617
  21 H :    0.172238
  22 H :    0.136155
  23 H :    0.133035
  24 H :    0.159595
Sum of atomic charges:   -0.0000000

LOEWDIN ATOMIC CHARGES
----------------------
   0 C :    0.179691
   1 C :   -0.231763
   2 C :   -0.222450
   3 C :   -0.032051
   4 O :   -0.316591
   5 H :    0.111696
   6 H :    0.125377
   7 H :    0.115016
   8 H :    0.116372
   9 H :    0.106624
  10 H :    0.103410
  11 H :    0.104447
  12 C :   -0.047469
  13 H :    0.090533
  14 C :    0.036102
  15 C :   -0.222894
  16 C :   -0.026465
  17 O :   -0.329561
  18 H :    0.111883
  19 O :   -0.318235
  20 H :    0.095002
  21 H :    0.132623
  22 H :    0.109688
  23 H :    0.097428
  24 H :    0.111587

  Mayer bond orders larger than 0.100000
B(  0-C ,  1-C ) :   0.9247 B(  0-C ,  4-O ) :   0.9065 B(  0-C ,  5-H ) :   0.9335
B(  0-C , 19-O ) :   0.8922 B(  1-C ,  2-C ) :   0.9518 B(  1-C ,  6-H ) :   0.9346
B(  1-C ,  7-H ) :   0.9290 B(  2-C ,  3-C ) :   0.9474 B(  2-C ,  8-H ) :   0.9448
B(  2-C ,  9-H ) :   0.9361 B(  3-C ,  4-O ) :   0.8504 B(  3-C , 10-H ) :   0.9343
B(  3-C , 11-H ) :   0.9389 B( 12-C , 13-H ) :   0.9093 B( 12-C , 14-C ) :   0.9146
B( 12-C , 17-O ) :   0.8758 B( 12-C , 18-H ) :   0.9298 B( 14-C , 15-C ) :   0.9542
B( 14-C , 19-O ) :   0.8309 B( 14-C , 20-H ) :   0.9048 B( 15-C , 16-C ) :   0.9491
B( 15-C , 21-H ) :   0.9350 B( 15-C , 22-H ) :   0.9421 B( 16-C , 17-O ) :   0.8519
B( 16-C , 23-H ) :   0.9336 B( 16-C , 24-H ) :   0.9354

FINAL SINGLE POINT ENERGY      -538.423308254129

DIPOLE MOMENT
-------------
                                X             Y             Z
Electronic contribution:     -1.40829      -4.15067      -1.40779
Nuclear contribution   :      2.12218       5.46795       1.94131
                        -----------------------------------------
Total Dipole Moment    :      0.71390       1.31727       0.53352
                        -----------------------------------------
Magnitude (a.u.)       :      1.59044
Magnitude (Debye)      :      4.04258

Rotational constants in cm-1:     0.082764     0.021082     0.020035
Rotational constants in MHz :  2481.201320   632.030681   600.627111

                             ****ORCA TERMINATED NORMALLY****
TOTAL RUN TIME: 0 days 0 hours 9 minutes 13 seconds 524 msec
