                         Program Version 4.2.0 -  RELEASE  -
|  1> # Test redundant internal optimization
|  2> #
|  3> ! RKS B3LYP  Opt TightSCF SmallPrint
|  4>
|  5> %basis
|  6>         Basis "6-31G"
|  7> end
|  8>
|  9> %geom
| 10> Constraints
| 11> { D 4  0  15  12  180.0   C } # D for Dihedral angle
| 12> { D 0  15  12  16  210.0   C } # D for Dihedral angle
| 13> { D 0  4  3  2   C } # D for Dihedral angle
| 14> { D 4  3  2  1   C } # D for Dihedral angle
| 15> { D 3  2  1  0   C } # D for Dihedral angle
| 16> { D 2  1  0  4   C } # D for Dihedral angle
| 17> { D 1  0  4  3   C } # D for Dihedral angle
| 18> { D 16  20  19  18   C } # D for Dihedral angle
| 19> { D 20  19  18  17   C } # D for Dihedral angle
| 20> { D 19  18  17  16   C } # D for Dihedral angle
| 21> { D 18  17  16  20   C } # D for Dihedral angle
| 22> { D 17  16  20  19   C } # D for Dihedral angle
| 23> { D 15  12  16  20   C } # D for Dihedral angle
| 24> end
| 25> end
| 26>
| 27>
| 28> #%pal
| 29> #nprocs 8
| 30> #end
| 31>
| 32> * xyz 0 1
| 33> C  -21.048   26.222   46.251
| 34> C  -20.361   27.558   45.944
| 35> C  -20.329   28.222   47.341
| 36> C  -20.110   27.022   48.296
| 37> O  -20.473   25.807   47.535
| 38> H  -20.833   25.428   45.533
| 39> H  -19.344   27.382   45.576
| 40> H  -20.898   28.157   45.201
| 41> H  -19.543   28.978   47.434
| 42> H  -21.289   28.710   47.548
| 43> H  -20.733   27.082   49.195
| 44> H  -19.064   26.913   48.597
| 45> C  -23.309   26.834   45.072
| 46> H  -22.622   27.435   44.463
| 47> H  -23.610   25.956   44.485
| 48> O  -22.586   26.394   46.375
| 49> C  -24.584   27.678   45.348
| 50> C  -25.333   27.995   44.049
| 51> C  -26.082   26.667   43.787
| 52> C  -26.434   26.174   45.212
| 53> O  -25.547   26.907   46.141
| 54> H  -24.311   28.555   45.939
| 55> O  -26.339   29.155   44.284
| 56> H  -24.667   28.277   43.226
| 57> H  -26.969   26.797   43.159
| 58> H  -25.418   25.953   43.284
| 59> H  -26.271   25.097   45.336
| 60> H  -27.463   26.412   45.494
| 61> H  -27.017   28.894   45.104
| 62> *
| 63>
| 64>                          ****END OF INPUT****
 Total Charge           Charge          ....    0
 Multiplicity           Mult            ....    1
 Number of Electrons    NEL             ....  102
FINAL SINGLE POINT ENERGY      -652.827510576212
FINAL SINGLE POINT ENERGY      -652.850434200601
FINAL SINGLE POINT ENERGY      -652.854446212103
FINAL SINGLE POINT ENERGY      -652.855098810519
FINAL SINGLE POINT ENERGY      -652.855192010678
FINAL SINGLE POINT ENERGY      -652.855203130148
                    ***********************HURRAY********************

CARTESIAN COORDINATES (ANGSTROEM)
---------------------------------
  C    -21.073586   26.241258   46.161384
  C    -20.358988   27.567955   45.908147
  C    -20.479391   28.268991   47.286087
  C    -20.367696   27.090386   48.274973
  O    -20.651841   25.869068   47.478319
  H    -20.802094   25.425409   45.483230
  H    -19.309675   27.362796   45.665452
  H    -20.781657   28.159995   45.092184
  H    -19.701343   29.022207   47.441509
  H    -21.455565   28.754754   47.372465
  H    -21.087838   27.144749   49.094806
  H    -19.359295   26.969647   48.681732
  C    -23.202208   26.762403   44.984316
  H    -22.563005   27.391336   44.347632
  H    -23.457691   25.856724   44.414548
  O    -22.526663   26.385236   46.211259
  C    -24.455545   27.558001   45.343438
  C    -25.289633   27.978791   44.124739
  C    -26.123902   26.698057   43.854361
  C    -26.385228   26.146291   45.277947
  O    -25.389820   26.790084   46.167791
  H    -24.159482   28.424754   45.942217
  O    -26.135519   29.117031   44.445866
  H    -24.696263   28.297082   43.266135
  H    -27.041542   26.942127   43.313497
  H    -25.545438   25.989256   43.250955
  H    -26.267583   25.059951   45.340532
  H    -27.377074   26.412384   45.656238
  H    -26.541435   28.974277   45.327240

 Multiplicity           Mult            ....    1
 Number of Electrons    NEL             ....  102
 Basis Dimension        Dim             ....  149

ORBITAL ENERGIES
----------------

  NO   OCC          E(Eh)            E(eV)
   0   2.0000     -19.141203      -520.8586
   1   2.0000     -19.140690      -520.8447
   2   2.0000     -19.138767      -520.7923
   3   2.0000     -19.138292      -520.7794
   4   2.0000     -10.279669      -279.7240
   5   2.0000     -10.245468      -278.7934
   6   2.0000     -10.236343      -278.5450
   7   2.0000     -10.235279      -278.5161
   8   2.0000     -10.230317      -278.3811
   9   2.0000     -10.223475      -278.1949
  10   2.0000     -10.191451      -277.3235
  11   2.0000     -10.189520      -277.2709
  12   2.0000     -10.187302      -277.2106
  13   2.0000      -1.052848       -28.6494
  14   2.0000      -1.037542       -28.2330
  15   2.0000      -1.007847       -27.4249
  16   2.0000      -0.991925       -26.9916
  17   2.0000      -0.788212       -21.4483
  18   2.0000      -0.785136       -21.3646
  19   2.0000      -0.769321       -20.9343
  20   2.0000      -0.732044       -19.9199
  21   2.0000      -0.677401       -18.4330
  22   2.0000      -0.606288       -16.4979
  23   2.0000      -0.602273       -16.3887
  24   2.0000      -0.592355       -16.1188
  25   2.0000      -0.582154       -15.8412
  26   2.0000      -0.524260       -14.2658
  27   2.0000      -0.514759       -14.0073
  28   2.0000      -0.498835       -13.5740
  29   2.0000      -0.492737       -13.4080
  30   2.0000      -0.474000       -12.8982
  31   2.0000      -0.460818       -12.5395
  32   2.0000      -0.454289       -12.3618
  33   2.0000      -0.441579       -12.0160
  34   2.0000      -0.429476       -11.6866
  35   2.0000      -0.409101       -11.1322
  36   2.0000      -0.402699       -10.9580
  37   2.0000      -0.395081       -10.7507
  38   2.0000      -0.376529       -10.2459
  39   2.0000      -0.373520       -10.1640
  40   2.0000      -0.361894        -9.8476
  41   2.0000      -0.356705        -9.7064
  42   2.0000      -0.354193        -9.6381
  43   2.0000      -0.333934        -9.0868
  44   2.0000      -0.313224        -8.5233
  45   2.0000      -0.307401        -8.3648
  46   2.0000      -0.299898        -8.1607
  47   2.0000      -0.273611        -7.4453
  48   2.0000      -0.259128        -7.0512
  49   2.0000      -0.255598        -6.9552
  50   2.0000      -0.240423        -6.5422
  51   0.0000       0.063722         1.7340
  52   0.0000       0.078282         2.1302
  53   0.0000       0.087398         2.3782
  54   0.0000       0.093267         2.5379
  55   0.0000       0.100821         2.7435

MULLIKEN ATOMIC CHARGES
-----------------------
   0 C :    0.304894
   1 C :   -0.285297
   2 C :   -0.297839
   3 C :   -0.000127
   4 O :   -0.499161
   5 H :    0.139907
   6 H :    0.149561
   7 H :    0.141298
   8 H :    0.142697
   9 H :    0.159330
  10 H :    0.158858
  11 H :    0.141337
  12 C :   -0.007276
  13 H :    0.119779
  14 H :    0.132819
  15 O :   -0.497892
  16 C :    0.075215
  17 C :    0.074918
  18 C :   -0.302558
  19 C :   -0.027251
  20 O :   -0.505660
  21 H :    0.160883
  22 O :   -0.602506
  23 H :    0.148658
  24 H :    0.164695
  25 H :    0.145823
  26 H :    0.154591
  27 H :    0.143558
  28 H :    0.366746
Sum of atomic charges:    0.0000000

LOEWDIN ATOMIC CHARGES
----------------------
   0 C :    0.181690
   1 C :   -0.234234
   2 C :   -0.216677
   3 C :   -0.024582
   4 O :   -0.300369
   5 H :    0.096141
   6 H :    0.116715
   7 H :    0.111414
   8 H :    0.114655
   9 H :    0.116467
  10 H :    0.111924
  11 H :    0.102268
  12 C :   -0.045336
  13 H :    0.091813
  14 H :    0.095360
  15 O :   -0.322454
  16 C :    0.018574
  17 C :    0.033996
  18 C :   -0.242843
  19 C :   -0.037330
  20 O :   -0.317197
  21 H :    0.116665
  22 O :   -0.414624
  23 H :    0.113551
  24 H :    0.127129
  25 H :    0.113092
  26 H :    0.107894
  27 H :    0.101807
  28 H :    0.284493

  Mayer bond orders larger than 0.100000
B(  0-C ,  1-C ) :   0.9282 B(  0-C ,  4-O ) :   0.9410 B(  0-C ,  5-H ) :   0.9212
B(  0-C , 15-O ) :   0.8345 B(  1-C ,  2-C ) :   0.9510 B(  1-C ,  6-H ) :   0.9331
B(  1-C ,  7-H ) :   0.9298 B(  2-C ,  3-C ) :   0.9555 B(  2-C ,  8-H ) :   0.9447
B(  2-C ,  9-H ) :   0.9437 B(  3-C ,  4-O ) :   0.8342 B(  3-C , 10-H ) :   0.9338
B(  3-C , 11-H ) :   0.9397 B( 12-C , 13-H ) :   0.9024 B( 12-C , 14-H ) :   0.9185
B( 12-C , 15-O ) :   0.8471 B( 12-C , 16-C ) :   0.8970 B( 16-C , 17-C ) :   0.8977
B( 16-C , 20-O ) :   0.8733 B( 16-C , 21-H ) :   0.9245 B( 17-C , 18-C ) :   0.9113
B( 17-C , 22-O ) :   0.8940 B( 17-C , 23-H ) :   0.9336 B( 18-C , 19-C ) :   0.9391
B( 18-C , 24-H ) :   0.9368 B( 18-C , 25-H ) :   0.9336 B( 19-C , 20-O ) :   0.8496
B( 19-C , 26-H ) :   0.9330 B( 19-C , 27-H ) :   0.9385 B( 22-O , 28-H ) :   0.7930

FINAL SINGLE POINT ENERGY      -652.855205065382

DIPOLE MOMENT
-------------
                                X             Y             Z
Electronic contribution:     -1.92568      -1.75554       2.17293
Nuclear contribution   :      2.29048       2.12441      -3.11644
                        -----------------------------------------
Total Dipole Moment    :      0.36480       0.36887      -0.94351
                        -----------------------------------------
Magnitude (a.u.)       :      1.07674
Magnitude (Debye)      :      2.73685

Rotational constants in cm-1:     0.059922     0.012008     0.011407
Rotational constants in MHz :  1796.426040   359.978302   341.983087

                             ****ORCA TERMINATED NORMALLY****
TOTAL RUN TIME: 0 days 1 hours 18 minutes 18 seconds 835 msec
