                         Program Version 4.2.0 -  RELEASE  -
|  1> # Test redundant internal optimization
|  2> #
|  3> ! RKS B3LYP  Opt TightSCF SmallPrint
|  4>
|  5> %basis
|  6>         Basis "6-31G"
|  7> end
|  8>
|  9> %geom
| 10> Constraints
| 11> { D 4  0  15  12  285.0   C } # D for Dihedral angle
| 12> { D 0  15  12  16  0.0   C } # D for Dihedral angle
| 13> { D 0  4  3  2   C } # D for Dihedral angle
| 14> { D 4  3  2  1   C } # D for Dihedral angle
| 15> { D 3  2  1  0   C } # D for Dihedral angle
| 16> { D 2  1  0  4   C } # D for Dihedral angle
| 17> { D 1  0  4  3   C } # D for Dihedral angle
| 18> { D 16  20  19  18   C } # D for Dihedral angle
| 19> { D 20  19  18  17   C } # D for Dihedral angle
| 20> { D 19  18  17  16   C } # D for Dihedral angle
| 21> { D 18  17  16  20   C } # D for Dihedral angle
| 22> { D 17  16  20  19   C } # D for Dihedral angle
| 23> { D 15  12  16  20   C } # D for Dihedral angle
| 24> end
| 25> end
| 26>
| 27>
| 28> #%pal
| 29> #nprocs 8
| 30> #end
| 31>
| 32> * xyz 0 1
| 33> C  -21.048   26.222   46.251
| 34> C  -20.361   27.558   45.944
| 35> C  -20.329   28.222   47.341
| 36> C  -20.110   27.022   48.296
| 37> O  -20.473   25.807   47.535
| 38> H  -20.833   25.428   45.533
| 39> H  -19.344   27.382   45.576
| 40> H  -20.898   28.157   45.201
| 41> H  -19.543   28.978   47.434
| 42> H  -21.289   28.710   47.548
| 43> H  -20.733   27.082   49.195
| 44> H  -19.064   26.913   48.597
| 45> C  -23.396   25.070   46.435
| 46> H  -23.960   25.033   47.376
| 47> H  -24.111   25.019   45.604
| 48> O  -22.586   26.394   46.375
| 49> C  -22.492   23.809   46.358
| 50> C  -23.329   22.526   46.304
| 51> C  -23.761   22.496   44.818
| 52> C  -22.531   23.085   44.083
| 53> O  -21.733   23.798   45.103
| 54> H  -21.764   23.840   47.172
| 55> H  -22.704   21.658   46.542
| 56> O  -24.536   22.543   47.281
| 57> H  -24.013   21.490   44.469
| 58> H  -24.641   23.133   44.669
| 59> H  -22.813   23.789   43.292
| 60> H  -21.889   22.310   43.655
| 61> H  -25.177   23.404   47.061
| 62> *
| 63>
| 64>                          ****END OF INPUT****
 Total Charge           Charge          ....    0
 Multiplicity           Mult            ....    1
 Number of Electrons    NEL             ....  102
FINAL SINGLE POINT ENERGY      -652.828727827115
FINAL SINGLE POINT ENERGY      -652.852637718555
FINAL SINGLE POINT ENERGY      -652.856710052843
FINAL SINGLE POINT ENERGY      -652.859422080620
FINAL SINGLE POINT ENERGY      -652.859643365647
FINAL SINGLE POINT ENERGY      -652.859709797677
FINAL SINGLE POINT ENERGY      -652.859715154845
FINAL SINGLE POINT ENERGY      -652.859716586932
                    ***********************HURRAY********************

CARTESIAN COORDINATES (ANGSTROEM)
---------------------------------
  C    -20.923080   26.231254   46.212575
  C    -20.411126   27.655507   45.986203
  C    -20.455290   28.239390   47.418332
  C    -20.083814   27.024987   48.301082
  O    -20.300726   25.823922   47.459117
  H    -20.647296   25.484326   45.470652
  H    -19.383025   27.611010   45.609081
  H    -21.030182   28.206029   45.275243
  H    -19.765098   29.077616   47.555189
  H    -21.469263   28.582596   47.641897
  H    -20.701585   26.946691   49.199986
  H    -19.028237   27.019765   48.590346
  C    -23.187875   25.131566   46.392491
  H    -23.733256   25.160149   47.344065
  H    -23.914654   25.232335   45.574208
  O    -22.360666   26.333733   46.339855
  C    -22.471746   23.781378   46.307862
  C    -23.432943   22.577882   46.319764
  C    -23.863569   22.498777   44.822095
  C    -22.578209   22.922080   44.075036
  O    -21.715518   23.618792   45.064886
  H    -21.731998   23.724882   47.110555
  H    -22.878993   21.681189   46.605149
  O    -24.521786   22.649579   47.268497
  H    -24.207229   21.499620   44.543110
  H    -24.684364   23.204410   44.639127
  H    -22.775436   23.597771   43.237074
  H    -22.010418   22.062107   43.708604
  H    -25.193619   23.298657   46.975922

 Multiplicity           Mult            ....    1
 Number of Electrons    NEL             ....  102
 Basis Dimension        Dim             ....  149

ORBITAL ENERGIES
----------------

  NO   OCC          E(Eh)            E(eV)
   0   2.0000     -19.151677      -521.1436
   1   2.0000     -19.144729      -520.9546
   2   2.0000     -19.133239      -520.6419
   3   2.0000     -19.128233      -520.5057
   4   2.0000     -10.261006      -279.2162
   5   2.0000     -10.248144      -278.8662
   6   2.0000     -10.234961      -278.5075
   7   2.0000     -10.231102      -278.4024
   8   2.0000     -10.228449      -278.3303
   9   2.0000     -10.215472      -277.9771
  10   2.0000     -10.198297      -277.5098
  11   2.0000     -10.175506      -276.8896
  12   2.0000     -10.174362      -276.8585
  13   2.0000      -1.043236       -28.3879
  14   2.0000      -1.034394       -28.1473
  15   2.0000      -1.019206       -27.7340
  16   2.0000      -0.981183       -26.6994
  17   2.0000      -0.786589       -21.4042
  18   2.0000      -0.778721       -21.1901
  19   2.0000      -0.762224       -20.7412
  20   2.0000      -0.726360       -19.7653
  21   2.0000      -0.677163       -18.4265
  22   2.0000      -0.615530       -16.7494
  23   2.0000      -0.598062       -16.2741
  24   2.0000      -0.587955       -15.9991
  25   2.0000      -0.559249       -15.2179
  26   2.0000      -0.531846       -14.4723
  27   2.0000      -0.508652       -13.8411
  28   2.0000      -0.495083       -13.4719
  29   2.0000      -0.475213       -12.9312
  30   2.0000      -0.467036       -12.7087
  31   2.0000      -0.453020       -12.3273
  32   2.0000      -0.439025       -11.9465
  33   2.0000      -0.431364       -11.7380
  34   2.0000      -0.429651       -11.6914
  35   2.0000      -0.413485       -11.2515
  36   2.0000      -0.404900       -11.0179
  37   2.0000      -0.392958       -10.6929
  38   2.0000      -0.383865       -10.4455
  39   2.0000      -0.366468        -9.9721
  40   2.0000      -0.356368        -9.6973
  41   2.0000      -0.346445        -9.4272
  42   2.0000      -0.337497        -9.1838
  43   2.0000      -0.329295        -8.9606
  44   2.0000      -0.323859        -8.8127
  45   2.0000      -0.314093        -8.5469
  46   2.0000      -0.291606        -7.9350
  47   2.0000      -0.274159        -7.4603
  48   2.0000      -0.262744        -7.1496
  49   2.0000      -0.243395        -6.6231
  50   2.0000      -0.235976        -6.4212
  51   0.0000       0.049259         1.3404
  52   0.0000       0.076462         2.0806
  53   0.0000       0.091138         2.4800
  54   0.0000       0.097177         2.6443
  55   0.0000       0.106397         2.8952

MULLIKEN ATOMIC CHARGES
-----------------------
   0 C :    0.267551
   1 C :   -0.257441
   2 C :   -0.295951
   3 C :   -0.001489
   4 O :   -0.518495
   5 H :    0.195978
   6 H :    0.142564
   7 H :    0.151611
   8 H :    0.135005
   9 H :    0.159227
  10 H :    0.141739
  11 H :    0.138770
  12 C :    0.015064
  13 H :    0.143059
  14 H :    0.126345
  15 O :   -0.545234
  16 C :    0.045873
  17 C :    0.086704
  18 C :   -0.320822
  19 C :   -0.011004
  20 O :   -0.520772
  21 H :    0.197982
  22 H :    0.170414
  23 O :   -0.597191
  24 H :    0.156631
  25 H :    0.135636
  26 H :    0.146678
  27 H :    0.154078
  28 H :    0.357489
Sum of atomic charges:   -0.0000000

LOEWDIN ATOMIC CHARGES
----------------------
   0 C :    0.163192
   1 C :   -0.213117
   2 C :   -0.216129
   3 C :   -0.029401
   4 O :   -0.333947
   5 H :    0.121188
   6 H :    0.112459
   7 H :    0.121633
   8 H :    0.110195
   9 H :    0.117642
  10 H :    0.102294
  11 H :    0.100449
  12 C :   -0.045309
  13 H :    0.107807
  14 H :    0.094276
  15 O :   -0.329694
  16 C :    0.000380
  17 C :    0.040566
  18 C :   -0.240164
  19 C :   -0.030463
  20 O :   -0.323376
  21 H :    0.133340
  22 H :    0.120945
  23 O :   -0.403628
  24 H :    0.122688
  25 H :    0.104923
  26 H :    0.104080
  27 H :    0.108135
  28 H :    0.279036

  Mayer bond orders larger than 0.100000
B(  0-C ,  1-C ) :   0.9450 B(  0-C ,  4-O ) :   0.8841 B(  0-C ,  5-H ) :   0.8917
B(  0-C , 15-O ) :   0.8444 B(  1-C ,  2-C ) :   0.9556 B(  1-C ,  6-H ) :   0.9419
B(  1-C ,  7-H ) :   0.9380 B(  2-C ,  3-C ) :   0.9557 B(  2-C ,  8-H ) :   0.9461
B(  2-C ,  9-H ) :   0.9446 B(  3-C ,  4-O ) :   0.8417 B(  3-C , 10-H ) :   0.9362
B(  3-C , 11-H ) :   0.9407 B( 12-C , 13-H ) :   0.9105 B( 12-C , 14-H ) :   0.9295
B( 12-C , 15-O ) :   0.8469 B( 12-C , 16-C ) :   0.9100 B( 16-C , 17-C ) :   0.8656
B( 16-C , 20-O ) :   0.8317 B( 16-C , 21-H ) :   0.9094 B( 17-C , 18-C ) :   0.9195
B( 17-C , 22-H ) :   0.9338 B( 17-C , 23-O ) :   0.9034 B( 18-C , 19-C ) :   0.9405
B( 18-C , 24-H ) :   0.9424 B( 18-C , 25-H ) :   0.9405 B( 19-C , 20-O ) :   0.8397
B( 19-C , 26-H ) :   0.9322 B( 19-C , 27-H ) :   0.9376 B( 23-O , 28-H ) :   0.7971

FINAL SINGLE POINT ENERGY      -652.859716580256

DIPOLE MOMENT
-------------
                                X             Y             Z
Electronic contribution:     -0.18080      -2.84131       1.06323
Nuclear contribution   :     -0.42182       3.01947      -1.82378
                        -----------------------------------------
Total Dipole Moment    :     -0.60262       0.17816      -0.76055
                        -----------------------------------------
Magnitude (a.u.)       :      0.98657
Magnitude (Debye)      :      2.50766

Rotational constants in cm-1:     0.057567     0.013816     0.012738
Rotational constants in MHz :  1725.824493   414.191690   381.878687

                             ****ORCA TERMINATED NORMALLY****
TOTAL RUN TIME: 0 days 1 hours 7 minutes 5 seconds 341 msec
