                         Program Version 4.2.0 -  RELEASE  -
|  1> # Test redundant internal optimization
|  2> #
|  3> ! RKS B3LYP  Opt TightSCF SmallPrint
|  4>
|  5> %basis
|  6>         Basis "6-31G"
|  7> end
|  8>
|  9> %geom
| 10> Constraints
| 11> { D 4  0  15  12  30.0   C } # D for Dihedral angle
| 12> { D 0  15  12  16  270.0   C } # D for Dihedral angle
| 13> { D 0  4  3  2   C } # D for Dihedral angle
| 14> { D 4  3  2  1   C } # D for Dihedral angle
| 15> { D 3  2  1  0   C } # D for Dihedral angle
| 16> { D 2  1  0  4   C } # D for Dihedral angle
| 17> { D 1  0  4  3   C } # D for Dihedral angle
| 18> { D 16  20  19  18   C } # D for Dihedral angle
| 19> { D 20  19  18  17   C } # D for Dihedral angle
| 20> { D 19  18  17  16   C } # D for Dihedral angle
| 21> { D 18  17  16  20   C } # D for Dihedral angle
| 22> { D 17  16  20  19   C } # D for Dihedral angle
| 23> { D 15  12  16  20   C } # D for Dihedral angle
| 24> end
| 25> end
| 26>
| 27>
| 28> #%pal
| 29> #nprocs 8
| 30> #end
| 31>
| 32> * xyz 0 1
| 33> C  -21.048   26.222   46.251
| 34> C  -20.361   27.558   45.944
| 35> C  -20.329   28.222   47.341
| 36> C  -20.110   27.022   48.296
| 37> O  -20.473   25.807   47.535
| 38> H  -20.833   25.428   45.533
| 39> H  -19.344   27.382   45.576
| 40> H  -20.898   28.157   45.201
| 41> H  -19.543   28.978   47.434
| 42> H  -21.289   28.710   47.548
| 43> H  -20.733   27.082   49.195
| 44> H  -19.064   26.913   48.597
| 45> C  -23.091   26.824   47.779
| 46> H  -22.323   27.436   48.269
| 47> H  -24.005   27.426   47.691
| 48> O  -22.586   26.394   46.375
| 49> C  -23.410   25.613   48.700
| 50> C  -24.014   26.071   50.032
| 51> C  -25.482   26.350   49.631
| 52> C  -25.769   25.263   48.565
| 53> O  -24.453   24.774   48.100
| 54> H  -22.517   24.993   48.797
| 55> O  -23.940   24.921   51.074
| 56> H  -23.514   26.950   50.452
| 57> H  -26.172   26.294   50.480
| 58> H  -25.569   27.352   49.195
| 59> H  -26.330   25.654   47.708
| 60> H  -26.305   24.404   48.978
| 61> H  -24.435   24.029   50.674
| 62> *
| 63>
| 64>                          ****END OF INPUT****
 Total Charge           Charge          ....    0
 Multiplicity           Mult            ....    1
 Number of Electrons    NEL             ....  102
FINAL SINGLE POINT ENERGY      -652.821400957306
FINAL SINGLE POINT ENERGY      -652.845800523252
FINAL SINGLE POINT ENERGY      -652.852844883052
FINAL SINGLE POINT ENERGY      -652.855543132191
FINAL SINGLE POINT ENERGY      -652.855934756003
FINAL SINGLE POINT ENERGY      -652.855989537113
FINAL SINGLE POINT ENERGY      -652.855981729870
                    ***********************HURRAY********************

CARTESIAN COORDINATES (ANGSTROEM)
---------------------------------
  C    -21.148641   26.286531   46.409572
  C    -20.389107   27.535655   45.944943
  C    -20.093006   28.251022   47.292105
  C    -19.854751   27.068474   48.263133
  O    -20.444899   25.872508   47.605099
  H    -21.075760   25.455078   45.706480
  H    -19.459347   27.224562   45.456062
  H    -20.975260   28.139529   45.248990
  H    -19.221601   28.910667   47.234191
  H    -20.949102   28.860544   47.598866
  H    -20.324291   27.203579   49.242334
  H    -18.791872   26.854289   48.407305
  C    -23.149514   26.878504   47.836400
  H    -22.490174   27.553505   48.394209
  H    -24.053077   27.432569   47.562491
  O    -22.577802   26.466633   46.565509
  C    -23.501195   25.670950   48.712849
  C    -24.161896   26.048126   50.046459
  C    -25.641221   26.249736   49.621064
  C    -25.833469   25.180960   48.516441
  O    -24.477194   24.790657   48.067036
  H    -22.596490   25.076361   48.863654
  O    -24.025652   24.973449   51.016985
  H    -23.729072   26.927099   50.527095
  H    -26.309401   26.109223   50.474403
  H    -25.790149   27.262455   49.229750
  H    -26.400432   25.555067   47.658352
  H    -26.324126   24.276225   48.889579
  H    -24.151500   24.115044   50.559644

 Multiplicity           Mult            ....    1
 Number of Electrons    NEL             ....  102
 Basis Dimension        Dim             ....  149

ORBITAL ENERGIES
----------------

  NO   OCC          E(Eh)            E(eV)
   0   2.0000     -19.150624      -521.1150
   1   2.0000     -19.138623      -520.7884
   2   2.0000     -19.135788      -520.7113
   3   2.0000     -19.135395      -520.7006
   4   2.0000     -10.278454      -279.6910
   5   2.0000     -10.239905      -278.6420
   6   2.0000     -10.235143      -278.5124
   7   2.0000     -10.232880      -278.4508
   8   2.0000     -10.225972      -278.2628
   9   2.0000     -10.225603      -278.2528
  10   2.0000     -10.195930      -277.4454
  11   2.0000     -10.188476      -277.2425
  12   2.0000     -10.186868      -277.1988
  13   2.0000      -1.054748       -28.7011
  14   2.0000      -1.032111       -28.0852
  15   2.0000      -1.003086       -27.2954
  16   2.0000      -0.993011       -27.0212
  17   2.0000      -0.791927       -21.5494
  18   2.0000      -0.781730       -21.2720
  19   2.0000      -0.766711       -20.8633
  20   2.0000      -0.734654       -19.9910
  21   2.0000      -0.675340       -18.3769
  22   2.0000      -0.606514       -16.5041
  23   2.0000      -0.603460       -16.4210
  24   2.0000      -0.598794       -16.2940
  25   2.0000      -0.571967       -15.5640
  26   2.0000      -0.520235       -14.1563
  27   2.0000      -0.515912       -14.0387
  28   2.0000      -0.501998       -13.6601
  29   2.0000      -0.488449       -13.2914
  30   2.0000      -0.471396       -12.8273
  31   2.0000      -0.462117       -12.5748
  32   2.0000      -0.446860       -12.1597
  33   2.0000      -0.441338       -12.0094
  34   2.0000      -0.420899       -11.4532
  35   2.0000      -0.416234       -11.3263
  36   2.0000      -0.400267       -10.8918
  37   2.0000      -0.389824       -10.6077
  38   2.0000      -0.378974       -10.3124
  39   2.0000      -0.370491       -10.0816
  40   2.0000      -0.363340        -9.8870
  41   2.0000      -0.359249        -9.7757
  42   2.0000      -0.350139        -9.5278
  43   2.0000      -0.333044        -9.0626
  44   2.0000      -0.322900        -8.7866
  45   2.0000      -0.314381        -8.5547
  46   2.0000      -0.298855        -8.1323
  47   2.0000      -0.267449        -7.2776
  48   2.0000      -0.264046        -7.1851
  49   2.0000      -0.258498        -7.0341
  50   2.0000      -0.232068        -6.3149
  51   0.0000       0.063701         1.7334
  52   0.0000       0.076201         2.0735
  53   0.0000       0.086732         2.3601
  54   0.0000       0.095072         2.5870
  55   0.0000       0.100107         2.7241

MULLIKEN ATOMIC CHARGES
-----------------------
   0 C :    0.295219
   1 C :   -0.258608
   2 C :   -0.316113
   3 C :   -0.020451
   4 O :   -0.509521
   5 H :    0.168527
   6 H :    0.149064
   7 H :    0.157278
   8 H :    0.148961
   9 H :    0.151304
  10 H :    0.145175
  11 H :    0.153563
  12 C :   -0.013383
  13 H :    0.120666
  14 H :    0.148435
  15 O :   -0.513725
  16 C :    0.062902
  17 C :    0.074178
  18 C :   -0.289193
  19 C :   -0.030686
  20 O :   -0.510411
  21 H :    0.187600
  22 O :   -0.604177
  23 H :    0.143093
  24 H :    0.161954
  25 H :    0.136369
  26 H :    0.149668
  27 H :    0.144865
  28 H :    0.367447
Sum of atomic charges:   -0.0000000

LOEWDIN ATOMIC CHARGES
----------------------
   0 C :    0.179198
   1 C :   -0.224343
   2 C :   -0.223675
   3 C :   -0.036388
   4 O :   -0.320868
   5 H :    0.113441
   6 H :    0.117118
   7 H :    0.123693
   8 H :    0.117802
   9 H :    0.109814
  10 H :    0.100943
  11 H :    0.108257
  12 C :   -0.040774
  13 H :    0.093949
  14 H :    0.110549
  15 O :   -0.317074
  16 C :    0.004789
  17 C :    0.033988
  18 C :   -0.240604
  19 C :   -0.039147
  20 O :   -0.320725
  21 H :    0.127904
  22 O :   -0.416087
  23 H :    0.110436
  24 H :    0.126263
  25 H :    0.109420
  26 H :    0.105368
  27 H :    0.101955
  28 H :    0.284801

  Mayer bond orders larger than 0.100000
B(  0-C ,  1-C ) :   0.9182 B(  0-C ,  4-O ) :   0.8942 B(  0-C ,  5-H ) :   0.9336
B(  0-C , 15-O ) :   0.8787 B(  1-C ,  2-C ) :   0.9530 B(  1-C ,  6-H ) :   0.9348
B(  1-C ,  7-H ) :   0.9372 B(  2-C ,  3-C ) :   0.9488 B(  2-C ,  8-H ) :   0.9445
B(  2-C ,  9-H ) :   0.9419 B(  3-C ,  4-O ) :   0.8372 B(  3-C , 10-H ) :   0.9305
B(  3-C , 11-H ) :   0.9385 B( 12-C , 13-H ) :   0.9051 B( 12-C , 14-H ) :   0.9394
B( 12-C , 15-O ) :   0.8545 B( 12-C , 16-C ) :   0.8771 B( 16-C , 17-C ) :   0.8976
B( 16-C , 20-O ) :   0.8596 B( 16-C , 21-H ) :   0.9134 B( 17-C , 18-C ) :   0.9099
B( 17-C , 22-O ) :   0.8938 B( 17-C , 23-H ) :   0.9344 B( 18-C , 19-C ) :   0.9392
B( 18-C , 24-H ) :   0.9375 B( 18-C , 25-H ) :   0.9358 B( 19-C , 20-O ) :   0.8528
B( 19-C , 26-H ) :   0.9336 B( 19-C , 27-H ) :   0.9377 B( 22-O , 28-H ) :   0.7927

FINAL SINGLE POINT ENERGY      -652.855980260242

DIPOLE MOMENT
-------------
                                X             Y             Z
Electronic contribution:     -0.72229      -5.46348      -0.47047
Nuclear contribution   :      0.89044       6.82416       0.41133
                        -----------------------------------------
Total Dipole Moment    :      0.16815       1.36069      -0.05914
                        -----------------------------------------
Magnitude (a.u.)       :      1.37231
Magnitude (Debye)      :      3.48815

Rotational constants in cm-1:     0.054979     0.014203     0.013003
Rotational constants in MHz :  1648.217480   425.786499   389.834928

                             ****ORCA TERMINATED NORMALLY****
TOTAL RUN TIME: 0 days 0 hours 39 minutes 44 seconds 41 msec
