                         Program Version 4.2.1 -  RELEASE  -
|  1> # Test redundant internal optimization
|  2> #
|  3> ! RKS B3LYP  Opt TightSCF SmallPrint
|  4>
|  5> %basis
|  6>         Basis "6-31G"
|  7> end
|  8>
|  9> %geom
| 10> Constraints
| 11> { D 4  0  19  14  285.0   C } # D for Dihedral angle
| 12> { D 0  19  14  12  135.0   C } # D for Dihedral angle
| 13> { D 0  4  3  2   C } # D for Dihedral angle
| 14> { D 4  3  2  1   C } # D for Dihedral angle
| 15> { D 3  2  1  0   C } # D for Dihedral angle
| 16> { D 2  1  0  4   C } # D for Dihedral angle
| 17> { D 1  0  4  3   C } # D for Dihedral angle
| 18> { D 14  15  16  17   C } # D for Dihedral angle
| 19> { D 15  16  17  12   C } # D for Dihedral angle
| 20> { D 16  17  12  14   C } # D for Dihedral angle
| 21> { D 17  12  14  15   C } # D for Dihedral angle
| 22> { D 12  14  15  16   C } # D for Dihedral angle
| 23> end
| 24> end
| 25>
| 26>
| 27> #%pal
| 28> #nprocs 8
| 29> #end
| 30>
| 31> * xyz 0 1
| 32> C  -21.048   26.222   46.251
| 33> C  -20.361   27.558   45.944
| 34> C  -20.329   28.222   47.341
| 35> C  -20.110   27.022   48.296
| 36> O  -20.473   25.807   47.535
| 37> H  -20.833   25.428   45.533
| 38> H  -19.344   27.382   45.576
| 39> H  -20.898   28.157   45.201
| 40> H  -19.543   28.978   47.434
| 41> H  -21.289   28.710   47.548
| 42> H  -20.733   27.082   49.195
| 43> H  -19.064   26.913   48.597
| 44> C  -24.262   25.210   47.527
| 45> H  -24.632   24.206   47.787
| 46> C  -23.203   25.146   46.420
| 47> C  -24.079   24.973   45.158
| 48> C  -25.336   25.819   45.482
| 49> O  -25.341   26.019   46.948
| 50> H  -23.936   25.717   48.437
| 51> O  -22.472   26.381   46.366
| 52> H  -22.489   24.327   46.557
| 53> H  -23.577   25.306   44.243
| 54> H  -24.348   23.917   45.026
| 55> H  -26.266   25.321   45.186
| 56> H  -25.303   26.811   45.022
| 57> *
| 58>
| 59>                          ****END OF INPUT****
 Total Charge           Charge          ....    0
 Multiplicity           Mult            ....    1
 Number of Electrons    NEL             ....   86
FINAL SINGLE POINT ENERGY      -538.435345947959
FINAL SINGLE POINT ENERGY      -538.437134443066
FINAL SINGLE POINT ENERGY      -538.437458147758
FINAL SINGLE POINT ENERGY      -538.437476782115
FINAL SINGLE POINT ENERGY      -538.437483377113
                    ***********************HURRAY********************

CARTESIAN COORDINATES (ANGSTROEM)
---------------------------------
  C    -20.995446   26.181236   46.237919
  C    -20.405533   27.561889   45.948040
  C    -20.410954   28.208783   47.351967
  C    -20.105182   27.018130   48.288299
  O    -20.393822   25.793847   47.497849
  H    -20.742929   25.390517   45.524413
  H    -19.383108   27.445621   45.570814
  H    -20.997014   28.114772   45.215683
  H    -19.674443   29.012389   47.448525
  H    -21.403184   28.618354   47.561138
  H    -20.724430   27.012263   49.188865
  H    -19.050870   26.962272   48.575421
  C    -24.249493   25.240356   47.526804
  H    -24.658315   24.256485   47.800851
  C    -23.200787   25.102582   46.422916
  C    -24.084595   24.959120   45.169148
  C    -25.292743   25.875410   45.479193
  O    -25.281693   26.095360   46.940172
  H    -23.863976   25.743402   48.413820
  O    -22.422978   26.339885   46.345762
  H    -22.531068   24.251439   46.585775
  H    -23.549415   25.255419   44.262939
  H    -24.398597   23.914427   45.059095
  H    -26.247698   25.423380   45.188809
  H    -25.200725   26.856662   45.005782

 Multiplicity           Mult            ....    1
 Number of Electrons    NEL             ....   86
 Basis Dimension        Dim             ....  127

ORBITAL ENERGIES
----------------

  NO   OCC          E(Eh)            E(eV)
   0   2.0000     -19.141765      -520.8739
   1   2.0000     -19.138327      -520.7804
   2   2.0000     -19.124798      -520.4122
   3   2.0000     -10.278389      -279.6892
   4   2.0000     -10.237520      -278.5771
   5   2.0000     -10.223568      -278.1974
   6   2.0000     -10.218288      -278.0537
   7   2.0000     -10.217820      -278.0410
   8   2.0000     -10.184758      -277.1414
   9   2.0000     -10.183918      -277.1185
  10   2.0000     -10.182742      -277.0865
  11   2.0000      -1.053879       -28.6775
  12   2.0000      -1.011723       -27.5304
  13   2.0000      -0.988679       -26.9033
  14   2.0000      -0.791189       -21.5294
  15   2.0000      -0.774528       -21.0760
  16   2.0000      -0.738374       -20.0922
  17   2.0000      -0.718701       -19.5568
  18   2.0000      -0.605751       -16.4833
  19   2.0000      -0.597032       -16.2461
  20   2.0000      -0.595383       -16.2012
  21   2.0000      -0.575939       -15.6721
  22   2.0000      -0.520787       -14.1713
  23   2.0000      -0.501557       -13.6481
  24   2.0000      -0.481260       -13.0958
  25   2.0000      -0.474990       -12.9251
  26   2.0000      -0.453773       -12.3478
  27   2.0000      -0.438722       -11.9382
  28   2.0000      -0.425658       -11.5827
  29   2.0000      -0.416186       -11.3250
  30   2.0000      -0.403858       -10.9895
  31   2.0000      -0.383420       -10.4334
  32   2.0000      -0.370593       -10.0844
  33   2.0000      -0.366251        -9.9662
  34   2.0000      -0.355468        -9.6728
  35   2.0000      -0.352259        -9.5854
  36   2.0000      -0.341023        -9.2797
  37   2.0000      -0.326560        -8.8861
  38   2.0000      -0.301813        -8.2127
  39   2.0000      -0.295673        -8.0457
  40   2.0000      -0.268397        -7.3035
  41   2.0000      -0.250794        -6.8244
  42   2.0000      -0.230231        -6.2649
  43   0.0000       0.080151         2.1810
  44   0.0000       0.098190         2.6719
  45   0.0000       0.101876         2.7722
  46   0.0000       0.112434         3.0595
  47   0.0000       0.118867         3.2345

MULLIKEN ATOMIC CHARGES
-----------------------
   0 C :    0.278143
   1 C :   -0.258967
   2 C :   -0.299333
   3 C :   -0.003244
   4 O :   -0.514071
   5 H :    0.139664
   6 H :    0.143569
   7 H :    0.155916
   8 H :    0.140158
   9 H :    0.168470
  10 H :    0.147147
  11 H :    0.141575
  12 C :    0.013525
  13 H :    0.122385
  14 C :    0.057221
  15 C :   -0.283325
  16 C :    0.006489
  17 O :   -0.520722
  18 H :    0.161030
  19 O :   -0.511483
  20 H :    0.145864
  21 H :    0.147701
  22 H :    0.139074
  23 H :    0.131868
  24 H :    0.151347
Sum of atomic charges:   -0.0000000

LOEWDIN ATOMIC CHARGES
----------------------
   0 C :    0.170291
   1 C :   -0.214788
   2 C :   -0.215961
   3 C :   -0.027690
   4 O :   -0.333885
   5 H :    0.094710
   6 H :    0.113245
   7 H :    0.123715
   8 H :    0.113034
   9 H :    0.122169
  10 H :    0.105231
  11 H :    0.102152
  12 C :   -0.034656
  13 H :    0.090852
  14 C :    0.036795
  15 C :   -0.230684
  16 C :   -0.027139
  17 O :   -0.330264
  18 H :    0.120208
  19 O :   -0.321060
  20 H :    0.108616
  21 H :    0.119777
  22 H :    0.111390
  23 H :    0.096873
  24 H :    0.107070

  Mayer bond orders larger than 0.100000
B(  0-C ,  1-C ) :   0.9497 B(  0-C ,  4-O ) :   0.9025 B(  0-C ,  5-H ) :   0.9190
B(  0-C , 19-O ) :   0.8728 B(  1-C ,  2-C ) :   0.9568 B(  1-C ,  6-H ) :   0.9404
B(  1-C ,  7-H ) :   0.9365 B(  2-C ,  3-C ) :   0.9555 B(  2-C ,  8-H ) :   0.9452
B(  2-C ,  9-H ) :   0.9429 B(  3-C ,  4-O ) :   0.8366 B(  3-C , 10-H ) :   0.9355
B(  3-C , 11-H ) :   0.9405 B( 12-C , 13-H ) :   0.9139 B( 12-C , 14-C ) :   0.9337
B( 12-C , 17-O ) :   0.8699 B( 12-C , 18-H ) :   0.9328 B( 14-C , 15-C ) :   0.9426
B( 14-C , 19-O ) :   0.8170 B( 14-C , 20-H ) :   0.9175 B( 15-C , 16-C ) :   0.9465
B( 15-C , 21-H ) :   0.9417 B( 15-C , 22-H ) :   0.9389 B( 16-C , 17-O ) :   0.8573
B( 16-C , 23-H ) :   0.9339 B( 16-C , 24-H ) :   0.9362

FINAL SINGLE POINT ENERGY      -538.437483733520

DIPOLE MOMENT
-------------
                                X             Y             Z
Electronic contribution:     -1.08023      -1.35169       1.17021
Nuclear contribution   :      1.73173       1.18595      -1.77327
                        -----------------------------------------
Total Dipole Moment    :      0.65150      -0.16574      -0.60306
                        -----------------------------------------
Magnitude (a.u.)       :      0.90311
Magnitude (Debye)      :      2.29552

Rotational constants in cm-1:     0.079749     0.020392     0.019798
Rotational constants in MHz :  2390.827140   611.326511   593.523860

                             ****ORCA TERMINATED NORMALLY****
TOTAL RUN TIME: 0 days 0 hours 5 minutes 41 seconds 675 msec
