                         Program Version 4.2.0 -  RELEASE  -
|  1> # Test redundant internal optimization
|  2> #
|  3> ! RKS B3LYP  Opt TightSCF SmallPrint
|  4>
|  5> %basis
|  6>         Basis "6-31G"
|  7> end
|  8>
|  9> %geom
| 10> Constraints
| 11> { D 4  0  15  12  300.0   C } # D for Dihedral angle
| 12> { D 0  15  12  16  105.0   C } # D for Dihedral angle
| 13> { D 0  4  3  2   C } # D for Dihedral angle
| 14> { D 4  3  2  1   C } # D for Dihedral angle
| 15> { D 3  2  1  0   C } # D for Dihedral angle
| 16> { D 2  1  0  4   C } # D for Dihedral angle
| 17> { D 1  0  4  3   C } # D for Dihedral angle
| 18> { D 16  20  19  18   C } # D for Dihedral angle
| 19> { D 20  19  18  17   C } # D for Dihedral angle
| 20> { D 19  18  17  16   C } # D for Dihedral angle
| 21> { D 18  17  16  20   C } # D for Dihedral angle
| 22> { D 17  16  20  19   C } # D for Dihedral angle
| 23> { D 15  12  16  20   C } # D for Dihedral angle
| 24> end
| 25> end
| 26>
| 27>
| 28> #%pal
| 29> #nprocs 8
| 30> #end
| 31>
| 32> * xyz 0 1
| 33> C  -21.048   26.222   46.251
| 34> C  -20.361   27.558   45.944
| 35> C  -20.329   28.222   47.341
| 36> C  -20.110   27.022   48.296
| 37> O  -20.473   25.807   47.535
| 38> H  -20.833   25.428   45.533
| 39> H  -19.344   27.382   45.576
| 40> H  -20.898   28.157   45.201
| 41> H  -19.543   28.978   47.434
| 42> H  -21.289   28.710   47.548
| 43> H  -20.733   27.082   49.195
| 44> H  -19.064   26.913   48.597
| 45> C  -23.362   25.116   46.798
| 46> H  -24.245   25.000   46.157
| 47> H  -22.731   24.226   46.676
| 48> O  -22.586   26.394   46.375
| 49> C  -23.834   25.162   48.277
| 50> C  -24.858   26.281   48.500
| 51> C  -26.151   25.636   47.946
| 52> C  -25.993   24.144   48.331
| 53> O  -24.559   23.935   48.622
| 54> H  -22.960   25.212   48.930
| 55> H  -24.959   26.490   49.571
| 56> O  -24.485   27.603   47.776
| 57> H  -27.060   26.081   48.364
| 58> H  -26.192   25.753   46.857
| 59> H  -26.297   23.469   47.524
| 60> H  -26.547   23.885   49.236
| 61> H  -24.379   27.417   46.701
| 62> *
| 63>
| 64>                          ****END OF INPUT****
 Total Charge           Charge          ....    0
 Multiplicity           Mult            ....    1
 Number of Electrons    NEL             ....  102
FINAL SINGLE POINT ENERGY      -652.837531671683
FINAL SINGLE POINT ENERGY      -652.862990342346
FINAL SINGLE POINT ENERGY      -652.869285123165
FINAL SINGLE POINT ENERGY      -652.871390065678
FINAL SINGLE POINT ENERGY      -652.872506465815
FINAL SINGLE POINT ENERGY      -652.873007105888
FINAL SINGLE POINT ENERGY      -652.873130080607
FINAL SINGLE POINT ENERGY      -652.873152735348
                    ***********************HURRAY********************

CARTESIAN COORDINATES (ANGSTROEM)
---------------------------------
  C    -21.079901   26.129003   46.257791
  C    -20.537676   27.530768   45.978459
  C    -20.592842   28.175532   47.382220
  C    -20.259799   27.000242   48.325871
  O    -20.489707   25.762703   47.524238
  H    -20.805047   25.342412   45.549968
  H    -19.505801   27.449515   45.619442
  H    -21.131738   28.063546   45.233050
  H    -19.889488   29.006348   47.489437
  H    -21.601677   28.548320   47.584162
  H    -20.897404   26.967357   49.212323
  H    -19.210417   26.976292   48.631629
  C    -23.270415   25.031197   46.726630
  H    -24.105469   24.941795   46.025299
  H    -22.637779   24.141415   46.647531
  O    -22.521854   26.234648   46.331682
  C    -23.752290   25.188172   48.173529
  C    -24.734438   26.348542   48.408388
  C    -26.074692   25.728675   47.918292
  C    -25.950387   24.247954   48.331957
  O    -24.497980   23.996847   48.575481
  H    -22.876165   25.244079   48.824188
  H    -24.797971   26.545160   49.483778
  O    -24.391370   27.600682   47.776025
  H    -26.939403   26.223629   48.367781
  H    -26.149318   25.849246   46.831513
  H    -26.303695   23.551431   47.565148
  H    -26.466453   24.028687   49.271272
  H    -23.751824   27.430803   47.044912

 Multiplicity           Mult            ....    1
 Number of Electrons    NEL             ....  102
 Basis Dimension        Dim             ....  149

ORBITAL ENERGIES
----------------

  NO   OCC          E(Eh)            E(eV)
   0   2.0000     -19.164189      -521.4841
   1   2.0000     -19.151393      -521.1359
   2   2.0000     -19.138029      -520.7722
   3   2.0000     -19.118109      -520.2302
   4   2.0000     -10.291376      -280.0426
   5   2.0000     -10.235968      -278.5349
   6   2.0000     -10.231798      -278.4214
   7   2.0000     -10.230843      -278.3954
   8   2.0000     -10.229200      -278.3507
   9   2.0000     -10.225577      -278.2521
  10   2.0000     -10.193576      -277.3813
  11   2.0000     -10.190230      -277.2903
  12   2.0000     -10.179515      -276.9987
  13   2.0000      -1.067264       -29.0417
  14   2.0000      -1.023355       -27.8469
  15   2.0000      -1.006162       -27.3791
  16   2.0000      -0.994248       -27.0549
  17   2.0000      -0.796874       -21.6840
  18   2.0000      -0.771737       -21.0000
  19   2.0000      -0.766588       -20.8599
  20   2.0000      -0.734648       -19.9908
  21   2.0000      -0.678548       -18.4642
  22   2.0000      -0.605340       -16.4721
  23   2.0000      -0.598685       -16.2911
  24   2.0000      -0.595076       -16.1928
  25   2.0000      -0.583092       -15.8668
  26   2.0000      -0.527009       -14.3406
  27   2.0000      -0.520163       -14.1543
  28   2.0000      -0.498224       -13.5574
  29   2.0000      -0.486435       -13.2366
  30   2.0000      -0.473823       -12.8934
  31   2.0000      -0.459590       -12.5061
  32   2.0000      -0.442021       -12.0280
  33   2.0000      -0.433112       -11.7856
  34   2.0000      -0.423689       -11.5292
  35   2.0000      -0.414949       -11.2913
  36   2.0000      -0.407714       -11.0945
  37   2.0000      -0.389980       -10.6119
  38   2.0000      -0.380986       -10.3672
  39   2.0000      -0.366321        -9.9681
  40   2.0000      -0.364087        -9.9073
  41   2.0000      -0.355447        -9.6722
  42   2.0000      -0.351194        -9.5565
  43   2.0000      -0.344072        -9.3627
  44   2.0000      -0.329601        -8.9689
  45   2.0000      -0.312430        -8.5016
  46   2.0000      -0.294059        -8.0017
  47   2.0000      -0.282206        -7.6792
  48   2.0000      -0.265647        -7.2286
  49   2.0000      -0.250241        -6.8094
  50   2.0000      -0.239480        -6.5166
  51   0.0000       0.058227         1.5844
  52   0.0000       0.081832         2.2268
  53   0.0000       0.092358         2.5132
  54   0.0000       0.098065         2.6685
  55   0.0000       0.106337         2.8936

MULLIKEN ATOMIC CHARGES
-----------------------
   0 C :    0.293177
   1 C :   -0.266824
   2 C :   -0.307158
   3 C :   -0.013275
   4 O :   -0.508910
   5 H :    0.155461
   6 H :    0.151374
   7 H :    0.160445
   8 H :    0.146395
   9 H :    0.170658
  10 H :    0.154918
  11 H :    0.149493
  12 C :   -0.036180
  13 H :    0.153673
  14 H :    0.167623
  15 O :   -0.556677
  16 C :    0.058133
  17 C :    0.112501
  18 C :   -0.305003
  19 C :   -0.020218
  20 O :   -0.520713
  21 H :    0.171058
  22 H :    0.149812
  23 O :   -0.642210
  24 H :    0.150128
  25 H :    0.145125
  26 H :    0.142522
  27 H :    0.148745
  28 H :    0.395927
Sum of atomic charges:    0.0000000

LOEWDIN ATOMIC CHARGES
----------------------
   0 C :    0.176158
   1 C :   -0.215159
   2 C :   -0.218421
   3 C :   -0.029374
   4 O :   -0.327133
   5 H :    0.103250
   6 H :    0.117672
   7 H :    0.125413
   8 H :    0.117061
   9 H :    0.122356
  10 H :    0.107822
  11 H :    0.106601
  12 C :   -0.046236
  13 H :    0.109148
  14 H :    0.119852
  15 O :   -0.337905
  16 C :    0.010225
  17 C :    0.040027
  18 C :   -0.238504
  19 C :   -0.032580
  20 O :   -0.324214
  21 H :    0.119891
  22 H :    0.106757
  23 O :   -0.435764
  24 H :    0.120863
  25 H :    0.110802
  26 H :    0.101922
  27 H :    0.105585
  28 H :    0.283885

  Mayer bond orders larger than 0.100000
B(  0-C ,  1-C ) :   0.9512 B(  0-C ,  4-O ) :   0.9169 B(  0-C ,  5-H ) :   0.9212
B(  0-C , 15-O ) :   0.8220 B(  1-C ,  2-C ) :   0.9534 B(  1-C ,  6-H ) :   0.9390
B(  1-C ,  7-H ) :   0.9353 B(  2-C ,  3-C ) :   0.9535 B(  2-C ,  8-H ) :   0.9442
B(  2-C ,  9-H ) :   0.9346 B(  3-C ,  4-O ) :   0.8269 B(  3-C , 10-H ) :   0.9325
B(  3-C , 11-H ) :   0.9407 B( 12-C , 13-H ) :   0.9353 B( 12-C , 14-H ) :   0.9259
B( 12-C , 15-O ) :   0.7847 B( 12-C , 16-C ) :   0.8947 B( 16-C , 17-C ) :   0.9123
B( 16-C , 20-O ) :   0.8517 B( 16-C , 21-H ) :   0.9218 B( 17-C , 18-C ) :   0.9019
B( 17-C , 22-H ) :   0.9324 B( 17-C , 23-O ) :   0.9299 B( 18-C , 19-C ) :   0.9390
B( 18-C , 24-H ) :   0.9450 B( 18-C , 25-H ) :   0.9435 B( 19-C , 20-O ) :   0.8346
B( 19-C , 26-H ) :   0.9338 B( 19-C , 27-H ) :   0.9386 B( 23-O , 28-H ) :   0.7175

FINAL SINGLE POINT ENERGY      -652.873154683645

DIPOLE MOMENT
-------------
                                X             Y             Z
Electronic contribution:      0.40305      -2.64307       0.20243
Nuclear contribution   :     -0.04661       2.88151      -0.79605
                        -----------------------------------------
Total Dipole Moment    :      0.35644       0.23844      -0.59362
                        -----------------------------------------
Magnitude (a.u.)       :      0.73232
Magnitude (Debye)      :      1.86141

Rotational constants in cm-1:     0.054688     0.015541     0.014508
Rotational constants in MHz :  1639.492091   465.905901   434.930337

                             ****ORCA TERMINATED NORMALLY****
TOTAL RUN TIME: 0 days 1 hours 23 minutes 54 seconds 903 msec
