                         Program Version 4.2.0 -  RELEASE  -
|  1> # Test redundant internal optimization
|  2> #
|  3> ! RKS B3LYP  Opt TightSCF SmallPrint
|  4>
|  5> %basis
|  6>         Basis "6-31G"
|  7> end
|  8>
|  9> %geom
| 10> Constraints
| 11> { D 4  0  15  12  345.0   C } # D for Dihedral angle
| 12> { D 0  15  12  16  255.0   C } # D for Dihedral angle
| 13> { D 0  4  3  2   C } # D for Dihedral angle
| 14> { D 4  3  2  1   C } # D for Dihedral angle
| 15> { D 3  2  1  0   C } # D for Dihedral angle
| 16> { D 2  1  0  4   C } # D for Dihedral angle
| 17> { D 1  0  4  3   C } # D for Dihedral angle
| 18> { D 16  20  19  18   C } # D for Dihedral angle
| 19> { D 20  19  18  17   C } # D for Dihedral angle
| 20> { D 19  18  17  16   C } # D for Dihedral angle
| 21> { D 18  17  16  20   C } # D for Dihedral angle
| 22> { D 17  16  20  19   C } # D for Dihedral angle
| 23> { D 15  12  16  20   C } # D for Dihedral angle
| 24> end
| 25> end
| 26>
| 27>
| 28> #%pal
| 29> #nprocs 8
| 30> #end
| 31>
| 32> * xyz 0 1
| 33> C  -21.048   26.222   46.251
| 34> C  -20.361   27.558   45.944
| 35> C  -20.329   28.222   47.341
| 36> C  -20.110   27.022   48.296
| 37> O  -20.473   25.807   47.535
| 38> H  -20.833   25.428   45.533
| 39> H  -19.344   27.382   45.576
| 40> H  -20.898   28.157   45.201
| 41> H  -19.543   28.978   47.434
| 42> H  -21.289   28.710   47.548
| 43> H  -20.733   27.082   49.195
| 44> H  -19.064   26.913   48.597
| 45> C  -23.221   25.764   47.645
| 46> H  -22.430   25.543   48.373
| 47> H  -23.928   26.464   48.109
| 48> O  -22.586   26.394   46.375
| 49> C  -23.989   24.448   47.343
| 50> C  -24.698   23.917   48.594
| 51> C  -25.954   24.819   48.649
| 52> C  -26.295   25.038   47.154
| 53> O  -25.076   24.696   46.390
| 54> H  -23.308   23.736   46.873
| 55> O  -25.098   22.431   48.390
| 56> H  -24.084   23.988   49.499
| 57> H  -26.780   24.362   49.204
| 58> H  -25.712   25.772   49.134
| 59> H  -26.577   26.074   46.936
| 60> H  -27.091   24.373   46.806
| 61> H  -25.714   22.336   47.489
| 62> *
| 63>
| 64>                          ****END OF INPUT****
 Total Charge           Charge          ....    0
 Multiplicity           Mult            ....    1
 Number of Electrons    NEL             ....  102
FINAL SINGLE POINT ENERGY      -652.832852467629
FINAL SINGLE POINT ENERGY      -652.855101218156
FINAL SINGLE POINT ENERGY      -652.859099101262
FINAL SINGLE POINT ENERGY      -652.859761334632
FINAL SINGLE POINT ENERGY      -652.859856434259
FINAL SINGLE POINT ENERGY      -652.859870138407
                    ***********************HURRAY********************

CARTESIAN COORDINATES (ANGSTROEM)
---------------------------------
  C    -21.108790   26.166324   46.339483
  C    -20.492660   27.513929   45.964690
  C    -20.338878   28.185189   47.347809
  C    -19.995573   27.003829   48.280525
  O    -20.410868   25.775022   47.542553
  H    -20.941792   25.361852   45.618614
  H    -19.517074   27.347109   45.493626
  H    -21.130453   28.076608   45.280093
  H    -19.563954   28.957906   47.357449
  H    -21.286607   28.648061   47.640319
  H    -20.525820   27.036692   49.236259
  H    -18.922940   26.902021   48.467011
  C    -23.196546   25.805614   47.696752
  H    -22.449542   25.580458   48.464945
  H    -23.863630   26.597466   48.054617
  O    -22.549424   26.337228   46.507521
  C    -23.985653   24.534958   47.375273
  C    -24.734490   23.949975   48.581778
  C    -26.025664   24.810728   48.599854
  C    -26.302955   25.053073   47.094701
  O    -25.036678   24.769343   46.380634
  H    -23.307383   23.795049   46.938524
  O    -25.033171   22.541163   48.376899
  H    -24.172661   23.992168   49.516107
  H    -26.836045   24.279078   49.104830
  H    -25.848136   25.752847   49.130982
  H    -26.610471   26.081385   46.881238
  H    -27.061208   24.373105   46.693315
  H    -25.316933   22.407821   47.447599

 Multiplicity           Mult            ....    1
 Number of Electrons    NEL             ....  102
 Basis Dimension        Dim             ....  149

ORBITAL ENERGIES
----------------

  NO   OCC          E(Eh)            E(eV)
   0   2.0000     -19.152107      -521.1553
   1   2.0000     -19.136194      -520.7223
   2   2.0000     -19.135643      -520.7073
   3   2.0000     -19.135606      -520.7063
   4   2.0000     -10.278251      -279.6854
   5   2.0000     -10.239542      -278.6321
   6   2.0000     -10.233608      -278.4706
   7   2.0000     -10.228128      -278.3215
   8   2.0000     -10.226695      -278.2825
   9   2.0000     -10.225762      -278.2571
  10   2.0000     -10.190486      -277.2972
  11   2.0000     -10.187083      -277.2046
  12   2.0000     -10.185176      -277.1527
  13   2.0000      -1.054900       -28.7053
  14   2.0000      -1.032408       -28.0932
  15   2.0000      -1.002744       -27.2860
  16   2.0000      -0.989618       -26.9289
  17   2.0000      -0.792328       -21.5603
  18   2.0000      -0.779834       -21.2204
  19   2.0000      -0.764575       -20.8051
  20   2.0000      -0.734210       -19.9789
  21   2.0000      -0.670722       -18.2513
  22   2.0000      -0.604245       -16.4423
  23   2.0000      -0.601494       -16.3675
  24   2.0000      -0.597002       -16.2453
  25   2.0000      -0.570645       -15.5280
  26   2.0000      -0.523036       -14.2325
  27   2.0000      -0.509479       -13.8636
  28   2.0000      -0.498547       -13.5662
  29   2.0000      -0.491433       -13.3726
  30   2.0000      -0.473508       -12.8848
  31   2.0000      -0.459288       -12.4979
  32   2.0000      -0.450437       -12.2570
  33   2.0000      -0.436154       -11.8683
  34   2.0000      -0.422196       -11.4885
  35   2.0000      -0.412782       -11.2324
  36   2.0000      -0.396549       -10.7906
  37   2.0000      -0.390044       -10.6136
  38   2.0000      -0.373786       -10.1712
  39   2.0000      -0.368969       -10.0402
  40   2.0000      -0.361114        -9.8264
  41   2.0000      -0.355010        -9.6603
  42   2.0000      -0.350594        -9.5402
  43   2.0000      -0.334480        -9.1017
  44   2.0000      -0.328039        -8.9264
  45   2.0000      -0.307203        -8.3594
  46   2.0000      -0.296625        -8.0716
  47   2.0000      -0.268476        -7.3056
  48   2.0000      -0.265683        -7.2296
  49   2.0000      -0.260736        -7.0950
  50   2.0000      -0.231412        -6.2970
  51   0.0000       0.069628         1.8947
  52   0.0000       0.080199         2.1823
  53   0.0000       0.088433         2.4064
  54   0.0000       0.098658         2.6846
  55   0.0000       0.107482         2.9247

MULLIKEN ATOMIC CHARGES
-----------------------
   0 C :    0.295894
   1 C :   -0.256744
   2 C :   -0.304654
   3 C :   -0.016455
   4 O :   -0.514207
   5 H :    0.156403
   6 H :    0.143657
   7 H :    0.165012
   8 H :    0.146730
   9 H :    0.156997
  10 H :    0.142336
  11 H :    0.152426
  12 C :   -0.020286
  13 H :    0.156976
  14 H :    0.135961
  15 O :   -0.521695
  16 C :    0.068272
  17 C :    0.077019
  18 C :   -0.298885
  19 C :   -0.023456
  20 O :   -0.511668
  21 H :    0.164226
  22 O :   -0.603141
  23 H :    0.149945
  24 H :    0.162469
  25 H :    0.142250
  26 H :    0.144771
  27 H :    0.144286
  28 H :    0.365562
Sum of atomic charges:    0.0000000

LOEWDIN ATOMIC CHARGES
----------------------
   0 C :    0.181206
   1 C :   -0.217291
   2 C :   -0.218540
   3 C :   -0.031892
   4 O :   -0.321699
   5 H :    0.102735
   6 H :    0.113238
   7 H :    0.128166
   8 H :    0.116887
   9 H :    0.116157
  10 H :    0.101528
  11 H :    0.107807
  12 C :   -0.048275
  13 H :    0.112726
  14 H :    0.102237
  15 O :   -0.330027
  16 C :    0.009895
  17 C :    0.034669
  18 C :   -0.242389
  19 C :   -0.037319
  20 O :   -0.323261
  21 H :    0.117407
  22 O :   -0.415336
  23 H :    0.114282
  24 H :    0.126419
  25 H :    0.111538
  26 H :    0.104023
  27 H :    0.101588
  28 H :    0.283522

  Mayer bond orders larger than 0.100000
B(  0-C ,  1-C ) :   0.9371 B(  0-C ,  4-O ) :   0.9030 B(  0-C ,  5-H ) :   0.9250
B(  0-C , 15-O ) :   0.8490 B(  1-C ,  2-C ) :   0.9533 B(  1-C ,  6-H ) :   0.9363
B(  1-C ,  7-H ) :   0.9350 B(  2-C ,  3-C ) :   0.9544 B(  2-C ,  8-H ) :   0.9449
B(  2-C ,  9-H ) :   0.9452 B(  3-C ,  4-O ) :   0.8286 B(  3-C , 10-H ) :   0.9342
B(  3-C , 11-H ) :   0.9407 B( 12-C , 13-H ) :   0.8983 B( 12-C , 14-H ) :   0.9349
B( 12-C , 15-O ) :   0.8526 B( 12-C , 16-C ) :   0.8873 B( 16-C , 17-C ) :   0.8981
B( 16-C , 20-O ) :   0.8626 B( 16-C , 21-H ) :   0.9272 B( 17-C , 18-C ) :   0.9113
B( 17-C , 22-O ) :   0.8919 B( 17-C , 23-H ) :   0.9334 B( 18-C , 19-C ) :   0.9391
B( 18-C , 24-H ) :   0.9375 B( 18-C , 25-H ) :   0.9341 B( 19-C , 20-O ) :   0.8535
B( 19-C , 26-H ) :   0.9349 B( 19-C , 27-H ) :   0.9378 B( 22-O , 28-H ) :   0.7935

FINAL SINGLE POINT ENERGY      -652.859872544750

DIPOLE MOMENT
-------------
                                X             Y             Z
Electronic contribution:     -0.86014      -4.88787      -2.35885
Nuclear contribution   :      1.07030       6.03961       2.85710
                        -----------------------------------------
Total Dipole Moment    :      0.21016       1.15174       0.49825
                        -----------------------------------------
Magnitude (a.u.)       :      1.27237
Magnitude (Debye)      :      3.23410

Rotational constants in cm-1:     0.060853     0.012249     0.011589
Rotational constants in MHz :  1824.324251   367.228109   347.421847

                             ****ORCA TERMINATED NORMALLY****
TOTAL RUN TIME: 0 days 0 hours 18 minutes 24 seconds 65 msec
