                         Program Version 4.2.0 -  RELEASE  -
|  1> # Test redundant internal optimization
|  2> #
|  3> ! RKS B3LYP  Opt TightSCF SmallPrint
|  4>
|  5> %basis
|  6>         Basis "6-31G"
|  7> end
|  8>
|  9> %geom
| 10> Constraints
| 11> { D 4  0  15  12  345.0   C } # D for Dihedral angle
| 12> { D 0  15  12  16  180.0   C } # D for Dihedral angle
| 13> { D 0  4  3  2   C } # D for Dihedral angle
| 14> { D 4  3  2  1   C } # D for Dihedral angle
| 15> { D 3  2  1  0   C } # D for Dihedral angle
| 16> { D 2  1  0  4   C } # D for Dihedral angle
| 17> { D 1  0  4  3   C } # D for Dihedral angle
| 18> { D 16  20  19  18   C } # D for Dihedral angle
| 19> { D 20  19  18  17   C } # D for Dihedral angle
| 20> { D 19  18  17  16   C } # D for Dihedral angle
| 21> { D 18  17  16  20   C } # D for Dihedral angle
| 22> { D 17  16  20  19   C } # D for Dihedral angle
| 23> { D 15  12  16  20   C } # D for Dihedral angle
| 24> end
| 25> end
| 26>
| 27>
| 28> #%pal
| 29> #nprocs 8
| 30> #end
| 31>
| 32> * xyz 0 1
| 33> C  -21.048   26.222   46.251
| 34> C  -20.361   27.558   45.944
| 35> C  -20.329   28.222   47.341
| 36> C  -20.110   27.022   48.296
| 37> O  -20.473   25.807   47.535
| 38> H  -20.833   25.428   45.533
| 39> H  -19.344   27.382   45.576
| 40> H  -20.898   28.157   45.201
| 41> H  -19.543   28.978   47.434
| 42> H  -21.289   28.710   47.548
| 43> H  -20.733   27.082   49.195
| 44> H  -19.064   26.913   48.597
| 45> C  -23.221   25.764   47.645
| 46> H  -23.015   24.687   47.656
| 47> H  -22.785   26.205   48.551
| 48> O  -22.586   26.394   46.375
| 49> C  -24.760   25.969   47.712
| 50> C  -25.129   27.454   47.611
| 51> C  -25.007   27.703   46.088
| 52> C  -25.488   26.365   45.473
| 53> O  -25.410   25.355   46.550
| 54> H  -25.149   25.467   48.599
| 55> H  -26.160   27.608   47.946
| 56> O  -24.198   28.373   48.447
| 57> H  -25.603   28.556   45.748
| 58> H  -23.961   27.897   45.821
| 59> H  -24.865   26.042   44.632
| 60> H  -26.531   26.407   45.146
| 61> H  -23.159   28.234   48.128
| 62> *
| 63>
| 64>                          ****END OF INPUT****
 Total Charge           Charge          ....    0
 Multiplicity           Mult            ....    1
 Number of Electrons    NEL             ....  102
FINAL SINGLE POINT ENERGY      -652.832828884880
FINAL SINGLE POINT ENERGY      -652.855644596919
FINAL SINGLE POINT ENERGY      -652.860224620879
FINAL SINGLE POINT ENERGY      -652.861723997844
FINAL SINGLE POINT ENERGY      -652.861875292217
FINAL SINGLE POINT ENERGY      -652.861905667639
FINAL SINGLE POINT ENERGY      -652.861906487537
                    ***********************HURRAY********************

CARTESIAN COORDINATES (ANGSTROEM)
---------------------------------
  C    -21.067973   26.165195   46.349840
  C    -20.443503   27.511105   45.981586
  C    -20.325370   28.194270   47.363845
  C    -20.004811   27.017419   48.312048
  O    -20.400457   25.785710   47.571762
  H    -20.875982   25.355766   45.640292
  H    -19.453743   27.338522   45.544531
  H    -21.052642   28.072073   45.269447
  H    -19.551938   28.967888   47.386988
  H    -21.275049   28.668245   47.634988
  H    -20.557145   27.054538   49.254795
  H    -18.936459   26.922177   48.524052
  C    -23.149898   25.739438   47.666552
  H    -22.963360   24.660496   47.709202
  H    -22.744174   26.192053   48.578774
  O    -22.514996   26.304787   46.476683
  C    -24.656103   25.980334   47.625538
  C    -25.107150   27.451072   47.587165
  C    -25.053389   27.763729   46.059760
  C    -25.485560   26.423112   45.426768
  O    -25.312967   25.383635   46.471495
  H    -25.067459   25.471766   48.506341
  H    -26.125521   27.535665   47.972490
  O    -24.318613   28.344842   48.410888
  H    -25.712694   28.592638   45.786248
  H    -24.025637   28.008701   45.784152
  H    -24.875730   26.151779   44.560971
  H    -26.542375   26.414931   45.142747
  H    -23.451300   28.489114   47.979051

 Multiplicity           Mult            ....    1
 Number of Electrons    NEL             ....  102
 Basis Dimension        Dim             ....  149

ORBITAL ENERGIES
----------------

  NO   OCC          E(Eh)            E(eV)
   0   2.0000     -19.156274      -521.2687
   1   2.0000     -19.147089      -521.0188
   2   2.0000     -19.140693      -520.8447
   3   2.0000     -19.129679      -520.5450
   4   2.0000     -10.286040      -279.8974
   5   2.0000     -10.238993      -278.6172
   6   2.0000     -10.234792      -278.5029
   7   2.0000     -10.227359      -278.3006
   8   2.0000     -10.226367      -278.2736
   9   2.0000     -10.218475      -278.0588
  10   2.0000     -10.202110      -277.6135
  11   2.0000     -10.195923      -277.4452
  12   2.0000     -10.177630      -276.9474
  13   2.0000      -1.061876       -28.8951
  14   2.0000      -1.026324       -27.9277
  15   2.0000      -1.008674       -27.4474
  16   2.0000      -0.995990       -27.1023
  17   2.0000      -0.800425       -21.7807
  18   2.0000      -0.772489       -21.0205
  19   2.0000      -0.764714       -20.8089
  20   2.0000      -0.737127       -20.0582
  21   2.0000      -0.675319       -18.3764
  22   2.0000      -0.612797       -16.6751
  23   2.0000      -0.600404       -16.3378
  24   2.0000      -0.598714       -16.2918
  25   2.0000      -0.563877       -15.3439
  26   2.0000      -0.526383       -14.3236
  27   2.0000      -0.516400       -14.0519
  28   2.0000      -0.503178       -13.6922
  29   2.0000      -0.491285       -13.3685
  30   2.0000      -0.470160       -12.7937
  31   2.0000      -0.456761       -12.4291
  32   2.0000      -0.447434       -12.1753
  33   2.0000      -0.424653       -11.5554
  34   2.0000      -0.422364       -11.4931
  35   2.0000      -0.419545       -11.4164
  36   2.0000      -0.402550       -10.9539
  37   2.0000      -0.398652       -10.8479
  38   2.0000      -0.382936       -10.4202
  39   2.0000      -0.370927       -10.0934
  40   2.0000      -0.367740       -10.0067
  41   2.0000      -0.360001        -9.7961
  42   2.0000      -0.352178        -9.5832
  43   2.0000      -0.337499        -9.1838
  44   2.0000      -0.322194        -8.7673
  45   2.0000      -0.309634        -8.4256
  46   2.0000      -0.306656        -8.3445
  47   2.0000      -0.270401        -7.3580
  48   2.0000      -0.262495        -7.1429
  49   2.0000      -0.255765        -6.9597
  50   2.0000      -0.236286        -6.4297
  51   0.0000       0.036281         0.9872
  52   0.0000       0.080665         2.1950
  53   0.0000       0.091689         2.4950
  54   0.0000       0.097478         2.6525
  55   0.0000       0.101830         2.7709

MULLIKEN ATOMIC CHARGES
-----------------------
   0 C :    0.307315
   1 C :   -0.263473
   2 C :   -0.308678
   3 C :   -0.018147
   4 O :   -0.508758
   5 H :    0.159756
   6 H :    0.151217
   7 H :    0.157972
   8 H :    0.154625
   9 H :    0.138722
  10 H :    0.153080
  11 H :    0.154867
  12 C :   -0.001614
  13 H :    0.157378
  14 H :    0.134971
  15 O :   -0.553309
  16 C :    0.088707
  17 C :    0.081567
  18 C :   -0.310053
  19 C :    0.001714
  20 O :   -0.521891
  21 H :    0.148015
  22 H :    0.160383
  23 O :   -0.615191
  24 H :    0.141030
  25 H :    0.157481
  26 H :    0.146559
  27 H :    0.138259
  28 H :    0.367498
Sum of atomic charges:   -0.0000000

LOEWDIN ATOMIC CHARGES
----------------------
   0 C :    0.181914
   1 C :   -0.218577
   2 C :   -0.216772
   3 C :   -0.032227
   4 O :   -0.316942
   5 H :    0.104943
   6 H :    0.117725
   7 H :    0.123521
   8 H :    0.120783
   9 H :    0.102983
  10 H :    0.106298
  11 H :    0.109391
  12 C :   -0.041047
  13 H :    0.111554
  14 H :    0.099323
  15 O :   -0.348771
  16 C :    0.019419
  17 C :    0.038025
  18 C :   -0.242209
  19 C :   -0.023527
  20 O :   -0.322616
  21 H :    0.114013
  22 H :    0.115296
  23 O :   -0.411856
  24 H :    0.113367
  25 H :    0.117795
  26 H :    0.105420
  27 H :    0.099593
  28 H :    0.273182

  Mayer bond orders larger than 0.100000
B(  0-C ,  1-C ) :   0.9379 B(  0-C ,  4-O ) :   0.9088 B(  0-C ,  5-H ) :   0.9254
B(  0-C , 15-O ) :   0.8352 B(  1-C ,  2-C ) :   0.9521 B(  1-C ,  6-H ) :   0.9350
B(  1-C ,  7-H ) :   0.9358 B(  2-C ,  3-C ) :   0.9529 B(  2-C ,  8-H ) :   0.9433
B(  2-C ,  9-H ) :   0.9378 B(  3-C ,  4-O ) :   0.8311 B(  3-C , 10-H ) :   0.9305
B(  3-C , 11-H ) :   0.9395 B( 12-C , 13-H ) :   0.9228 B( 12-C , 14-H ) :   0.9027
B( 12-C , 15-O ) :   0.8160 B( 12-C , 16-C ) :   0.9167 B( 16-C , 17-C ) :   0.8823
B( 16-C , 20-O ) :   0.8767 B( 16-C , 21-H ) :   0.9293 B( 17-C , 18-C ) :   0.9337
B( 17-C , 22-H ) :   0.9368 B( 17-C , 23-O ) :   0.8987 B( 18-C , 19-C ) :   0.9472
B( 18-C , 24-H ) :   0.9417 B( 18-C , 25-H ) :   0.9271 B( 19-C , 20-O ) :   0.8393
B( 19-C , 26-H ) :   0.9325 B( 19-C , 27-H ) :   0.9379 B( 23-O , 28-H ) :   0.7769

FINAL SINGLE POINT ENERGY      -652.861904788063

DIPOLE MOMENT
-------------
                                X             Y             Z
Electronic contribution:     -2.21214      -4.17670       0.82848
Nuclear contribution   :      3.15807       5.11300      -1.19733
                        -----------------------------------------
Total Dipole Moment    :      0.94593       0.93630      -0.36885
                        -----------------------------------------
Magnitude (a.u.)       :      1.38112
Magnitude (Debye)      :      3.51054

Rotational constants in cm-1:     0.047186     0.016724     0.015758
Rotational constants in MHz :  1414.589492   501.366249   472.427111

                             ****ORCA TERMINATED NORMALLY****
TOTAL RUN TIME: 0 days 0 hours 36 minutes 30 seconds 272 msec
