                         Program Version 4.2.0 -  RELEASE  -
|  1> # Test redundant internal optimization
|  2> #
|  3> ! RKS B3LYP  Opt TightSCF SmallPrint
|  4>
|  5> %basis
|  6>         Basis "6-31G"
|  7> end
|  8>
|  9> %geom
| 10> Constraints
| 11> { D 4  0  15  12  90.0   C } # D for Dihedral angle
| 12> { D 0  15  12  16  270.0   C } # D for Dihedral angle
| 13> { D 0  4  3  2   C } # D for Dihedral angle
| 14> { D 4  3  2  1   C } # D for Dihedral angle
| 15> { D 3  2  1  0   C } # D for Dihedral angle
| 16> { D 2  1  0  4   C } # D for Dihedral angle
| 17> { D 1  0  4  3   C } # D for Dihedral angle
| 18> { D 16  20  19  18   C } # D for Dihedral angle
| 19> { D 20  19  18  17   C } # D for Dihedral angle
| 20> { D 19  18  17  16   C } # D for Dihedral angle
| 21> { D 18  17  16  20   C } # D for Dihedral angle
| 22> { D 17  16  20  19   C } # D for Dihedral angle
| 23> { D 15  12  16  20   C } # D for Dihedral angle
| 24> end
| 25> end
| 26>
| 27>
| 28> #%pal
| 29> #nprocs 8
| 30> #end
| 31>
| 32> * xyz 0 1
| 33> C  -21.048   26.222   46.251
| 34> C  -20.361   27.558   45.944
| 35> C  -20.329   28.222   47.341
| 36> C  -20.110   27.022   48.296
| 37> O  -20.473   25.807   47.535
| 38> H  -20.833   25.428   45.533
| 39> H  -19.344   27.382   45.576
| 40> H  -20.898   28.157   45.201
| 41> H  -19.543   28.978   47.434
| 42> H  -21.289   28.710   47.548
| 43> H  -20.733   27.082   49.195
| 44> H  -19.064   26.913   48.597
| 45> C  -23.061   27.816   46.783
| 46> H  -22.348   28.558   46.403
| 47> H  -24.046   28.031   46.349
| 48> O  -22.586   26.394   46.375
| 49> C  -23.175   27.992   48.323
| 50> C  -23.755   29.363   48.685
| 51> C  -25.266   29.138   48.444
| 52> C  -25.475   27.665   48.873
| 53> O  -24.138   27.035   48.878
| 54> H  -22.207   27.775   48.780
| 55> O  -23.479   29.681   50.180
| 56> H  -23.344   30.178   48.077
| 57> H  -25.895   29.832   49.012
| 58> H  -25.501   29.268   47.380
| 59> H  -26.128   27.116   48.185
| 60> H  -25.877   27.578   49.887
| 61> H  -23.882   28.878   50.807
| 62> *
| 63>
| 64>                          ****END OF INPUT****
 Total Charge           Charge          ....    0
 Multiplicity           Mult            ....    1
 Number of Electrons    NEL             ....  102
FINAL SINGLE POINT ENERGY      -652.797172899409
FINAL SINGLE POINT ENERGY      -652.829259988246
FINAL SINGLE POINT ENERGY      -652.846626966498
FINAL SINGLE POINT ENERGY      -652.850202718864
FINAL SINGLE POINT ENERGY      -652.850738984481
FINAL SINGLE POINT ENERGY      -652.850826986744
FINAL SINGLE POINT ENERGY      -652.850836744513
FINAL SINGLE POINT ENERGY      -652.850837922700
                    ***********************HURRAY********************

CARTESIAN COORDINATES (ANGSTROEM)
---------------------------------
  C    -21.147725   26.356031   46.361309
  C    -20.222773   27.496971   45.912218
  C    -19.875742   28.189016   47.264121
  C    -19.817835   26.988138   48.244714
  O    -20.531891   25.876349   47.578234
  H    -21.133167   25.499321   45.686067
  H    -19.325501   27.057982   45.465283
  H    -20.680525   28.168007   45.179693
  H    -18.922585   28.725206   47.222661
  H    -20.644816   28.910033   47.554610
  H    -20.293744   27.196028   49.208141
  H    -18.793988   26.647354   48.423809
  C    -23.123492   27.905173   46.836058
  H    -22.513226   28.737870   46.460984
  H    -24.086516   27.937783   46.318079
  O    -22.565609   26.620850   46.454471
  C    -23.344097   28.053474   48.345419
  C    -23.991686   29.388803   48.740184
  C    -25.494590   29.102410   48.477495
  C    -25.636757   27.608928   48.864685
  O    -24.266960   27.041829   48.864246
  H    -22.402542   27.906122   48.879925
  O    -23.736086   29.691279   50.139679
  H    -23.613752   30.250809   48.187737
  H    -26.122608   29.763271   49.079309
  H    -25.734170   29.266823   47.421276
  H    -26.255536   27.044558   48.160801
  H    -26.042807   27.472871   49.872049
  H    -23.867276   28.875711   50.668744

 Multiplicity           Mult            ....    1
 Number of Electrons    NEL             ....  102
 Basis Dimension        Dim             ....  149

ORBITAL ENERGIES
----------------

  NO   OCC          E(Eh)            E(eV)
   0   2.0000     -19.142155      -520.8845
   1   2.0000     -19.141853      -520.8763
   2   2.0000     -19.140597      -520.8421
   3   2.0000     -19.138166      -520.7760
   4   2.0000     -10.277360      -279.6612
   5   2.0000     -10.246407      -278.8189
   6   2.0000     -10.235907      -278.5332
   7   2.0000     -10.235340      -278.5178
   8   2.0000     -10.230617      -278.3892
   9   2.0000     -10.228301      -278.3262
  10   2.0000     -10.195631      -277.4372
  11   2.0000     -10.194287      -277.4007
  12   2.0000     -10.191923      -277.3363
  13   2.0000      -1.049302       -28.5530
  14   2.0000      -1.037482       -28.2313
  15   2.0000      -1.008190       -27.4342
  16   2.0000      -0.994788       -27.0696
  17   2.0000      -0.789761       -21.4905
  18   2.0000      -0.788100       -21.4453
  19   2.0000      -0.771346       -20.9894
  20   2.0000      -0.734505       -19.9869
  21   2.0000      -0.681916       -18.5559
  22   2.0000      -0.610141       -16.6028
  23   2.0000      -0.605892       -16.4872
  24   2.0000      -0.602716       -16.4007
  25   2.0000      -0.571988       -15.5646
  26   2.0000      -0.524659       -14.2767
  27   2.0000      -0.516454       -14.0534
  28   2.0000      -0.503243       -13.6939
  29   2.0000      -0.493827       -13.4377
  30   2.0000      -0.471860       -12.8400
  31   2.0000      -0.460600       -12.5336
  32   2.0000      -0.453238       -12.3332
  33   2.0000      -0.441454       -12.0126
  34   2.0000      -0.427902       -11.6438
  35   2.0000      -0.419751       -11.4220
  36   2.0000      -0.402434       -10.9508
  37   2.0000      -0.395666       -10.7666
  38   2.0000      -0.382627       -10.4118
  39   2.0000      -0.374660       -10.1950
  40   2.0000      -0.363793        -9.8993
  41   2.0000      -0.362582        -9.8664
  42   2.0000      -0.349530        -9.5112
  43   2.0000      -0.336786        -9.1644
  44   2.0000      -0.314482        -8.5575
  45   2.0000      -0.309184        -8.4133
  46   2.0000      -0.295515        -8.0414
  47   2.0000      -0.273565        -7.4441
  48   2.0000      -0.270544        -7.3619
  49   2.0000      -0.255274        -6.9464
  50   2.0000      -0.238335        -6.4854
  51   0.0000       0.061741         1.6800
  52   0.0000       0.074258         2.0207
  53   0.0000       0.083809         2.2806
  54   0.0000       0.088391         2.4052
  55   0.0000       0.093865         2.5542

MULLIKEN ATOMIC CHARGES
-----------------------
   0 C :    0.306245
   1 C :   -0.295439
   2 C :   -0.315788
   3 C :   -0.012045
   4 O :   -0.495221
   5 H :    0.167324
   6 H :    0.159745
   7 H :    0.148012
   8 H :    0.148365
   9 H :    0.146956
  10 H :    0.149247
  11 H :    0.147567
  12 C :   -0.012552
  13 H :    0.120830
  14 H :    0.153130
  15 O :   -0.505928
  16 C :    0.061283
  17 C :    0.070445
  18 C :   -0.291774
  19 C :   -0.032011
  20 O :   -0.504170
  21 H :    0.168564
  22 O :   -0.601752
  23 H :    0.148193
  24 H :    0.164071
  25 H :    0.141243
  26 H :    0.154067
  27 H :    0.145018
  28 H :    0.366378
Sum of atomic charges:   -0.0000000

LOEWDIN ATOMIC CHARGES
----------------------
   0 C :    0.175009
   1 C :   -0.231850
   2 C :   -0.224283
   3 C :   -0.034557
   4 O :   -0.315871
   5 H :    0.113415
   6 H :    0.124722
   7 H :    0.115990
   8 H :    0.117238
   9 H :    0.106618
  10 H :    0.101832
  11 H :    0.105221
  12 C :   -0.043004
  13 H :    0.092556
  14 H :    0.112770
  15 O :   -0.306523
  16 C :    0.006116
  17 C :    0.032579
  18 C :   -0.240301
  19 C :   -0.038973
  20 O :   -0.316420
  21 H :    0.116009
  22 O :   -0.414892
  23 H :    0.112638
  24 H :    0.127359
  25 H :    0.111971
  26 H :    0.107924
  27 H :    0.102399
  28 H :    0.284309

  Mayer bond orders larger than 0.100000
B(  0-C ,  1-C ) :   0.9219 B(  0-C ,  4-O ) :   0.9032 B(  0-C ,  5-H ) :   0.9362
B(  0-C , 15-O ) :   0.9016 B(  1-C ,  2-C ) :   0.9525 B(  1-C ,  6-H ) :   0.9347
B(  1-C ,  7-H ) :   0.9331 B(  2-C ,  3-C ) :   0.9459 B(  2-C ,  8-H ) :   0.9456
B(  2-C ,  9-H ) :   0.9399 B(  3-C ,  4-O ) :   0.8508 B(  3-C , 10-H ) :   0.9251
B(  3-C , 11-H ) :   0.9380 B( 12-C , 13-H ) :   0.9051 B( 12-C , 14-H ) :   0.9374
B( 12-C , 15-O ) :   0.8674 B( 12-C , 16-C ) :   0.8744 B( 16-C , 17-C ) :   0.8931
B( 16-C , 20-O ) :   0.8657 B( 16-C , 21-H ) :   0.9152 B( 17-C , 18-C ) :   0.9118
B( 17-C , 22-O ) :   0.8935 B( 17-C , 23-H ) :   0.9334 B( 18-C , 19-C ) :   0.9400
B( 18-C , 24-H ) :   0.9370 B( 18-C , 25-H ) :   0.9347 B( 19-C , 20-O ) :   0.8509
B( 19-C , 26-H ) :   0.9330 B( 19-C , 27-H ) :   0.9377 B( 22-O , 28-H ) :   0.7931

FINAL SINGLE POINT ENERGY      -652.850836392618

DIPOLE MOMENT
-------------
                                X             Y             Z
Electronic contribution:     -1.08987      -4.42021       1.46791
Nuclear contribution   :      1.17116       5.63470      -2.08268
                        -----------------------------------------
Total Dipole Moment    :      0.08129       1.21448      -0.61477
                        -----------------------------------------
Magnitude (a.u.)       :      1.36364
Magnitude (Debye)      :      3.46610

Rotational constants in cm-1:     0.049445     0.015411     0.014190
Rotational constants in MHz :  1482.312544   462.011178   425.409923

                             ****ORCA TERMINATED NORMALLY****
TOTAL RUN TIME: 0 days 0 hours 50 minutes 14 seconds 469 msec
