                         Program Version 4.2.0 -  RELEASE  -
|  1> # Test redundant internal optimization
|  2> #
|  3> ! RKS B3LYP  Opt TightSCF SmallPrint
|  4>
|  5> %basis
|  6>         Basis "6-31G"
|  7> end
|  8>
|  9> %geom
| 10> Constraints
| 11> { D 4  0  15  12  285.0   C } # D for Dihedral angle
| 12> { D 0  15  12  16  30.0   C } # D for Dihedral angle
| 13> { D 0  4  3  2   C } # D for Dihedral angle
| 14> { D 4  3  2  1   C } # D for Dihedral angle
| 15> { D 3  2  1  0   C } # D for Dihedral angle
| 16> { D 2  1  0  4   C } # D for Dihedral angle
| 17> { D 1  0  4  3   C } # D for Dihedral angle
| 18> { D 16  20  19  18   C } # D for Dihedral angle
| 19> { D 20  19  18  17   C } # D for Dihedral angle
| 20> { D 19  18  17  16   C } # D for Dihedral angle
| 21> { D 18  17  16  20   C } # D for Dihedral angle
| 22> { D 17  16  20  19   C } # D for Dihedral angle
| 23> { D 15  12  16  20   C } # D for Dihedral angle
| 24> end
| 25> end
| 26>
| 27>
| 28> #%pal
| 29> #nprocs 8
| 30> #end
| 31>
| 32> * xyz 0 1
| 33> C  -21.048   26.222   46.251
| 34> C  -20.361   27.558   45.944
| 35> C  -20.329   28.222   47.341
| 36> C  -20.110   27.022   48.296
| 37> O  -20.473   25.807   47.535
| 38> H  -20.833   25.428   45.533
| 39> H  -19.344   27.382   45.576
| 40> H  -20.898   28.157   45.201
| 41> H  -19.543   28.978   47.434
| 42> H  -21.289   28.710   47.548
| 43> H  -20.733   27.082   49.195
| 44> H  -19.064   26.913   48.597
| 45> C  -23.396   25.070   46.435
| 46> H  -24.310   25.231   47.021
| 47> H  -23.687   24.752   45.426
| 48> O  -22.586   26.394   46.375
| 49> C  -22.597   23.907   47.086
| 50> C  -22.294   24.196   48.560
| 51> C  -23.644   23.850   49.232
| 52> C  -24.161   22.658   48.389
| 53> O  -23.407   22.684   47.117
| 54> H  -21.718   23.692   46.477
| 55> O  -21.170   23.251   49.068
| 56> H  -21.981   25.230   48.741
| 57> H  -23.538   23.597   50.292
| 58> H  -24.330   24.703   49.158
| 59> H  -25.232   22.731   48.172
| 60> H  -23.961   21.694   48.863
| 61> H  -21.461   22.208   48.898
| 62> *
| 63>
| 64>                          ****END OF INPUT****
 Total Charge           Charge          ....    0
 Multiplicity           Mult            ....    1
 Number of Electrons    NEL             ....  102
FINAL SINGLE POINT ENERGY      -652.827153315358
FINAL SINGLE POINT ENERGY      -652.851469871751
FINAL SINGLE POINT ENERGY      -652.859190793890
FINAL SINGLE POINT ENERGY      -652.861131428112
FINAL SINGLE POINT ENERGY      -652.861513768389
FINAL SINGLE POINT ENERGY      -652.861587589954
FINAL SINGLE POINT ENERGY      -652.861594175100
FINAL SINGLE POINT ENERGY      -652.861595824983
                    ***********************HURRAY********************

CARTESIAN COORDINATES (ANGSTROEM)
---------------------------------
  C    -20.920434   26.226203   46.255062
  C    -20.463557   27.643072   45.901829
  C    -20.490921   28.337914   47.283991
  C    -20.056334   27.214039   48.250603
  O    -20.254986   25.939336   47.508981
  H    -20.595453   25.444726   45.560239
  H    -19.444431   27.603213   45.501121
  H    -21.120299   28.113157   45.167676
  H    -19.826214   29.205603   47.332715
  H    -21.509305   28.667650   47.507773
  H    -20.648114   27.185040   49.169481
  H    -18.994640   27.258595   48.508939
  C    -23.134836   25.024563   46.479729
  H    -24.039193   25.333751   47.010065
  H    -23.432558   24.704426   45.473196
  O    -22.354827   26.260107   46.356353
  C    -22.533885   23.783928   47.170755
  C    -22.216274   23.904057   48.670067
  C    -23.632552   23.807419   49.302583
  C    -24.362654   22.809518   48.368322
  O    -23.585237   22.758661   47.107623
  H    -21.670938   23.397266   46.622929
  O    -21.377550   22.791873   49.096702
  H    -21.665792   24.803244   48.921539
  H    -23.568083   23.454080   50.334294
  H    -24.120516   24.788123   49.302385
  H    -25.389706   23.110447   48.138779
  H    -24.381568   21.793163   48.774135
  H    -21.707140   21.965826   48.683136

 Multiplicity           Mult            ....    1
 Number of Electrons    NEL             ....  102
 Basis Dimension        Dim             ....  149

ORBITAL ENERGIES
----------------

  NO   OCC          E(Eh)            E(eV)
   0   2.0000     -19.144616      -520.9515
   1   2.0000     -19.144340      -520.9440
   2   2.0000     -19.144051      -520.9361
   3   2.0000     -19.129159      -520.5309
   4   2.0000     -10.281121      -279.7635
   5   2.0000     -10.233119      -278.4573
   6   2.0000     -10.229834      -278.3679
   7   2.0000     -10.229288      -278.3531
   8   2.0000     -10.227901      -278.3153
   9   2.0000     -10.227649      -278.3085
  10   2.0000     -10.186284      -277.1829
  11   2.0000     -10.185891      -277.1722
  12   2.0000     -10.183793      -277.1151
  13   2.0000      -1.053798       -28.6753
  14   2.0000      -1.034064       -28.1383
  15   2.0000      -0.999437       -27.1961
  16   2.0000      -0.994382       -27.0585
  17   2.0000      -0.790208       -21.5027
  18   2.0000      -0.772548       -21.0221
  19   2.0000      -0.763799       -20.7840
  20   2.0000      -0.734058       -19.9747
  21   2.0000      -0.673312       -18.3217
  22   2.0000      -0.603313       -16.4170
  23   2.0000      -0.601158       -16.3583
  24   2.0000      -0.597198       -16.2506
  25   2.0000      -0.568639       -15.4734
  26   2.0000      -0.521934       -14.2026
  27   2.0000      -0.517585       -14.0842
  28   2.0000      -0.494600       -13.4588
  29   2.0000      -0.481477       -13.1017
  30   2.0000      -0.468699       -12.7539
  31   2.0000      -0.458455       -12.4752
  32   2.0000      -0.447967       -12.1898
  33   2.0000      -0.433330       -11.7915
  34   2.0000      -0.416814       -11.3421
  35   2.0000      -0.414400       -11.2764
  36   2.0000      -0.400636       -10.9019
  37   2.0000      -0.387524       -10.5451
  38   2.0000      -0.375928       -10.2295
  39   2.0000      -0.365451        -9.9444
  40   2.0000      -0.359092        -9.7714
  41   2.0000      -0.355838        -9.6828
  42   2.0000      -0.348647        -9.4872
  43   2.0000      -0.336775        -9.1641
  44   2.0000      -0.322052        -8.7635
  45   2.0000      -0.303402        -8.2560
  46   2.0000      -0.302038        -8.2189
  47   2.0000      -0.266395        -7.2490
  48   2.0000      -0.262608        -7.1459
  49   2.0000      -0.259176        -7.0525
  50   2.0000      -0.240125        -6.5341
  51   0.0000       0.067827         1.8457
  52   0.0000       0.075047         2.0421
  53   0.0000       0.094727         2.5776
  54   0.0000       0.098444         2.6788
  55   0.0000       0.105157         2.8615

MULLIKEN ATOMIC CHARGES
-----------------------
   0 C :    0.288476
   1 C :   -0.259880
   2 C :   -0.296367
   3 C :   -0.007099
   4 O :   -0.509523
   5 H :    0.145180
   6 H :    0.146556
   7 H :    0.159468
   8 H :    0.141585
   9 H :    0.161985
  10 H :    0.143084
  11 H :    0.149127
  12 C :    0.007807
  13 H :    0.145342
  14 H :    0.150748
  15 O :   -0.532839
  16 C :    0.025701
  17 C :    0.095293
  18 C :   -0.298712
  19 C :   -0.034596
  20 O :   -0.527304
  21 H :    0.164714
  22 O :   -0.604473
  23 H :    0.187356
  24 H :    0.161369
  25 H :    0.142878
  26 H :    0.147019
  27 H :    0.146789
  28 H :    0.360315
Sum of atomic charges:   -0.0000000

LOEWDIN ATOMIC CHARGES
----------------------
   0 C :    0.172115
   1 C :   -0.213223
   2 C :   -0.215157
   3 C :   -0.028920
   4 O :   -0.324812
   5 H :    0.095905
   6 H :    0.114525
   7 H :    0.125274
   8 H :    0.114078
   9 H :    0.119103
  10 H :    0.102464
  11 H :    0.105977
  12 C :   -0.041276
  13 H :    0.110190
  14 H :    0.106946
  15 O :   -0.331397
  16 C :    0.006062
  17 C :    0.037044
  18 C :   -0.243405
  19 C :   -0.039832
  20 O :   -0.328813
  21 H :    0.115607
  22 O :   -0.414594
  23 H :    0.132183
  24 H :    0.126365
  25 H :    0.112123
  26 H :    0.103610
  27 H :    0.102678
  28 H :    0.279177

  Mayer bond orders larger than 0.100000
B(  0-C ,  1-C ) :   0.9462 B(  0-C ,  4-O ) :   0.8927 B(  0-C ,  5-H ) :   0.9205
B(  0-C , 15-O ) :   0.8660 B(  1-C ,  2-C ) :   0.9585 B(  1-C ,  6-H ) :   0.9404
B(  1-C ,  7-H ) :   0.9366 B(  2-C ,  3-C ) :   0.9549 B(  2-C ,  8-H ) :   0.9450
B(  2-C ,  9-H ) :   0.9444 B(  3-C ,  4-O ) :   0.8324 B(  3-C , 10-H ) :   0.9342
B(  3-C , 11-H ) :   0.9401 B( 12-C , 13-H ) :   0.9372 B( 12-C , 14-H ) :   0.9209
B( 12-C , 15-O ) :   0.8335 B( 12-C , 16-C ) :   0.8889 B( 16-C , 17-C ) :   0.9103
B( 16-C , 20-O ) :   0.8234 B( 16-C , 21-H ) :   0.9246 B( 17-C , 18-C ) :   0.9061
B( 17-C , 22-O ) :   0.8863 B( 17-C , 23-H ) :   0.9098 B( 18-C , 19-C ) :   0.9393
B( 18-C , 24-H ) :   0.9378 B( 18-C , 25-H ) :   0.9349 B( 19-C , 20-O ) :   0.8378
B( 19-C , 26-H ) :   0.9357 B( 19-C , 27-H ) :   0.9383 B( 22-O , 28-H ) :   0.7960

FINAL SINGLE POINT ENERGY      -652.861596004932

DIPOLE MOMENT
-------------
                                X             Y             Z
Electronic contribution:      0.51020      -4.31602      -1.46037
Nuclear contribution   :     -0.82019       5.09708       1.45802
                        -----------------------------------------
Total Dipole Moment    :     -0.30999       0.78106      -0.00235
                        -----------------------------------------
Magnitude (a.u.)       :      0.84033
Magnitude (Debye)      :      2.13594

Rotational constants in cm-1:     0.052992     0.015548     0.013857
Rotational constants in MHz :  1588.668813   466.116556   415.415485

                             ****ORCA TERMINATED NORMALLY****
TOTAL RUN TIME: 0 days 0 hours 57 minutes 11 seconds 810 msec
