                         Program Version 4.2.1 -  RELEASE  -
|  1> # Test redundant internal optimization
|  2> #
|  3> ! RKS B3LYP  Opt TightSCF SmallPrint
|  4>
|  5> %basis
|  6>         Basis "6-31G"
|  7> end
|  8>
|  9> %geom
| 10> Constraints
| 11> { D 4  0  19  14  15.0   C } # D for Dihedral angle
| 12> { D 0  19  14  12  90.0   C } # D for Dihedral angle
| 13> { D 0  4  3  2   C } # D for Dihedral angle
| 14> { D 4  3  2  1   C } # D for Dihedral angle
| 15> { D 3  2  1  0   C } # D for Dihedral angle
| 16> { D 2  1  0  4   C } # D for Dihedral angle
| 17> { D 1  0  4  3   C } # D for Dihedral angle
| 18> { D 14  15  16  17   C } # D for Dihedral angle
| 19> { D 15  16  17  12   C } # D for Dihedral angle
| 20> { D 16  17  12  14   C } # D for Dihedral angle
| 21> { D 17  12  14  15   C } # D for Dihedral angle
| 22> { D 12  14  15  16   C } # D for Dihedral angle
| 23> end
| 24> end
| 25>
| 26>
| 27> #%pal
| 28> #nprocs 8
| 29> #end
| 30>
| 31> * xyz 0 1
| 32> C  -21.048   26.222   46.251
| 33> C  -20.361   27.558   45.944
| 34> C  -20.329   28.222   47.341
| 35> C  -20.110   27.022   48.296
| 36> O  -20.473   25.807   47.535
| 37> H  -20.833   25.428   45.533
| 38> H  -19.344   27.382   45.576
| 39> H  -20.898   28.157   45.201
| 40> H  -19.543   28.978   47.434
| 41> H  -21.289   28.710   47.548
| 42> H  -20.733   27.082   49.195
| 43> H  -19.064   26.913   48.597
| 44> C  -22.971   27.895   48.205
| 45> H  -23.052   27.950   49.302
| 46> C  -22.954   26.442   47.718
| 47> C  -24.454   26.072   47.781
| 48> C  -25.160   27.395   47.390
| 49> O  -24.164   28.473   47.575
| 50> H  -22.118   28.492   47.879
| 51> O  -22.472   26.381   46.366
| 52> H  -22.329   25.789   48.337
| 53> H  -24.716   25.246   47.112
| 54> H  -24.727   25.775   48.801
| 55> H  -26.035   27.604   48.014
| 56> H  -25.462   27.412   46.339
| 57> *
| 58>
| 59>                          ****END OF INPUT****
 Total Charge           Charge          ....    0
 Multiplicity           Mult            ....    1
 Number of Electrons    NEL             ....   86
FINAL SINGLE POINT ENERGY      -538.360808000567
FINAL SINGLE POINT ENERGY      -538.421719879920
FINAL SINGLE POINT ENERGY      -538.425403183229
FINAL SINGLE POINT ENERGY      -538.426014317385
FINAL SINGLE POINT ENERGY      -538.426187750242
FINAL SINGLE POINT ENERGY      -538.426254587300
FINAL SINGLE POINT ENERGY      -538.426270430089
FINAL SINGLE POINT ENERGY      -538.426272002913
FINAL SINGLE POINT ENERGY      -538.426272219285
                    ***********************HURRAY********************

CARTESIAN COORDINATES (ANGSTROEM)
---------------------------------
  C    -21.060713   26.284148   46.397846
  C    -20.326364   27.531347   45.894048
  C    -19.997383   28.266427   47.220806
  C    -19.720674   27.103000   48.201573
  O    -20.321145   25.891514   47.576047
  H    -20.965110   25.447259   45.700002
  H    -19.411497   27.210809   45.384570
  H    -20.934406   28.125334   45.208262
  H    -19.128711   28.926040   47.124634
  H    -20.841198   28.883324   47.534331
  H    -20.167500   27.249509   49.189983
  H    -18.653430   26.896056   48.319261
  C    -23.295358   27.868132   48.475774
  H    -23.565044   27.793811   49.541282
  C    -23.127959   26.464790   47.895796
  C    -24.591780   26.045551   47.673564
  C    -25.288224   27.364248   47.265048
  O    -24.387665   28.458939   47.697939
  H    -22.435455   28.524791   48.373450
  O    -22.498466   26.404122   46.576856
  H    -22.589588   25.795674   48.575639
  H    -24.655905   25.270351   46.907433
  H    -25.008301   25.652404   48.607996
  H    -26.263605   27.494252   47.746058
  H    -25.403518   27.455169   46.181802

 Multiplicity           Mult            ....    1
 Number of Electrons    NEL             ....   86
 Basis Dimension        Dim             ....  127

ORBITAL ENERGIES
----------------

  NO   OCC          E(Eh)            E(eV)
   0   2.0000     -19.150744      -521.1182
   1   2.0000     -19.136051      -520.7184
   2   2.0000     -19.125858      -520.4411
   3   2.0000     -10.278335      -279.6877
   4   2.0000     -10.236747      -278.5560
   5   2.0000     -10.234524      -278.4955
   6   2.0000     -10.220996      -278.1274
   7   2.0000     -10.216526      -278.0058
   8   2.0000     -10.192361      -277.3482
   9   2.0000     -10.186951      -277.2010
  10   2.0000     -10.180763      -277.0327
  11   2.0000      -1.052601       -28.6427
  12   2.0000      -1.011892       -27.5350
  13   2.0000      -0.987285       -26.8654
  14   2.0000      -0.792378       -21.5617
  15   2.0000      -0.780751       -21.2453
  16   2.0000      -0.739183       -20.1142
  17   2.0000      -0.723295       -19.6818
  18   2.0000      -0.618571       -16.8322
  19   2.0000      -0.605692       -16.4817
  20   2.0000      -0.594010       -16.1638
  21   2.0000      -0.562679       -15.3113
  22   2.0000      -0.513647       -13.9770
  23   2.0000      -0.504631       -13.7317
  24   2.0000      -0.492551       -13.4030
  25   2.0000      -0.484103       -13.1731
  26   2.0000      -0.451601       -12.2887
  27   2.0000      -0.439329       -11.9548
  28   2.0000      -0.432296       -11.7634
  29   2.0000      -0.416045       -11.3212
  30   2.0000      -0.411176       -11.1887
  31   2.0000      -0.381084       -10.3698
  32   2.0000      -0.370817       -10.0904
  33   2.0000      -0.362809        -9.8725
  34   2.0000      -0.358952        -9.7676
  35   2.0000      -0.356675        -9.7056
  36   2.0000      -0.345212        -9.3937
  37   2.0000      -0.327962        -8.9243
  38   2.0000      -0.303952        -8.2710
  39   2.0000      -0.302592        -8.2340
  40   2.0000      -0.265229        -7.2173
  41   2.0000      -0.249349        -6.7851
  42   2.0000      -0.230022        -6.2592
  43   0.0000       0.073745         2.0067
  44   0.0000       0.092411         2.5146
  45   0.0000       0.093264         2.5378
  46   0.0000       0.105049         2.8585
  47   0.0000       0.111261         3.0276

MULLIKEN ATOMIC CHARGES
-----------------------
   0 C :    0.310600
   1 C :   -0.262123
   2 C :   -0.322506
   3 C :   -0.018827
   4 O :   -0.513817
   5 H :    0.157880
   6 H :    0.148702
   7 H :    0.163544
   8 H :    0.147740
   9 H :    0.166104
  10 H :    0.141809
  11 H :    0.153601
  12 C :   -0.012467
  13 H :    0.124529
  14 C :    0.067301
  15 C :   -0.291639
  16 C :    0.004207
  17 O :   -0.522549
  18 H :    0.148601
  19 O :   -0.537274
  20 H :    0.154925
  21 H :    0.166933
  22 H :    0.138739
  23 H :    0.132436
  24 H :    0.153552
Sum of atomic charges:   -0.0000000

LOEWDIN ATOMIC CHARGES
----------------------
   0 C :    0.182624
   1 C :   -0.222324
   2 C :   -0.223709
   3 C :   -0.034186
   4 O :   -0.320469
   5 H :    0.104961
   6 H :    0.117395
   7 H :    0.127703
   8 H :    0.117551
   9 H :    0.114682
  10 H :    0.100968
  11 H :    0.108393
  12 C :   -0.051545
  13 H :    0.092336
  14 C :    0.039266
  15 C :   -0.223212
  16 C :   -0.027417
  17 O :   -0.333449
  18 H :    0.109043
  19 O :   -0.334246
  20 H :    0.109621
  21 H :    0.130075
  22 H :    0.110850
  23 H :    0.096779
  24 H :    0.108313

  Mayer bond orders larger than 0.100000
B(  0-C ,  1-C ) :   0.9193 B(  0-C ,  4-O ) :   0.9025 B(  0-C ,  5-H ) :   0.9344
B(  0-C , 19-O ) :   0.8669 B(  1-C ,  2-C ) :   0.9550 B(  1-C ,  6-H ) :   0.9346
B(  1-C ,  7-H ) :   0.9350 B(  2-C ,  3-C ) :   0.9526 B(  2-C ,  8-H ) :   0.9432
B(  2-C ,  9-H ) :   0.9256 B(  3-C ,  4-O ) :   0.8340 B(  3-C , 10-H ) :   0.9331
B(  3-C , 11-H ) :   0.9390 B( 12-C , 13-H ) :   0.9082 B( 12-C , 14-C ) :   0.9130
B( 12-C , 17-O ) :   0.8765 B( 12-C , 18-H ) :   0.9167 B( 14-C , 15-C ) :   0.9554
B( 14-C , 19-O ) :   0.8273 B( 14-C , 20-H ) :   0.9140 B( 15-C , 16-C ) :   0.9474
B( 15-C , 21-H ) :   0.9359 B( 15-C , 22-H ) :   0.9435 B( 16-C , 17-O ) :   0.8526
B( 16-C , 23-H ) :   0.9339 B( 16-C , 24-H ) :   0.9368

FINAL SINGLE POINT ENERGY      -538.426272481935

DIPOLE MOMENT
-------------
                                X             Y             Z
Electronic contribution:     -0.73285      -1.75793      -1.00099
Nuclear contribution   :      1.27224       1.72280       1.31469
                        -----------------------------------------
Total Dipole Moment    :      0.53938      -0.03512       0.31370
                        -----------------------------------------
Magnitude (a.u.)       :      0.62496
Magnitude (Debye)      :      1.58853

Rotational constants in cm-1:     0.073390     0.023538     0.022228
Rotational constants in MHz :  2200.169981   705.647530   666.372537

                             ****ORCA TERMINATED NORMALLY****
TOTAL RUN TIME: 0 days 0 hours 11 minutes 46 seconds 348 msec
