                         Program Version 4.2.0 -  RELEASE  -
|  1> # Test redundant internal optimization
|  2> #
|  3> ! RKS B3LYP  Opt TightSCF SmallPrint
|  4>
|  5> %basis
|  6>         Basis "6-31G"
|  7> end
|  8>
|  9> %geom
| 10> Constraints
| 11> { D 4  0  15  12  240.0   C } # D for Dihedral angle
| 12> { D 0  15  12  16  195.0   C } # D for Dihedral angle
| 13> { D 0  4  3  2   C } # D for Dihedral angle
| 14> { D 4  3  2  1   C } # D for Dihedral angle
| 15> { D 3  2  1  0   C } # D for Dihedral angle
| 16> { D 2  1  0  4   C } # D for Dihedral angle
| 17> { D 1  0  4  3   C } # D for Dihedral angle
| 18> { D 16  20  19  18   C } # D for Dihedral angle
| 19> { D 20  19  18  17   C } # D for Dihedral angle
| 20> { D 19  18  17  16   C } # D for Dihedral angle
| 21> { D 18  17  16  20   C } # D for Dihedral angle
| 22> { D 17  16  20  19   C } # D for Dihedral angle
| 23> { D 15  12  16  20   C } # D for Dihedral angle
| 24> end
| 25> end
| 26>
| 27>
| 28> #%pal
| 29> #nprocs 8
| 30> #end
| 31>
| 32> * xyz 0 1
| 33> C  -21.048   26.222   46.251
| 34> C  -20.361   27.558   45.944
| 35> C  -20.329   28.222   47.341
| 36> C  -20.110   27.022   48.296
| 37> O  -20.473   25.807   47.535
| 38> H  -20.833   25.428   45.533
| 39> H  -19.344   27.382   45.576
| 40> H  -20.898   28.157   45.201
| 41> H  -19.543   28.978   47.434
| 42> H  -21.289   28.710   47.548
| 43> H  -20.733   27.082   49.195
| 44> H  -19.064   26.913   48.597
| 45> C  -23.430   25.483   45.442
| 46> H  -22.991   25.488   44.437
| 47> H  -23.428   24.449   45.811
| 48> O  -22.586   26.394   46.375
| 49> C  -24.910   25.943   45.331
| 50> C  -25.566   26.046   46.713
| 51> C  -25.021   27.404   47.218
| 52> C  -24.946   28.255   45.926
| 53> O  -24.984   27.305   44.793
| 54> H  -25.435   25.292   44.630
| 55> O  -27.111   26.097   46.567
| 56> H  -25.309   25.213   47.376
| 57> H  -25.658   27.860   47.982
| 58> H  -24.022   27.271   47.651
| 59> H  -24.027   28.848   45.866
| 60> H  -25.806   28.923   45.815
| 61> H  -27.392   26.925   45.907
| 62> *
| 63>
| 64>                          ****END OF INPUT****
 Total Charge           Charge          ....    0
 Multiplicity           Mult            ....    1
 Number of Electrons    NEL             ....  102
FINAL SINGLE POINT ENERGY      -652.836905840540
FINAL SINGLE POINT ENERGY      -652.859332433856
FINAL SINGLE POINT ENERGY      -652.863138360019
FINAL SINGLE POINT ENERGY      -652.864085557410
FINAL SINGLE POINT ENERGY      -652.864193328842
FINAL SINGLE POINT ENERGY      -652.864204442128
                    ***********************HURRAY********************

CARTESIAN COORDINATES (ANGSTROEM)
---------------------------------
  C    -21.083864   26.170927   46.205874
  C    -20.433973   27.520317   45.902404
  C    -20.426964   28.191852   47.296218
  C    -20.181437   27.003096   48.251632
  O    -20.514581   25.783394   47.471920
  H    -20.859543   25.370761   45.495181
  H    -19.410779   27.358821   45.543014
  H    -20.989111   28.085842   45.150647
  H    -19.658753   28.965635   47.387416
  H    -21.401460   28.650386   47.490882
  H    -20.810690   27.030797   49.144661
  H    -19.133386   26.907093   48.550176
  C    -23.340952   25.490113   45.474450
  H    -22.935797   25.487147   44.453186
  H    -23.338937   24.458251   45.855386
  O    -22.521320   26.344601   46.321274
  C    -24.773364   26.011158   45.410848
  C    -25.538202   26.104650   46.739059
  C    -25.063303   27.478546   47.280916
  C    -24.906732   28.326113   45.994502
  O    -24.835381   27.367977   44.864994
  H    -25.321498   25.366016   44.713442
  O    -26.974454   26.064437   46.504918
  H    -25.335877   25.278642   47.421204
  H    -25.795594   27.893597   47.979634
  H    -24.101763   27.355921   47.781917
  H    -23.993427   28.927022   46.001565
  H    -25.765127   28.980011   45.806714
  H    -27.200729   26.703877   45.796967

 Multiplicity           Mult            ....    1
 Number of Electrons    NEL             ....  102
 Basis Dimension        Dim             ....  149

ORBITAL ENERGIES
----------------

  NO   OCC          E(Eh)            E(eV)
   0   2.0000     -19.147042      -521.0175
   1   2.0000     -19.141869      -520.8767
   2   2.0000     -19.138500      -520.7851
   3   2.0000     -19.133475      -520.6483
   4   2.0000     -10.283014      -279.8150
   5   2.0000     -10.235987      -278.5354
   6   2.0000     -10.235475      -278.5214
   7   2.0000     -10.234708      -278.5005
   8   2.0000     -10.227490      -278.3041
   9   2.0000     -10.223586      -278.1979
  10   2.0000     -10.188974      -277.2561
  11   2.0000     -10.187291      -277.2103
  12   2.0000     -10.175724      -276.8955
  13   2.0000      -1.056109       -28.7382
  14   2.0000      -1.032039       -28.0832
  15   2.0000      -1.003704       -27.3122
  16   2.0000      -0.995432       -27.0871
  17   2.0000      -0.790546       -21.5118
  18   2.0000      -0.776508       -21.1298
  19   2.0000      -0.764254       -20.7964
  20   2.0000      -0.732692       -19.9376
  21   2.0000      -0.674549       -18.3554
  22   2.0000      -0.601490       -16.3674
  23   2.0000      -0.597316       -16.2538
  24   2.0000      -0.595660       -16.2087
  25   2.0000      -0.581743       -15.8300
  26   2.0000      -0.527070       -14.3423
  27   2.0000      -0.504762       -13.7353
  28   2.0000      -0.497372       -13.5342
  29   2.0000      -0.485217       -13.2034
  30   2.0000      -0.477110       -12.9828
  31   2.0000      -0.460110       -12.5202
  32   2.0000      -0.447235       -12.1699
  33   2.0000      -0.439148       -11.9498
  34   2.0000      -0.422632       -11.5004
  35   2.0000      -0.409307       -11.1378
  36   2.0000      -0.403784       -10.9875
  37   2.0000      -0.387143       -10.5347
  38   2.0000      -0.376972       -10.2579
  39   2.0000      -0.368561       -10.0291
  40   2.0000      -0.359063        -9.7706
  41   2.0000      -0.356661        -9.7052
  42   2.0000      -0.351554        -9.5663
  43   2.0000      -0.327493        -8.9115
  44   2.0000      -0.319489        -8.6937
  45   2.0000      -0.311671        -8.4810
  46   2.0000      -0.300725        -8.1832
  47   2.0000      -0.270248        -7.3538
  48   2.0000      -0.265550        -7.2260
  49   2.0000      -0.251280        -6.8377
  50   2.0000      -0.242744        -6.6054
  51   0.0000       0.061735         1.6799
  52   0.0000       0.083042         2.2597
  53   0.0000       0.086885         2.3643
  54   0.0000       0.100459         2.7336
  55   0.0000       0.104543         2.8448

MULLIKEN ATOMIC CHARGES
-----------------------
   0 C :    0.288385
   1 C :   -0.253697
   2 C :   -0.304917
   3 C :   -0.001566
   4 O :   -0.502741
   5 H :    0.143404
   6 H :    0.144338
   7 H :    0.155449
   8 H :    0.144030
   9 H :    0.158259
  10 H :    0.149583
  11 H :    0.143267
  12 C :    0.001874
  13 H :    0.142963
  14 H :    0.138037
  15 O :   -0.525432
  16 C :    0.058041
  17 C :    0.081789
  18 C :   -0.299526
  19 C :   -0.017719
  20 O :   -0.527291
  21 H :    0.158128
  22 O :   -0.602587
  23 H :    0.155412
  24 H :    0.149343
  25 H :    0.180560
  26 H :    0.145853
  27 H :    0.135547
  28 H :    0.361217
Sum of atomic charges:   -0.0000000

LOEWDIN ATOMIC CHARGES
----------------------
   0 C :    0.177563
   1 C :   -0.220370
   2 C :   -0.216940
   3 C :   -0.026846
   4 O :   -0.316500
   5 H :    0.100921
   6 H :    0.113605
   7 H :    0.122533
   8 H :    0.115164
   9 H :    0.115445
  10 H :    0.106670
  11 H :    0.103202
  12 C :   -0.035936
  13 H :    0.101935
  14 H :    0.100279
  15 O :   -0.335991
  16 C :    0.013344
  17 C :    0.040636
  18 C :   -0.244460
  19 C :   -0.032978
  20 O :   -0.331126
  21 H :    0.117065
  22 O :   -0.416776
  23 H :    0.118065
  24 H :    0.118510
  25 H :    0.131876
  26 H :    0.104101
  27 H :    0.095930
  28 H :    0.281079

  Mayer bond orders larger than 0.100000
B(  0-C ,  1-C ) :   0.9413 B(  0-C ,  4-O ) :   0.9322 B(  0-C ,  5-H ) :   0.9196
B(  0-C , 15-O ) :   0.8335 B(  1-C ,  2-C ) :   0.9564 B(  1-C ,  6-H ) :   0.9364
B(  1-C ,  7-H ) :   0.9362 B(  2-C ,  3-C ) :   0.9538 B(  2-C ,  8-H ) :   0.9449
B(  2-C ,  9-H ) :   0.9432 B(  3-C ,  4-O ) :   0.8381 B(  3-C , 10-H ) :   0.9348
B(  3-C , 11-H ) :   0.9395 B( 12-C , 13-H ) :   0.9167 B( 12-C , 14-H ) :   0.9090
B( 12-C , 15-O ) :   0.8433 B( 12-C , 16-C ) :   0.9104 B( 16-C , 17-C ) :   0.9096
B( 16-C , 20-O ) :   0.8726 B( 16-C , 21-H ) :   0.9212 B( 17-C , 18-C ) :   0.9246
B( 17-C , 22-O ) :   0.8903 B( 17-C , 23-H ) :   0.9348 B( 18-C , 19-C ) :   0.9472
B( 18-C , 24-H ) :   0.9371 B( 18-C , 25-H ) :   0.9164 B( 19-C , 20-O ) :   0.8400
B( 19-C , 26-H ) :   0.9333 B( 19-C , 27-H ) :   0.9366 B( 22-O , 28-H ) :   0.7969

FINAL SINGLE POINT ENERGY      -652.864204224995

DIPOLE MOMENT
-------------
                                X             Y             Z
Electronic contribution:     -3.24211      -3.77829      -1.64410
Nuclear contribution   :      4.06988       4.46815       1.49635
                        -----------------------------------------
Total Dipole Moment    :      0.82777       0.68986      -0.14775
                        -----------------------------------------
Magnitude (a.u.)       :      1.08764
Magnitude (Debye)      :      2.76455

Rotational constants in cm-1:     0.053983     0.014133     0.013817
Rotational constants in MHz :  1618.370944   423.699265   414.226267

                             ****ORCA TERMINATED NORMALLY****
TOTAL RUN TIME: 0 days 0 hours 48 minutes 1 seconds 679 msec
