                         Program Version 4.2.0 -  RELEASE  -
|  1> # Test redundant internal optimization
|  2> #
|  3> ! RKS B3LYP  Opt TightSCF SmallPrint
|  4>
|  5> %basis
|  6>         Basis "6-31G"
|  7> end
|  8>
|  9> %geom
| 10> Constraints
| 11> { D 4  0  15  12  15.0   C } # D for Dihedral angle
| 12> { D 0  15  12  16  135.0   C } # D for Dihedral angle
| 13> { D 0  4  3  2   C } # D for Dihedral angle
| 14> { D 4  3  2  1   C } # D for Dihedral angle
| 15> { D 3  2  1  0   C } # D for Dihedral angle
| 16> { D 2  1  0  4   C } # D for Dihedral angle
| 17> { D 1  0  4  3   C } # D for Dihedral angle
| 18> { D 16  20  19  18   C } # D for Dihedral angle
| 19> { D 20  19  18  17   C } # D for Dihedral angle
| 20> { D 19  18  17  16   C } # D for Dihedral angle
| 21> { D 18  17  16  20   C } # D for Dihedral angle
| 22> { D 17  16  20  19   C } # D for Dihedral angle
| 23> { D 15  12  16  20   C } # D for Dihedral angle
| 24> end
| 25> end
| 26>
| 27>
| 28> #%pal
| 29> #nprocs 8
| 30> #end
| 31>
| 32> * xyz 0 1
| 33> C  -21.048   26.222   46.251
| 34> C  -20.361   27.558   45.944
| 35> C  -20.329   28.222   47.341
| 36> C  -20.110   27.022   48.296
| 37> O  -20.473   25.807   47.535
| 38> H  -20.833   25.428   45.533
| 39> H  -19.344   27.382   45.576
| 40> H  -20.898   28.157   45.201
| 41> H  -19.543   28.978   47.434
| 42> H  -21.289   28.710   47.548
| 43> H  -20.733   27.082   49.195
| 44> H  -19.064   26.913   48.597
| 45> C  -23.128   26.462   47.829
| 46> H  -23.606   25.508   48.082
| 47> H  -22.307   26.632   48.537
| 48> O  -22.586   26.394   46.375
| 49> C  -24.168   27.599   48.030
| 50> C  -24.594   27.711   49.498
| 51> C  -23.402   28.484   50.112
| 52> C  -22.981   29.445   48.972
| 53> O  -23.568   28.902   47.727
| 54> H  -24.994   27.456   47.329
| 55> O  -25.902   28.541   49.612
| 56> H  -24.759   26.738   49.973
| 57> H  -23.669   29.017   51.030
| 58> H  -22.587   27.790   50.352
| 59> H  -21.893   29.509   48.857
| 60> H  -23.384   30.453   49.106
| 61> H  -25.759   29.520   49.142
| 62> *
| 63>
| 64>                          ****END OF INPUT****
 Total Charge           Charge          ....    0
 Multiplicity           Mult            ....    1
 Number of Electrons    NEL             ....  102
FINAL SINGLE POINT ENERGY      -652.819949367398
FINAL SINGLE POINT ENERGY      -652.843364312107
FINAL SINGLE POINT ENERGY      -652.854203894441
FINAL SINGLE POINT ENERGY      -652.856582832802
FINAL SINGLE POINT ENERGY      -652.857049870107
FINAL SINGLE POINT ENERGY      -652.857127680546
FINAL SINGLE POINT ENERGY      -652.857134139739
                    ***********************HURRAY********************

CARTESIAN COORDINATES (ANGSTROEM)
---------------------------------
  C    -21.144546   26.270351   46.316142
  C    -20.439580   27.563615   45.903175
  C    -20.054966   28.166554   47.274950
  C    -19.729233   26.920399   48.128299
  O    -20.352785   25.769125   47.416661
  H    -21.118889   25.495075   45.546708
  H    -19.551306   27.312712   45.311813
  H    -21.092865   28.215438   45.319989
  H    -19.208529   28.857311   47.213597
  H    -20.917306   28.706527   47.672205
  H    -20.129911   26.969365   49.146100
  H    -18.656942   26.708517   48.180215
  C    -23.089418   26.464543   47.945955
  H    -23.632645   25.524569   48.120592
  H    -22.285512   26.520333   48.687328
  O    -22.557552   26.452519   46.599553
  C    -24.072970   27.625759   48.084817
  C    -24.729858   27.764105   49.466436
  C    -23.671490   28.597948   50.233714
  C    -23.104839   29.541070   49.145430
  O    -23.471801   28.942167   47.834419
  H    -24.836504   27.506076   47.309271
  O    -26.002210   28.460416   49.373838
  H    -24.957277   26.810801   49.945672
  H    -24.130975   29.133842   51.067975
  H    -22.891919   27.940440   50.635280
  H    -22.017198   29.647676   49.201992
  H    -23.552344   30.538861   49.176708
  H    -25.910628   29.215886   48.755167

 Multiplicity           Mult            ....    1
 Number of Electrons    NEL             ....  102
 Basis Dimension        Dim             ....  149

ORBITAL ENERGIES
----------------

  NO   OCC          E(Eh)            E(eV)
   0   2.0000     -19.149045      -521.0720
   1   2.0000     -19.148968      -521.0699
   2   2.0000     -19.141381      -520.8635
   3   2.0000     -19.134567      -520.6780
   4   2.0000     -10.276968      -279.6505
   5   2.0000     -10.246264      -278.8150
   6   2.0000     -10.236411      -278.5469
   7   2.0000     -10.234599      -278.4976
   8   2.0000     -10.232819      -278.4492
   9   2.0000     -10.232655      -278.4447
  10   2.0000     -10.194456      -277.4053
  11   2.0000     -10.186088      -277.1775
  12   2.0000     -10.180601      -277.0282
  13   2.0000      -1.052627       -28.6434
  14   2.0000      -1.039339       -28.2819
  15   2.0000      -1.009783       -27.4776
  16   2.0000      -0.991399       -26.9773
  17   2.0000      -0.790905       -21.5216
  18   2.0000      -0.784688       -21.3524
  19   2.0000      -0.772140       -21.0110
  20   2.0000      -0.734899       -19.9976
  21   2.0000      -0.676583       -18.4108
  22   2.0000      -0.609007       -16.5719
  23   2.0000      -0.603181       -16.4134
  24   2.0000      -0.595580       -16.2066
  25   2.0000      -0.577818       -15.7232
  26   2.0000      -0.527425       -14.3520
  27   2.0000      -0.513225       -13.9656
  28   2.0000      -0.500009       -13.6059
  29   2.0000      -0.489912       -13.3312
  30   2.0000      -0.477964       -13.0061
  31   2.0000      -0.462278       -12.5792
  32   2.0000      -0.451438       -12.2843
  33   2.0000      -0.447661       -12.1815
  34   2.0000      -0.418775       -11.3954
  35   2.0000      -0.412671       -11.2293
  36   2.0000      -0.403382       -10.9766
  37   2.0000      -0.398845       -10.8531
  38   2.0000      -0.377406       -10.2697
  39   2.0000      -0.371475       -10.1083
  40   2.0000      -0.363130        -9.8813
  41   2.0000      -0.357116        -9.7176
  42   2.0000      -0.344221        -9.3667
  43   2.0000      -0.338676        -9.2159
  44   2.0000      -0.325740        -8.8638
  45   2.0000      -0.311732        -8.4827
  46   2.0000      -0.305231        -8.3058
  47   2.0000      -0.275172        -7.4878
  48   2.0000      -0.263776        -7.1777
  49   2.0000      -0.258011        -7.0208
  50   2.0000      -0.238639        -6.4937
  51   0.0000       0.049409         1.3445
  52   0.0000       0.076545         2.0829
  53   0.0000       0.089796         2.4435
  54   0.0000       0.095360         2.5949
  55   0.0000       0.097599         2.6558

MULLIKEN ATOMIC CHARGES
-----------------------
   0 C :    0.302211
   1 C :   -0.253903
   2 C :   -0.332418
   3 C :   -0.023656
   4 O :   -0.511404
   5 H :    0.159187
   6 H :    0.141984
   7 H :    0.168057
   8 H :    0.143148
   9 H :    0.183996
  10 H :    0.134809
  11 H :    0.151791
  12 C :    0.000630
  13 H :    0.138394
  14 H :    0.139751
  15 O :   -0.533939
  16 C :    0.072010
  17 C :    0.073433
  18 C :   -0.289536
  19 C :   -0.036322
  20 O :   -0.514136
  21 H :    0.172170
  22 O :   -0.598635
  23 H :    0.155067
  24 H :    0.163660
  25 H :    0.141027
  26 H :    0.136659
  27 H :    0.150564
  28 H :    0.365400
Sum of atomic charges:   -0.0000000

LOEWDIN ATOMIC CHARGES
----------------------
   0 C :    0.185935
   1 C :   -0.221088
   2 C :   -0.228139
   3 C :   -0.035367
   4 O :   -0.320309
   5 H :    0.106679
   6 H :    0.112628
   7 H :    0.130023
   8 H :    0.116039
   9 H :    0.124204
  10 H :    0.095114
  11 H :    0.106577
  12 C :   -0.034701
  13 H :    0.103085
  14 H :    0.101262
  15 O :   -0.332965
  16 C :    0.012287
  17 C :    0.035306
  18 C :   -0.239419
  19 C :   -0.042153
  20 O :   -0.325766
  21 H :    0.120954
  22 O :   -0.412181
  23 H :    0.117020
  24 H :    0.127518
  25 H :    0.111614
  26 H :    0.097785
  27 H :    0.104391
  28 H :    0.283665

  Mayer bond orders larger than 0.100000
B(  0-C ,  1-C ) :   0.9224 B(  0-C ,  4-O ) :   0.9116 B(  0-C ,  5-H ) :   0.9329
B(  0-C , 15-O ) :   0.8552 B(  1-C ,  2-C ) :   0.9549 B(  1-C ,  6-H ) :   0.9353
B(  1-C ,  7-H ) :   0.9340 B(  2-C ,  3-C ) :   0.9526 B(  2-C ,  8-H ) :   0.9449
B(  2-C ,  9-H ) :   0.9167 B(  3-C ,  4-O ) :   0.8326 B(  3-C , 10-H ) :   0.9304
B(  3-C , 11-H ) :   0.9398 B( 12-C , 13-H ) :   0.9196 B( 12-C , 14-H ) :   0.9130
B( 12-C , 15-O ) :   0.8413 B( 12-C , 16-C ) :   0.8946 B( 16-C , 17-C ) :   0.8964
B( 16-C , 20-O ) :   0.8565 B( 16-C , 21-H ) :   0.9222 B( 17-C , 18-C ) :   0.9104
B( 17-C , 22-O ) :   0.8962 B( 17-C , 23-H ) :   0.9331 B( 18-C , 19-C ) :   0.9418
B( 18-C , 24-H ) :   0.9375 B( 18-C , 25-H ) :   0.9349 B( 19-C , 20-O ) :   0.8510
B( 19-C , 26-H ) :   0.9256 B( 19-C , 27-H ) :   0.9386 B( 22-O , 28-H ) :   0.7941

FINAL SINGLE POINT ENERGY      -652.857133474884

DIPOLE MOMENT
-------------
                                X             Y             Z
Electronic contribution:     -4.15268      -2.79146      -2.69454
Nuclear contribution   :      5.03136       3.49172       3.32376
                        -----------------------------------------
Total Dipole Moment    :      0.87867       0.70027       0.62922
                        -----------------------------------------
Magnitude (a.u.)       :      1.28777
Magnitude (Debye)      :      3.27326

Rotational constants in cm-1:     0.052400     0.015715     0.014609
Rotational constants in MHz :  1570.919231   471.124157   437.973853

                             ****ORCA TERMINATED NORMALLY****
TOTAL RUN TIME: 0 days 0 hours 27 minutes 19 seconds 830 msec
