                         Program Version 4.2.0 -  RELEASE  -
|  1> # Test redundant internal optimization
|  2> #
|  3> ! RKS B3LYP  Opt TightSCF SmallPrint
|  4>
|  5> %basis
|  6>         Basis "6-31G"
|  7> end
|  8>
|  9> %geom
| 10> Constraints
| 11> { D 4  0  15  12  225.0   C } # D for Dihedral angle
| 12> { D 0  15  12  16  330.0   C } # D for Dihedral angle
| 13> { D 0  4  3  2   C } # D for Dihedral angle
| 14> { D 4  3  2  1   C } # D for Dihedral angle
| 15> { D 3  2  1  0   C } # D for Dihedral angle
| 16> { D 2  1  0  4   C } # D for Dihedral angle
| 17> { D 1  0  4  3   C } # D for Dihedral angle
| 18> { D 16  20  19  18   C } # D for Dihedral angle
| 19> { D 20  19  18  17   C } # D for Dihedral angle
| 20> { D 19  18  17  16   C } # D for Dihedral angle
| 21> { D 18  17  16  20   C } # D for Dihedral angle
| 22> { D 17  16  20  19   C } # D for Dihedral angle
| 23> { D 15  12  16  20   C } # D for Dihedral angle
| 24> end
| 25> end
| 26>
| 27>
| 28> #%pal
| 29> #nprocs 8
| 30> #end
| 31>
| 32> * xyz 0 1
| 33> C  -21.048   26.222   46.251
| 34> C  -20.361   27.558   45.944
| 35> C  -20.329   28.222   47.341
| 36> C  -20.110   27.022   48.296
| 37> O  -20.473   25.807   47.535
| 38> H  -20.833   25.428   45.533
| 39> H  -19.344   27.382   45.576
| 40> H  -20.898   28.157   45.201
| 41> H  -19.543   28.978   47.434
| 42> H  -21.289   28.710   47.548
| 43> H  -20.733   27.082   49.195
| 44> H  -19.064   26.913   48.597
| 45> C  -23.415   25.773   45.218
| 46> H  -23.674   24.738   45.473
| 47> H  -24.348   26.333   45.070
| 48> O  -22.586   26.394   46.375
| 49> C  -22.649   25.766   43.866
| 50> C  -23.536   25.254   42.726
| 51> C  -24.393   26.504   42.410
| 52> C  -23.407   27.675   42.648
| 53> O  -22.301   27.133   43.467
| 54> H  -21.711   25.220   43.989
| 55> O  -22.662   24.866   41.503
| 56> H  -24.141   24.385   43.008
| 57> H  -24.795   26.497   41.392
| 58> H  -25.239   26.565   43.104
| 59> H  -23.871   28.512   43.181
| 60> H  -22.968   28.046   41.718
| 61> H  -22.048   25.722   41.203
| 62> *
| 63>
| 64>                          ****END OF INPUT****
 Total Charge           Charge          ....    0
 Multiplicity           Mult            ....    1
 Number of Electrons    NEL             ....  102
FINAL SINGLE POINT ENERGY      -652.827802594898
FINAL SINGLE POINT ENERGY      -652.850847793879
FINAL SINGLE POINT ENERGY      -652.854645433140
FINAL SINGLE POINT ENERGY      -652.856339762241
FINAL SINGLE POINT ENERGY      -652.856497987926
FINAL SINGLE POINT ENERGY      -652.856527090984
                    ***********************HURRAY********************

CARTESIAN COORDINATES (ANGSTROEM)
---------------------------------
  C    -20.918526   26.226347   46.198553
  C    -20.292394   27.605556   46.002477
  C    -20.420475   28.216711   47.416257
  C    -20.213221   26.998497   48.342273
  O    -20.440925   25.802277   47.491014
  H    -20.606637   25.461320   45.485802
  H    -19.237383   27.487853   45.724888
  H    -20.802692   28.172567   45.223024
  H    -19.690340   29.010396   47.600942
  H    -21.424778   28.630897   47.547128
  H    -20.913781   26.969442   49.180871
  H    -19.189633   26.921809   48.722112
  C    -23.212557   25.816110   45.194580
  H    -23.509262   24.787728   45.454817
  H    -24.107347   26.444340   45.221782
  O    -22.366734   26.344525   46.253590
  C    -22.623602   25.784574   43.780826
  C    -23.619953   25.270371   42.729643
  C    -24.453870   26.547882   42.433591
  C    -23.405139   27.683801   42.551568
  O    -22.256336   27.122761   43.304119
  H    -21.711819   25.183469   43.749347
  O    -22.923777   24.791366   41.547648
  H    -24.223910   24.427296   43.067089
  H    -24.909140   26.489215   41.442028
  H    -25.253918   26.662669   43.172737
  H    -23.786387   28.558404   43.086228
  H    -23.024652   28.007754   41.578305
  H    -22.229813   25.438064   41.298758

 Multiplicity           Mult            ....    1
 Number of Electrons    NEL             ....  102
 Basis Dimension        Dim             ....  149

ORBITAL ENERGIES
----------------

  NO   OCC          E(Eh)            E(eV)
   0   2.0000     -19.153325      -521.1885
   1   2.0000     -19.147261      -521.0235
   2   2.0000     -19.133239      -520.6419
   3   2.0000     -19.129798      -520.5483
   4   2.0000     -10.271346      -279.4975
   5   2.0000     -10.252267      -278.9784
   6   2.0000     -10.244093      -278.7560
   7   2.0000     -10.239958      -278.6434
   8   2.0000     -10.235436      -278.5204
   9   2.0000     -10.215764      -277.9851
  10   2.0000     -10.198588      -277.5177
  11   2.0000     -10.175353      -276.8854
  12   2.0000     -10.170190      -276.7449
  13   2.0000      -1.048905       -28.5422
  14   2.0000      -1.039948       -28.2984
  15   2.0000      -1.015330       -27.6285
  16   2.0000      -0.984819       -26.7983
  17   2.0000      -0.793412       -21.5898
  18   2.0000      -0.776530       -21.1305
  19   2.0000      -0.770193       -20.9580
  20   2.0000      -0.729843       -19.8600
  21   2.0000      -0.675980       -18.3943
  22   2.0000      -0.613688       -16.6993
  23   2.0000      -0.610671       -16.6172
  24   2.0000      -0.588139       -16.0041
  25   2.0000      -0.566789       -15.4231
  26   2.0000      -0.533599       -14.5200
  27   2.0000      -0.515031       -14.0147
  28   2.0000      -0.491702       -13.3799
  29   2.0000      -0.487549       -13.2669
  30   2.0000      -0.473577       -12.8867
  31   2.0000      -0.456324       -12.4172
  32   2.0000      -0.452458       -12.3120
  33   2.0000      -0.442141       -12.0313
  34   2.0000      -0.425495       -11.5783
  35   2.0000      -0.412525       -11.2254
  36   2.0000      -0.403741       -10.9864
  37   2.0000      -0.392512       -10.6808
  38   2.0000      -0.380819       -10.3626
  39   2.0000      -0.371079       -10.0976
  40   2.0000      -0.359589        -9.7849
  41   2.0000      -0.352129        -9.5819
  42   2.0000      -0.344388        -9.3713
  43   2.0000      -0.336262        -9.1501
  44   2.0000      -0.318866        -8.6768
  45   2.0000      -0.305968        -8.3258
  46   2.0000      -0.301329        -8.1996
  47   2.0000      -0.280745        -7.6395
  48   2.0000      -0.260078        -7.0771
  49   2.0000      -0.249779        -6.7968
  50   2.0000      -0.236851        -6.4451
  51   0.0000       0.056828         1.5464
  52   0.0000       0.082872         2.2551
  53   0.0000       0.087084         2.3697
  54   0.0000       0.090080         2.4512
  55   0.0000       0.095590         2.6011

MULLIKEN ATOMIC CHARGES
-----------------------
   0 C :    0.291422
   1 C :   -0.255937
   2 C :   -0.301241
   3 C :   -0.000760
   4 O :   -0.508984
   5 H :    0.138482
   6 H :    0.133923
   7 H :    0.172198
   8 H :    0.136219
   9 H :    0.158640
  10 H :    0.148940
  11 H :    0.137015
  12 C :    0.026176
  13 H :    0.132288
  14 H :    0.146092
  15 O :   -0.524497
  16 C :    0.031715
  17 C :    0.074741
  18 C :   -0.297187
  19 C :   -0.028524
  20 O :   -0.521290
  21 H :    0.167377
  22 O :   -0.597981
  23 H :    0.158938
  24 H :    0.165743
  25 H :    0.149765
  26 H :    0.152800
  27 H :    0.148980
  28 H :    0.364947
Sum of atomic charges:   -0.0000000

LOEWDIN ATOMIC CHARGES
----------------------
   0 C :    0.180585
   1 C :   -0.224371
   2 C :   -0.217786
   3 C :   -0.026580
   4 O :   -0.314331
   5 H :    0.096115
   6 H :    0.108811
   7 H :    0.129481
   8 H :    0.111486
   9 H :    0.117355
  10 H :    0.106117
  11 H :    0.099776
  12 C :   -0.034095
  13 H :    0.098690
  14 H :    0.110326
  15 O :   -0.331939
  16 C :   -0.001240
  17 C :    0.037762
  18 C :   -0.240280
  19 C :   -0.037116
  20 O :   -0.330818
  21 H :    0.114592
  22 O :   -0.411105
  23 H :    0.118978
  24 H :    0.128437
  25 H :    0.115683
  26 H :    0.107855
  27 H :    0.104066
  28 H :    0.283547

  Mayer bond orders larger than 0.100000
B(  0-C ,  1-C ) :   0.9400 B(  0-C ,  4-O ) :   0.9220 B(  0-C ,  5-H ) :   0.9174
B(  0-C , 15-O ) :   0.8288 B(  1-C ,  2-C ) :   0.9539 B(  1-C ,  6-H ) :   0.9370
B(  1-C ,  7-H ) :   0.9244 B(  2-C ,  3-C ) :   0.9542 B(  2-C ,  8-H ) :   0.9456
B(  2-C ,  9-H ) :   0.9443 B(  3-C ,  4-O ) :   0.8399 B(  3-C , 10-H ) :   0.9354
B(  3-C , 11-H ) :   0.9401 B( 12-C , 13-H ) :   0.9093 B( 12-C , 14-H ) :   0.9334
B( 12-C , 15-O ) :   0.8634 B( 12-C , 16-C ) :   0.8933 B( 16-C , 17-C ) :   0.8920
B( 16-C , 20-O ) :   0.8453 B( 16-C , 21-H ) :   0.9161 B( 17-C , 18-C ) :   0.9129
B( 17-C , 22-O ) :   0.8950 B( 17-C , 23-H ) :   0.9319 B( 18-C , 19-C ) :   0.9404
B( 18-C , 24-H ) :   0.9368 B( 18-C , 25-H ) :   0.9329 B( 19-C , 20-O ) :   0.8409
B( 19-C , 26-H ) :   0.9342 B( 19-C , 27-H ) :   0.9377 B( 22-O , 28-H ) :   0.7945

FINAL SINGLE POINT ENERGY      -652.856528819479

DIPOLE MOMENT
-------------
                                X             Y             Z
Electronic contribution:      0.66050      -3.94032      -0.62837
Nuclear contribution   :     -1.14807       4.85860       0.01824
                        -----------------------------------------
Total Dipole Moment    :     -0.48757       0.91828      -0.61013
                        -----------------------------------------
Magnitude (a.u.)       :      1.20549
Magnitude (Debye)      :      3.06412

Rotational constants in cm-1:     0.064335     0.012679     0.012040
Rotational constants in MHz :  1928.728667   380.116242   360.939633

                             ****ORCA TERMINATED NORMALLY****
TOTAL RUN TIME: 0 days 1 hours 22 minutes 29 seconds 235 msec
