                         Program Version 4.2.1 -  RELEASE  -
|  1> # Test redundant internal optimization
|  2> #
|  3> ! RKS B3LYP  Opt TightSCF SmallPrint
|  4>
|  5> %basis
|  6>         Basis "6-31G"
|  7> end
|  8>
|  9> %geom
| 10> Constraints
| 11> { D 4  0  19  14  180.0   C } # D for Dihedral angle
| 12> { D 0  19  14  12  75.0   C } # D for Dihedral angle
| 13> { D 0  4  3  2   C } # D for Dihedral angle
| 14> { D 4  3  2  1   C } # D for Dihedral angle
| 15> { D 3  2  1  0   C } # D for Dihedral angle
| 16> { D 2  1  0  4   C } # D for Dihedral angle
| 17> { D 1  0  4  3   C } # D for Dihedral angle
| 18> { D 14  15  16  17   C } # D for Dihedral angle
| 19> { D 15  16  17  12   C } # D for Dihedral angle
| 20> { D 16  17  12  14   C } # D for Dihedral angle
| 21> { D 17  12  14  15   C } # D for Dihedral angle
| 22> { D 12  14  15  16   C } # D for Dihedral angle
| 23> end
| 24> end
| 25>
| 26>
| 27> #%pal
| 28> #nprocs 8
| 29> #end
| 30>
| 31> * xyz 0 1
| 32> C  -21.048   26.222   46.251
| 33> C  -20.361   27.558   45.944
| 34> C  -20.329   28.222   47.341
| 35> C  -20.110   27.022   48.296
| 36> O  -20.473   25.807   47.535
| 37> H  -20.833   25.428   45.533
| 38> H  -19.344   27.382   45.576
| 39> H  -20.898   28.157   45.201
| 40> H  -19.543   28.978   47.434
| 41> H  -21.289   28.710   47.548
| 42> H  -20.733   27.082   49.195
| 43> H  -19.064   26.913   48.597
| 44> C  -23.209   25.605   44.180
| 45> H  -23.429   25.943   43.155
| 46> C  -23.122   26.788   45.152
| 47> C  -24.616   27.094   45.408
| 48> C  -25.274   25.691   45.378
| 49> O  -24.315   24.792   44.699
| 50> H  -22.324   24.967   44.164
| 51> O  -22.472   26.381   46.366
| 52> H  -22.578   27.644   44.738
| 53> H  -24.787   27.615   46.355
| 54> H  -25.016   27.724   44.603
| 55> H  -26.222   25.682   44.831
| 56> H  -25.439   25.286   46.381
| 57> *
| 58>
| 59>                          ****END OF INPUT****
 Total Charge           Charge          ....    0
 Multiplicity           Mult            ....    1
 Number of Electrons    NEL             ....   86
FINAL SINGLE POINT ENERGY      -538.423822625731
FINAL SINGLE POINT ENERGY      -538.428852765464
FINAL SINGLE POINT ENERGY      -538.429249812942
FINAL SINGLE POINT ENERGY      -538.429334471147
FINAL SINGLE POINT ENERGY      -538.429352684635
FINAL SINGLE POINT ENERGY      -538.429356152930
                    ***********************HURRAY********************

CARTESIAN COORDINATES (ANGSTROEM)
---------------------------------
  C    -20.992840   26.219359   46.227781
  C    -20.237571   27.519420   45.954978
  C    -20.325235   28.237594   47.325798
  C    -20.244474   27.067053   48.327448
  O    -20.573514   25.846333   47.547288
  H    -20.748799   25.387802   45.561042
  H    -19.197248   27.278095   45.707288
  H    -20.649222   28.113759   45.135066
  H    -19.521921   28.966639   47.468316
  H    -21.284156   28.756834   47.413211
  H    -20.955229   27.154839   49.152860
  H    -19.237517   26.918972   48.728544
  C    -23.286603   25.648175   44.072785
  H    -23.602652   26.033029   43.091140
  C    -23.131490   26.801399   45.064503
  C    -24.594660   27.061622   45.470119
  C    -25.225589   25.649196   45.462072
  O    -24.315400   24.794779   44.665796
  H    -22.393182   25.033524   43.943167
  O    -22.438697   26.412655   46.285280
  H    -22.660281   27.683189   44.610906
  H    -24.641915   27.544811   46.448478
  H    -25.071718   27.715174   44.730253
  H    -26.220683   25.635447   45.004478
  H    -25.277402   25.213301   46.462404

 Multiplicity           Mult            ....    1
 Number of Electrons    NEL             ....   86
 Basis Dimension        Dim             ....  127

ORBITAL ENERGIES
----------------

  NO   OCC          E(Eh)            E(eV)
   0   2.0000     -19.139924      -520.8238
   1   2.0000     -19.139779      -520.8199
   2   2.0000     -19.127386      -520.4826
   3   2.0000     -10.279680      -279.7243
   4   2.0000     -10.241995      -278.6989
   5   2.0000     -10.225214      -278.2422
   6   2.0000     -10.224071      -278.2111
   7   2.0000     -10.217986      -278.0455
   8   2.0000     -10.190265      -277.2912
   9   2.0000     -10.188918      -277.2545
  10   2.0000     -10.185769      -277.1689
  11   2.0000      -1.053889       -28.6778
  12   2.0000      -1.014429       -27.6040
  13   2.0000      -0.988853       -26.9081
  14   2.0000      -0.789705       -21.4890
  15   2.0000      -0.781427       -21.2637
  16   2.0000      -0.737409       -20.0659
  17   2.0000      -0.726542       -19.7702
  18   2.0000      -0.618352       -16.8262
  19   2.0000      -0.602472       -16.3941
  20   2.0000      -0.592719       -16.1287
  21   2.0000      -0.566855       -15.4249
  22   2.0000      -0.528096       -14.3702
  23   2.0000      -0.498508       -13.5651
  24   2.0000      -0.493342       -13.4245
  25   2.0000      -0.479927       -13.0595
  26   2.0000      -0.451101       -12.2751
  27   2.0000      -0.449657       -12.2358
  28   2.0000      -0.430160       -11.7052
  29   2.0000      -0.420678       -11.4472
  30   2.0000      -0.402521       -10.9532
  31   2.0000      -0.379096       -10.3157
  32   2.0000      -0.374491       -10.1904
  33   2.0000      -0.366200        -9.9648
  34   2.0000      -0.364391        -9.9156
  35   2.0000      -0.355556        -9.6752
  36   2.0000      -0.351932        -9.5766
  37   2.0000      -0.312953        -8.5159
  38   2.0000      -0.307827        -8.3764
  39   2.0000      -0.298619        -8.1258
  40   2.0000      -0.257279        -7.0009
  41   2.0000      -0.254327        -6.9206
  42   2.0000      -0.233995        -6.3673
  43   0.0000       0.071955         1.9580
  44   0.0000       0.096248         2.6190
  45   0.0000       0.100805         2.7430
  46   0.0000       0.106654         2.9022
  47   0.0000       0.115351         3.1389

MULLIKEN ATOMIC CHARGES
-----------------------
   0 C :    0.307853
   1 C :   -0.285687
   2 C :   -0.295584
   3 C :   -0.000460
   4 O :   -0.500124
   5 H :    0.145236
   6 H :    0.149758
   7 H :    0.141223
   8 H :    0.142566
   9 H :    0.156055
  10 H :    0.154040
  11 H :    0.142404
  12 C :   -0.000200
  13 H :    0.122104
  14 C :    0.062863
  15 C :   -0.292273
  16 C :    0.005166
  17 O :   -0.516630
  18 H :    0.153313
  19 O :   -0.507179
  20 H :    0.118836
  21 H :    0.163310
  22 H :    0.139498
  23 H :    0.133342
  24 H :    0.160572
Sum of atomic charges:   -0.0000000

LOEWDIN ATOMIC CHARGES
----------------------
   0 C :    0.181644
   1 C :   -0.233268
   2 C :   -0.216381
   3 C :   -0.025096
   4 O :   -0.301034
   5 H :    0.097711
   6 H :    0.116832
   7 H :    0.111543
   8 H :    0.114459
   9 H :    0.115517
  10 H :    0.109337
  11 H :    0.102799
  12 C :   -0.047313
  13 H :    0.091112
  14 C :    0.033741
  15 C :   -0.222880
  16 C :   -0.026054
  17 O :   -0.327978
  18 H :    0.112402
  19 O :   -0.325762
  20 H :    0.089950
  21 H :    0.128449
  22 H :    0.110753
  23 H :    0.097360
  24 H :    0.112158

  Mayer bond orders larger than 0.100000
B(  0-C ,  1-C ) :   0.9277 B(  0-C ,  4-O ) :   0.9365 B(  0-C ,  5-H ) :   0.9180
B(  0-C , 19-O ) :   0.8331 B(  1-C ,  2-C ) :   0.9507 B(  1-C ,  6-H ) :   0.9340
B(  1-C ,  7-H ) :   0.9305 B(  2-C ,  3-C ) :   0.9555 B(  2-C ,  8-H ) :   0.9451
B(  2-C ,  9-H ) :   0.9456 B(  3-C ,  4-O ) :   0.8366 B(  3-C , 10-H ) :   0.9344
B(  3-C , 11-H ) :   0.9396 B( 12-C , 13-H ) :   0.9095 B( 12-C , 14-C ) :   0.9063
B( 12-C , 17-O ) :   0.8806 B( 12-C , 18-H ) :   0.9312 B( 14-C , 15-C ) :   0.9580
B( 14-C , 19-O ) :   0.8435 B( 14-C , 20-H ) :   0.9112 B( 15-C , 16-C ) :   0.9473
B( 15-C , 21-H ) :   0.9363 B( 15-C , 22-H ) :   0.9423 B( 16-C , 17-O ) :   0.8519
B( 16-C , 23-H ) :   0.9332 B( 16-C , 24-H ) :   0.9352

FINAL SINGLE POINT ENERGY      -538.429356552822

DIPOLE MOMENT
-------------
                                X             Y             Z
Electronic contribution:     -0.43983      -4.82351       0.56053
Nuclear contribution   :      0.83232       6.51624      -1.02599
                        -----------------------------------------
Total Dipole Moment    :      0.39249       1.69273      -0.46546
                        -----------------------------------------
Magnitude (a.u.)       :      1.79890
Magnitude (Debye)      :      4.57244

Rotational constants in cm-1:     0.084527     0.019792     0.019669
Rotational constants in MHz :  2534.043603   593.342426   589.648072

                             ****ORCA TERMINATED NORMALLY****
TOTAL RUN TIME: 0 days 0 hours 6 minutes 49 seconds 241 msec
