                         Program Version 4.2.0 -  RELEASE  -
|  1> # Test redundant internal optimization
|  2> #
|  3> ! RKS B3LYP  Opt TightSCF SmallPrint
|  4>
|  5> %basis
|  6>         Basis "6-31G"
|  7> end
|  8>
|  9> %geom
| 10> Constraints
| 11> { D 4  0  15  12  210.0   C } # D for Dihedral angle
| 12> { D 0  15  12  16  225.0   C } # D for Dihedral angle
| 13> { D 0  4  3  2   C } # D for Dihedral angle
| 14> { D 4  3  2  1   C } # D for Dihedral angle
| 15> { D 3  2  1  0   C } # D for Dihedral angle
| 16> { D 2  1  0  4   C } # D for Dihedral angle
| 17> { D 1  0  4  3   C } # D for Dihedral angle
| 18> { D 16  20  19  18   C } # D for Dihedral angle
| 19> { D 20  19  18  17   C } # D for Dihedral angle
| 20> { D 19  18  17  16   C } # D for Dihedral angle
| 21> { D 18  17  16  20   C } # D for Dihedral angle
| 22> { D 17  16  20  19   C } # D for Dihedral angle
| 23> { D 15  12  16  20   C } # D for Dihedral angle
| 24> end
| 25> end
| 26>
| 27>
| 28> #%pal
| 29> #nprocs 8
| 30> #end
| 31>
| 32> * xyz 0 1
| 33> C  -21.048   26.222   46.251
| 34> C  -20.361   27.558   45.944
| 35> C  -20.329   28.222   47.341
| 36> C  -20.110   27.022   48.296
| 37> O  -20.473   25.807   47.535
| 38> H  -20.833   25.428   45.533
| 39> H  -19.344   27.382   45.576
| 40> H  -20.898   28.157   45.201
| 41> H  -19.543   28.978   47.434
| 42> H  -21.289   28.710   47.548
| 43> H  -20.733   27.082   49.195
| 44> H  -19.064   26.913   48.597
| 45> C  -23.389   26.110   45.076
| 46> H  -22.700   26.085   44.223
| 47> H  -23.892   25.137   45.140
| 48> O  -22.586   26.394   46.375
| 49> C  -24.475   27.185   44.795
| 50> C  -25.426   27.342   45.987
| 51> C  -24.586   28.220   46.945
| 52> C  -23.807   29.148   45.979
| 53> O  -23.861   28.508   44.646
| 54> H  -24.970   26.955   43.850
| 55> H  -26.334   27.869   45.677
| 56> O  -25.839   25.986   46.621
| 57> H  -25.200   28.780   47.657
| 58> H  -23.893   27.594   47.520
| 59> H  -22.761   29.278   46.274
| 60> H  -24.272   30.134   45.882
| 61> H  -24.944   25.440   46.939
| 62> *
| 63>
| 64>                          ****END OF INPUT****
 Total Charge           Charge          ....    0
 Multiplicity           Mult            ....    1
 Number of Electrons    NEL             ....  102
FINAL SINGLE POINT ENERGY      -652.832964136372
FINAL SINGLE POINT ENERGY      -652.855874156461
FINAL SINGLE POINT ENERGY      -652.859848770257
FINAL SINGLE POINT ENERGY      -652.861905866572
FINAL SINGLE POINT ENERGY      -652.862054775180
FINAL SINGLE POINT ENERGY      -652.862081784759
FINAL SINGLE POINT ENERGY      -652.862082258085
                    ***********************HURRAY********************

CARTESIAN COORDINATES (ANGSTROEM)
---------------------------------
  C    -21.039787   26.193674   46.194721
  C    -20.351259   27.526587   45.910661
  C    -20.315404   28.174718   47.315189
  C    -20.100997   26.963982   48.248365
  O    -20.478126   25.769765   47.444359
  H    -20.839153   25.401380   45.467067
  H    -19.336019   27.339796   45.541567
  H    -20.893266   28.126068   45.174335
  H    -19.521994   28.921856   47.412139
  H    -21.271164   28.660079   47.529481
  H    -20.724324   26.990888   49.145401
  H    -19.054996   26.826855   48.536980
  C    -23.259423   26.109405   45.124051
  H    -22.591601   26.092634   44.253346
  H    -23.747868   25.128976   45.202334
  O    -22.483990   26.358088   46.337808
  C    -24.326683   27.169171   44.876792
  C    -25.390301   27.299538   45.981011
  C    -24.704906   28.289168   46.971788
  C    -23.925092   29.228570   46.027700
  O    -23.813552   28.524209   44.721521
  H    -24.795431   26.912319   43.918489
  H    -26.307209   27.723364   45.567182
  O    -25.791169   26.042777   46.575267
  H    -25.430767   28.820903   47.593419
  H    -24.020784   27.724911   47.611481
  H    -22.921740   29.464195   46.388029
  H    -24.461244   30.162597   45.832568
  H    -25.061749   25.699528   47.133951

 Multiplicity           Mult            ....    1
 Number of Electrons    NEL             ....  102
 Basis Dimension        Dim             ....  149

ORBITAL ENERGIES
----------------

  NO   OCC          E(Eh)            E(eV)
   0   2.0000     -19.147668      -521.0345
   1   2.0000     -19.145140      -520.9658
   2   2.0000     -19.140415      -520.8372
   3   2.0000     -19.139432      -520.8104
   4   2.0000     -10.283793      -279.8362
   5   2.0000     -10.237592      -278.5790
   6   2.0000     -10.234055      -278.4828
   7   2.0000     -10.232818      -278.4491
   8   2.0000     -10.229176      -278.3500
   9   2.0000     -10.226496      -278.2771
  10   2.0000     -10.190140      -277.2878
  11   2.0000     -10.186360      -277.1850
  12   2.0000     -10.182024      -277.0670
  13   2.0000      -1.056762       -28.7560
  14   2.0000      -1.029479       -28.0135
  15   2.0000      -1.011377       -27.5210
  16   2.0000      -0.998058       -27.1585
  17   2.0000      -0.789593       -21.4859
  18   2.0000      -0.775063       -21.0905
  19   2.0000      -0.768422       -20.9098
  20   2.0000      -0.734547       -19.9880
  21   2.0000      -0.680660       -18.5217
  22   2.0000      -0.605132       -16.4665
  23   2.0000      -0.603263       -16.4156
  24   2.0000      -0.595954       -16.2167
  25   2.0000      -0.575789       -15.6680
  26   2.0000      -0.528173       -14.3723
  27   2.0000      -0.508016       -13.8238
  28   2.0000      -0.496329       -13.5058
  29   2.0000      -0.492036       -13.3890
  30   2.0000      -0.474897       -12.9226
  31   2.0000      -0.462640       -12.5891
  32   2.0000      -0.441820       -12.0225
  33   2.0000      -0.437420       -11.9028
  34   2.0000      -0.425386       -11.5753
  35   2.0000      -0.415821       -11.3151
  36   2.0000      -0.404867       -11.0170
  37   2.0000      -0.396215       -10.7816
  38   2.0000      -0.379351       -10.3227
  39   2.0000      -0.374803       -10.1989
  40   2.0000      -0.359106        -9.7718
  41   2.0000      -0.356010        -9.6875
  42   2.0000      -0.351965        -9.5775
  43   2.0000      -0.328540        -8.9400
  44   2.0000      -0.318032        -8.6541
  45   2.0000      -0.314625        -8.5614
  46   2.0000      -0.306800        -8.3485
  47   2.0000      -0.268535        -7.3072
  48   2.0000      -0.266359        -7.2480
  49   2.0000      -0.257897        -7.0177
  50   2.0000      -0.240156        -6.5350
  51   0.0000       0.066644         1.8135
  52   0.0000       0.072553         1.9743
  53   0.0000       0.088231         2.4009
  54   0.0000       0.095102         2.5879
  55   0.0000       0.102979         2.8022

MULLIKEN ATOMIC CHARGES
-----------------------
   0 C :    0.295186
   1 C :   -0.269468
   2 C :   -0.312426
   3 C :   -0.003810
   4 O :   -0.504629
   5 H :    0.142792
   6 H :    0.143941
   7 H :    0.168844
   8 H :    0.145369
   9 H :    0.162196
  10 H :    0.150484
  11 H :    0.144953
  12 C :   -0.034429
  13 H :    0.143878
  14 H :    0.148581
  15 O :   -0.530147
  16 C :    0.103413
  17 C :    0.087910
  18 C :   -0.310669
  19 C :   -0.014020
  20 O :   -0.526437
  21 H :    0.147252
  22 H :    0.160507
  23 O :   -0.607858
  24 H :    0.144977
  25 H :    0.167255
  26 H :    0.143059
  27 H :    0.143682
  28 H :    0.369613
Sum of atomic charges:   -0.0000000

LOEWDIN ATOMIC CHARGES
----------------------
   0 C :    0.180991
   1 C :   -0.229249
   2 C :   -0.218105
   3 C :   -0.025891
   4 O :   -0.306676
   5 H :    0.098442
   6 H :    0.114234
   7 H :    0.127020
   8 H :    0.116237
   9 H :    0.113671
  10 H :    0.107103
  11 H :    0.103982
  12 C :   -0.048959
  13 H :    0.105093
  14 H :    0.107410
  15 O :   -0.349722
  16 C :    0.016157
  17 C :    0.037950
  18 C :   -0.241626
  19 C :   -0.026867
  20 O :   -0.326142
  21 H :    0.114159
  22 H :    0.115698
  23 O :   -0.410653
  24 H :    0.116072
  25 H :    0.122180
  26 H :    0.099737
  27 H :    0.101682
  28 H :    0.286071

  Mayer bond orders larger than 0.100000
B(  0-C ,  1-C ) :   0.9317 B(  0-C ,  4-O ) :   0.9402 B(  0-C ,  5-H ) :   0.9206
B(  0-C , 15-O ) :   0.8216 B(  1-C ,  2-C ) :   0.9547 B(  1-C ,  6-H ) :   0.9333
B(  1-C ,  7-H ) :   0.9266 B(  2-C ,  3-C ) :   0.9524 B(  2-C ,  8-H ) :   0.9449
B(  2-C ,  9-H ) :   0.9336 B(  3-C ,  4-O ) :   0.8355 B(  3-C , 10-H ) :   0.9351
B(  3-C , 11-H ) :   0.9394 B( 12-C , 13-H ) :   0.9221 B( 12-C , 14-H ) :   0.9095
B( 12-C , 15-O ) :   0.8405 B( 12-C , 16-C ) :   0.9051 B( 16-C , 17-C ) :   0.8882
B( 16-C , 20-O ) :   0.8721 B( 16-C , 21-H ) :   0.9256 B( 17-C , 18-C ) :   0.9308
B( 17-C , 22-H ) :   0.9367 B( 17-C , 23-O ) :   0.9047 B( 18-C , 19-C ) :   0.9477
B( 18-C , 24-H ) :   0.9414 B( 18-C , 25-H ) :   0.9263 B( 19-C , 20-O ) :   0.8374
B( 19-C , 26-H ) :   0.9215 B( 19-C , 27-H ) :   0.9372 B( 23-O , 28-H ) :   0.7895

FINAL SINGLE POINT ENERGY      -652.862080201637

DIPOLE MOMENT
-------------
                                X             Y             Z
Electronic contribution:     -2.58313      -3.98837      -1.40016
Nuclear contribution   :      3.28911       4.70602       1.49395
                        -----------------------------------------
Total Dipole Moment    :      0.70598       0.71766       0.09379
                        -----------------------------------------
Magnitude (a.u.)       :      1.01106
Magnitude (Debye)      :      2.56990

Rotational constants in cm-1:     0.044881     0.017134     0.015896
Rotational constants in MHz :  1345.500964   513.669347   476.549782

                             ****ORCA TERMINATED NORMALLY****
TOTAL RUN TIME: 0 days 0 hours 24 minutes 22 seconds 969 msec
