                         Program Version 4.2.0 -  RELEASE  -
|  1> # Test redundant internal optimization
|  2> #
|  3> ! RKS B3LYP  Opt TightSCF SmallPrint
|  4>
|  5> %basis
|  6>         Basis "6-31G"
|  7> end
|  8>
|  9> %geom
| 10> Constraints
| 11> { D 4  0  15  12  195.0   C } # D for Dihedral angle
| 12> { D 0  15  12  16  210.0   C } # D for Dihedral angle
| 13> { D 0  4  3  2   C } # D for Dihedral angle
| 14> { D 4  3  2  1   C } # D for Dihedral angle
| 15> { D 3  2  1  0   C } # D for Dihedral angle
| 16> { D 2  1  0  4   C } # D for Dihedral angle
| 17> { D 1  0  4  3   C } # D for Dihedral angle
| 18> { D 16  20  19  18   C } # D for Dihedral angle
| 19> { D 20  19  18  17   C } # D for Dihedral angle
| 20> { D 19  18  17  16   C } # D for Dihedral angle
| 21> { D 18  17  16  20   C } # D for Dihedral angle
| 22> { D 17  16  20  19   C } # D for Dihedral angle
| 23> { D 15  12  16  20   C } # D for Dihedral angle
| 24> end
| 25> end
| 26>
| 27>
| 28> #%pal
| 29> #nprocs 8
| 30> #end
| 31>
| 32> * xyz 0 1
| 33> C  -21.048   26.222   46.251
| 34> C  -20.361   27.558   45.944
| 35> C  -20.329   28.222   47.341
| 36> C  -20.110   27.022   48.296
| 37> O  -20.473   25.807   47.535
| 38> H  -20.833   25.428   45.533
| 39> H  -19.344   27.382   45.576
| 40> H  -20.898   28.157   45.201
| 41> H  -19.543   28.978   47.434
| 42> H  -21.289   28.710   47.548
| 43> H  -20.733   27.082   49.195
| 44> H  -19.064   26.913   48.597
| 45> C  -23.353   26.472   45.026
| 46> H  -22.697   26.908   44.262
| 47> H  -23.647   25.469   44.693
| 48> O  -22.586   26.394   46.375
| 49> C  -24.640   27.337   45.117
| 50> C  -25.431   27.298   43.804
| 51> C  -26.153   25.934   43.914
| 52> C  -26.456   25.818   45.429
| 53> O  -25.564   26.779   46.111
| 54> H  -24.374   28.341   45.454
| 55> H  -26.156   28.119   43.776
| 56> O  -24.527   27.400   42.545
| 57> H  -27.060   25.884   43.302
| 58> H  -25.486   25.127   43.590
| 59> H  -26.264   24.812   45.819
| 60> H  -27.484   26.102   45.672
| 61> H  -23.793   26.587   42.550
| 62> *
| 63>
| 64>                          ****END OF INPUT****
 Total Charge           Charge          ....    0
 Multiplicity           Mult            ....    1
 Number of Electrons    NEL             ....  102
FINAL SINGLE POINT ENERGY      -652.824119202514
FINAL SINGLE POINT ENERGY      -652.847905172874
FINAL SINGLE POINT ENERGY      -652.852286104749
FINAL SINGLE POINT ENERGY      -652.853100353370
FINAL SINGLE POINT ENERGY      -652.853273863077
FINAL SINGLE POINT ENERGY      -652.853311321312
FINAL SINGLE POINT ENERGY      -652.853317636453
FINAL SINGLE POINT ENERGY      -652.853318586418
                    ***********************HURRAY********************

CARTESIAN COORDINATES (ANGSTROEM)
---------------------------------
  C    -21.054612   26.207926   46.195550
  C    -20.385023   27.552097   45.918179
  C    -20.469417   28.244488   47.300388
  C    -20.289289   27.069922   48.283807
  O    -20.573215   25.840866   47.494695
  H    -20.792634   25.398576   45.505488
  H    -19.341169   27.383496   45.627402
  H    -20.872508   28.125009   45.124051
  H    -19.708313   29.019914   47.428305
  H    -21.456033   28.700155   47.423632
  H    -20.979238   27.105193   49.129967
  H    -19.263432   26.973529   48.651515
  C    -23.197380   26.376082   45.004919
  H    -22.575139   26.838696   44.224201
  H    -23.433546   25.346617   44.695190
  O    -22.504405   26.343736   46.279632
  C    -24.459476   27.222648   45.154583
  C    -25.305872   27.299329   43.872684
  C    -26.140031   25.986259   43.960734
  C    -26.385799   25.842760   45.478769
  O    -25.384934   26.704656   46.155151
  H    -24.159515   28.212110   45.511163
  H    -25.960476   28.172251   43.923670
  O    -24.555849   27.470083   42.643881
  H    -27.065335   26.042213   43.381884
  H    -25.546037   25.148829   43.570424
  H    -26.269302   24.814418   45.834277
  H    -27.373945   26.207906   45.774151
  H    -24.194075   26.612238   42.341707

 Multiplicity           Mult            ....    1
 Number of Electrons    NEL             ....  102
 Basis Dimension        Dim             ....  149

ORBITAL ENERGIES
----------------

  NO   OCC          E(Eh)            E(eV)
   0   2.0000     -19.153185      -521.1847
   1   2.0000     -19.136637      -520.7344
   2   2.0000     -19.136294      -520.7250
   3   2.0000     -19.136187      -520.7221
   4   2.0000     -10.276538      -279.6388
   5   2.0000     -10.247218      -278.8410
   6   2.0000     -10.231531      -278.4141
   7   2.0000     -10.231350      -278.4092
   8   2.0000     -10.229947      -278.3710
   9   2.0000     -10.220857      -278.1237
  10   2.0000     -10.197724      -277.4942
  11   2.0000     -10.184811      -277.1428
  12   2.0000     -10.182967      -277.0926
  13   2.0000      -1.050358       -28.5817
  14   2.0000      -1.035625       -28.1808
  15   2.0000      -1.016649       -27.6644
  16   2.0000      -0.990835       -26.9620
  17   2.0000      -0.785105       -21.3638
  18   2.0000      -0.782792       -21.3009
  19   2.0000      -0.768057       -20.8999
  20   2.0000      -0.729071       -19.8390
  21   2.0000      -0.681158       -18.5353
  22   2.0000      -0.613672       -16.6989
  23   2.0000      -0.597429       -16.2569
  24   2.0000      -0.587552       -15.9881
  25   2.0000      -0.578229       -15.7344
  26   2.0000      -0.526756       -14.3338
  27   2.0000      -0.511654       -13.9228
  28   2.0000      -0.502138       -13.6639
  29   2.0000      -0.489902       -13.3309
  30   2.0000      -0.465422       -12.6648
  31   2.0000      -0.457607       -12.4521
  32   2.0000      -0.449895       -12.2423
  33   2.0000      -0.433814       -11.8047
  34   2.0000      -0.426595       -11.6082
  35   2.0000      -0.422719       -11.5028
  36   2.0000      -0.402214       -10.9448
  37   2.0000      -0.401477       -10.9248
  38   2.0000      -0.377515       -10.2727
  39   2.0000      -0.372751       -10.1431
  40   2.0000      -0.355701        -9.6791
  41   2.0000      -0.353293        -9.6136
  42   2.0000      -0.351198        -9.5566
  43   2.0000      -0.330883        -9.0038
  44   2.0000      -0.318758        -8.6738
  45   2.0000      -0.307946        -8.3796
  46   2.0000      -0.301284        -8.1983
  47   2.0000      -0.273643        -7.4462
  48   2.0000      -0.255763        -6.9597
  49   2.0000      -0.252670        -6.8755
  50   2.0000      -0.237749        -6.4695
  51   0.0000       0.048168         1.3107
  52   0.0000       0.076715         2.0875
  53   0.0000       0.086479         2.3532
  54   0.0000       0.088530         2.4090
  55   0.0000       0.104583         2.8458

MULLIKEN ATOMIC CHARGES
-----------------------
   0 C :    0.296135
   1 C :   -0.273559
   2 C :   -0.298116
   3 C :   -0.000841
   4 O :   -0.502338
   5 H :    0.135018
   6 H :    0.144157
   7 H :    0.144893
   8 H :    0.140835
   9 H :    0.163349
  10 H :    0.158270
  11 H :    0.139827
  12 C :   -0.019696
  13 H :    0.127906
  14 H :    0.123606
  15 O :   -0.494486
  16 C :    0.101755
  17 C :    0.082232
  18 C :   -0.329584
  19 C :   -0.003370
  20 O :   -0.502025
  21 H :    0.155652
  22 H :    0.168516
  23 O :   -0.602062
  24 H :    0.159561
  25 H :    0.132777
  26 H :    0.148755
  27 H :    0.146644
  28 H :    0.356189
Sum of atomic charges:   -0.0000000

LOEWDIN ATOMIC CHARGES
----------------------
   0 C :    0.178374
   1 C :   -0.231504
   2 C :   -0.216675
   3 C :   -0.024414
   4 O :   -0.303263
   5 H :    0.094329
   6 H :    0.113413
   7 H :    0.114168
   8 H :    0.113902
   9 H :    0.119409
  10 H :    0.111617
  11 H :    0.101468
  12 C :   -0.053373
  13 H :    0.095260
  14 H :    0.090274
  15 O :   -0.320888
  16 C :    0.023069
  17 C :    0.033738
  18 C :   -0.242062
  19 C :   -0.027647
  20 O :   -0.310332
  21 H :    0.116172
  22 H :    0.119477
  23 O :   -0.409664
  24 H :    0.123117
  25 H :    0.103378
  26 H :    0.105445
  27 H :    0.105234
  28 H :    0.277979

  Mayer bond orders larger than 0.100000
B(  0-C ,  1-C ) :   0.9291 B(  0-C ,  4-O ) :   0.9399 B(  0-C ,  5-H ) :   0.9204
B(  0-C , 15-O ) :   0.8355 B(  1-C ,  2-C ) :   0.9526 B(  1-C ,  6-H ) :   0.9337
B(  1-C ,  7-H ) :   0.9336 B(  2-C ,  3-C ) :   0.9559 B(  2-C ,  8-H ) :   0.9449
B(  2-C ,  9-H ) :   0.9429 B(  3-C ,  4-O ) :   0.8346 B(  3-C , 10-H ) :   0.9339
B(  3-C , 11-H ) :   0.9399 B( 12-C , 13-H ) :   0.8978 B( 12-C , 14-H ) :   0.9185
B( 12-C , 15-O ) :   0.8505 B( 12-C , 16-C ) :   0.9047 B( 16-C , 17-C ) :   0.8702
B( 16-C , 20-O ) :   0.8774 B( 16-C , 21-H ) :   0.9310 B( 17-C , 18-C ) :   0.9279
B( 17-C , 22-H ) :   0.9330 B( 17-C , 23-O ) :   0.8934 B( 18-C , 19-C ) :   0.9376
B( 18-C , 24-H ) :   0.9407 B( 18-C , 25-H ) :   0.9403 B( 19-C , 20-O ) :   0.8496
B( 19-C , 26-H ) :   0.9316 B( 19-C , 27-H ) :   0.9383 B( 23-O , 28-H ) :   0.7990

FINAL SINGLE POINT ENERGY      -652.853318653594

DIPOLE MOMENT
-------------
                                X             Y             Z
Electronic contribution:     -1.07349      -1.56640       1.13255
Nuclear contribution   :      1.10053       1.60166      -2.20548
                        -----------------------------------------
Total Dipole Moment    :      0.02704       0.03527      -1.07293
                        -----------------------------------------
Magnitude (a.u.)       :      1.07385
Magnitude (Debye)      :      2.72952

Rotational constants in cm-1:     0.056086     0.012491     0.011423
Rotational constants in MHz :  1681.410167   374.475668   342.459509

                             ****ORCA TERMINATED NORMALLY****
TOTAL RUN TIME: 0 days 1 hours 54 minutes 8 seconds 818 msec
