                         Program Version 4.2.0 -  RELEASE  -
|  1> # Test redundant internal optimization
|  2> #
|  3> ! RKS B3LYP  Opt TightSCF SmallPrint
|  4>
|  5> %basis
|  6>         Basis "6-31G"
|  7> end
|  8>
|  9> %geom
| 10> Constraints
| 11> { D 4  0  15  12  75.0   C } # D for Dihedral angle
| 12> { D 0  15  12  16  180.0   C } # D for Dihedral angle
| 13> { D 0  4  3  2   C } # D for Dihedral angle
| 14> { D 4  3  2  1   C } # D for Dihedral angle
| 15> { D 3  2  1  0   C } # D for Dihedral angle
| 16> { D 2  1  0  4   C } # D for Dihedral angle
| 17> { D 1  0  4  3   C } # D for Dihedral angle
| 18> { D 16  20  19  18   C } # D for Dihedral angle
| 19> { D 20  19  18  17   C } # D for Dihedral angle
| 20> { D 19  18  17  16   C } # D for Dihedral angle
| 21> { D 18  17  16  20   C } # D for Dihedral angle
| 22> { D 17  16  20  19   C } # D for Dihedral angle
| 23> { D 15  12  16  20   C } # D for Dihedral angle
| 24> end
| 25> end
| 26>
| 27>
| 28> #%pal
| 29> #nprocs 8
| 30> #end
| 31>
| 32> * xyz 0 1
| 33> C  -21.048   26.222   46.251
| 34> C  -20.361   27.558   45.944
| 35> C  -20.329   28.222   47.341
| 36> C  -20.110   27.022   48.296
| 37> O  -20.473   25.807   47.535
| 38> H  -20.833   25.428   45.533
| 39> H  -19.344   27.382   45.576
| 40> H  -20.898   28.157   45.201
| 41> H  -19.543   28.978   47.434
| 42> H  -21.289   28.710   47.548
| 43> H  -20.733   27.082   49.195
| 44> H  -19.064   26.913   48.597
| 45> C  -23.049   27.675   47.122
| 46> H  -22.643   27.666   48.141
| 47> H  -22.677   28.573   46.612
| 48> O  -22.586   26.394   46.375
| 49> C  -24.596   27.790   47.213
| 50> C  -25.189   26.659   48.061
| 51> C  -24.912   27.165   49.497
| 52> C  -25.080   28.700   49.367
| 53> O  -24.977   29.014   47.927
| 54> H  -25.009   27.865   46.206
| 55> O  -26.717   26.547   47.804
| 56> H  -24.734   25.684   47.858
| 57> H  -25.591   26.732   50.238
| 58> H  -23.887   26.912   49.793
| 59> H  -24.308   29.254   49.912
| 60> H  -26.063   29.042   49.703
| 61> H  -27.196   27.513   48.002
| 62> *
| 63>
| 64>                          ****END OF INPUT****
 Total Charge           Charge          ....    0
 Multiplicity           Mult            ....    1
 Number of Electrons    NEL             ....  102
FINAL SINGLE POINT ENERGY      -652.816935453879
FINAL SINGLE POINT ENERGY      -652.844690164268
FINAL SINGLE POINT ENERGY      -652.858228228312
FINAL SINGLE POINT ENERGY      -652.860281622541
FINAL SINGLE POINT ENERGY      -652.860604984089
FINAL SINGLE POINT ENERGY      -652.860649816076
FINAL SINGLE POINT ENERGY      -652.860655153894
                    ***********************HURRAY********************

CARTESIAN COORDINATES (ANGSTROEM)
---------------------------------
  C    -21.242900   26.364533   46.416329
  C    -20.346910   27.493890   45.887480
  C    -19.922915   28.214485   47.200930
  C    -19.806401   27.039021   48.205338
  O    -20.558255   25.909500   47.607215
  H    -21.284240   25.499282   45.753731
  H    -19.478575   27.047655   45.392421
  H    -20.858122   28.147536   45.175348
  H    -18.973890   28.748652   47.091851
  H    -20.676050   28.940292   47.515027
  H    -20.228829   27.268165   49.188541
  H    -18.773550   26.701639   48.332486
  C    -23.085475   27.856264   47.296682
  H    -22.693996   27.887711   48.321902
  H    -22.767860   28.764101   46.770241
  O    -22.640950   26.653609   46.609712
  C    -24.612209   27.806251   47.301934
  C    -25.223696   26.627250   48.071655
  C    -25.125109   27.125083   49.535829
  C    -25.366766   28.649369   49.410570
  O    -25.133557   28.996118   47.984600
  H    -24.980550   27.832028   46.272838
  O    -26.605826   26.414349   47.668316
  H    -24.708825   25.686225   47.889076
  H    -25.867280   26.625939   50.163479
  H    -24.131347   26.908780   49.942644
  H    -24.691796   29.242814   50.034758
  H    -26.397177   28.932794   49.644913
  H    -27.055946   27.282665   47.596155

 Multiplicity           Mult            ....    1
 Number of Electrons    NEL             ....  102
 Basis Dimension        Dim             ....  149

ORBITAL ENERGIES
----------------

  NO   OCC          E(Eh)            E(eV)
   0   2.0000     -19.150087      -521.1004
   1   2.0000     -19.145167      -520.9665
   2   2.0000     -19.144131      -520.9383
   3   2.0000     -19.132610      -520.6248
   4   2.0000     -10.281749      -279.7806
   5   2.0000     -10.235010      -278.5088
   6   2.0000     -10.233056      -278.4556
   7   2.0000     -10.232842      -278.4498
   8   2.0000     -10.232805      -278.4488
   9   2.0000     -10.231459      -278.4122
  10   2.0000     -10.196252      -277.4541
  11   2.0000     -10.194917      -277.4178
  12   2.0000     -10.185687      -277.1666
  13   2.0000      -1.056331       -28.7442
  14   2.0000      -1.035205       -28.1694
  15   2.0000      -1.003219       -27.2990
  16   2.0000      -1.000172       -27.2161
  17   2.0000      -0.792334       -21.5605
  18   2.0000      -0.782226       -21.2854
  19   2.0000      -0.770970       -20.9792
  20   2.0000      -0.733688       -19.9647
  21   2.0000      -0.680284       -18.5115
  22   2.0000      -0.607838       -16.5401
  23   2.0000      -0.603274       -16.4159
  24   2.0000      -0.597439       -16.2571
  25   2.0000      -0.577302       -15.7092
  26   2.0000      -0.521142       -14.1810
  27   2.0000      -0.517587       -14.0843
  28   2.0000      -0.506107       -13.7719
  29   2.0000      -0.490175       -13.3383
  30   2.0000      -0.472932       -12.8691
  31   2.0000      -0.461929       -12.5697
  32   2.0000      -0.451039       -12.2734
  33   2.0000      -0.438756       -11.9392
  34   2.0000      -0.425336       -11.5740
  35   2.0000      -0.417316       -11.3557
  36   2.0000      -0.409746       -11.1498
  37   2.0000      -0.390942       -10.6381
  38   2.0000      -0.386486       -10.5168
  39   2.0000      -0.366133        -9.9630
  40   2.0000      -0.365228        -9.9384
  41   2.0000      -0.359417        -9.7802
  42   2.0000      -0.353535        -9.6202
  43   2.0000      -0.330235        -8.9861
  44   2.0000      -0.318426        -8.6648
  45   2.0000      -0.311268        -8.4700
  46   2.0000      -0.303134        -8.2487
  47   2.0000      -0.272345        -7.4109
  48   2.0000      -0.267844        -7.2884
  49   2.0000      -0.256637        -6.9835
  50   2.0000      -0.247348        -6.7307
  51   0.0000       0.063824         1.7367
  52   0.0000       0.065578         1.7845
  53   0.0000       0.089243         2.4284
  54   0.0000       0.096233         2.6186
  55   0.0000       0.101700         2.7674

MULLIKEN ATOMIC CHARGES
-----------------------
   0 C :    0.303601
   1 C :   -0.282895
   2 C :   -0.315491
   3 C :   -0.010772
   4 O :   -0.503391
   5 H :    0.168361
   6 H :    0.158093
   7 H :    0.151676
   8 H :    0.147183
   9 H :    0.151141
  10 H :    0.141857
  11 H :    0.148937
  12 C :   -0.005601
  13 H :    0.133672
  14 H :    0.145190
  15 O :   -0.525196
  16 C :    0.052312
  17 C :    0.092699
  18 C :   -0.302003
  19 C :   -0.029942
  20 O :   -0.529915
  21 H :    0.167954
  22 O :   -0.603094
  23 H :    0.183060
  24 H :    0.164348
  25 H :    0.146762
  26 H :    0.145011
  27 H :    0.144955
  28 H :    0.361487
Sum of atomic charges:   -0.0000000

LOEWDIN ATOMIC CHARGES
----------------------
   0 C :    0.174190
   1 C :   -0.229208
   2 C :   -0.224527
   3 C :   -0.033555
   4 O :   -0.321720
   5 H :    0.114738
   6 H :    0.123460
   7 H :    0.119408
   8 H :    0.116784
   9 H :    0.111187
  10 H :    0.100633
  11 H :    0.105162
  12 C :   -0.042123
  13 H :    0.094257
  14 H :    0.101597
  15 O :   -0.319664
  16 C :    0.018540
  17 C :    0.039868
  18 C :   -0.241542
  19 C :   -0.038557
  20 O :   -0.332777
  21 H :    0.119442
  22 O :   -0.414780
  23 H :    0.131167
  24 H :    0.127622
  25 H :    0.114487
  26 H :    0.102883
  27 H :    0.102461
  28 H :    0.280566

  Mayer bond orders larger than 0.100000
B(  0-C ,  1-C ) :   0.9218 B(  0-C ,  4-O ) :   0.9041 B(  0-C ,  5-H ) :   0.9358
B(  0-C , 15-O ) :   0.8920 B(  1-C ,  2-C ) :   0.9540 B(  1-C ,  6-H ) :   0.9352
B(  1-C ,  7-H ) :   0.9354 B(  2-C ,  3-C ) :   0.9479 B(  2-C ,  8-H ) :   0.9453
B(  2-C ,  9-H ) :   0.9395 B(  3-C ,  4-O ) :   0.8465 B(  3-C , 10-H ) :   0.9335
B(  3-C , 11-H ) :   0.9385 B( 12-C , 13-H ) :   0.9141 B( 12-C , 14-H ) :   0.9102
B( 12-C , 15-O ) :   0.8280 B( 12-C , 16-C ) :   0.9037 B( 16-C , 17-C ) :   0.9147
B( 16-C , 20-O ) :   0.8455 B( 16-C , 21-H ) :   0.9245 B( 17-C , 18-C ) :   0.9109
B( 17-C , 22-O ) :   0.8872 B( 17-C , 23-H ) :   0.9220 B( 18-C , 19-C ) :   0.9412
B( 18-C , 24-H ) :   0.9375 B( 18-C , 25-H ) :   0.9349 B( 19-C , 20-O ) :   0.8421
B( 19-C , 26-H ) :   0.9358 B( 19-C , 27-H ) :   0.9388 B( 22-O , 28-H ) :   0.7965

FINAL SINGLE POINT ENERGY      -652.860644802232

DIPOLE MOMENT
-------------
                                X             Y             Z
Electronic contribution:     -4.30985      -3.08455      -2.37400
Nuclear contribution   :      5.34035       4.17738       2.76869
                        -----------------------------------------
Total Dipole Moment    :      1.03050       1.09283       0.39469
                        -----------------------------------------
Magnitude (a.u.)       :      1.55306
Magnitude (Debye)      :      3.94756

Rotational constants in cm-1:     0.053282     0.013350     0.012855
Rotational constants in MHz :  1597.354084   400.225874   385.371466

                             ****ORCA TERMINATED NORMALLY****
TOTAL RUN TIME: 0 days 1 hours 51 minutes 40 seconds 314 msec
