                         Program Version 4.2.0 -  RELEASE  -
|  1> # Test redundant internal optimization
|  2> #
|  3> ! RKS B3LYP  Opt TightSCF SmallPrint
|  4>
|  5> %basis
|  6>         Basis "6-31G"
|  7> end
|  8>
|  9> %geom
| 10> Constraints
| 11> { D 4  0  15  12  240.0   C } # D for Dihedral angle
| 12> { D 0  15  12  16  240.0   C } # D for Dihedral angle
| 13> { D 0  4  3  2   C } # D for Dihedral angle
| 14> { D 4  3  2  1   C } # D for Dihedral angle
| 15> { D 3  2  1  0   C } # D for Dihedral angle
| 16> { D 2  1  0  4   C } # D for Dihedral angle
| 17> { D 1  0  4  3   C } # D for Dihedral angle
| 18> { D 16  20  19  18   C } # D for Dihedral angle
| 19> { D 20  19  18  17   C } # D for Dihedral angle
| 20> { D 19  18  17  16   C } # D for Dihedral angle
| 21> { D 18  17  16  20   C } # D for Dihedral angle
| 22> { D 17  16  20  19   C } # D for Dihedral angle
| 23> { D 15  12  16  20   C } # D for Dihedral angle
| 24> end
| 25> end
| 26>
| 27>
| 28> #%pal
| 29> #nprocs 8
| 30> #end
| 31>
| 32> * xyz 0 1
| 33> C  -21.048   26.222   46.251
| 34> C  -20.361   27.558   45.944
| 35> C  -20.329   28.222   47.341
| 36> C  -20.110   27.022   48.296
| 37> O  -20.473   25.807   47.535
| 38> H  -20.833   25.428   45.533
| 39> H  -19.344   27.382   45.576
| 40> H  -20.898   28.157   45.201
| 41> H  -19.543   28.978   47.434
| 42> H  -21.289   28.710   47.548
| 43> H  -20.733   27.082   49.195
| 44> H  -19.064   26.913   48.597
| 45> C  -23.430   25.483   45.442
| 46> H  -22.757   24.852   44.848
| 47> H  -24.082   24.827   46.033
| 48> O  -22.586   26.394   46.375
| 49> C  -24.330   26.291   44.467
| 50> C  -25.239   27.265   45.227
| 51> C  -24.264   28.427   45.534
| 52> C  -23.351   28.461   44.283
| 53> O  -23.512   27.154   43.609
| 54> H  -24.860   25.597   43.812
| 55> O  -26.392   27.747   44.305
| 56> H  -25.678   26.829   46.131
| 57> H  -24.778   29.379   45.701
| 58> H  -23.679   28.200   46.433
| 59> H  -22.296   28.606   44.537
| 60> H  -23.652   29.231   43.566
| 61> H  -25.975   28.188   43.393
| 62> *
| 63>
| 64>                          ****END OF INPUT****
 Total Charge           Charge          ....    0
 Multiplicity           Mult            ....    1
 Number of Electrons    NEL             ....  102
FINAL SINGLE POINT ENERGY      -652.831359852043
FINAL SINGLE POINT ENERGY      -652.853147840926
FINAL SINGLE POINT ENERGY      -652.858153544862
FINAL SINGLE POINT ENERGY      -652.861654372677
FINAL SINGLE POINT ENERGY      -652.861989839548
FINAL SINGLE POINT ENERGY      -652.862039162672
FINAL SINGLE POINT ENERGY      -652.862041924250
                    ***********************HURRAY********************

CARTESIAN COORDINATES (ANGSTROEM)
---------------------------------
  C    -21.020196   26.169733   46.238201
  C    -20.313775   27.499426   45.976710
  C    -20.290021   28.134232   47.388986
  C    -20.100247   26.908334   48.310228
  O    -20.476301   25.728470   47.495430
  H    -20.818311   25.385108   45.503502
  H    -19.293820   27.295768   45.629083
  H    -20.822317   28.102642   45.225694
  H    -19.490566   28.871865   47.506923
  H    -21.246134   28.626794   47.592921
  H    -20.734585   26.936466   49.199597
  H    -19.058771   26.763556   48.612736
  C    -23.319998   25.566317   45.500794
  H    -22.702631   24.899626   44.884007
  H    -23.957920   24.941829   46.140389
  O    -22.457973   26.361361   46.362845
  C    -24.214547   26.381100   44.566871
  C    -25.241555   27.319011   45.217972
  C    -24.402999   28.605514   45.427350
  C    -23.469232   28.621706   44.193447
  O    -23.473912   27.243189   43.644169
  H    -24.745450   25.649696   43.943326
  O    -26.375443   27.536111   44.331422
  H    -25.670314   26.927645   46.140549
  H    -25.045959   29.487228   45.491042
  H    -23.820703   28.507359   46.346921
  H    -22.446896   28.908970   44.444562
  H    -23.831390   29.281307   43.397143
  H    -26.044035   27.751636   43.434178

 Multiplicity           Mult            ....    1
 Number of Electrons    NEL             ....  102
 Basis Dimension        Dim             ....  149

ORBITAL ENERGIES
----------------

  NO   OCC          E(Eh)            E(eV)
   0   2.0000     -19.146624      -521.0061
   1   2.0000     -19.144781      -520.9560
   2   2.0000     -19.139775      -520.8198
   3   2.0000     -19.136401      -520.7279
   4   2.0000     -10.282283      -279.7952
   5   2.0000     -10.238591      -278.6062
   6   2.0000     -10.236112      -278.5388
   7   2.0000     -10.235623      -278.5255
   8   2.0000     -10.229690      -278.3640
   9   2.0000     -10.225885      -278.2605
  10   2.0000     -10.188463      -277.2422
  11   2.0000     -10.186919      -277.2002
  12   2.0000     -10.181679      -277.0576
  13   2.0000      -1.054444       -28.6929
  14   2.0000      -1.035867       -28.1874
  15   2.0000      -1.005906       -27.3721
  16   2.0000      -0.995458       -27.0878
  17   2.0000      -0.789883       -21.4938
  18   2.0000      -0.779000       -21.1977
  19   2.0000      -0.768664       -20.9164
  20   2.0000      -0.733345       -19.9553
  21   2.0000      -0.678182       -18.4543
  22   2.0000      -0.601974       -16.3805
  23   2.0000      -0.600655       -16.3447
  24   2.0000      -0.598746       -16.2927
  25   2.0000      -0.582121       -15.8403
  26   2.0000      -0.526351       -14.3227
  27   2.0000      -0.507874       -13.8199
  28   2.0000      -0.496375       -13.5071
  29   2.0000      -0.490977       -13.3602
  30   2.0000      -0.474560       -12.9134
  31   2.0000      -0.462619       -12.5885
  32   2.0000      -0.451568       -12.2878
  33   2.0000      -0.438160       -11.9229
  34   2.0000      -0.428859       -11.6698
  35   2.0000      -0.412443       -11.2232
  36   2.0000      -0.400139       -10.8883
  37   2.0000      -0.391099       -10.6424
  38   2.0000      -0.379068       -10.3150
  39   2.0000      -0.368041       -10.0149
  40   2.0000      -0.360026        -9.7968
  41   2.0000      -0.357623        -9.7314
  42   2.0000      -0.351902        -9.5758
  43   2.0000      -0.330830        -9.0023
  44   2.0000      -0.318100        -8.6559
  45   2.0000      -0.312148        -8.4940
  46   2.0000      -0.303659        -8.2630
  47   2.0000      -0.275525        -7.4974
  48   2.0000      -0.266037        -7.2392
  49   2.0000      -0.256100        -6.9688
  50   2.0000      -0.241051        -6.5593
  51   0.0000       0.060572         1.6483
  52   0.0000       0.077547         2.1102
  53   0.0000       0.086941         2.3658
  54   0.0000       0.099422         2.7054
  55   0.0000       0.106356         2.8941

MULLIKEN ATOMIC CHARGES
-----------------------
   0 C :    0.291332
   1 C :   -0.267198
   2 C :   -0.305185
   3 C :    0.000739
   4 O :   -0.501154
   5 H :    0.147196
   6 H :    0.146661
   7 H :    0.158626
   8 H :    0.143004
   9 H :    0.158155
  10 H :    0.150917
  11 H :    0.141838
  12 C :   -0.002992
  13 H :    0.137762
  14 H :    0.144953
  15 O :   -0.523600
  16 C :    0.072110
  17 C :    0.081494
  18 C :   -0.291061
  19 C :   -0.033271
  20 O :   -0.529360
  21 H :    0.156181
  22 O :   -0.603511
  23 H :    0.154942
  24 H :    0.151883
  25 H :    0.171391
  26 H :    0.144298
  27 H :    0.141364
  28 H :    0.362487
Sum of atomic charges:   -0.0000000

LOEWDIN ATOMIC CHARGES
----------------------
   0 C :    0.180048
   1 C :   -0.221271
   2 C :   -0.217718
   3 C :   -0.026139
   4 O :   -0.314714
   5 H :    0.100953
   6 H :    0.115287
   7 H :    0.119366
   8 H :    0.114418
   9 H :    0.115342
  10 H :    0.107522
  11 H :    0.102262
  12 C :   -0.032500
  13 H :    0.103252
  14 H :    0.107597
  15 O :   -0.335635
  16 C :    0.006544
  17 C :    0.039380
  18 C :   -0.240406
  19 C :   -0.035844
  20 O :   -0.332892
  21 H :    0.116326
  22 O :   -0.416723
  23 H :    0.117916
  24 H :    0.120899
  25 H :    0.127089
  26 H :    0.099954
  27 H :    0.098199
  28 H :    0.281488

  Mayer bond orders larger than 0.100000
B(  0-C ,  1-C ) :   0.9419 B(  0-C ,  4-O ) :   0.9308 B(  0-C ,  5-H ) :   0.9152
B(  0-C , 15-O ) :   0.8364 B(  1-C ,  2-C ) :   0.9574 B(  1-C ,  6-H ) :   0.9355
B(  1-C ,  7-H ) :   0.9230 B(  2-C ,  3-C ) :   0.9536 B(  2-C ,  8-H ) :   0.9450
B(  2-C ,  9-H ) :   0.9433 B(  3-C ,  4-O ) :   0.8389 B(  3-C , 10-H ) :   0.9348
B(  3-C , 11-H ) :   0.9397 B( 12-C , 13-H ) :   0.9187 B( 12-C , 14-H ) :   0.9203
B( 12-C , 15-O ) :   0.8646 B( 12-C , 16-C ) :   0.8944 B( 16-C , 17-C ) :   0.9099
B( 16-C , 20-O ) :   0.8653 B( 16-C , 21-H ) :   0.9164 B( 17-C , 18-C ) :   0.9233
B( 17-C , 22-O ) :   0.8912 B( 17-C , 23-H ) :   0.9353 B( 18-C , 19-C ) :   0.9456
B( 18-C , 24-H ) :   0.9372 B( 18-C , 25-H ) :   0.9206 B( 19-C , 20-O ) :   0.8478
B( 19-C , 26-H ) :   0.9191 B( 19-C , 27-H ) :   0.9367 B( 22-O , 28-H ) :   0.7964

FINAL SINGLE POINT ENERGY      -652.862040712672

DIPOLE MOMENT
-------------
                                X             Y             Z
Electronic contribution:     -2.94050      -4.05582      -1.75840
Nuclear contribution   :      3.63367       4.74528       1.72685
                        -----------------------------------------
Total Dipole Moment    :      0.69317       0.68945      -0.03155
                        -----------------------------------------
Magnitude (a.u.)       :      0.97818
Magnitude (Debye)      :      2.48632

Rotational constants in cm-1:     0.057000     0.014370     0.013541
Rotational constants in MHz :  1708.825114   430.792658   405.938509

                             ****ORCA TERMINATED NORMALLY****
TOTAL RUN TIME: 0 days 0 hours 20 minutes 2 seconds 534 msec
