                         Program Version 4.2.0 -  RELEASE  -
|  1> # Test redundant internal optimization
|  2> #
|  3> ! RKS B3LYP  Opt TightSCF SmallPrint
|  4>
|  5> %basis
|  6>         Basis "6-31G"
|  7> end
|  8>
|  9> %geom
| 10> Constraints
| 11> { D 4  0  15  12  30.0   C } # D for Dihedral angle
| 12> { D 0  15  12  16  150.0   C } # D for Dihedral angle
| 13> { D 0  4  3  2   C } # D for Dihedral angle
| 14> { D 4  3  2  1   C } # D for Dihedral angle
| 15> { D 3  2  1  0   C } # D for Dihedral angle
| 16> { D 2  1  0  4   C } # D for Dihedral angle
| 17> { D 1  0  4  3   C } # D for Dihedral angle
| 18> { D 16  20  19  18   C } # D for Dihedral angle
| 19> { D 20  19  18  17   C } # D for Dihedral angle
| 20> { D 19  18  17  16   C } # D for Dihedral angle
| 21> { D 18  17  16  20   C } # D for Dihedral angle
| 22> { D 17  16  20  19   C } # D for Dihedral angle
| 23> { D 15  12  16  20   C } # D for Dihedral angle
| 24> end
| 25> end
| 26>
| 27>
| 28> #%pal
| 29> #nprocs 8
| 30> #end
| 31>
| 32> * xyz 0 1
| 33> C  -21.048   26.222   46.251
| 34> C  -20.361   27.558   45.944
| 35> C  -20.329   28.222   47.341
| 36> C  -20.110   27.022   48.296
| 37> O  -20.473   25.807   47.535
| 38> H  -20.833   25.428   45.533
| 39> H  -19.344   27.382   45.576
| 40> H  -20.898   28.157   45.201
| 41> H  -19.543   28.978   47.434
| 42> H  -21.289   28.710   47.548
| 43> H  -20.733   27.082   49.195
| 44> H  -19.064   26.913   48.597
| 45> C  -23.091   26.824   47.779
| 46> H  -23.290   25.929   48.382
| 47> H  -22.329   27.423   48.295
| 48> O  -22.586   26.394   46.375
| 49> C  -24.394   27.669   47.716
| 50> C  -24.218   28.896   46.813
| 51> C  -24.372   28.272   45.405
| 52> C  -25.429   27.162   45.625
| 53> O  -25.471   26.904   47.081
| 54> H  -24.720   27.900   48.732
| 55> H  -25.017   29.620   47.004
| 56> O  -22.853   29.609   47.010
| 57> H  -24.683   29.001   44.649
| 58> H  -23.419   27.839   45.079
| 59> H  -25.177   26.233   45.103
| 60> H  -26.433   27.476   45.325
| 61> H  -22.038   28.901   46.824
| 62> *
| 63>
| 64>                          ****END OF INPUT****
 Total Charge           Charge          ....    0
 Multiplicity           Mult            ....    1
 Number of Electrons    NEL             ....  102
FINAL SINGLE POINT ENERGY      -652.791546420662
FINAL SINGLE POINT ENERGY      -652.832817359633
FINAL SINGLE POINT ENERGY      -652.849918384976
FINAL SINGLE POINT ENERGY      -652.853561490376
FINAL SINGLE POINT ENERGY      -652.854514437091
FINAL SINGLE POINT ENERGY      -652.854867839511
FINAL SINGLE POINT ENERGY      -652.855016564584
FINAL SINGLE POINT ENERGY      -652.855054832228
FINAL SINGLE POINT ENERGY      -652.855070284352
FINAL SINGLE POINT ENERGY      -652.855072144967
                    ***********************HURRAY********************

CARTESIAN COORDINATES (ANGSTROEM)
---------------------------------
  C    -21.107992   26.214853   46.447944
  C    -20.343352   27.464893   45.991347
  C    -20.072007   28.192959   47.341758
  C    -19.848669   27.011823   48.317954
  O    -20.424371   25.815392   47.652884
  H    -21.012918   25.381611   45.748681
  H    -19.402600   27.150284   45.526788
  H    -20.903770   28.063175   45.267975
  H    -19.197767   28.849272   47.292122
  H    -20.931126   28.796793   47.644083
  H    -20.338842   27.149987   49.286040
  H    -18.788682   26.798366   48.482988
  C    -23.145934   26.776368   47.848475
  H    -23.381860   25.872451   48.420330
  H    -22.467399   27.394189   48.442475
  O    -22.547162   26.370854   46.577808
  C    -24.436576   27.563333   47.631867
  C    -24.345377   28.878865   46.839246
  C    -24.445449   28.375150   45.365684
  C    -25.419848   27.181287   45.488239
  O    -25.446190   26.795600   46.915499
  H    -24.848950   27.744204   48.633017
  H    -25.206204   29.504891   47.091142
  O    -23.170330   29.683105   47.130748
  H    -24.810656   29.150220   44.685004
  H    -23.461895   28.029937   45.038134
  H    -25.097058   26.320057   44.897006
  H    -26.443765   27.449658   45.209275
  H    -22.498252   29.553422   46.433488

 Multiplicity           Mult            ....    1
 Number of Electrons    NEL             ....  102
 Basis Dimension        Dim             ....  149

ORBITAL ENERGIES
----------------

  NO   OCC          E(Eh)            E(eV)
   0   2.0000     -19.150947      -521.1238
   1   2.0000     -19.150283      -521.1057
   2   2.0000     -19.142405      -520.8913
   3   2.0000     -19.131777      -520.6021
   4   2.0000     -10.283560      -279.8299
   5   2.0000     -10.242007      -278.6992
   6   2.0000     -10.234736      -278.5013
   7   2.0000     -10.229702      -278.3644
   8   2.0000     -10.225412      -278.2476
   9   2.0000     -10.222422      -278.1663
  10   2.0000     -10.195978      -277.4467
  11   2.0000     -10.195208      -277.4257
  12   2.0000     -10.186991      -277.2021
  13   2.0000      -1.056530       -28.7496
  14   2.0000      -1.031659       -28.0729
  15   2.0000      -1.013904       -27.5897
  16   2.0000      -0.994016       -27.0485
  17   2.0000      -0.794042       -21.6070
  18   2.0000      -0.776235       -21.1224
  19   2.0000      -0.769626       -20.9426
  20   2.0000      -0.736733       -20.0475
  21   2.0000      -0.678460       -18.4618
  22   2.0000      -0.608911       -16.5693
  23   2.0000      -0.607975       -16.5438
  24   2.0000      -0.600813       -16.3490
  25   2.0000      -0.562006       -15.2930
  26   2.0000      -0.521733       -14.1971
  27   2.0000      -0.516433       -14.0529
  28   2.0000      -0.503122       -13.6906
  29   2.0000      -0.499316       -13.5871
  30   2.0000      -0.467150       -12.7118
  31   2.0000      -0.452260       -12.3066
  32   2.0000      -0.446721       -12.1559
  33   2.0000      -0.433262       -11.7897
  34   2.0000      -0.425408       -11.5759
  35   2.0000      -0.424344       -11.5470
  36   2.0000      -0.407917       -11.1000
  37   2.0000      -0.400883       -10.9086
  38   2.0000      -0.380759       -10.3610
  39   2.0000      -0.371377       -10.1057
  40   2.0000      -0.367052        -9.9880
  41   2.0000      -0.357719        -9.7340
  42   2.0000      -0.350536        -9.5386
  43   2.0000      -0.328410        -8.9365
  44   2.0000      -0.319801        -8.7022
  45   2.0000      -0.317248        -8.6327
  46   2.0000      -0.310113        -8.4386
  47   2.0000      -0.269359        -7.3296
  48   2.0000      -0.266070        -7.2401
  49   2.0000      -0.252750        -6.8777
  50   2.0000      -0.235902        -6.4192
  51   0.0000       0.045125         1.2279
  52   0.0000       0.073725         2.0062
  53   0.0000       0.091573         2.4918
  54   0.0000       0.096296         2.6203
  55   0.0000       0.105430         2.8689

MULLIKEN ATOMIC CHARGES
-----------------------
   0 C :    0.307454
   1 C :   -0.274192
   2 C :   -0.337221
   3 C :   -0.018500
   4 O :   -0.506800
   5 H :    0.164177
   6 H :    0.153906
   7 H :    0.135985
   8 H :    0.148796
   9 H :    0.169687
  10 H :    0.150880
  11 H :    0.151410
  12 C :    0.004853
  13 H :    0.160929
  14 H :    0.140535
  15 O :   -0.543295
  16 C :    0.089909
  17 C :    0.087623
  18 C :   -0.333744
  19 C :    0.003148
  20 O :   -0.517716
  21 H :    0.147486
  22 H :    0.159166
  23 O :   -0.612811
  24 H :    0.144802
  25 H :    0.161686
  26 H :    0.154285
  27 H :    0.139921
  28 H :    0.367641
Sum of atomic charges:   -0.0000000

LOEWDIN ATOMIC CHARGES
----------------------
   0 C :    0.181185
   1 C :   -0.229584
   2 C :   -0.234300
   3 C :   -0.033445
   4 O :   -0.315711
   5 H :    0.110498
   6 H :    0.119833
   7 H :    0.108631
   8 H :    0.117993
   9 H :    0.117334
  10 H :    0.103977
  11 H :    0.106737
  12 C :   -0.036407
  13 H :    0.113856
  14 H :    0.104410
  15 O :   -0.338358
  16 C :    0.021124
  17 C :    0.037134
  18 C :   -0.245267
  19 C :   -0.022128
  20 O :   -0.319254
  21 H :    0.113206
  22 H :    0.112803
  23 O :   -0.414629
  24 H :    0.113937
  25 H :    0.117064
  26 H :    0.109180
  27 H :    0.100064
  28 H :    0.280119

  Mayer bond orders larger than 0.100000
B(  0-C ,  1-C ) :   0.9141 B(  0-C ,  4-O ) :   0.9118 B(  0-C ,  5-H ) :   0.9348
B(  0-C , 15-O ) :   0.8688 B(  1-C ,  2-C ) :   0.9529 B(  1-C ,  6-H ) :   0.9334
B(  1-C ,  7-H ) :   0.9347 B(  2-C ,  3-C ) :   0.9480 B(  2-C ,  8-H ) :   0.9444
B(  2-C ,  9-H ) :   0.9160 B(  3-C ,  4-O ) :   0.8343 B(  3-C , 10-H ) :   0.9304
B(  3-C , 11-H ) :   0.9390 B( 12-C , 13-H ) :   0.9242 B( 12-C , 14-H ) :   0.8991
B( 12-C , 15-O ) :   0.8227 B( 12-C , 16-C ) :   0.9170 B( 16-C , 17-C ) :   0.8852
B( 16-C , 20-O ) :   0.8741 B( 16-C , 21-H ) :   0.9274 B( 17-C , 18-C ) :   0.9468
B( 17-C , 22-H ) :   0.9316 B( 17-C , 23-O ) :   0.8835 B( 18-C , 19-C ) :   0.9458
B( 18-C , 24-H ) :   0.9388 B( 18-C , 25-H ) :   0.9219 B( 19-C , 20-O ) :   0.8428
B( 19-C , 26-H ) :   0.9307 B( 19-C , 27-H ) :   0.9372 B( 23-O , 28-H ) :   0.7841

FINAL SINGLE POINT ENERGY      -652.855072422775

DIPOLE MOMENT
-------------
                                X             Y             Z
Electronic contribution:     -2.84689      -3.36972       1.39646
Nuclear contribution   :      3.68648       4.28819      -2.03479
                        -----------------------------------------
Total Dipole Moment    :      0.83959       0.91847      -0.63833
                        -----------------------------------------
Magnitude (a.u.)       :      1.39855
Magnitude (Debye)      :      3.55484

Rotational constants in cm-1:     0.047853     0.017729     0.016219
Rotational constants in MHz :  1434.583725   531.497510   486.245528

                             ****ORCA TERMINATED NORMALLY****
TOTAL RUN TIME: 0 days 0 hours 45 minutes 13 seconds 918 msec
