                         Program Version 4.2.0 -  RELEASE  -
|  1> # Test redundant internal optimization
|  2> #
|  3> ! RKS B3LYP  Opt TightSCF SmallPrint
|  4>
|  5> %basis
|  6>         Basis "6-31G"
|  7> end
|  8>
|  9> %geom
| 10> Constraints
| 11> { D 4  0  15  12  120.0   C } # D for Dihedral angle
| 12> { D 0  15  12  16  150.0   C } # D for Dihedral angle
| 13> { D 0  4  3  2   C } # D for Dihedral angle
| 14> { D 4  3  2  1   C } # D for Dihedral angle
| 15> { D 3  2  1  0   C } # D for Dihedral angle
| 16> { D 2  1  0  4   C } # D for Dihedral angle
| 17> { D 1  0  4  3   C } # D for Dihedral angle
| 18> { D 16  20  19  18   C } # D for Dihedral angle
| 19> { D 20  19  18  17   C } # D for Dihedral angle
| 20> { D 19  18  17  16   C } # D for Dihedral angle
| 21> { D 18  17  16  20   C } # D for Dihedral angle
| 22> { D 17  16  20  19   C } # D for Dihedral angle
| 23> { D 15  12  16  20   C } # D for Dihedral angle
| 24> end
| 25> end
| 26>
| 27>
| 28> #%pal
| 29> #nprocs 8
| 30> #end
| 31>
| 32> * xyz 0 1
| 33> C  -21.048   26.222   46.251
| 34> C  -20.361   27.558   45.944
| 35> C  -20.329   28.222   47.341
| 36> C  -20.110   27.022   48.296
| 37> O  -20.473   25.807   47.535
| 38> H  -20.833   25.428   45.533
| 39> H  -19.344   27.382   45.576
| 40> H  -20.898   28.157   45.201
| 41> H  -19.543   28.978   47.434
| 42> H  -21.289   28.710   47.548
| 43> H  -20.733   27.082   49.195
| 44> H  -19.064   26.913   48.597
| 45> C  -23.119   27.818   46.058
| 46> H  -23.125   28.416   46.978
| 47> H  -22.468   28.318   45.329
| 48> O  -22.586   26.394   46.375
| 49> C  -24.559   27.804   45.475
| 50> C  -24.648   26.911   44.232
| 51> C  -24.725   25.501   44.864
| 52> C  -25.545   25.739   46.156
| 53> O  -25.492   27.192   46.427
| 54> H  -24.891   28.832   45.317
| 55> O  -25.946   27.228   43.440
| 56> H  -23.794   27.027   43.556
| 57> H  -25.193   24.764   44.203
| 58> H  -23.718   25.142   45.107
| 59> H  -25.139   25.198   47.017
| 60> H  -26.600   25.473   46.037
| 61> H  -26.815   27.118   44.098
| 62> *
| 63>
| 64>                          ****END OF INPUT****
 Total Charge           Charge          ....    0
 Multiplicity           Mult            ....    1
 Number of Electrons    NEL             ....  102
FINAL SINGLE POINT ENERGY      -652.819685225940
FINAL SINGLE POINT ENERGY      -652.843458954881
FINAL SINGLE POINT ENERGY      -652.852385321047
FINAL SINGLE POINT ENERGY      -652.854252573911
FINAL SINGLE POINT ENERGY      -652.854569403628
FINAL SINGLE POINT ENERGY      -652.854617504939
                    ***********************HURRAY********************

CARTESIAN COORDINATES (ANGSTROEM)
---------------------------------
  C    -21.163614   26.348654   46.325800
  C    -20.251605   27.522817   45.959824
  C    -20.112578   28.260987   47.318368
  C    -20.116259   27.096505   48.336501
  O    -20.685608   25.930610   47.618793
  H    -21.060235   25.475931   45.678530
  H    -19.285842   27.112007   45.646496
  H    -20.619857   28.157430   45.150319
  H    -19.197453   28.857906   47.374280
  H    -20.961783   28.932616   47.482678
  H    -20.726425   27.300261   49.220388
  H    -19.108709   26.811486   48.652236
  C    -23.197794   27.896432   46.086494
  H    -23.277106   28.487943   47.007535
  H    -22.609508   28.465649   45.354943
  O    -22.595290   26.609304   46.386503
  C    -24.607057   27.707449   45.522863
  C    -24.734008   26.896846   44.224558
  C    -24.763673   25.440481   44.760258
  C    -25.534284   25.579125   46.097181
  O    -25.488182   27.015562   46.460961
  H    -25.029114   28.710036   45.377762
  O    -25.955477   27.253624   43.516608
  H    -23.930129   27.080296   43.510391
  H    -25.260619   24.775903   44.047348
  H    -23.746100   25.093042   44.941426
  H    -25.072581   25.002019   46.901977
  H    -26.590465   25.303028   46.012548
  H    -26.706645   27.232051   44.146430

 Multiplicity           Mult            ....    1
 Number of Electrons    NEL             ....  102
 Basis Dimension        Dim             ....  149

ORBITAL ENERGIES
----------------

  NO   OCC          E(Eh)            E(eV)
   0   2.0000     -19.145127      -520.9654
   1   2.0000     -19.141944      -520.8788
   2   2.0000     -19.134850      -520.6857
   3   2.0000     -19.134554      -520.6777
   4   2.0000     -10.286271      -279.9037
   5   2.0000     -10.237354      -278.5726
   6   2.0000     -10.236456      -278.5481
   7   2.0000     -10.233334      -278.4632
   8   2.0000     -10.230219      -278.3784
   9   2.0000     -10.218729      -278.0657
  10   2.0000     -10.199987      -277.5558
  11   2.0000     -10.197844      -277.4975
  12   2.0000     -10.174728      -276.8684
  13   2.0000      -1.054632       -28.6980
  14   2.0000      -1.030928       -28.0530
  15   2.0000      -1.003189       -27.2982
  16   2.0000      -0.994054       -27.0496
  17   2.0000      -0.795349       -21.6425
  18   2.0000      -0.779328       -21.2066
  19   2.0000      -0.763796       -20.7840
  20   2.0000      -0.736639       -20.0450
  21   2.0000      -0.679474       -18.4894
  22   2.0000      -0.610068       -16.6008
  23   2.0000      -0.602513       -16.3952
  24   2.0000      -0.595322       -16.1995
  25   2.0000      -0.568386       -15.4666
  26   2.0000      -0.525386       -14.2965
  27   2.0000      -0.511834       -13.9277
  28   2.0000      -0.508198       -13.8288
  29   2.0000      -0.485883       -13.2215
  30   2.0000      -0.474260       -12.9053
  31   2.0000      -0.457577       -12.4513
  32   2.0000      -0.449940       -12.2435
  33   2.0000      -0.433326       -11.7914
  34   2.0000      -0.428730       -11.6663
  35   2.0000      -0.419751       -11.4220
  36   2.0000      -0.403542       -10.9809
  37   2.0000      -0.388169       -10.5626
  38   2.0000      -0.384332       -10.4582
  39   2.0000      -0.366569        -9.9748
  40   2.0000      -0.363401        -9.8886
  41   2.0000      -0.361457        -9.8358
  42   2.0000      -0.352997        -9.6055
  43   2.0000      -0.326558        -8.8861
  44   2.0000      -0.317946        -8.6518
  45   2.0000      -0.302146        -8.2218
  46   2.0000      -0.297231        -8.0881
  47   2.0000      -0.272153        -7.4057
  48   2.0000      -0.263671        -7.1749
  49   2.0000      -0.256905        -6.9907
  50   2.0000      -0.237198        -6.4545
  51   0.0000       0.065081         1.7709
  52   0.0000       0.074957         2.0397
  53   0.0000       0.088695         2.4135
  54   0.0000       0.100246         2.7278
  55   0.0000       0.105581         2.8730

MULLIKEN ATOMIC CHARGES
-----------------------
   0 C :    0.318731
   1 C :   -0.304380
   2 C :   -0.306695
   3 C :   -0.003784
   4 O :   -0.493888
   5 H :    0.155436
   6 H :    0.159335
   7 H :    0.147015
   8 H :    0.148085
   9 H :    0.152285
  10 H :    0.153071
  11 H :    0.145703
  12 C :    0.006553
  13 H :    0.151465
  14 H :    0.121934
  15 O :   -0.533656
  16 C :    0.068629
  17 C :    0.074932
  18 C :   -0.287700
  19 C :   -0.017850
  20 O :   -0.524571
  21 H :    0.152467
  22 O :   -0.602584
  23 H :    0.142584
  24 H :    0.147925
  25 H :    0.169950
  26 H :    0.161452
  27 H :    0.134236
  28 H :    0.363319
Sum of atomic charges:   -0.0000000

LOEWDIN ATOMIC CHARGES
----------------------
   0 C :    0.181132
   1 C :   -0.232437
   2 C :   -0.219772
   3 C :   -0.029001
   4 O :   -0.311917
   5 H :    0.104953
   6 H :    0.124164
   7 H :    0.114709
   8 H :    0.117487
   9 H :    0.111393
  10 H :    0.108278
  11 H :    0.104504
  12 C :   -0.036769
  13 H :    0.105009
  14 H :    0.093580
  15 O :   -0.330408
  16 C :    0.012744
  17 C :    0.038637
  18 C :   -0.241274
  19 C :   -0.032143
  20 O :   -0.328641
  21 H :    0.114316
  22 O :   -0.417288
  23 H :    0.111512
  24 H :    0.117576
  25 H :    0.128021
  26 H :    0.113599
  27 H :    0.095546
  28 H :    0.282491

  Mayer bond orders larger than 0.100000
B(  0-C ,  1-C ) :   0.9343 B(  0-C ,  4-O ) :   0.9220 B(  0-C ,  5-H ) :   0.9306
B(  0-C , 15-O ) :   0.8604 B(  1-C ,  2-C ) :   0.9501 B(  1-C ,  6-H ) :   0.9330
B(  1-C ,  7-H ) :   0.9276 B(  2-C ,  3-C ) :   0.9505 B(  2-C ,  8-H ) :   0.9453
B(  2-C ,  9-H ) :   0.9418 B(  3-C ,  4-O ) :   0.8430 B(  3-C , 10-H ) :   0.9338
B(  3-C , 11-H ) :   0.9393 B( 12-C , 13-H ) :   0.9149 B( 12-C , 14-H ) :   0.8997
B( 12-C , 15-O ) :   0.8468 B( 12-C , 16-C ) :   0.8990 B( 16-C , 17-C ) :   0.9069
B( 16-C , 20-O ) :   0.8797 B( 16-C , 21-H ) :   0.9208 B( 17-C , 18-C ) :   0.9252
B( 17-C , 22-O ) :   0.8938 B( 17-C , 23-H ) :   0.9370 B( 18-C , 19-C ) :   0.9482
B( 18-C , 24-H ) :   0.9368 B( 18-C , 25-H ) :   0.9199 B( 19-C , 20-O ) :   0.8353
B( 19-C , 26-H ) :   0.9323 B( 19-C , 27-H ) :   0.9372 B( 22-O , 28-H ) :   0.7954

FINAL SINGLE POINT ENERGY      -652.854620217971

DIPOLE MOMENT
-------------
                                X             Y             Z
Electronic contribution:     -4.06269      -1.75698       0.02109
Nuclear contribution   :      5.15801       2.43289      -0.15265
                        -----------------------------------------
Total Dipole Moment    :      1.09531       0.67591      -0.13156
                        -----------------------------------------
Magnitude (a.u.)       :      1.29378
Magnitude (Debye)      :      3.28853

Rotational constants in cm-1:     0.060113     0.013368     0.012821
Rotational constants in MHz :  1802.129306   400.747610   384.374184

                             ****ORCA TERMINATED NORMALLY****
TOTAL RUN TIME: 0 days 0 hours 20 minutes 40 seconds 258 msec
