                         Program Version 4.2.0 -  RELEASE  -
|  1> # Test redundant internal optimization
|  2> #
|  3> ! RKS B3LYP  Opt TightSCF SmallPrint
|  4>
|  5> %basis
|  6>         Basis "6-31G"
|  7> end
|  8>
|  9> %geom
| 10> Constraints
| 11> { D 4  0  15  12  150.0   C } # D for Dihedral angle
| 12> { D 0  15  12  16  270.0   C } # D for Dihedral angle
| 13> { D 0  4  3  2   C } # D for Dihedral angle
| 14> { D 4  3  2  1   C } # D for Dihedral angle
| 15> { D 3  2  1  0   C } # D for Dihedral angle
| 16> { D 2  1  0  4   C } # D for Dihedral angle
| 17> { D 1  0  4  3   C } # D for Dihedral angle
| 18> { D 16  20  19  18   C } # D for Dihedral angle
| 19> { D 20  19  18  17   C } # D for Dihedral angle
| 20> { D 19  18  17  16   C } # D for Dihedral angle
| 21> { D 18  17  16  20   C } # D for Dihedral angle
| 22> { D 17  16  20  19   C } # D for Dihedral angle
| 23> { D 15  12  16  20   C } # D for Dihedral angle
| 24> end
| 25> end
| 26>
| 27>
| 28> #%pal
| 29> #nprocs 8
| 30> #end
| 31>
| 32> * xyz 0 1
| 33> C  -21.048   26.222   46.251
| 34> C  -20.361   27.558   45.944
| 35> C  -20.329   28.222   47.341
| 36> C  -20.110   27.022   48.296
| 37> O  -20.473   25.807   47.535
| 38> H  -20.833   25.428   45.533
| 39> H  -19.344   27.382   45.576
| 40> H  -20.898   28.157   45.201
| 41> H  -19.543   28.978   47.434
| 42> H  -21.289   28.710   47.548
| 43> H  -20.733   27.082   49.195
| 44> H  -19.064   26.913   48.597
| 45> C  -23.210   27.459   45.431
| 46> H  -22.617   27.517   44.510
| 47> H  -24.236   27.179   45.162
| 48> O  -22.586   26.394   46.375
| 49> C  -23.258   28.874   46.071
| 50> C  -23.982   29.872   45.161
| 51> C  -25.465   29.528   45.437
| 52> C  -25.465   29.150   46.939
| 53> O  -24.062   28.855   47.298
| 54> H  -22.246   29.172   46.356
| 55> O  -23.664   31.326   45.605
| 56> H  -23.711   29.766   44.105
| 57> H  -26.142   30.360   45.216
| 58> H  -25.774   28.674   44.823
| 59> H  -26.082   28.270   47.150
| 60> H  -25.795   29.975   47.577
| 61> H  -23.929   31.455   46.661
| 62> *
| 63>
| 64>                          ****END OF INPUT****
 Total Charge           Charge          ....    0
 Multiplicity           Mult            ....    1
 Number of Electrons    NEL             ....  102
FINAL SINGLE POINT ENERGY      -652.815960998914
FINAL SINGLE POINT ENERGY      -652.839578628787
FINAL SINGLE POINT ENERGY      -652.846182039154
FINAL SINGLE POINT ENERGY      -652.848468802691
FINAL SINGLE POINT ENERGY      -652.848801366590
FINAL SINGLE POINT ENERGY      -652.848856553998
FINAL SINGLE POINT ENERGY      -652.848861550483
                    ***********************HURRAY********************

CARTESIAN COORDINATES (ANGSTROEM)
---------------------------------
  C    -21.062725   26.307865   46.213710
  C    -20.180320   27.535766   45.969797
  C    -20.145870   28.202359   47.376969
  C    -20.158883   26.976307   48.318083
  O    -20.640034   25.839926   47.498766
  H    -20.880653   25.486348   45.514174
  H    -19.180652   27.188529   45.687974
  H    -20.537704   28.204101   45.180634
  H    -19.255025   28.822681   47.515297
  H    -21.025020   28.824600   47.550480
  H    -20.829717   27.101083   49.171526
  H    -19.161431   26.703973   48.675003
  C    -23.174353   27.530763   45.437687
  H    -22.679305   27.635110   44.458280
  H    -24.165379   27.102099   45.260364
  O    -22.507332   26.527524   46.247308
  C    -23.327415   28.923388   46.057016
  C    -24.109068   29.885659   45.149171
  C    -25.580396   29.497121   45.466832
  C    -25.526047   29.142930   46.974673
  O    -24.100813   28.899034   47.299340
  H    -22.356185   29.352637   46.300430
  O    -23.825999   31.268915   45.497835
  H    -23.859419   29.802763   44.090719
  H    -26.253872   30.329471   45.246670
  H    -25.887261   28.636593   44.862488
  H    -26.104490   28.247610   47.221194
  H    -25.866800   29.964601   47.612681
  H    -23.866831   31.367245   46.472901

 Multiplicity           Mult            ....    1
 Number of Electrons    NEL             ....  102
 Basis Dimension        Dim             ....  149

ORBITAL ENERGIES
----------------

  NO   OCC          E(Eh)            E(eV)
   0   2.0000     -19.144993      -520.9617
   1   2.0000     -19.144766      -520.9556
   2   2.0000     -19.137075      -520.7463
   3   2.0000     -19.135091      -520.6923
   4   2.0000     -10.278301      -279.6868
   5   2.0000     -10.248267      -278.8695
   6   2.0000     -10.237042      -278.5641
   7   2.0000     -10.236576      -278.5514
   8   2.0000     -10.234047      -278.4826
   9   2.0000     -10.222415      -278.1660
  10   2.0000     -10.194646      -277.4104
  11   2.0000     -10.192423      -277.3499
  12   2.0000     -10.188435      -277.2414
  13   2.0000      -1.048851       -28.5407
  14   2.0000      -1.040561       -28.3151
  15   2.0000      -1.011000       -27.5107
  16   2.0000      -0.989848       -26.9351
  17   2.0000      -0.789451       -21.4820
  18   2.0000      -0.786637       -21.4055
  19   2.0000      -0.771097       -20.9826
  20   2.0000      -0.734810       -19.9952
  21   2.0000      -0.679754       -18.4970
  22   2.0000      -0.609641       -16.5892
  23   2.0000      -0.608039       -16.5456
  24   2.0000      -0.596780       -16.2392
  25   2.0000      -0.576716       -15.6932
  26   2.0000      -0.525772       -14.3070
  27   2.0000      -0.510825       -13.9003
  28   2.0000      -0.500773       -13.6267
  29   2.0000      -0.496528       -13.5112
  30   2.0000      -0.473025       -12.8717
  31   2.0000      -0.460130       -12.5208
  32   2.0000      -0.455101       -12.3839
  33   2.0000      -0.441658       -12.0181
  34   2.0000      -0.431494       -11.7416
  35   2.0000      -0.409932       -11.1548
  36   2.0000      -0.408726       -11.1220
  37   2.0000      -0.398276       -10.8376
  38   2.0000      -0.381014       -10.3679
  39   2.0000      -0.376327       -10.2404
  40   2.0000      -0.364878        -9.9288
  41   2.0000      -0.355404        -9.6710
  42   2.0000      -0.352300        -9.5866
  43   2.0000      -0.336965        -9.1693
  44   2.0000      -0.313712        -8.5365
  45   2.0000      -0.308145        -8.3851
  46   2.0000      -0.291558        -7.9337
  47   2.0000      -0.275116        -7.4863
  48   2.0000      -0.268805        -7.3146
  49   2.0000      -0.254440        -6.9237
  50   2.0000      -0.236793        -6.4435
  51   0.0000       0.060231         1.6390
  52   0.0000       0.080688         2.1956
  53   0.0000       0.084710         2.3051
  54   0.0000       0.087758         2.3880
  55   0.0000       0.094948         2.5837

MULLIKEN ATOMIC CHARGES
-----------------------
   0 C :    0.321460
   1 C :   -0.301720
   2 C :   -0.313467
   3 C :   -0.001583
   4 O :   -0.496148
   5 H :    0.147710
   6 H :    0.154512
   7 H :    0.140304
   8 H :    0.143887
   9 H :    0.173425
  10 H :    0.160188
  11 H :    0.141141
  12 C :   -0.010005
  13 H :    0.119653
  14 H :    0.155543
  15 O :   -0.511156
  16 C :    0.056608
  17 C :    0.071500
  18 C :   -0.300572
  19 C :   -0.030619
  20 O :   -0.512252
  21 H :    0.159009
  22 O :   -0.599033
  23 H :    0.151968
  24 H :    0.163918
  25 H :    0.148670
  26 H :    0.155117
  27 H :    0.147396
  28 H :    0.364544
Sum of atomic charges:   -0.0000000

LOEWDIN ATOMIC CHARGES
----------------------
   0 C :    0.185685
   1 C :   -0.235075
   2 C :   -0.221801
   3 C :   -0.025746
   4 O :   -0.302486
   5 H :    0.099101
   6 H :    0.121767
   7 H :    0.110991
   8 H :    0.115323
   9 H :    0.118180
  10 H :    0.112036
  11 H :    0.101966
  12 C :   -0.040826
  13 H :    0.091391
  14 H :    0.114413
  15 O :   -0.327750
  16 C :    0.001189
  17 C :    0.034509
  18 C :   -0.242243
  19 C :   -0.037845
  20 O :   -0.322969
  21 H :    0.111729
  22 O :   -0.413524
  23 H :    0.114979
  24 H :    0.127132
  25 H :    0.114725
  26 H :    0.108817
  27 H :    0.102960
  28 H :    0.283373

  Mayer bond orders larger than 0.100000
B(  0-C ,  1-C ) :   0.9275 B(  0-C ,  4-O ) :   0.9366 B(  0-C ,  5-H ) :   0.9267
B(  0-C , 15-O ) :   0.8476 B(  1-C ,  2-C ) :   0.9521 B(  1-C ,  6-H ) :   0.9326
B(  1-C ,  7-H ) :   0.9293 B(  2-C ,  3-C ) :   0.9506 B(  2-C ,  8-H ) :   0.9452
B(  2-C ,  9-H ) :   0.9258 B(  3-C ,  4-O ) :   0.8363 B(  3-C , 10-H ) :   0.9331
B(  3-C , 11-H ) :   0.9400 B( 12-C , 13-H ) :   0.9111 B( 12-C , 14-H ) :   0.9348
B( 12-C , 15-O ) :   0.8723 B( 12-C , 16-C ) :   0.8705 B( 16-C , 17-C ) :   0.8906
B( 16-C , 20-O ) :   0.8665 B( 16-C , 21-H ) :   0.9085 B( 17-C , 18-C ) :   0.9124
B( 17-C , 22-O ) :   0.8946 B( 17-C , 23-H ) :   0.9324 B( 18-C , 19-C ) :   0.9394
B( 18-C , 24-H ) :   0.9371 B( 18-C , 25-H ) :   0.9328 B( 19-C , 20-O ) :   0.8475
B( 19-C , 26-H ) :   0.9331 B( 19-C , 27-H ) :   0.9370 B( 22-O , 28-H ) :   0.7940

FINAL SINGLE POINT ENERGY      -652.848862640989

DIPOLE MOMENT
-------------
                                X             Y             Z
Electronic contribution:     -0.51105      -2.45348       1.29578
Nuclear contribution   :      0.45827       3.20132      -1.93674
                        -----------------------------------------
Total Dipole Moment    :     -0.05278       0.74784      -0.64096
                        -----------------------------------------
Magnitude (a.u.)       :      0.98634
Magnitude (Debye)      :      2.50709

Rotational constants in cm-1:     0.052418     0.014274     0.013669
Rotational constants in MHz :  1571.451128   427.935542   409.783543

                             ****ORCA TERMINATED NORMALLY****
TOTAL RUN TIME: 0 days 0 hours 59 minutes 48 seconds 210 msec
