                         Program Version 4.2.1 -  RELEASE  -
|  1> # Test redundant internal optimization
|  2> #
|  3> ! RKS B3LYP  Opt TightSCF SmallPrint
|  4>
|  5> %basis
|  6>         Basis "6-31G"
|  7> end
|  8>
|  9> %geom
| 10> Constraints
| 11> { D 4  0  19  14  165.0   C } # D for Dihedral angle
| 12> { D 0  19  14  12  30.0   C } # D for Dihedral angle
| 13> { D 0  4  3  2   C } # D for Dihedral angle
| 14> { D 4  3  2  1   C } # D for Dihedral angle
| 15> { D 3  2  1  0   C } # D for Dihedral angle
| 16> { D 2  1  0  4   C } # D for Dihedral angle
| 17> { D 1  0  4  3   C } # D for Dihedral angle
| 18> { D 14  15  16  17   C } # D for Dihedral angle
| 19> { D 15  16  17  12   C } # D for Dihedral angle
| 20> { D 16  17  12  14   C } # D for Dihedral angle
| 21> { D 17  12  14  15   C } # D for Dihedral angle
| 22> { D 12  14  15  16   C } # D for Dihedral angle
| 23> end
| 24> end
| 25>
| 26>
| 27> #%pal
| 28> #nprocs 8
| 29> #end
| 30>
| 31> * xyz 0 1
| 32> C  -21.048   26.222   46.251
| 33> C  -20.361   27.558   45.944
| 34> C  -20.329   28.222   47.341
| 35> C  -20.110   27.022   48.296
| 36> O  -20.473   25.807   47.535
| 37> H  -20.833   25.428   45.533
| 38> H  -19.344   27.382   45.576
| 39> H  -20.898   28.157   45.201
| 40> H  -19.543   28.978   47.434
| 41> H  -21.289   28.710   47.548
| 42> H  -20.733   27.082   49.195
| 43> H  -19.064   26.913   48.597
| 44> C  -22.278   26.877   43.991
| 45> H  -22.534   27.627   43.226
| 46> C  -23.077   27.101   45.280
| 47> C  -24.447   26.485   44.912
| 48> C  -24.062   25.289   44.004
| 49> O  -22.677   25.537   43.547
| 50> H  -21.196   26.860   44.127
| 51> O  -22.472   26.381   46.366
| 52> H  -23.149   28.157   45.563
| 53> H  -25.023   26.174   45.789
| 54> H  -25.051   27.213   44.356
| 55> H  -24.716   25.197   43.130
| 56> H  -24.058   24.338   44.545
| 57> *
| 58>
| 59>                          ****END OF INPUT****
 Total Charge           Charge          ....    0
 Multiplicity           Mult            ....    1
 Number of Electrons    NEL             ....   86
FINAL SINGLE POINT ENERGY      -538.406144523139
FINAL SINGLE POINT ENERGY      -538.422842282989
FINAL SINGLE POINT ENERGY      -538.424117003348
FINAL SINGLE POINT ENERGY      -538.424320892558
FINAL SINGLE POINT ENERGY      -538.424376311203
FINAL SINGLE POINT ENERGY      -538.424389077460
                    ***********************HURRAY********************

CARTESIAN COORDINATES (ANGSTROEM)
---------------------------------
  C    -20.928676   26.212295   46.249297
  C    -20.111175   27.484001   46.009498
  C    -20.249534   28.224912   47.370538
  C    -20.267389   27.056049   48.378536
  O    -20.595018   25.844546   47.593740
  H    -20.693454   25.366103   45.600432
  H    -19.067140   27.201167   45.828893
  H    -20.443623   28.098033   45.172574
  H    -19.426627   28.922655   47.551180
  H    -21.191131   28.781406   47.401325
  H    -21.017780   27.176867   49.164258
  H    -19.289635   26.877916   48.836542
  C    -22.474534   27.006781   43.772414
  H    -22.943008   27.748434   43.107529
  C    -23.079024   27.137053   45.171545
  C    -24.421113   26.399419   44.999427
  C    -24.080478   25.257595   44.012936
  O    -22.808986   25.642092   43.353869
  H    -21.393406   27.100382   43.695285
  O    -22.372624   26.443845   46.248867
  H    -23.211273   28.188542   45.459407
  H    -24.780359   26.039173   45.964979
  H    -25.168340   27.081160   44.575127
  H    -24.850173   25.118689   43.246393
  H    -23.900502   24.307884   44.522408

 Multiplicity           Mult            ....    1
 Number of Electrons    NEL             ....   86
 Basis Dimension        Dim             ....  127

ORBITAL ENERGIES
----------------

  NO   OCC          E(Eh)            E(eV)
   0   2.0000     -19.137886      -520.7684
   1   2.0000     -19.133981      -520.6621
   2   2.0000     -19.133524      -520.6497
   3   2.0000     -10.277848      -279.6745
   4   2.0000     -10.242944      -278.7247
   5   2.0000     -10.229423      -278.3568
   6   2.0000     -10.224185      -278.2142
   7   2.0000     -10.221095      -278.1301
   8   2.0000     -10.189158      -277.2611
   9   2.0000     -10.189023      -277.2574
  10   2.0000     -10.184569      -277.1362
  11   2.0000      -1.050491       -28.5853
  12   2.0000      -1.017199       -27.6794
  13   2.0000      -0.984406       -26.7870
  14   2.0000      -0.788386       -21.4531
  15   2.0000      -0.781823       -21.2745
  16   2.0000      -0.739207       -20.1148
  17   2.0000      -0.728383       -19.8203
  18   2.0000      -0.619353       -16.8534
  19   2.0000      -0.604690       -16.4544
  20   2.0000      -0.594011       -16.1639
  21   2.0000      -0.564822       -15.3696
  22   2.0000      -0.520626       -14.1670
  23   2.0000      -0.498005       -13.5514
  24   2.0000      -0.493387       -13.4257
  25   2.0000      -0.486648       -13.2424
  26   2.0000      -0.451838       -12.2951
  27   2.0000      -0.450679       -12.2636
  28   2.0000      -0.430134       -11.7045
  29   2.0000      -0.412312       -11.2196
  30   2.0000      -0.409791       -11.1510
  31   2.0000      -0.384398       -10.4600
  32   2.0000      -0.372091       -10.1251
  33   2.0000      -0.367709       -10.0059
  34   2.0000      -0.365317        -9.9408
  35   2.0000      -0.353383        -9.6160
  36   2.0000      -0.350895        -9.5483
  37   2.0000      -0.316237        -8.6052
  38   2.0000      -0.307459        -8.3664
  39   2.0000      -0.290568        -7.9068
  40   2.0000      -0.257748        -7.0137
  41   2.0000      -0.248210        -6.7541
  42   2.0000      -0.240224        -6.5368
  43   0.0000       0.073576         2.0021
  44   0.0000       0.092228         2.5096
  45   0.0000       0.099603         2.7103
  46   0.0000       0.104510         2.8439
  47   0.0000       0.113280         3.0825

MULLIKEN ATOMIC CHARGES
-----------------------
   0 C :    0.310534
   1 C :   -0.288319
   2 C :   -0.301598
   3 C :    0.001711
   4 O :   -0.500528
   5 H :    0.162728
   6 H :    0.151108
   7 H :    0.139588
   8 H :    0.142856
   9 H :    0.154545
  10 H :    0.152359
  11 H :    0.142325
  12 C :   -0.028942
  13 H :    0.132283
  14 C :    0.085043
  15 C :   -0.287679
  16 C :   -0.003409
  17 O :   -0.526669
  18 H :    0.157320
  19 O :   -0.528332
  20 H :    0.127969
  21 H :    0.173362
  22 H :    0.136142
  23 H :    0.138066
  24 H :    0.157538
Sum of atomic charges:   -0.0000000

LOEWDIN ATOMIC CHARGES
----------------------
   0 C :    0.185786
   1 C :   -0.236140
   2 C :   -0.217105
   3 C :   -0.025703
   4 O :   -0.300469
   5 H :    0.107951
   6 H :    0.118259
   7 H :    0.111137
   8 H :    0.114689
   9 H :    0.113830
  10 H :    0.108189
  11 H :    0.102520
  12 C :   -0.055488
  13 H :    0.097069
  14 C :    0.039606
  15 C :   -0.222858
  16 C :   -0.028454
  17 O :   -0.335128
  18 H :    0.113323
  19 O :   -0.338990
  20 H :    0.095424
  21 H :    0.133348
  22 H :    0.108912
  23 H :    0.099819
  24 H :    0.110473

  Mayer bond orders larger than 0.100000
B(  0-C ,  1-C ) :   0.9278 B(  0-C ,  4-O ) :   0.9279 B(  0-C ,  5-H ) :   0.9185
B(  0-C , 19-O ) :   0.8283 B(  1-C ,  2-C ) :   0.9459 B(  1-C ,  6-H ) :   0.9342
B(  1-C ,  7-H ) :   0.9277 B(  2-C ,  3-C ) :   0.9548 B(  2-C ,  8-H ) :   0.9448
B(  2-C ,  9-H ) :   0.9462 B(  3-C ,  4-O ) :   0.8365 B(  3-C , 10-H ) :   0.9349
B(  3-C , 11-H ) :   0.9397 B( 12-C , 13-H ) :   0.9104 B( 12-C , 14-C ) :   0.9149
B( 12-C , 17-O ) :   0.8651 B( 12-C , 18-H ) :   0.9243 B( 14-C , 15-C ) :   0.9462
B( 14-C , 19-O ) :   0.8439 B( 14-C , 20-H ) :   0.9210 B( 15-C , 16-C ) :   0.9460
B( 15-C , 21-H ) :   0.9345 B( 15-C , 22-H ) :   0.9399 B( 16-C , 17-O ) :   0.8488
B( 16-C , 23-H ) :   0.9337 B( 16-C , 24-H ) :   0.9365

FINAL SINGLE POINT ENERGY      -538.424390516060

DIPOLE MOMENT
-------------
                                X             Y             Z
Electronic contribution:      0.09559      -3.89991       0.13248
Nuclear contribution   :     -0.15008       5.27553      -0.21281
                        -----------------------------------------
Total Dipole Moment    :     -0.05449       1.37561      -0.08034
                        -----------------------------------------
Magnitude (a.u.)       :      1.37903
Magnitude (Debye)      :      3.50523

Rotational constants in cm-1:     0.084691     0.021260     0.020433
Rotational constants in MHz :  2538.964666   637.370725   612.561006

                             ****ORCA TERMINATED NORMALLY****
TOTAL RUN TIME: 0 days 0 hours 8 minutes 9 seconds 484 msec
