                         Program Version 4.2.0 -  RELEASE  -
|  1> # Test redundant internal optimization
|  2> #
|  3> ! RKS B3LYP  Opt TightSCF SmallPrint
|  4>
|  5> %basis
|  6>         Basis "6-31G"
|  7> end
|  8>
|  9> %geom
| 10> Constraints
| 11> { D 4  0  15  12  315.0   C } # D for Dihedral angle
| 12> { D 0  15  12  16  30.0   C } # D for Dihedral angle
| 13> { D 0  4  3  2   C } # D for Dihedral angle
| 14> { D 4  3  2  1   C } # D for Dihedral angle
| 15> { D 3  2  1  0   C } # D for Dihedral angle
| 16> { D 2  1  0  4   C } # D for Dihedral angle
| 17> { D 1  0  4  3   C } # D for Dihedral angle
| 18> { D 16  20  19  18   C } # D for Dihedral angle
| 19> { D 20  19  18  17   C } # D for Dihedral angle
| 20> { D 19  18  17  16   C } # D for Dihedral angle
| 21> { D 18  17  16  20   C } # D for Dihedral angle
| 22> { D 17  16  20  19   C } # D for Dihedral angle
| 23> { D 15  12  16  20   C } # D for Dihedral angle
| 24> end
| 25> end
| 26>
| 27>
| 28> #%pal
| 29> #nprocs 8
| 30> #end
| 31>
| 32> * xyz 0 1
| 33> C  -21.048   26.222   46.251
| 34> C  -20.361   27.558   45.944
| 35> C  -20.329   28.222   47.341
| 36> C  -20.110   27.022   48.296
| 37> O  -20.473   25.807   47.535
| 38> H  -20.833   25.428   45.533
| 39> H  -19.344   27.382   45.576
| 40> H  -20.898   28.157   45.201
| 41> H  -19.543   28.978   47.434
| 42> H  -21.289   28.710   47.548
| 43> H  -20.733   27.082   49.195
| 44> H  -19.064   26.913   48.597
| 45> C  -23.319   25.255   47.135
| 46> H  -24.213   25.662   47.623
| 47> H  -23.637   24.470   46.437
| 48> O  -22.586   26.394   46.375
| 49> C  -22.430   24.588   48.221
| 50> C  -23.142   23.396   48.869
| 51> C  -22.938   22.292   47.805
| 52> C  -21.531   22.606   47.238
| 53> O  -21.229   24.004   47.613
| 54> H  -22.093   25.352   48.926
| 55> H  -22.646   23.125   49.808
| 56> O  -24.641   23.672   49.171
| 57> H  -23.003   21.282   48.223
| 58> H  -23.699   22.380   47.020
| 59> H  -21.487   22.511   46.147
| 60> H  -20.752   21.978   47.681
| 61> H  -25.160   23.944   48.246
| 62> *
| 63>
| 64>                          ****END OF INPUT****
 Total Charge           Charge          ....    0
 Multiplicity           Mult            ....    1
 Number of Electrons    NEL             ....  102
FINAL SINGLE POINT ENERGY      -652.778661191958
FINAL SINGLE POINT ENERGY      -652.820688189236
FINAL SINGLE POINT ENERGY      -652.841798616544
FINAL SINGLE POINT ENERGY      -652.845641074926
FINAL SINGLE POINT ENERGY      -652.846269993821
FINAL SINGLE POINT ENERGY      -652.846430290130
FINAL SINGLE POINT ENERGY      -652.846449440298
FINAL SINGLE POINT ENERGY      -652.846454416600
                    ***********************HURRAY********************

CARTESIAN COORDINATES (ANGSTROEM)
---------------------------------
  C    -20.865964   26.342649   46.221446
  C    -20.533031   27.806198   45.934710
  C    -20.411322   28.388093   47.361468
  C    -19.796109   27.223371   48.165396
  O    -20.028945   26.000946   47.346515
  H    -20.596863   25.629136   45.436607
  H    -19.575012   27.855099   45.404036
  H    -21.301845   28.295091   45.333179
  H    -19.793939   29.291004   47.397116
  H    -21.407354   28.635689   47.739513
  H    -20.257492   27.085446   49.147360
  H    -18.712569   27.313026   48.288714
  C    -23.035985   25.238868   47.144629
  H    -23.897833   25.763867   47.570271
  H    -23.412177   24.554665   46.364340
  O    -22.292688   26.285486   46.460119
  C    -22.409412   24.401528   48.263288
  C    -23.372267   23.329659   48.806109
  C    -23.160643   22.163650   47.790022
  C    -21.658643   22.276643   47.453292
  O    -21.228655   23.641821   47.859297
  H    -22.063825   25.068535   49.057747
  H    -23.042853   23.028801   49.802476
  O    -24.747148   23.747994   48.986079
  H    -23.433360   21.193962   48.215243
  H    -23.785066   22.331704   46.902917
  H    -21.448992   22.138115   46.388079
  H    -21.052253   21.568817   48.025269
  H    -25.208756   23.792137   48.123764

 Multiplicity           Mult            ....    1
 Number of Electrons    NEL             ....  102
 Basis Dimension        Dim             ....  149

ORBITAL ENERGIES
----------------

  NO   OCC          E(Eh)            E(eV)
   0   2.0000     -19.149541      -521.0855
   1   2.0000     -19.132760      -520.6289
   2   2.0000     -19.131917      -520.6059
   3   2.0000     -19.130229      -520.5600
   4   2.0000     -10.270503      -279.4746
   5   2.0000     -10.244553      -278.7685
   6   2.0000     -10.229406      -278.3563
   7   2.0000     -10.227929      -278.3161
   8   2.0000     -10.225776      -278.2575
   9   2.0000     -10.217693      -278.0376
  10   2.0000     -10.193866      -277.3892
  11   2.0000     -10.178565      -276.9728
  12   2.0000     -10.177153      -276.9344
  13   2.0000      -1.041270       -28.3344
  14   2.0000      -1.031033       -28.0558
  15   2.0000      -1.010571       -27.4990
  16   2.0000      -0.983192       -26.7540
  17   2.0000      -0.783787       -21.3279
  18   2.0000      -0.779291       -21.2056
  19   2.0000      -0.762467       -20.7478
  20   2.0000      -0.727717       -19.8022
  21   2.0000      -0.676626       -18.4119
  22   2.0000      -0.609673       -16.5900
  23   2.0000      -0.597615       -16.2619
  24   2.0000      -0.590131       -16.0583
  25   2.0000      -0.561479       -15.2786
  26   2.0000      -0.521775       -14.1982
  27   2.0000      -0.509504       -13.8643
  28   2.0000      -0.494004       -13.4425
  29   2.0000      -0.477747       -13.0002
  30   2.0000      -0.459423       -12.5015
  31   2.0000      -0.455935       -12.4066
  32   2.0000      -0.443015       -12.0550
  33   2.0000      -0.427003       -11.6193
  34   2.0000      -0.422840       -11.5061
  35   2.0000      -0.410609       -11.1732
  36   2.0000      -0.404701       -11.0125
  37   2.0000      -0.392411       -10.6780
  38   2.0000      -0.379359       -10.3229
  39   2.0000      -0.362681        -9.8691
  40   2.0000      -0.353258        -9.6126
  41   2.0000      -0.350250        -9.5308
  42   2.0000      -0.338721        -9.2171
  43   2.0000      -0.330619        -8.9966
  44   2.0000      -0.320852        -8.7308
  45   2.0000      -0.310618        -8.4524
  46   2.0000      -0.280778        -7.6404
  47   2.0000      -0.269235        -7.3263
  48   2.0000      -0.252424        -6.8688
  49   2.0000      -0.249084        -6.7779
  50   2.0000      -0.230387        -6.2692
  51   0.0000       0.051948         1.4136
  52   0.0000       0.078730         2.1424
  53   0.0000       0.087069         2.3693
  54   0.0000       0.096497         2.6258
  55   0.0000       0.110960         3.0194

MULLIKEN ATOMIC CHARGES
-----------------------
   0 C :    0.316054
   1 C :   -0.260247
   2 C :   -0.298652
   3 C :   -0.016405
   4 O :   -0.483184
   5 H :    0.141212
   6 H :    0.142567
   7 H :    0.155436
   8 H :    0.137546
   9 H :    0.156846
  10 H :    0.140270
  11 H :    0.145684
  12 C :    0.013675
  13 H :    0.150670
  14 H :    0.109487
  15 O :   -0.554840
  16 C :    0.082387
  17 C :    0.082882
  18 C :   -0.323709
  19 C :   -0.011840
  20 O :   -0.487235
  21 H :    0.156984
  22 H :    0.168896
  23 O :   -0.600704
  24 H :    0.153242
  25 H :    0.135278
  26 H :    0.140291
  27 H :    0.149785
  28 H :    0.357624
Sum of atomic charges:   -0.0000000

LOEWDIN ATOMIC CHARGES
----------------------
   0 C :    0.186298
   1 C :   -0.215544
   2 C :   -0.217808
   3 C :   -0.033874
   4 O :   -0.303934
   5 H :    0.095601
   6 H :    0.112368
   7 H :    0.123304
   8 H :    0.112062
   9 H :    0.116347
  10 H :    0.100275
  11 H :    0.103711
  12 C :   -0.040184
  13 H :    0.114441
  14 H :    0.082948
  15 O :   -0.341989
  16 C :    0.010097
  17 C :    0.036385
  18 C :   -0.242430
  19 C :   -0.033244
  20 O :   -0.303558
  21 H :    0.114760
  22 H :    0.119945
  23 O :   -0.407675
  24 H :    0.120842
  25 H :    0.104185
  26 H :    0.101320
  27 H :    0.106224
  28 H :    0.279126

  Mayer bond orders larger than 0.100000
B(  0-C ,  1-C ) :   0.9414 B(  0-C ,  4-O ) :   0.9182 B(  0-C ,  5-H ) :   0.9259
B(  0-C , 15-O ) :   0.8325 B(  1-C ,  2-C ) :   0.9572 B(  1-C ,  6-H ) :   0.9395
B(  1-C ,  7-H ) :   0.9364 B(  2-C ,  3-C ) :   0.9534 B(  2-C ,  8-H ) :   0.9453
B(  2-C ,  9-H ) :   0.9450 B(  3-C ,  4-O ) :   0.8460 B(  3-C , 10-H ) :   0.9332
B(  3-C , 11-H ) :   0.9398 B( 12-C , 13-H ) :   0.9169 B( 12-C , 14-H ) :   0.9248
B( 12-C , 15-O ) :   0.8554 B( 12-C , 16-C ) :   0.8949 B( 16-C , 17-C ) :   0.8661
B( 16-C , 20-O ) :   0.8630 B( 16-C , 21-H ) :   0.9275 B( 17-C , 18-C ) :   0.9233
B( 17-C , 22-H ) :   0.9334 B( 17-C , 23-O ) :   0.8964 B( 18-C , 19-C ) :   0.9381
B( 18-C , 24-H ) :   0.9427 B( 18-C , 25-H ) :   0.9389 B( 19-C , 20-O ) :   0.8556
B( 19-C , 26-H ) :   0.9321 B( 19-C , 27-H ) :   0.9373 B( 23-O , 28-H ) :   0.7977

FINAL SINGLE POINT ENERGY      -652.846454828223

DIPOLE MOMENT
-------------
                                X             Y             Z
Electronic contribution:     -0.56101      -1.52501       0.72601
Nuclear contribution   :      0.30651       1.36231      -1.16857
                        -----------------------------------------
Total Dipole Moment    :     -0.25450      -0.16270      -0.44256
                        -----------------------------------------
Magnitude (a.u.)       :      0.53582
Magnitude (Debye)      :      1.36194

Rotational constants in cm-1:     0.054088     0.014851     0.013803
Rotational constants in MHz :  1621.524314   445.210508   413.803389

                             ****ORCA TERMINATED NORMALLY****
TOTAL RUN TIME: 0 days 1 hours 22 minutes 55 seconds 969 msec
