                         Program Version 4.2.0 -  RELEASE  -
|  1> # Test redundant internal optimization
|  2> #
|  3> ! RKS B3LYP  Opt TightSCF SmallPrint
|  4>
|  5> %basis
|  6>         Basis "6-31G"
|  7> end
|  8>
|  9> %geom
| 10> Constraints
| 11> { D 4  0  15  12  120.0   C } # D for Dihedral angle
| 12> { D 0  15  12  16  120.0   C } # D for Dihedral angle
| 13> { D 0  4  3  2   C } # D for Dihedral angle
| 14> { D 4  3  2  1   C } # D for Dihedral angle
| 15> { D 3  2  1  0   C } # D for Dihedral angle
| 16> { D 2  1  0  4   C } # D for Dihedral angle
| 17> { D 1  0  4  3   C } # D for Dihedral angle
| 18> { D 16  20  19  18   C } # D for Dihedral angle
| 19> { D 20  19  18  17   C } # D for Dihedral angle
| 20> { D 19  18  17  16   C } # D for Dihedral angle
| 21> { D 18  17  16  20   C } # D for Dihedral angle
| 22> { D 17  16  20  19   C } # D for Dihedral angle
| 23> { D 15  12  16  20   C } # D for Dihedral angle
| 24> end
| 25> end
| 26>
| 27>
| 28> #%pal
| 29> #nprocs 8
| 30> #end
| 31>
| 32> * xyz 0 1
| 33> C  -21.048   26.222   46.251
| 34> C  -20.361   27.558   45.944
| 35> C  -20.329   28.222   47.341
| 36> C  -20.110   27.022   48.296
| 37> O  -20.473   25.807   47.535
| 38> H  -20.833   25.428   45.533
| 39> H  -19.344   27.382   45.576
| 40> H  -20.898   28.157   45.201
| 41> H  -19.543   28.978   47.434
| 42> H  -21.289   28.710   47.548
| 43> H  -20.733   27.082   49.195
| 44> H  -19.064   26.913   48.597
| 45> C  -23.119   27.818   46.058
| 46> H  -23.624   28.221   46.944
| 47> H  -22.290   28.490   45.800
| 48> O  -22.586   26.394   46.375
| 49> C  -24.125   27.833   44.874
| 50> C  -25.399   27.053   45.217
| 51> C  -26.169   28.076   46.085
| 52> C  -25.806   29.434   45.434
| 53> O  -24.596   29.198   44.618
| 54> H  -23.618   27.495   43.969
| 55> H  -25.958   26.825   44.302
| 56> O  -25.117   25.720   45.963
| 57> H  -27.249   27.895   46.098
| 58> H  -25.811   28.035   47.121
| 59> H  -25.593   30.211   46.176
| 60> H  -26.586   29.795   44.758
| 61> H  -24.558   25.925   46.883
| 62> *
| 63>
| 64>                          ****END OF INPUT****
 Total Charge           Charge          ....    0
 Multiplicity           Mult            ....    1
 Number of Electrons    NEL             ....  102
FINAL SINGLE POINT ENERGY      -652.814752214240
FINAL SINGLE POINT ENERGY      -652.840862938834
FINAL SINGLE POINT ENERGY      -652.852382428957
FINAL SINGLE POINT ENERGY      -652.855629482351
FINAL SINGLE POINT ENERGY      -652.857337062068
FINAL SINGLE POINT ENERGY      -652.858302831651
FINAL SINGLE POINT ENERGY      -652.858745617182
FINAL SINGLE POINT ENERGY      -652.858869559117
FINAL SINGLE POINT ENERGY      -652.858886413116
                    ***********************HURRAY********************

CARTESIAN COORDINATES (ANGSTROEM)
---------------------------------
  C    -21.197323   26.348815   46.321153
  C    -20.223245   27.470683   45.955185
  C    -20.029805   28.189436   47.317418
  C    -20.091362   27.020350   48.327063
  O    -20.734355   25.894871   47.603311
  H    -21.164989   25.478718   45.664678
  H    -19.285695   27.005794   45.632664
  H    -20.561897   28.127861   45.150497
  H    -19.080231   28.730257   47.367325
  H    -20.834412   28.909751   47.498223
  H    -20.681714   27.249974   49.217920
  H    -19.100538   26.672179   48.630959
  C    -23.166249   28.037994   46.115054
  H    -23.654829   28.393214   47.029065
  H    -22.396635   28.759309   45.833291
  O    -22.610080   26.712351   46.399471
  C    -24.166621   27.902368   44.961192
  C    -25.388723   27.019612   45.266522
  C    -26.284171   27.993747   46.085408
  C    -26.010636   29.361076   45.427582
  O    -24.735906   29.213936   44.659257
  H    -23.634982   27.571569   44.063348
  H    -25.888087   26.778759   44.320843
  O    -25.120529   25.776106   45.938547
  H    -27.337946   27.705239   46.044161
  H    -25.971307   27.967225   47.134911
  H    -25.891652   30.176318   46.148089
  H    -26.778474   29.641340   44.701045
  H    -24.206609   25.790146   46.311817

 Multiplicity           Mult            ....    1
 Number of Electrons    NEL             ....  102
 Basis Dimension        Dim             ....  149

ORBITAL ENERGIES
----------------

  NO   OCC          E(Eh)            E(eV)
   0   2.0000     -19.160962      -521.3963
   1   2.0000     -19.149401      -521.0817
   2   2.0000     -19.141374      -520.8633
   3   2.0000     -19.109818      -520.0046
   4   2.0000     -10.294678      -280.1324
   5   2.0000     -10.242078      -278.7011
   6   2.0000     -10.235851      -278.5317
   7   2.0000     -10.234111      -278.4843
   8   2.0000     -10.228884      -278.3421
   9   2.0000     -10.227042      -278.2920
  10   2.0000     -10.204843      -277.6879
  11   2.0000     -10.202465      -277.6232
  12   2.0000     -10.178279      -276.9651
  13   2.0000      -1.063068       -28.9276
  14   2.0000      -1.025858       -27.9150
  15   2.0000      -1.007018       -27.4024
  16   2.0000      -0.989423       -26.9236
  17   2.0000      -0.800770       -21.7901
  18   2.0000      -0.777748       -21.1636
  19   2.0000      -0.768090       -20.9008
  20   2.0000      -0.740110       -20.1394
  21   2.0000      -0.685674       -18.6582
  22   2.0000      -0.614265       -16.7150
  23   2.0000      -0.602371       -16.3914
  24   2.0000      -0.596096       -16.2206
  25   2.0000      -0.576030       -15.6746
  26   2.0000      -0.536726       -14.6051
  27   2.0000      -0.514964       -14.0129
  28   2.0000      -0.510670       -13.8960
  29   2.0000      -0.488395       -13.2899
  30   2.0000      -0.476939       -12.9782
  31   2.0000      -0.464012       -12.6264
  32   2.0000      -0.442310       -12.0359
  33   2.0000      -0.436974       -11.8907
  34   2.0000      -0.426540       -11.6068
  35   2.0000      -0.423627       -11.5275
  36   2.0000      -0.410554       -11.1718
  37   2.0000      -0.392642       -10.6843
  38   2.0000      -0.387551       -10.5458
  39   2.0000      -0.373061       -10.1515
  40   2.0000      -0.366639        -9.9767
  41   2.0000      -0.365724        -9.9519
  42   2.0000      -0.346890        -9.4394
  43   2.0000      -0.341701        -9.2982
  44   2.0000      -0.323444        -8.8014
  45   2.0000      -0.312065        -8.4917
  46   2.0000      -0.286858        -7.8058
  47   2.0000      -0.279883        -7.6160
  48   2.0000      -0.269046        -7.3211
  49   2.0000      -0.246337        -6.7032
  50   2.0000      -0.238914        -6.5012
  51   0.0000       0.056207         1.5295
  52   0.0000       0.070998         1.9320
  53   0.0000       0.090891         2.4733
  54   0.0000       0.097596         2.6557
  55   0.0000       0.101162         2.7527

MULLIKEN ATOMIC CHARGES
-----------------------
   0 C :    0.329383
   1 C :   -0.311729
   2 C :   -0.308982
   3 C :   -0.006280
   4 O :   -0.491808
   5 H :    0.167415
   6 H :    0.164368
   7 H :    0.156600
   8 H :    0.151142
   9 H :    0.155582
  10 H :    0.153514
  11 H :    0.150351
  12 C :   -0.025342
  13 H :    0.152829
  14 H :    0.156057
  15 O :   -0.572400
  16 C :    0.060888
  17 C :    0.124896
  18 C :   -0.305497
  19 C :   -0.021507
  20 O :   -0.524394
  21 H :    0.148079
  22 H :    0.145058
  23 O :   -0.641726
  24 H :    0.153529
  25 H :    0.147329
  26 H :    0.141263
  27 H :    0.150082
  28 H :    0.401301
Sum of atomic charges:   -0.0000000

LOEWDIN ATOMIC CHARGES
----------------------
   0 C :    0.185002
   1 C :   -0.232060
   2 C :   -0.220441
   3 C :   -0.028641
   4 O :   -0.308722
   5 H :    0.112183
   6 H :    0.127171
   7 H :    0.119407
   8 H :    0.119243
   9 H :    0.112378
  10 H :    0.108514
  11 H :    0.106928
  12 C :   -0.045305
  13 H :    0.106766
  14 H :    0.111115
  15 O :   -0.342627
  16 C :    0.012518
  17 C :    0.042965
  18 C :   -0.238025
  19 C :   -0.032763
  20 O :   -0.327942
  21 H :    0.109795
  22 H :    0.104333
  23 O :   -0.434538
  24 H :    0.122053
  25 H :    0.111964
  26 H :    0.101247
  27 H :    0.106400
  28 H :    0.291083

  Mayer bond orders larger than 0.100000
B(  0-C ,  1-C ) :   0.9392 B(  0-C ,  4-O ) :   0.9349 B(  0-C ,  5-H ) :   0.9303
B(  0-C , 15-O ) :   0.8156 B(  1-C ,  2-C ) :   0.9489 B(  1-C ,  6-H ) :   0.9320
B(  1-C ,  7-H ) :   0.9266 B(  2-C ,  3-C ) :   0.9487 B(  2-C ,  8-H ) :   0.9448
B(  2-C ,  9-H ) :   0.9410 B(  3-C ,  4-O ) :   0.8384 B(  3-C , 10-H ) :   0.9343
B(  3-C , 11-H ) :   0.9391 B( 12-C , 13-H ) :   0.9295 B( 12-C , 14-H ) :   0.9126
B( 12-C , 15-O ) :   0.7883 B( 12-C , 16-C ) :   0.8902 B( 16-C , 17-C ) :   0.9121
B( 16-C , 20-O ) :   0.8539 B( 16-C , 21-H ) :   0.9320 B( 17-C , 18-C ) :   0.9019
B( 17-C , 22-H ) :   0.9306 B( 17-C , 23-O ) :   0.9408 B( 18-C , 19-C ) :   0.9384
B( 18-C , 24-H ) :   0.9444 B( 18-C , 25-H ) :   0.9423 B( 19-C , 20-O ) :   0.8315
B( 19-C , 26-H ) :   0.9344 B( 19-C , 27-H ) :   0.9384 B( 23-O , 28-H ) :   0.7193

FINAL SINGLE POINT ENERGY      -652.858888834349

DIPOLE MOMENT
-------------
                                X             Y             Z
Electronic contribution:     -1.31176      -4.23293      -1.44610
Nuclear contribution   :      2.40751       5.51993       1.60310
                        -----------------------------------------
Total Dipole Moment    :      1.09575       1.28700       0.15700
                        -----------------------------------------
Magnitude (a.u.)       :      1.69755
Magnitude (Debye)      :      4.31483

Rotational constants in cm-1:     0.054867     0.013692     0.012349
Rotational constants in MHz :  1644.860009   410.473162   370.214475

                             ****ORCA TERMINATED NORMALLY****
TOTAL RUN TIME: 0 days 0 hours 30 minutes 39 seconds 736 msec
