                         Program Version 4.2.1 -  RELEASE  -
|  1> # Test redundant internal optimization
|  2> #
|  3> ! RKS B3LYP  Opt TightSCF SmallPrint
|  4>
|  5> %basis
|  6>         Basis "6-31G"
|  7> end
|  8>
|  9> %geom
| 10> Constraints
| 11> { D 4  0  19  14  45.0   C } # D for Dihedral angle
| 12> { D 0  19  14  12  195.0   C } # D for Dihedral angle
| 13> { D 0  4  3  2   C } # D for Dihedral angle
| 14> { D 4  3  2  1   C } # D for Dihedral angle
| 15> { D 3  2  1  0   C } # D for Dihedral angle
| 16> { D 2  1  0  4   C } # D for Dihedral angle
| 17> { D 1  0  4  3   C } # D for Dihedral angle
| 18> { D 14  15  16  17   C } # D for Dihedral angle
| 19> { D 15  16  17  12   C } # D for Dihedral angle
| 20> { D 16  17  12  14   C } # D for Dihedral angle
| 21> { D 17  12  14  15   C } # D for Dihedral angle
| 22> { D 12  14  15  16   C } # D for Dihedral angle
| 23> end
| 24> end
| 25>
| 26>
| 27> #%pal
| 28> #nprocs 8
| 29> #end
| 30>
| 31> * xyz 0 1
| 32> C  -21.048   26.222   46.251
| 33> C  -20.361   27.558   45.944
| 34> C  -20.329   28.222   47.341
| 35> C  -20.110   27.022   48.296
| 36> O  -20.473   25.807   47.535
| 37> H  -20.833   25.428   45.533
| 38> H  -19.344   27.382   45.576
| 39> H  -20.898   28.157   45.201
| 40> H  -19.543   28.978   47.434
| 41> H  -21.289   28.710   47.548
| 42> H  -20.733   27.082   49.195
| 43> H  -19.064   26.913   48.597
| 44> C  -24.398   26.889   47.765
| 45> H  -24.804   27.636   48.465
| 46> C  -22.896   27.093   47.540
| 47> C  -22.297   26.451   48.813
| 48> C  -23.256   25.267   49.095
| 49> O  -24.498   25.542   48.339
| 50> H  -24.997   26.891   46.852
| 51> O  -22.472   26.381   46.366
| 52> H  -22.618   28.146   47.424
| 53> H  -21.261   26.127   48.679
| 54> H  -22.318   27.170   49.643
| 55> H  -23.498   25.165   50.158
| 56> H  -22.861   24.314   48.728
| 57> *
| 58>
| 59>                          ****END OF INPUT****
 Total Charge           Charge          ....    0
 Multiplicity           Mult            ....    1
 Number of Electrons    NEL             ....   86
FINAL SINGLE POINT ENERGY      -538.273176419573
FINAL SINGLE POINT ENERGY      -538.411162241697
FINAL SINGLE POINT ENERGY      -538.419163075175
FINAL SINGLE POINT ENERGY      -538.421650720969
FINAL SINGLE POINT ENERGY      -538.422399987037
FINAL SINGLE POINT ENERGY      -538.422848514003
FINAL SINGLE POINT ENERGY      -538.422932740660
FINAL SINGLE POINT ENERGY      -538.422950081145
FINAL SINGLE POINT ENERGY      -538.422951834560
                    ***********************HURRAY********************

CARTESIAN COORDINATES (ANGSTROEM)
---------------------------------
  C    -21.039880   26.366611   46.371267
  C    -20.320236   27.632409   45.884293
  C    -19.860723   28.276662   47.222927
  C    -19.529939   27.044134   48.098643
  O    -20.208156   25.887311   47.455987
  H    -21.030378   25.566784   45.628409
  H    -19.455756   27.340918   45.277409
  H    -20.972482   28.275744   45.289626
  H    -18.996918   28.937295   47.102539
  H    -20.674287   28.865220   47.661834
  H    -19.873322   27.144437   49.131593
  H    -18.461155   26.809452   48.103335
  C    -24.583004   26.669376   47.627934
  H    -25.243343   27.319569   48.221410
  C    -23.128692   27.122215   47.751182
  C    -22.732248   26.523557   49.114110
  C    -23.512763   25.191323   49.162631
  O    -24.585484   25.299145   48.146285
  H    -24.921646   26.633672   46.592295
  O    -22.459888   26.519695   46.597919
  H    -23.020184   28.215357   47.724861
  H    -21.665074   26.362854   49.227408
  H    -23.073205   27.207076   49.902149
  H    -23.962646   25.001244   50.143400
  H    -22.887591   24.340939   48.878556

 Multiplicity           Mult            ....    1
 Number of Electrons    NEL             ....   86
 Basis Dimension        Dim             ....  127

ORBITAL ENERGIES
----------------

  NO   OCC          E(Eh)            E(eV)
   0   2.0000     -19.151745      -521.1455
   1   2.0000     -19.138565      -520.7868
   2   2.0000     -19.122444      -520.3482
   3   2.0000     -10.280664      -279.7511
   4   2.0000     -10.242915      -278.7239
   5   2.0000     -10.235464      -278.5211
   6   2.0000     -10.217803      -278.0406
   7   2.0000     -10.214351      -277.9466
   8   2.0000     -10.196921      -277.4723
   9   2.0000     -10.189424      -277.2683
  10   2.0000     -10.181743      -277.0593
  11   2.0000      -1.051890       -28.6234
  12   2.0000      -1.011715       -27.5302
  13   2.0000      -0.988659       -26.9028
  14   2.0000      -0.793639       -21.5960
  15   2.0000      -0.783731       -21.3264
  16   2.0000      -0.741861       -20.1871
  17   2.0000      -0.721488       -19.6327
  18   2.0000      -0.623203       -16.9582
  19   2.0000      -0.606768       -16.5110
  20   2.0000      -0.595133       -16.1944
  21   2.0000      -0.560893       -15.2627
  22   2.0000      -0.519053       -14.1241
  23   2.0000      -0.504806       -13.7365
  24   2.0000      -0.489918       -13.3314
  25   2.0000      -0.484535       -13.1849
  26   2.0000      -0.452630       -12.3167
  27   2.0000      -0.447239       -12.1700
  28   2.0000      -0.425918       -11.5898
  29   2.0000      -0.410916       -11.1816
  30   2.0000      -0.407126       -11.0785
  31   2.0000      -0.385768       -10.4973
  32   2.0000      -0.378562       -10.3012
  33   2.0000      -0.367485        -9.9998
  34   2.0000      -0.363390        -9.8883
  35   2.0000      -0.362178        -9.8554
  36   2.0000      -0.340679        -9.2703
  37   2.0000      -0.323960        -8.8154
  38   2.0000      -0.304386        -8.2828
  39   2.0000      -0.295190        -8.0325
  40   2.0000      -0.266209        -7.2439
  41   2.0000      -0.252264        -6.8645
  42   2.0000      -0.229062        -6.2331
  43   0.0000       0.066965         1.8222
  44   0.0000       0.089382         2.4322
  45   0.0000       0.095260         2.5922
  46   0.0000       0.108057         2.9404
  47   0.0000       0.120277         3.2729

MULLIKEN ATOMIC CHARGES
-----------------------
   0 C :    0.309391
   1 C :   -0.271306
   2 C :   -0.311719
   3 C :   -0.022026
   4 O :   -0.507585
   5 H :    0.171201
   6 H :    0.151942
   7 H :    0.154750
   8 H :    0.149454
   9 H :    0.146877
  10 H :    0.139038
  11 H :    0.153872
  12 C :    0.008522
  13 H :    0.120621
  14 C :    0.074216
  15 C :   -0.319846
  16 C :    0.006422
  17 O :   -0.518803
  18 H :    0.168453
  19 O :   -0.533494
  20 H :    0.126749
  21 H :    0.178730
  22 H :    0.135250
  23 H :    0.129842
  24 H :    0.159450
Sum of atomic charges:   -0.0000000

LOEWDIN ATOMIC CHARGES
----------------------
   0 C :    0.180740
   1 C :   -0.228073
   2 C :   -0.222005
   3 C :   -0.037117
   4 O :   -0.320360
   5 H :    0.114869
   6 H :    0.118462
   7 H :    0.121929
   8 H :    0.118131
   9 H :    0.108589
  10 H :    0.098331
  11 H :    0.107136
  12 C :   -0.033023
  13 H :    0.088862
  14 C :    0.041386
  15 C :   -0.243556
  16 C :   -0.025671
  17 O :   -0.328581
  18 H :    0.123687
  19 O :   -0.326153
  20 H :    0.091854
  21 H :    0.132921
  22 H :    0.110242
  23 H :    0.096283
  24 H :    0.111118

  Mayer bond orders larger than 0.100000
B(  0-C ,  1-C ) :   0.9140 B(  0-C ,  4-O ) :   0.8951 B(  0-C ,  5-H ) :   0.9355
B(  0-C , 19-O ) :   0.8892 B(  1-C ,  2-C ) :   0.9577 B(  1-C ,  6-H ) :   0.9354
B(  1-C ,  7-H ) :   0.9382 B(  2-C ,  3-C ) :   0.9493 B(  2-C ,  8-H ) :   0.9438
B(  2-C ,  9-H ) :   0.9443 B(  3-C ,  4-O ) :   0.8391 B(  3-C , 10-H ) :   0.9227
B(  3-C , 11-H ) :   0.9400 B( 12-C , 13-H ) :   0.9144 B( 12-C , 14-C ) :   0.9334
B( 12-C , 17-O ) :   0.8777 B( 12-C , 18-H ) :   0.9296 B( 14-C , 15-C ) :   0.9389
B( 14-C , 19-O ) :   0.8270 B( 14-C , 20-H ) :   0.9168 B( 15-C , 16-C ) :   0.9446
B( 15-C , 21-H ) :   0.9153 B( 15-C , 22-H ) :   0.9350 B( 16-C , 17-O ) :   0.8573
B( 16-C , 23-H ) :   0.9339 B( 16-C , 24-H ) :   0.9346

FINAL SINGLE POINT ENERGY      -538.422949794770

DIPOLE MOMENT
-------------
                                X             Y             Z
Electronic contribution:     -2.59972      -4.01808      -2.10653
Nuclear contribution   :      3.57243       5.53337       2.47987
                        -----------------------------------------
Total Dipole Moment    :      0.97271       1.51529       0.37334
                        -----------------------------------------
Magnitude (a.u.)       :      1.83893
Magnitude (Debye)      :      4.67418

Rotational constants in cm-1:     0.075596     0.024257     0.022262
Rotational constants in MHz :  2266.317078   727.199744   667.393915

                             ****ORCA TERMINATED NORMALLY****
TOTAL RUN TIME: 0 days 0 hours 11 minutes 47 seconds 404 msec
