                         Program Version 4.2.1 -  RELEASE  -
|  1> # Test redundant internal optimization
|  2> #
|  3> ! RKS B3LYP  Opt TightSCF SmallPrint
|  4>
|  5> %basis
|  6>         Basis "6-31G"
|  7> end
|  8>
|  9> %geom
| 10> Constraints
| 11> { D 4  0  19  14  210.0   C } # D for Dihedral angle
| 12> { D 0  19  14  12  150.0   C } # D for Dihedral angle
| 13> { D 0  4  3  2   C } # D for Dihedral angle
| 14> { D 4  3  2  1   C } # D for Dihedral angle
| 15> { D 3  2  1  0   C } # D for Dihedral angle
| 16> { D 2  1  0  4   C } # D for Dihedral angle
| 17> { D 1  0  4  3   C } # D for Dihedral angle
| 18> { D 14  15  16  17   C } # D for Dihedral angle
| 19> { D 15  16  17  12   C } # D for Dihedral angle
| 20> { D 16  17  12  14   C } # D for Dihedral angle
| 21> { D 17  12  14  15   C } # D for Dihedral angle
| 22> { D 12  14  15  16   C } # D for Dihedral angle
| 23> end
| 24> end
| 25>
| 26>
| 27> #%pal
| 28> #nprocs 8
| 29> #end
| 30>
| 31> * xyz 0 1
| 32> C  -21.048   26.222   46.251
| 33> C  -20.361   27.558   45.944
| 34> C  -20.329   28.222   47.341
| 35> C  -20.110   27.022   48.296
| 36> O  -20.473   25.807   47.535
| 37> H  -20.833   25.428   45.533
| 38> H  -19.344   27.382   45.576
| 39> H  -20.898   28.157   45.201
| 40> H  -19.543   28.978   47.434
| 41> H  -21.289   28.710   47.548
| 42> H  -20.733   27.082   49.195
| 43> H  -19.064   26.913   48.597
| 44> C  -24.596   25.581   45.487
| 45> H  -25.060   25.101   44.611
| 46> C  -23.197   26.114   45.155
| 47> C  -23.530   27.431   44.416
| 48> C  -24.797   27.938   45.152
| 49> O  -25.354   26.775   45.878
| 50> H  -24.629   24.891   46.331
| 51> O  -22.472   26.381   46.366
| 52> H  -22.607   25.422   44.544
| 53> H  -22.711   28.156   44.449
| 54> H  -23.753   27.227   43.361
| 55> H  -25.555   28.328   44.465
| 56> H  -24.568   28.704   45.899
| 57> *
| 58>
| 59>                          ****END OF INPUT****
 Total Charge           Charge          ....    0
 Multiplicity           Mult            ....    1
 Number of Electrons    NEL             ....   86
FINAL SINGLE POINT ENERGY      -538.426952244655
FINAL SINGLE POINT ENERGY      -538.429727903770
FINAL SINGLE POINT ENERGY      -538.429929829627
FINAL SINGLE POINT ENERGY      -538.429975044530
FINAL SINGLE POINT ENERGY      -538.429984692985
FINAL SINGLE POINT ENERGY      -538.429986126192
                    ***********************HURRAY********************

CARTESIAN COORDINATES (ANGSTROEM)
---------------------------------
  C    -20.981440   26.229108   46.210526
  C    -20.285127   27.566088   45.961463
  C    -20.336107   28.222387   47.363924
  C    -20.169532   27.014872   48.310940
  O    -20.490495   25.816471   47.493842
  H    -20.741080   25.436940   45.491979
  H    -19.247531   27.379786   45.658100
  H    -20.767970   28.166631   45.187867
  H    -19.556391   28.976592   47.504831
  H    -21.311158   28.695802   47.513091
  H    -20.846663   27.042113   49.167798
  H    -19.141205   26.888063   48.662154
  C    -24.577993   25.602280   45.538432
  H    -25.085244   25.096800   44.702997
  C    -23.208323   26.127882   45.104931
  C    -23.591681   27.423550   44.361564
  C    -24.807457   27.946349   45.164273
  O    -25.311454   26.800381   45.950054
  H    -24.514803   24.937774   46.400534
  O    -22.426113   26.377260   46.308246
  H    -22.673409   25.416710   44.458415
  H    -22.770034   28.142936   44.322463
  H    -23.876265   27.176933   43.331584
  H    -25.608087   28.320673   44.516367
  H    -24.528438   28.725618   45.878624

 Multiplicity           Mult            ....    1
 Number of Electrons    NEL             ....   86
 Basis Dimension        Dim             ....  127

ORBITAL ENERGIES
----------------

  NO   OCC          E(Eh)            E(eV)
   0   2.0000     -19.139663      -520.8167
   1   2.0000     -19.139626      -520.8157
   2   2.0000     -19.127242      -520.4787
   3   2.0000     -10.281234      -279.7666
   4   2.0000     -10.243480      -278.7393
   5   2.0000     -10.224051      -278.2106
   6   2.0000     -10.221519      -278.1417
   7   2.0000     -10.220054      -278.1018
   8   2.0000     -10.189348      -277.2662
   9   2.0000     -10.187734      -277.2223
  10   2.0000     -10.186504      -277.1889
  11   2.0000      -1.053841       -28.6765
  12   2.0000      -1.014433       -27.6041
  13   2.0000      -0.990026       -26.9400
  14   2.0000      -0.788948       -21.4684
  15   2.0000      -0.780884       -21.2489
  16   2.0000      -0.742412       -20.2021
  17   2.0000      -0.721803       -19.6413
  18   2.0000      -0.608099       -16.5472
  19   2.0000      -0.602301       -16.3894
  20   2.0000      -0.595706       -16.2100
  21   2.0000      -0.580539       -15.7973
  22   2.0000      -0.518527       -14.1098
  23   2.0000      -0.506815       -13.7911
  24   2.0000      -0.484839       -13.1931
  25   2.0000      -0.481093       -13.0912
  26   2.0000      -0.452829       -12.3221
  27   2.0000      -0.446994       -12.1633
  28   2.0000      -0.425706       -11.5841
  29   2.0000      -0.415197       -11.2981
  30   2.0000      -0.410589       -11.1727
  31   2.0000      -0.388791       -10.5795
  32   2.0000      -0.376042       -10.2326
  33   2.0000      -0.365642        -9.9496
  34   2.0000      -0.359668        -9.7871
  35   2.0000      -0.354488        -9.6461
  36   2.0000      -0.349167        -9.5013
  37   2.0000      -0.314139        -8.5481
  38   2.0000      -0.308284        -8.3888
  39   2.0000      -0.297812        -8.1039
  40   2.0000      -0.263212        -7.1624
  41   2.0000      -0.252031        -6.8581
  42   2.0000      -0.231155        -6.2900
  43   0.0000       0.071491         1.9454
  44   0.0000       0.080384         2.1874
  45   0.0000       0.098185         2.6718
  46   0.0000       0.112862         3.0711
  47   0.0000       0.120121         3.2687

MULLIKEN ATOMIC CHARGES
-----------------------
   0 C :    0.296434
   1 C :   -0.266941
   2 C :   -0.300200
   3 C :   -0.000426
   4 O :   -0.501835
   5 H :    0.135762
   6 H :    0.143641
   7 H :    0.141312
   8 H :    0.141742
   9 H :    0.162709
  10 H :    0.157264
  11 H :    0.140775
  12 C :    0.009234
  13 H :    0.121823
  14 C :    0.061914
  15 C :   -0.305813
  16 C :    0.010531
  17 O :   -0.519305
  18 H :    0.173683
  19 O :   -0.503748
  20 H :    0.123140
  21 H :    0.151956
  22 H :    0.143001
  23 H :    0.133835
  24 H :    0.149514
Sum of atomic charges:    0.0000000

LOEWDIN ATOMIC CHARGES
----------------------
   0 C :    0.180261
   1 C :   -0.228755
   2 C :   -0.216907
   3 C :   -0.024830
   4 O :   -0.305597
   5 H :    0.094461
   6 H :    0.113213
   7 H :    0.111921
   8 H :    0.114238
   9 H :    0.119220
  10 H :    0.110951
  11 H :    0.101862
  12 C :   -0.034773
  13 H :    0.090295
  14 C :    0.038119
  15 C :   -0.239456
  16 C :   -0.026933
  17 O :   -0.328066
  18 H :    0.126190
  19 O :   -0.325286
  20 H :    0.094864
  21 H :    0.117613
  22 H :    0.113479
  23 H :    0.097770
  24 H :    0.106146

  Mayer bond orders larger than 0.100000
B(  0-C ,  1-C ) :   0.9315 B(  0-C ,  4-O ) :   0.9367 B(  0-C ,  5-H ) :   0.9169
B(  0-C , 19-O ) :   0.8409 B(  1-C ,  2-C ) :   0.9551 B(  1-C ,  6-H ) :   0.9336
B(  1-C ,  7-H ) :   0.9314 B(  2-C ,  3-C ) :   0.9551 B(  2-C ,  8-H ) :   0.9449
B(  2-C ,  9-H ) :   0.9431 B(  3-C ,  4-O ) :   0.8352 B(  3-C , 10-H ) :   0.9339
B(  3-C , 11-H ) :   0.9397 B( 12-C , 13-H ) :   0.9147 B( 12-C , 14-C ) :   0.9337
B( 12-C , 17-O ) :   0.8698 B( 12-C , 18-H ) :   0.9293 B( 14-C , 15-C ) :   0.9339
B( 14-C , 19-O ) :   0.8403 B( 14-C , 20-H ) :   0.9165 B( 15-C , 16-C ) :   0.9465
B( 15-C , 21-H ) :   0.9337 B( 15-C , 22-H ) :   0.9357 B( 16-C , 17-O ) :   0.8614
B( 16-C , 23-H ) :   0.9330 B( 16-C , 24-H ) :   0.9361

FINAL SINGLE POINT ENERGY      -538.429986626952

DIPOLE MOMENT
-------------
                                X             Y             Z
Electronic contribution:     -1.75574      -3.87963       2.21509
Nuclear contribution   :      2.61623       4.56420      -3.35322
                        -----------------------------------------
Total Dipole Moment    :      0.86049       0.68457      -1.13813
                        -----------------------------------------
Magnitude (a.u.)       :      1.58253
Magnitude (Debye)      :      4.02248

Rotational constants in cm-1:     0.076558     0.020870     0.019815
Rotational constants in MHz :  2295.160768   625.654332   594.034236

                             ****ORCA TERMINATED NORMALLY****
TOTAL RUN TIME: 0 days 0 hours 6 minutes 39 seconds 400 msec
