                         Program Version 4.2.0 -  RELEASE  -
|  1> # Test redundant internal optimization
|  2> #
|  3> ! RKS B3LYP  Opt TightSCF SmallPrint
|  4>
|  5> %basis
|  6>         Basis "6-31G"
|  7> end
|  8>
|  9> %geom
| 10> Constraints
| 11> { D 4  0  15  12  285.0   C } # D for Dihedral angle
| 12> { D 0  15  12  16  330.0   C } # D for Dihedral angle
| 13> { D 0  4  3  2   C } # D for Dihedral angle
| 14> { D 4  3  2  1   C } # D for Dihedral angle
| 15> { D 3  2  1  0   C } # D for Dihedral angle
| 16> { D 2  1  0  4   C } # D for Dihedral angle
| 17> { D 1  0  4  3   C } # D for Dihedral angle
| 18> { D 16  20  19  18   C } # D for Dihedral angle
| 19> { D 20  19  18  17   C } # D for Dihedral angle
| 20> { D 19  18  17  16   C } # D for Dihedral angle
| 21> { D 18  17  16  20   C } # D for Dihedral angle
| 22> { D 17  16  20  19   C } # D for Dihedral angle
| 23> { D 15  12  16  20   C } # D for Dihedral angle
| 24> end
| 25> end
| 26>
| 27>
| 28> #%pal
| 29> #nprocs 8
| 30> #end
| 31>
| 32> * xyz 0 1
| 33> C  -21.048   26.222   46.251
| 34> C  -20.361   27.558   45.944
| 35> C  -20.329   28.222   47.341
| 36> C  -20.110   27.022   48.296
| 37> O  -20.473   25.807   47.535
| 38> H  -20.833   25.428   45.533
| 39> H  -19.344   27.382   45.576
| 40> H  -20.898   28.157   45.201
| 41> H  -19.543   28.978   47.434
| 42> H  -21.289   28.710   47.548
| 43> H  -20.733   27.082   49.195
| 44> H  -19.064   26.913   48.597
| 45> C  -23.396   25.070   46.435
| 46> H  -23.509   24.762   47.482
| 47> H  -24.397   25.213   46.009
| 48> O  -22.586   26.394   46.375
| 49> C  -22.712   23.912   45.657
| 50> C  -23.592   22.657   45.640
| 51> C  -24.613   23.005   44.531
| 52> C  -23.768   23.816   43.518
| 53> O  -22.560   24.265   44.242
| 54> H  -21.708   23.755   46.058
| 55> H  -22.996   21.782   45.357
| 56> O  -24.266   22.366   47.009
| 57> H  -25.068   22.117   44.079
| 58> H  -25.420   23.622   44.943
| 59> H  -24.302   24.693   43.134
| 60> H  -23.431   23.208   42.673
| 61> H  -24.870   23.227   47.314
| 62> *
| 63>
| 64>                          ****END OF INPUT****
 Total Charge           Charge          ....    0
 Multiplicity           Mult            ....    1
 Number of Electrons    NEL             ....  102
FINAL SINGLE POINT ENERGY      -652.829187442138
FINAL SINGLE POINT ENERGY      -652.853630827995
FINAL SINGLE POINT ENERGY      -652.858881483651
FINAL SINGLE POINT ENERGY      -652.859737582433
FINAL SINGLE POINT ENERGY      -652.859892672530
FINAL SINGLE POINT ENERGY      -652.859923860200
FINAL SINGLE POINT ENERGY      -652.859927378903
                    ***********************HURRAY********************

CARTESIAN COORDINATES (ANGSTROEM)
---------------------------------
  C    -20.970052   26.196492   46.212259
  C    -20.421791   27.603938   45.968706
  C    -20.443079   28.203956   47.394829
  C    -20.099522   26.989532   48.287906
  O    -20.353043   25.786493   47.458437
  H    -20.702215   25.455365   45.459870
  H    -19.397162   27.529602   45.586919
  H    -21.030510   28.160984   45.254242
  H    -19.729927   29.024725   47.519141
  H    -21.446266   28.576913   47.619750
  H    -20.714323   26.934770   49.190339
  H    -19.042877   26.957694   48.571176
  C    -23.228892   25.134474   46.391459
  H    -23.365261   24.854667   47.445231
  H    -24.191463   25.456503   45.981800
  O    -22.399107   26.333589   46.333169
  C    -22.700205   23.907571   45.648156
  C    -23.668614   22.710889   45.704345
  C    -24.672422   23.055704   44.559468
  C    -23.765773   23.738526   43.510997
  O    -22.527129   24.151774   44.218913
  H    -21.718014   23.631873   46.039706
  H    -23.120150   21.797306   45.464816
  O    -24.272614   22.441880   46.989630
  H    -25.175563   22.166288   44.172382
  H    -25.440606   23.742881   44.937829
  H    -24.226157   24.621201   43.057101
  H    -23.463049   23.050614   42.715919
  H    -24.933215   23.128795   47.212505

 Multiplicity           Mult            ....    1
 Number of Electrons    NEL             ....  102
 Basis Dimension        Dim             ....  149

ORBITAL ENERGIES
----------------

  NO   OCC          E(Eh)            E(eV)
   0   2.0000     -19.151379      -521.1355
   1   2.0000     -19.142560      -520.8955
   2   2.0000     -19.136939      -520.7426
   3   2.0000     -19.130756      -520.5743
   4   2.0000     -10.267081      -279.3815
   5   2.0000     -10.248301      -278.8704
   6   2.0000     -10.234337      -278.4905
   7   2.0000     -10.233450      -278.4663
   8   2.0000     -10.228383      -278.3284
   9   2.0000     -10.217953      -278.0446
  10   2.0000     -10.197760      -277.4952
  11   2.0000     -10.177390      -276.9409
  12   2.0000     -10.175857      -276.8991
  13   2.0000      -1.046413       -28.4743
  14   2.0000      -1.035534       -28.1783
  15   2.0000      -1.019143       -27.7323
  16   2.0000      -0.985106       -26.8061
  17   2.0000      -0.786411       -21.3993
  18   2.0000      -0.779879       -21.2216
  19   2.0000      -0.763980       -20.7890
  20   2.0000      -0.729173       -19.8418
  21   2.0000      -0.678430       -18.4610
  22   2.0000      -0.614770       -16.7287
  23   2.0000      -0.603050       -16.4098
  24   2.0000      -0.590139       -16.0585
  25   2.0000      -0.558510       -15.1978
  26   2.0000      -0.534025       -14.5316
  27   2.0000      -0.510444       -13.8899
  28   2.0000      -0.495946       -13.4954
  29   2.0000      -0.479400       -13.0451
  30   2.0000      -0.468391       -12.7456
  31   2.0000      -0.453875       -12.3506
  32   2.0000      -0.437468       -11.9041
  33   2.0000      -0.434407       -11.8208
  34   2.0000      -0.430143       -11.7048
  35   2.0000      -0.418821       -11.3967
  36   2.0000      -0.404253       -11.0003
  37   2.0000      -0.395953       -10.7744
  38   2.0000      -0.382910       -10.4195
  39   2.0000      -0.366439        -9.9713
  40   2.0000      -0.356340        -9.6965
  41   2.0000      -0.348049        -9.4709
  42   2.0000      -0.339111        -9.2277
  43   2.0000      -0.332454        -9.0465
  44   2.0000      -0.322651        -8.7798
  45   2.0000      -0.315223        -8.5776
  46   2.0000      -0.293158        -7.9772
  47   2.0000      -0.274256        -7.4629
  48   2.0000      -0.266390        -7.2488
  49   2.0000      -0.242045        -6.5864
  50   2.0000      -0.240968        -6.5571
  51   0.0000       0.050572         1.3761
  52   0.0000       0.077066         2.0971
  53   0.0000       0.089181         2.4267
  54   0.0000       0.095477         2.5981
  55   0.0000       0.102587         2.7915

MULLIKEN ATOMIC CHARGES
-----------------------
   0 C :    0.269741
   1 C :   -0.257111
   2 C :   -0.297281
   3 C :   -0.000579
   4 O :   -0.518011
   5 H :    0.175806
   6 H :    0.142878
   7 H :    0.156014
   8 H :    0.136723
   9 H :    0.159660
  10 H :    0.143005
  11 H :    0.139735
  12 C :    0.018143
  13 H :    0.140819
  14 H :    0.134432
  15 O :   -0.528969
  16 C :    0.040908
  17 C :    0.086918
  18 C :   -0.320684
  19 C :   -0.008661
  20 O :   -0.520423
  21 H :    0.183149
  22 H :    0.168756
  23 O :   -0.595503
  24 H :    0.157962
  25 H :    0.135572
  26 H :    0.147524
  27 H :    0.152503
  28 H :    0.356974
Sum of atomic charges:   -0.0000000

LOEWDIN ATOMIC CHARGES
----------------------
   0 C :    0.167072
   1 C :   -0.212515
   2 C :   -0.216523
   3 C :   -0.027541
   4 O :   -0.336037
   5 H :    0.110891
   6 H :    0.112644
   7 H :    0.123876
   8 H :    0.111102
   9 H :    0.117837
  10 H :    0.103045
  11 H :    0.100994
  12 C :   -0.046839
  13 H :    0.103453
  14 H :    0.103720
  15 O :   -0.320579
  16 C :    0.000428
  17 C :    0.039628
  18 C :   -0.240867
  19 C :   -0.028331
  20 O :   -0.326126
  21 H :    0.124649
  22 H :    0.120066
  23 O :   -0.403035
  24 H :    0.123322
  25 H :    0.105004
  26 H :    0.104898
  27 H :    0.107226
  28 H :    0.278539

  Mayer bond orders larger than 0.100000
B(  0-C ,  1-C ) :   0.9475 B(  0-C ,  4-O ) :   0.8923 B(  0-C ,  5-H ) :   0.9038
B(  0-C , 15-O ) :   0.8605 B(  1-C ,  2-C ) :   0.9561 B(  1-C ,  6-H ) :   0.9417
B(  1-C ,  7-H ) :   0.9371 B(  2-C ,  3-C ) :   0.9554 B(  2-C ,  8-H ) :   0.9458
B(  2-C ,  9-H ) :   0.9447 B(  3-C ,  4-O ) :   0.8406 B(  3-C , 10-H ) :   0.9362
B(  3-C , 11-H ) :   0.9406 B( 12-C , 13-H ) :   0.9038 B( 12-C , 14-H ) :   0.9356
B( 12-C , 15-O ) :   0.8512 B( 12-C , 16-C ) :   0.9005 B( 16-C , 17-C ) :   0.8685
B( 16-C , 20-O ) :   0.8436 B( 16-C , 21-H ) :   0.9183 B( 17-C , 18-C ) :   0.9214
B( 17-C , 22-H ) :   0.9338 B( 17-C , 23-O ) :   0.9053 B( 18-C , 19-C ) :   0.9389
B( 18-C , 24-H ) :   0.9420 B( 18-C , 25-H ) :   0.9407 B( 19-C , 20-O ) :   0.8413
B( 19-C , 26-H ) :   0.9322 B( 19-C , 27-H ) :   0.9377 B( 23-O , 28-H ) :   0.7966

FINAL SINGLE POINT ENERGY      -652.859928270110

DIPOLE MOMENT
-------------
                                X             Y             Z
Electronic contribution:      0.26047      -3.16007       0.35548
Nuclear contribution   :     -1.02506       3.54966      -0.76069
                        -----------------------------------------
Total Dipole Moment    :     -0.76459       0.38959      -0.40521
                        -----------------------------------------
Magnitude (a.u.)       :      0.94899
Magnitude (Debye)      :      2.41213

Rotational constants in cm-1:     0.058139     0.013399     0.012015
Rotational constants in MHz :  1742.950598   401.690632   360.188434

                             ****ORCA TERMINATED NORMALLY****
TOTAL RUN TIME: 0 days 0 hours 23 minutes 45 seconds 1 msec
