                         Program Version 4.2.0 -  RELEASE  -
|  1> # Test redundant internal optimization
|  2> #
|  3> ! RKS B3LYP  Opt TightSCF SmallPrint
|  4>
|  5> %basis
|  6>         Basis "6-31G"
|  7> end
|  8>
|  9> %geom
| 10> Constraints
| 11> { D 4  0  15  12  120.0   C } # D for Dihedral angle
| 12> { D 0  15  12  16  210.0   C } # D for Dihedral angle
| 13> { D 0  4  3  2   C } # D for Dihedral angle
| 14> { D 4  3  2  1   C } # D for Dihedral angle
| 15> { D 3  2  1  0   C } # D for Dihedral angle
| 16> { D 2  1  0  4   C } # D for Dihedral angle
| 17> { D 1  0  4  3   C } # D for Dihedral angle
| 18> { D 16  20  19  18   C } # D for Dihedral angle
| 19> { D 20  19  18  17   C } # D for Dihedral angle
| 20> { D 19  18  17  16   C } # D for Dihedral angle
| 21> { D 18  17  16  20   C } # D for Dihedral angle
| 22> { D 17  16  20  19   C } # D for Dihedral angle
| 23> { D 15  12  16  20   C } # D for Dihedral angle
| 24> end
| 25> end
| 26>
| 27>
| 28> #%pal
| 29> #nprocs 8
| 30> #end
| 31>
| 32> * xyz 0 1
| 33> C  -21.048   26.222   46.251
| 34> C  -20.361   27.558   45.944
| 35> C  -20.329   28.222   47.341
| 36> C  -20.110   27.022   48.296
| 37> O  -20.473   25.807   47.535
| 38> H  -20.833   25.428   45.533
| 39> H  -19.344   27.382   45.576
| 40> H  -20.898   28.157   45.201
| 41> H  -19.543   28.978   47.434
| 42> H  -21.289   28.710   47.548
| 43> H  -20.733   27.082   49.195
| 44> H  -19.064   26.913   48.597
| 45> C  -23.119   27.818   46.058
| 46> H  -22.348   28.557   46.308
| 47> H  -23.350   27.912   44.989
| 48> O  -22.586   26.394   46.375
| 49> C  -24.408   28.168   46.853
| 50> C  -24.133   28.227   48.359
| 51> C  -23.479   29.622   48.505
| 52> C  -24.229   30.473   47.450
| 53> O  -24.866   29.520   46.516
| 54> H  -25.204   27.479   46.564
| 55> O  -25.470   28.163   49.147
| 56> H  -23.487   27.416   48.712
| 57> H  -23.574   30.031   49.515
| 58> H  -22.411   29.563   48.266
| 59> H  -23.558   31.131   46.888
| 60> H  -25.028   31.075   47.891
| 61> H  -26.135   28.968   48.811
| 62> *
| 63>
| 64>                          ****END OF INPUT****
 Total Charge           Charge          ....    0
 Multiplicity           Mult            ....    1
 Number of Electrons    NEL             ....  102
FINAL SINGLE POINT ENERGY      -652.814009804266
FINAL SINGLE POINT ENERGY      -652.839933938711
FINAL SINGLE POINT ENERGY      -652.851808835186
FINAL SINGLE POINT ENERGY      -652.853831216377
FINAL SINGLE POINT ENERGY      -652.854221802571
FINAL SINGLE POINT ENERGY      -652.854276396630
FINAL SINGLE POINT ENERGY      -652.854282959960
                    ***********************HURRAY********************

CARTESIAN COORDINATES (ANGSTROEM)
---------------------------------
  C    -21.199739   26.318206   46.338833
  C    -20.190940   27.385650   45.899057
  C    -19.952210   28.171512   47.219937
  C    -20.040080   27.057869   48.291573
  O    -20.730756   25.918110   47.642411
  H    -21.167478   25.409345   45.734923
  H    -19.272743   26.878750   45.585858
  H    -20.533613   28.011928   45.071095
  H    -18.981277   28.676166   47.230391
  H    -20.721942   28.933649   47.373395
  H    -20.602606   27.358726   49.179775
  H    -19.055025   26.695730   48.598741
  C    -23.125565   27.990873   46.019916
  H    -22.406337   28.794030   46.210358
  H    -23.391247   28.018041   44.956385
  O    -22.603506   26.681119   46.376962
  C    -24.385900   28.211027   46.859511
  C    -24.173893   28.247338   48.379098
  C    -23.663451   29.696066   48.590642
  C    -24.451913   30.506308   47.531429
  O    -24.960741   29.523837   46.541398
  H    -25.132842   27.457462   46.595900
  O    -25.428702   28.021437   49.078614
  H    -23.492872   27.474738   48.730746
  H    -23.860179   30.028198   49.613006
  H    -22.583287   29.754393   48.414593
  H    -23.834247   31.246354   47.012822
  H    -25.322679   31.015353   47.955109
  H    -26.144230   28.515784   48.625523

 Multiplicity           Mult            ....    1
 Number of Electrons    NEL             ....  102
 Basis Dimension        Dim             ....  149

ORBITAL ENERGIES
----------------

  NO   OCC          E(Eh)            E(eV)
   0   2.0000     -19.146853      -521.0124
   1   2.0000     -19.144762      -520.9555
   2   2.0000     -19.143435      -520.9194
   3   2.0000     -19.133987      -520.6623
   4   2.0000     -10.284387      -279.8524
   5   2.0000     -10.235856      -278.5318
   6   2.0000     -10.235234      -278.5149
   7   2.0000     -10.234102      -278.4841
   8   2.0000     -10.232903      -278.4515
   9   2.0000     -10.232626      -278.4439
  10   2.0000     -10.200915      -277.5810
  11   2.0000     -10.200118      -277.5593
  12   2.0000     -10.190683      -277.3026
  13   2.0000      -1.054151       -28.6849
  14   2.0000      -1.036867       -28.2146
  15   2.0000      -1.004160       -27.3246
  16   2.0000      -0.998337       -27.1661
  17   2.0000      -0.796257       -21.6673
  18   2.0000      -0.782861       -21.3027
  19   2.0000      -0.772471       -21.0200
  20   2.0000      -0.735818       -20.0226
  21   2.0000      -0.682630       -18.5753
  22   2.0000      -0.611461       -16.6387
  23   2.0000      -0.605087       -16.4653
  24   2.0000      -0.597683       -16.2638
  25   2.0000      -0.577929       -15.7262
  26   2.0000      -0.528324       -14.3764
  27   2.0000      -0.513350       -13.9690
  28   2.0000      -0.507837       -13.8189
  29   2.0000      -0.496855       -13.5201
  30   2.0000      -0.477037       -12.9808
  31   2.0000      -0.457685       -12.4543
  32   2.0000      -0.452363       -12.3094
  33   2.0000      -0.442951       -12.0533
  34   2.0000      -0.429918       -11.6987
  35   2.0000      -0.416866       -11.3435
  36   2.0000      -0.410626       -11.1737
  37   2.0000      -0.393521       -10.7083
  38   2.0000      -0.388994       -10.5851
  39   2.0000      -0.372937       -10.1481
  40   2.0000      -0.367372        -9.9967
  41   2.0000      -0.359453        -9.7812
  42   2.0000      -0.357073        -9.7164
  43   2.0000      -0.333656        -9.0792
  44   2.0000      -0.319484        -8.6936
  45   2.0000      -0.306383        -8.3371
  46   2.0000      -0.296117        -8.0577
  47   2.0000      -0.277566        -7.5530
  48   2.0000      -0.265636        -7.2283
  49   2.0000      -0.255741        -6.9591
  50   2.0000      -0.246508        -6.7078
  51   0.0000       0.051731         1.4077
  52   0.0000       0.064956         1.7676
  53   0.0000       0.086868         2.3638
  54   0.0000       0.093269         2.5380
  55   0.0000       0.101408         2.7594

MULLIKEN ATOMIC CHARGES
-----------------------
   0 C :    0.321858
   1 C :   -0.304652
   2 C :   -0.318975
   3 C :   -0.006493
   4 O :   -0.494530
   5 H :    0.162134
   6 H :    0.161035
   7 H :    0.151749
   8 H :    0.148726
   9 H :    0.154164
  10 H :    0.147901
  11 H :    0.149025
  12 C :   -0.004081
  13 H :    0.122199
  14 H :    0.151168
  15 O :   -0.535419
  16 C :    0.059898
  17 C :    0.088434
  18 C :   -0.315641
  19 C :   -0.026366
  20 O :   -0.528508
  21 H :    0.172296
  22 O :   -0.602240
  23 H :    0.183945
  24 H :    0.163684
  25 H :    0.145786
  26 H :    0.142116
  27 H :    0.148315
  28 H :    0.362473
Sum of atomic charges:   -0.0000000

LOEWDIN ATOMIC CHARGES
----------------------
   0 C :    0.182620
   1 C :   -0.232025
   2 C :   -0.222923
   3 C :   -0.031414
   4 O :   -0.312252
   5 H :    0.107969
   6 H :    0.125452
   7 H :    0.117806
   8 H :    0.117839
   9 H :    0.105876
  10 H :    0.104438
  11 H :    0.106060
  12 C :   -0.036715
  13 H :    0.091354
  14 H :    0.105865
  15 O :   -0.333067
  16 C :    0.017594
  17 C :    0.038260
  18 C :   -0.245253
  19 C :   -0.037613
  20 O :   -0.331439
  21 H :    0.120976
  22 O :   -0.412905
  23 H :    0.130493
  24 H :    0.127427
  25 H :    0.108759
  26 H :    0.101804
  27 H :    0.103832
  28 H :    0.281181

  Mayer bond orders larger than 0.100000
B(  0-C ,  1-C ) :   0.9309 B(  0-C ,  4-O ) :   0.9146 B(  0-C ,  5-H ) :   0.9316
B(  0-C , 15-O ) :   0.8664 B(  1-C ,  2-C ) :   0.9508 B(  1-C ,  6-H ) :   0.9334
B(  1-C ,  7-H ) :   0.9309 B(  2-C ,  3-C ) :   0.9482 B(  2-C ,  8-H ) :   0.9451
B(  2-C ,  9-H ) :   0.9303 B(  3-C ,  4-O ) :   0.8470 B(  3-C , 10-H ) :   0.9325
B(  3-C , 11-H ) :   0.9386 B( 12-C , 13-H ) :   0.9087 B( 12-C , 14-H ) :   0.9213
B( 12-C , 15-O ) :   0.8285 B( 12-C , 16-C ) :   0.8996 B( 16-C , 17-C ) :   0.9123
B( 16-C , 20-O ) :   0.8423 B( 16-C , 21-H ) :   0.9241 B( 17-C , 18-C ) :   0.9100
B( 17-C , 22-O ) :   0.8880 B( 17-C , 23-H ) :   0.9193 B( 18-C , 19-C ) :   0.9396
B( 18-C , 24-H ) :   0.9382 B( 18-C , 25-H ) :   0.9275 B( 19-C , 20-O ) :   0.8454
B( 19-C , 26-H ) :   0.9359 B( 19-C , 27-H ) :   0.9383 B( 22-O , 28-H ) :   0.7953

FINAL SINGLE POINT ENERGY      -652.854284032360

DIPOLE MOMENT
-------------
                                X             Y             Z
Electronic contribution:     -5.18608      -4.78666      -0.50911
Nuclear contribution   :      6.44790       6.20047       0.06781
                        -----------------------------------------
Total Dipole Moment    :      1.26182       1.41380      -0.44131
                        -----------------------------------------
Magnitude (a.u.)       :      1.94571
Magnitude (Debye)      :      4.94560

Rotational constants in cm-1:     0.046084     0.015465     0.015195
Rotational constants in MHz :  1381.550492   463.615544   455.521949

                             ****ORCA TERMINATED NORMALLY****
TOTAL RUN TIME: 0 days 1 hours 27 minutes 7 seconds 8 msec
