                         Program Version 4.2.0 -  RELEASE  -
|  1> # Test redundant internal optimization
|  2> #
|  3> ! RKS B3LYP  Opt TightSCF SmallPrint
|  4>
|  5> %basis
|  6>         Basis "6-31G"
|  7> end
|  8>
|  9> %geom
| 10> Constraints
| 11> { D 4  0  15  12  285.0   C } # D for Dihedral angle
| 12> { D 0  15  12  16  90.0   C } # D for Dihedral angle
| 13> { D 0  4  3  2   C } # D for Dihedral angle
| 14> { D 4  3  2  1   C } # D for Dihedral angle
| 15> { D 3  2  1  0   C } # D for Dihedral angle
| 16> { D 2  1  0  4   C } # D for Dihedral angle
| 17> { D 1  0  4  3   C } # D for Dihedral angle
| 18> { D 16  20  19  18   C } # D for Dihedral angle
| 19> { D 20  19  18  17   C } # D for Dihedral angle
| 20> { D 19  18  17  16   C } # D for Dihedral angle
| 21> { D 18  17  16  20   C } # D for Dihedral angle
| 22> { D 17  16  20  19   C } # D for Dihedral angle
| 23> { D 15  12  16  20   C } # D for Dihedral angle
| 24> end
| 25> end
| 26>
| 27>
| 28> #%pal
| 29> #nprocs 8
| 30> #end
| 31>
| 32> * xyz 0 1
| 33> C  -21.048   26.222   46.251
| 34> C  -20.361   27.558   45.944
| 35> C  -20.329   28.222   47.341
| 36> C  -20.110   27.022   48.296
| 37> O  -20.473   25.807   47.535
| 38> H  -20.833   25.428   45.533
| 39> H  -19.344   27.382   45.576
| 40> H  -20.898   28.157   45.201
| 41> H  -19.543   28.978   47.434
| 42> H  -21.289   28.710   47.548
| 43> H  -20.733   27.082   49.195
| 44> H  -19.064   26.913   48.597
| 45> C  -23.396   25.070   46.435
| 46> H  -24.385   25.230   45.988
| 47> H  -22.886   24.281   45.867
| 48> O  -22.586   26.394   46.375
| 49> C  -23.594   24.553   47.887
| 50> C  -24.450   25.522   48.711
| 51> C  -25.877   25.170   48.226
| 52> C  -25.799   23.642   47.985
| 53> O  -24.363   23.304   47.885
| 54> H  -22.619   24.328   48.323
| 55> O  -24.294   25.215   50.225
| 56> H  -24.191   26.573   48.545
| 57> H  -26.650   25.440   48.952
| 58> H  -26.097   25.699   47.291
| 59> H  -26.305   23.336   47.063
| 60> H  -26.209   23.067   48.820
| 61> H  -24.549   24.165   50.417
| 62> *
| 63>
| 64>                          ****END OF INPUT****
 Total Charge           Charge          ....    0
 Multiplicity           Mult            ....    1
 Number of Electrons    NEL             ....  102
FINAL SINGLE POINT ENERGY      -652.843402588049
FINAL SINGLE POINT ENERGY      -652.866856198150
FINAL SINGLE POINT ENERGY      -652.870573518598
FINAL SINGLE POINT ENERGY      -652.871276369572
FINAL SINGLE POINT ENERGY      -652.871371054849
FINAL SINGLE POINT ENERGY      -652.871384884480
FINAL SINGLE POINT ENERGY      -652.871387826035
                    ***********************HURRAY********************

CARTESIAN COORDINATES (ANGSTROEM)
---------------------------------
  C    -21.093067   26.121670   46.271628
  C    -20.489149   27.501281   46.003801
  C    -20.526877   28.141160   47.411096
  C    -20.250574   26.944445   48.349658
  O    -20.525815   25.724415   47.543785
  H    -20.833225   25.331547   45.559657
  H    -19.458241   27.381028   45.652400
  H    -21.058415   28.059623   45.258239
  H    -19.788363   28.939673   47.530693
  H    -21.520664   28.558032   47.598507
  H    -20.893712   26.931353   49.232787
  H    -19.204002   26.881002   48.661176
  C    -23.308841   25.050780   46.377405
  H    -24.253013   25.281768   45.875072
  H    -22.803966   24.250045   45.821443
  O    -22.525283   26.282483   46.334254
  C    -23.540150   24.596946   47.821633
  C    -24.353842   25.577009   48.678704
  C    -25.802795   25.250089   48.237338
  C    -25.760610   23.721852   47.985881
  O    -24.328892   23.358879   47.837490
  H    -22.575804   24.375489   48.285529
  O    -24.146328   25.328965   50.097444
  H    -24.074365   26.616780   48.515832
  H    -26.517560   25.533985   49.013965
  H    -26.053714   25.798907   47.323167
  H    -26.300214   23.423181   47.081304
  H    -26.152676   23.146258   48.830399
  H    -24.134843   24.361354   50.255716

 Multiplicity           Mult            ....    1
 Number of Electrons    NEL             ....  102
 Basis Dimension        Dim             ....  149

ORBITAL ENERGIES
----------------

  NO   OCC          E(Eh)            E(eV)
   0   2.0000     -19.149239      -521.0773
   1   2.0000     -19.141999      -520.8803
   2   2.0000     -19.140596      -520.8421
   3   2.0000     -19.133062      -520.6371
   4   2.0000     -10.280855      -279.7563
   5   2.0000     -10.232733      -278.4468
   6   2.0000     -10.229963      -278.3714
   7   2.0000     -10.228637      -278.3354
   8   2.0000     -10.224461      -278.2217
   9   2.0000     -10.224399      -278.2200
  10   2.0000     -10.186157      -277.1794
  11   2.0000     -10.185428      -277.1596
  12   2.0000     -10.184786      -277.1421
  13   2.0000      -1.056501       -28.7489
  14   2.0000      -1.031505       -28.0687
  15   2.0000      -1.001232       -27.2449
  16   2.0000      -0.996319       -27.1112
  17   2.0000      -0.790275       -21.5045
  18   2.0000      -0.775557       -21.1040
  19   2.0000      -0.762711       -20.7544
  20   2.0000      -0.729464       -19.8497
  21   2.0000      -0.672672       -18.3043
  22   2.0000      -0.600311       -16.3353
  23   2.0000      -0.598706       -16.2916
  24   2.0000      -0.595033       -16.1917
  25   2.0000      -0.578357       -15.7379
  26   2.0000      -0.519498       -14.1362
  27   2.0000      -0.516647       -14.0587
  28   2.0000      -0.492333       -13.3971
  29   2.0000      -0.487636       -13.2692
  30   2.0000      -0.468173       -12.7396
  31   2.0000      -0.458051       -12.4642
  32   2.0000      -0.446514       -12.1503
  33   2.0000      -0.438089       -11.9210
  34   2.0000      -0.420034       -11.4297
  35   2.0000      -0.411455       -11.1963
  36   2.0000      -0.400518       -10.8987
  37   2.0000      -0.389577       -10.6009
  38   2.0000      -0.372964       -10.1489
  39   2.0000      -0.364561        -9.9202
  40   2.0000      -0.357166        -9.7190
  41   2.0000      -0.354125        -9.6362
  42   2.0000      -0.348012        -9.4699
  43   2.0000      -0.331117        -9.0102
  44   2.0000      -0.326631        -8.8881
  45   2.0000      -0.306004        -8.3268
  46   2.0000      -0.300160        -8.1678
  47   2.0000      -0.280783        -7.6405
  48   2.0000      -0.265332        -7.2201
  49   2.0000      -0.255975        -6.9654
  50   2.0000      -0.237577        -6.4648
  51   0.0000       0.067035         1.8241
  52   0.0000       0.078665         2.1406
  53   0.0000       0.096156         2.6165
  54   0.0000       0.100251         2.7280
  55   0.0000       0.106573         2.9000

MULLIKEN ATOMIC CHARGES
-----------------------
   0 C :    0.281926
   1 C :   -0.259466
   2 C :   -0.299760
   3 C :   -0.011452
   4 O :   -0.509762
   5 H :    0.145054
   6 H :    0.146484
   7 H :    0.156827
   8 H :    0.142373
   9 H :    0.162283
  10 H :    0.162000
  11 H :    0.143837
  12 C :   -0.031885
  13 H :    0.145801
  14 H :    0.147293
  15 O :   -0.515222
  16 C :    0.051849
  17 C :    0.092340
  18 C :   -0.300512
  19 C :   -0.031081
  20 O :   -0.526341
  21 H :    0.188073
  22 O :   -0.606713
  23 H :    0.166096
  24 H :    0.160261
  25 H :    0.145678
  26 H :    0.143538
  27 H :    0.146888
  28 H :    0.363592
Sum of atomic charges:   -0.0000000

LOEWDIN ATOMIC CHARGES
----------------------
   0 C :    0.170709
   1 C :   -0.214803
   2 C :   -0.215639
   3 C :   -0.029895
   4 O :   -0.330006
   5 H :    0.097828
   6 H :    0.114928
   7 H :    0.124220
   8 H :    0.114137
   9 H :    0.118589
  10 H :    0.112007
  11 H :    0.103711
  12 C :   -0.040725
  13 H :    0.107198
  14 H :    0.106887
  15 O :   -0.324630
  16 C :    0.002062
  17 C :    0.037559
  18 C :   -0.242236
  19 C :   -0.038996
  20 O :   -0.331879
  21 H :    0.127274
  22 O :   -0.416952
  23 H :    0.121807
  24 H :    0.125805
  25 H :    0.113679
  26 H :    0.102384
  27 H :    0.102605
  28 H :    0.282371

  Mayer bond orders larger than 0.100000
B(  0-C ,  1-C ) :   0.9499 B(  0-C ,  4-O ) :   0.9064 B(  0-C ,  5-H ) :   0.9181
B(  0-C , 15-O ) :   0.8601 B(  1-C ,  2-C ) :   0.9564 B(  1-C ,  6-H ) :   0.9400
B(  1-C ,  7-H ) :   0.9364 B(  2-C ,  3-C ) :   0.9548 B(  2-C ,  8-H ) :   0.9452
B(  2-C ,  9-H ) :   0.9442 B(  3-C ,  4-O ) :   0.8303 B(  3-C , 10-H ) :   0.9319
B(  3-C , 11-H ) :   0.9405 B( 12-C , 13-H ) :   0.9405 B( 12-C , 14-H ) :   0.9193
B( 12-C , 15-O ) :   0.8401 B( 12-C , 16-C ) :   0.8824 B( 16-C , 17-C ) :   0.9136
B( 16-C , 20-O ) :   0.8336 B( 16-C , 21-H ) :   0.9116 B( 17-C , 18-C ) :   0.9116
B( 17-C , 22-O ) :   0.8899 B( 17-C , 23-H ) :   0.9265 B( 18-C , 19-C ) :   0.9422
B( 18-C , 24-H ) :   0.9382 B( 18-C , 25-H ) :   0.9345 B( 19-C , 20-O ) :   0.8458
B( 19-C , 26-H ) :   0.9357 B( 19-C , 27-H ) :   0.9379 B( 22-O , 28-H ) :   0.7959

FINAL SINGLE POINT ENERGY      -652.871388309800

DIPOLE MOMENT
-------------
                                X             Y             Z
Electronic contribution:      0.22598      -3.74178       0.89122
Nuclear contribution   :     -0.36359       4.26886      -1.52137
                        -----------------------------------------
Total Dipole Moment    :     -0.13761       0.52708      -0.63015
                        -----------------------------------------
Magnitude (a.u.)       :      0.83297
Magnitude (Debye)      :      2.11725

Rotational constants in cm-1:     0.053100     0.014851     0.013607
Rotational constants in MHz :  1591.885411   445.218910   407.935042

                             ****ORCA TERMINATED NORMALLY****
TOTAL RUN TIME: 0 days 1 hours 11 minutes 5 seconds 602 msec
