                         Program Version 4.2.0 -  RELEASE  -
|  1> # Test redundant internal optimization
|  2> #
|  3> ! RKS B3LYP  Opt TightSCF SmallPrint
|  4>
|  5> %basis
|  6>         Basis "6-31G"
|  7> end
|  8>
|  9> %geom
| 10> Constraints
| 11> { D 4  0  15  12  165.0   C } # D for Dihedral angle
| 12> { D 0  15  12  16  210.0   C } # D for Dihedral angle
| 13> { D 0  4  3  2   C } # D for Dihedral angle
| 14> { D 4  3  2  1   C } # D for Dihedral angle
| 15> { D 3  2  1  0   C } # D for Dihedral angle
| 16> { D 2  1  0  4   C } # D for Dihedral angle
| 17> { D 1  0  4  3   C } # D for Dihedral angle
| 18> { D 16  20  19  18   C } # D for Dihedral angle
| 19> { D 20  19  18  17   C } # D for Dihedral angle
| 20> { D 19  18  17  16   C } # D for Dihedral angle
| 21> { D 18  17  16  20   C } # D for Dihedral angle
| 22> { D 17  16  20  19   C } # D for Dihedral angle
| 23> { D 15  12  16  20   C } # D for Dihedral angle
| 24> end
| 25> end
| 26>
| 27>
| 28> #%pal
| 29> #nprocs 8
| 30> #end
| 31>
| 32> * xyz 0 1
| 33> C  -21.048   26.222   46.251
| 34> C  -20.361   27.558   45.944
| 35> C  -20.329   28.222   47.341
| 36> C  -20.110   27.022   48.296
| 37> O  -20.473   25.807   47.535
| 38> H  -20.833   25.428   45.533
| 39> H  -19.344   27.382   45.576
| 40> H  -20.898   28.157   45.201
| 41> H  -19.543   28.978   47.434
| 42> H  -21.289   28.710   47.548
| 43> H  -20.733   27.082   49.195
| 44> H  -19.064   26.913   48.597
| 45> C  -23.260   27.170   45.210
| 46> H  -22.545   27.890   44.794
| 47> H  -23.557   26.480   44.410
| 48> O  -22.586   26.394   46.375
| 49> C  -24.528   27.946   45.660
| 50> C  -25.231   28.604   44.468
| 51> C  -25.994   27.406   43.853
| 52> C  -26.399   26.573   45.095
| 53> O  -25.529   27.022   46.204
| 54> H  -24.260   28.636   46.463
| 55> H  -25.932   29.370   44.818
| 56> O  -24.244   29.266   43.467
| 57> H  -26.859   27.714   43.257
| 58> H  -25.327   26.829   43.202
| 59> H  -26.258   25.497   44.942
| 60> H  -27.432   26.756   45.402
| 61> H  -23.532   28.518   43.101
| 62> *
| 63>
| 64>                          ****END OF INPUT****
 Total Charge           Charge          ....    0
 Multiplicity           Mult            ....    1
 Number of Electrons    NEL             ....  102
FINAL SINGLE POINT ENERGY      -652.818837348083
FINAL SINGLE POINT ENERGY      -652.842757650006
FINAL SINGLE POINT ENERGY      -652.847825676829
FINAL SINGLE POINT ENERGY      -652.848882572383
FINAL SINGLE POINT ENERGY      -652.849101632658
FINAL SINGLE POINT ENERGY      -652.849168855443
FINAL SINGLE POINT ENERGY      -652.849179073169
FINAL SINGLE POINT ENERGY      -652.849182059518
                    ***********************HURRAY********************

CARTESIAN COORDINATES (ANGSTROEM)
---------------------------------
  C    -21.035865   26.242935   46.195313
  C    -20.232113   27.520147   45.951330
  C    -20.365445   28.252866   47.312668
  C    -20.365447   27.086287   48.322160
  O    -20.690159   25.870931   47.535401
  H    -20.777316   25.401039   45.545698
  H    -19.189057   27.237714   45.766312
  H    -20.564999   28.124670   45.104801
  H    -19.548514   28.959234   47.487661
  H    -21.310793   28.802416   47.352880
  H    -21.112472   27.199441   49.111642
  H    -19.383043   26.914073   48.772109
  C    -23.120696   27.125788   45.086142
  H    -22.468666   27.890359   44.646113
  H    -23.378358   26.399740   44.299611
  O    -22.485627   26.435857   46.190574
  C    -24.368446   27.831886   45.616485
  C    -25.163019   28.574977   44.530914
  C    -26.034181   27.430576   43.930328
  C    -26.340348   26.555759   45.166159
  O    -25.344117   26.921130   46.203653
  H    -24.057749   28.495610   46.428827
  H    -25.796718   29.330381   45.000953
  O    -24.363675   29.308582   43.568720
  H    -26.935609   27.808391   43.441317
  H    -25.449044   26.877512   43.182489
  H    -26.264394   25.483539   44.959998
  H    -27.329806   26.764452   45.584586
  H    -24.022323   28.705706   42.877154

 Multiplicity           Mult            ....    1
 Number of Electrons    NEL             ....  102
 Basis Dimension        Dim             ....  149

ORBITAL ENERGIES
----------------

  NO   OCC          E(Eh)            E(eV)
   0   2.0000     -19.153009      -521.1799
   1   2.0000     -19.136020      -520.7176
   2   2.0000     -19.135396      -520.7006
   3   2.0000     -19.134720      -520.6822
   4   2.0000     -10.277669      -279.6696
   5   2.0000     -10.246775      -278.8289
   6   2.0000     -10.230655      -278.3903
   7   2.0000     -10.230409      -278.3836
   8   2.0000     -10.229788      -278.3667
   9   2.0000     -10.222020      -278.1553
  10   2.0000     -10.197706      -277.4937
  11   2.0000     -10.188882      -277.2536
  12   2.0000     -10.187048      -277.2037
  13   2.0000      -1.049502       -28.5584
  14   2.0000      -1.035348       -28.1733
  15   2.0000      -1.015989       -27.6465
  16   2.0000      -0.988315       -26.8934
  17   2.0000      -0.785875       -21.3847
  18   2.0000      -0.783929       -21.3318
  19   2.0000      -0.768687       -20.9170
  20   2.0000      -0.730723       -19.8840
  21   2.0000      -0.682502       -18.5718
  22   2.0000      -0.613372       -16.6907
  23   2.0000      -0.601247       -16.3608
  24   2.0000      -0.589262       -16.0346
  25   2.0000      -0.573192       -15.5973
  26   2.0000      -0.525658       -14.3039
  27   2.0000      -0.512642       -13.9497
  28   2.0000      -0.502500       -13.6737
  29   2.0000      -0.495215       -13.4755
  30   2.0000      -0.465321       -12.6620
  31   2.0000      -0.456480       -12.4215
  32   2.0000      -0.449885       -12.2420
  33   2.0000      -0.433606       -11.7990
  34   2.0000      -0.429941       -11.6993
  35   2.0000      -0.420671       -11.4470
  36   2.0000      -0.406988       -11.0747
  37   2.0000      -0.398067       -10.8320
  38   2.0000      -0.377934       -10.2841
  39   2.0000      -0.374519       -10.1912
  40   2.0000      -0.357056        -9.7160
  41   2.0000      -0.355305        -9.6684
  42   2.0000      -0.351981        -9.5779
  43   2.0000      -0.330898        -9.0042
  44   2.0000      -0.318421        -8.6647
  45   2.0000      -0.308093        -8.3836
  46   2.0000      -0.293357        -7.9827
  47   2.0000      -0.273348        -7.4382
  48   2.0000      -0.258830        -7.0431
  49   2.0000      -0.249670        -6.7939
  50   2.0000      -0.237415        -6.4604
  51   0.0000       0.047382         1.2893
  52   0.0000       0.074527         2.0280
  53   0.0000       0.084330         2.2947
  54   0.0000       0.088785         2.4160
  55   0.0000       0.104724         2.8497

MULLIKEN ATOMIC CHARGES
-----------------------
   0 C :    0.313163
   1 C :   -0.296432
   2 C :   -0.298302
   3 C :    0.000483
   4 O :   -0.496446
   5 H :    0.141077
   6 H :    0.151154
   7 H :    0.144728
   8 H :    0.143188
   9 H :    0.157438
  10 H :    0.157489
  11 H :    0.141376
  12 C :   -0.014368
  13 H :    0.126419
  14 H :    0.117968
  15 O :   -0.504158
  16 C :    0.100335
  17 C :    0.082144
  18 C :   -0.325386
  19 C :   -0.010521
  20 O :   -0.499399
  21 H :    0.158788
  22 H :    0.167591
  23 O :   -0.601427
  24 H :    0.157646
  25 H :    0.131301
  26 H :    0.150340
  27 H :    0.148480
  28 H :    0.355332
Sum of atomic charges:   -0.0000000

LOEWDIN ATOMIC CHARGES
----------------------
   0 C :    0.184053
   1 C :   -0.235645
   2 C :   -0.216545
   3 C :   -0.025498
   4 O :   -0.300954
   5 H :    0.096698
   6 H :    0.118362
   7 H :    0.112897
   8 H :    0.114840
   9 H :    0.114642
  10 H :    0.111185
  11 H :    0.102217
  12 C :   -0.053065
  13 H :    0.095485
  14 H :    0.087139
  15 O :   -0.321919
  16 C :    0.022461
  17 C :    0.033504
  18 C :   -0.240959
  19 C :   -0.029511
  20 O :   -0.308894
  21 H :    0.116208
  22 H :    0.119188
  23 O :   -0.409737
  24 H :    0.122373
  25 H :    0.102543
  26 H :    0.105807
  27 H :    0.105569
  28 H :    0.277556

  Mayer bond orders larger than 0.100000
B(  0-C ,  1-C ) :   0.9286 B(  0-C ,  4-O ) :   0.9379 B(  0-C ,  5-H ) :   0.9231
B(  0-C , 15-O ) :   0.8398 B(  1-C ,  2-C ) :   0.9502 B(  1-C ,  6-H ) :   0.9332
B(  1-C ,  7-H ) :   0.9265 B(  2-C ,  3-C ) :   0.9547 B(  2-C ,  8-H ) :   0.9450
B(  2-C ,  9-H ) :   0.9441 B(  3-C ,  4-O ) :   0.8358 B(  3-C , 10-H ) :   0.9339
B(  3-C , 11-H ) :   0.9397 B( 12-C , 13-H ) :   0.8897 B( 12-C , 14-H ) :   0.9194
B( 12-C , 15-O ) :   0.8536 B( 12-C , 16-C ) :   0.9052 B( 16-C , 17-C ) :   0.8695
B( 16-C , 20-O ) :   0.8768 B( 16-C , 21-H ) :   0.9296 B( 17-C , 18-C ) :   0.9259
B( 17-C , 22-H ) :   0.9334 B( 17-C , 23-O ) :   0.8913 B( 18-C , 19-C ) :   0.9381
B( 18-C , 24-H ) :   0.9416 B( 18-C , 25-H ) :   0.9404 B( 19-C , 20-O ) :   0.8523
B( 19-C , 26-H ) :   0.9306 B( 19-C , 27-H ) :   0.9378 B( 23-O , 28-H ) :   0.7994

FINAL SINGLE POINT ENERGY      -652.849182260039

DIPOLE MOMENT
-------------
                                X             Y             Z
Electronic contribution:     -1.31388      -2.45184       1.73540
Nuclear contribution   :      1.49587       3.03619      -3.06901
                        -----------------------------------------
Total Dipole Moment    :      0.18199       0.58435      -1.33361
                        -----------------------------------------
Magnitude (a.u.)       :      1.46735
Magnitude (Debye)      :      3.72970

Rotational constants in cm-1:     0.053796     0.013166     0.011868
Rotational constants in MHz :  1612.764672   394.693785   355.805830

                             ****ORCA TERMINATED NORMALLY****
TOTAL RUN TIME: 0 days 0 hours 26 minutes 57 seconds 812 msec
