                         Program Version 4.2.0 -  RELEASE  -
|  1> # Test redundant internal optimization
|  2> #
|  3> ! RKS B3LYP  Opt TightSCF SmallPrint
|  4>
|  5> %basis
|  6>         Basis "6-31G"
|  7> end
|  8>
|  9> %geom
| 10> Constraints
| 11> { D 4  0  15  12  165.0   C } # D for Dihedral angle
| 12> { D 0  15  12  16  225.0   C } # D for Dihedral angle
| 13> { D 0  4  3  2   C } # D for Dihedral angle
| 14> { D 4  3  2  1   C } # D for Dihedral angle
| 15> { D 3  2  1  0   C } # D for Dihedral angle
| 16> { D 2  1  0  4   C } # D for Dihedral angle
| 17> { D 1  0  4  3   C } # D for Dihedral angle
| 18> { D 16  20  19  18   C } # D for Dihedral angle
| 19> { D 20  19  18  17   C } # D for Dihedral angle
| 20> { D 19  18  17  16   C } # D for Dihedral angle
| 21> { D 18  17  16  20   C } # D for Dihedral angle
| 22> { D 17  16  20  19   C } # D for Dihedral angle
| 23> { D 15  12  16  20   C } # D for Dihedral angle
| 24> end
| 25> end
| 26>
| 27>
| 28> #%pal
| 29> #nprocs 8
| 30> #end
| 31>
| 32> * xyz 0 1
| 33> C  -21.048   26.222   46.251
| 34> C  -20.361   27.558   45.944
| 35> C  -20.329   28.222   47.341
| 36> C  -20.110   27.022   48.296
| 37> O  -20.473   25.807   47.535
| 38> H  -20.833   25.428   45.533
| 39> H  -19.344   27.382   45.576
| 40> H  -20.898   28.157   45.201
| 41> H  -19.543   28.978   47.434
| 42> H  -21.289   28.710   47.548
| 43> H  -20.733   27.082   49.195
| 44> H  -19.064   26.913   48.597
| 45> C  -23.260   27.170   45.210
| 46> H  -22.488   27.686   44.625
| 47> H  -23.790   26.478   44.544
| 48> O  -22.586   26.394   46.375
| 49> C  -24.285   28.227   45.707
| 50> C  -25.013   28.890   44.533
| 51> C  -26.065   27.816   44.167
| 52> C  -26.439   27.209   45.543
| 53> O  -25.354   27.581   46.476
| 54> H  -23.783   28.924   46.380
| 55> O  -25.706   30.198   45.005
| 56> H  -24.348   29.135   43.697
| 57> H  -26.932   28.231   43.644
| 58> H  -25.615   27.054   43.519
| 59> H  -26.525   26.117   45.510
| 60> H  -27.367   27.626   45.944
| 61> H  -26.378   29.976   45.842
| 62> *
| 63>
| 64>                          ****END OF INPUT****
 Total Charge           Charge          ....    0
 Multiplicity           Mult            ....    1
 Number of Electrons    NEL             ....  102
FINAL SINGLE POINT ENERGY      -652.823920669969
FINAL SINGLE POINT ENERGY      -652.846994969029
FINAL SINGLE POINT ENERGY      -652.851330991612
FINAL SINGLE POINT ENERGY      -652.852129360074
FINAL SINGLE POINT ENERGY      -652.852238439954
FINAL SINGLE POINT ENERGY      -652.852252388426
                    ***********************HURRAY********************

CARTESIAN COORDINATES (ANGSTROEM)
---------------------------------
  C    -21.067706   26.270160   46.176243
  C    -20.285542   27.559407   45.924967
  C    -20.406609   28.284886   47.291674
  C    -20.374176   27.113870   48.295753
  O    -20.695203   25.897796   47.508231
  H    -20.806902   25.434197   45.520323
  H    -19.242027   27.294104   45.719120
  H    -20.643885   28.162544   45.087334
  H    -19.596093   29.000996   47.456630
  H    -21.357891   28.821598   47.350910
  H    -21.110060   27.213272   49.097361
  H    -19.382402   26.953050   48.728734
  C    -23.186936   27.129388   45.099009
  H    -22.478931   27.682433   44.467459
  H    -23.682686   26.378294   44.468095
  O    -22.520552   26.443957   46.190643
  C    -24.207987   28.115449   45.666703
  C    -25.007023   28.865507   44.592048
  C    -26.119240   27.839110   44.247899
  C    -26.401035   27.162778   45.613321
  O    -25.231660   27.453945   46.476972
  H    -23.693481   28.812998   46.335102
  O    -25.559509   30.099730   45.127542
  H    -24.416343   29.169181   43.726320
  H    -26.994073   28.343591   43.830746
  H    -25.754354   27.115059   43.510454
  H    -26.521718   26.078423   45.532859
  H    -27.282767   27.576171   46.112535
  H    -25.932208   29.921108   46.017012

 Multiplicity           Mult            ....    1
 Number of Electrons    NEL             ....  102
 Basis Dimension        Dim             ....  149

ORBITAL ENERGIES
----------------

  NO   OCC          E(Eh)            E(eV)
   0   2.0000     -19.141317      -520.8617
   1   2.0000     -19.141008      -520.8533
   2   2.0000     -19.138239      -520.7780
   3   2.0000     -19.136206      -520.7226
   4   2.0000     -10.280130      -279.7366
   5   2.0000     -10.245434      -278.7924
   6   2.0000     -10.235869      -278.5322
   7   2.0000     -10.235016      -278.5089
   8   2.0000     -10.230416      -278.3838
   9   2.0000     -10.223893      -278.2063
  10   2.0000     -10.191752      -277.3317
  11   2.0000     -10.191552      -277.3262
  12   2.0000     -10.189411      -277.2680
  13   2.0000      -1.051467       -28.6119
  14   2.0000      -1.037668       -28.2364
  15   2.0000      -1.007867       -27.4254
  16   2.0000      -0.989950       -26.9379
  17   2.0000      -0.788471       -21.4554
  18   2.0000      -0.786189       -21.3933
  19   2.0000      -0.769557       -20.9407
  20   2.0000      -0.733142       -19.9498
  21   2.0000      -0.678396       -18.4601
  22   2.0000      -0.606550       -16.5051
  23   2.0000      -0.604199       -16.4411
  24   2.0000      -0.593947       -16.1621
  25   2.0000      -0.579560       -15.7706
  26   2.0000      -0.522961       -14.2305
  27   2.0000      -0.515901       -14.0384
  28   2.0000      -0.500213       -13.6115
  29   2.0000      -0.494502       -13.4561
  30   2.0000      -0.473188       -12.8761
  31   2.0000      -0.460264       -12.5244
  32   2.0000      -0.454132       -12.3576
  33   2.0000      -0.440981       -11.9997
  34   2.0000      -0.430860       -11.7243
  35   2.0000      -0.411021       -11.1844
  36   2.0000      -0.402525       -10.9533
  37   2.0000      -0.395263       -10.7556
  38   2.0000      -0.377967       -10.2850
  39   2.0000      -0.373868       -10.1735
  40   2.0000      -0.362955        -9.8765
  41   2.0000      -0.356232        -9.6936
  42   2.0000      -0.355209        -9.6657
  43   2.0000      -0.334100        -9.0913
  44   2.0000      -0.313081        -8.5194
  45   2.0000      -0.307534        -8.3684
  46   2.0000      -0.295566        -8.0427
  47   2.0000      -0.273747        -7.4490
  48   2.0000      -0.262982        -7.1561
  49   2.0000      -0.253745        -6.9047
  50   2.0000      -0.238255        -6.4832
  51   0.0000       0.063983         1.7411
  52   0.0000       0.075462         2.0534
  53   0.0000       0.086993         2.3672
  54   0.0000       0.090327         2.4579
  55   0.0000       0.099214         2.6998

MULLIKEN ATOMIC CHARGES
-----------------------
   0 C :    0.310390
   1 C :   -0.294886
   2 C :   -0.301986
   3 C :    0.000537
   4 O :   -0.495728
   5 H :    0.143705
   6 H :    0.152824
   7 H :    0.142099
   8 H :    0.144183
   9 H :    0.158809
  10 H :    0.158892
  11 H :    0.142026
  12 C :   -0.005314
  13 H :    0.117751
  14 H :    0.137314
  15 O :   -0.504086
  16 C :    0.070779
  17 C :    0.074829
  18 C :   -0.300751
  19 C :   -0.029122
  20 O :   -0.505181
  21 H :    0.163277
  22 O :   -0.601969
  23 H :    0.147959
  24 H :    0.163660
  25 H :    0.144889
  26 H :    0.154188
  27 H :    0.144683
  28 H :    0.366228
Sum of atomic charges:   -0.0000000

LOEWDIN ATOMIC CHARGES
----------------------
   0 C :    0.184806
   1 C :   -0.235703
   2 C :   -0.217164
   3 C :   -0.025184
   4 O :   -0.300302
   5 H :    0.097716
   6 H :    0.119157
   7 H :    0.111407
   8 H :    0.115320
   9 H :    0.113901
  10 H :    0.111961
  11 H :    0.102627
  12 C :   -0.043687
  13 H :    0.093142
  14 H :    0.099100
  15 O :   -0.325376
  16 C :    0.015061
  17 C :    0.033544
  18 C :   -0.242139
  19 C :   -0.037941
  20 O :   -0.317701
  21 H :    0.114628
  22 O :   -0.414675
  23 H :    0.113272
  24 H :    0.127009
  25 H :    0.112910
  26 H :    0.108111
  27 H :    0.102098
  28 H :    0.284100

  Mayer bond orders larger than 0.100000
B(  0-C ,  1-C ) :   0.9288 B(  0-C ,  4-O ) :   0.9392 B(  0-C ,  5-H ) :   0.9230
B(  0-C , 15-O ) :   0.8394 B(  1-C ,  2-C ) :   0.9498 B(  1-C ,  6-H ) :   0.9328
B(  1-C ,  7-H ) :   0.9273 B(  2-C ,  3-C ) :   0.9547 B(  2-C ,  8-H ) :   0.9446
B(  2-C ,  9-H ) :   0.9412 B(  3-C ,  4-O ) :   0.8352 B(  3-C , 10-H ) :   0.9336
B(  3-C , 11-H ) :   0.9397 B( 12-C , 13-H ) :   0.9037 B( 12-C , 14-H ) :   0.9235
B( 12-C , 15-O ) :   0.8503 B( 12-C , 16-C ) :   0.8916 B( 16-C , 17-C ) :   0.8946
B( 16-C , 20-O ) :   0.8723 B( 16-C , 21-H ) :   0.9223 B( 17-C , 18-C ) :   0.9131
B( 17-C , 22-O ) :   0.8935 B( 17-C , 23-H ) :   0.9333 B( 18-C , 19-C ) :   0.9398
B( 18-C , 24-H ) :   0.9372 B( 18-C , 25-H ) :   0.9335 B( 19-C , 20-O ) :   0.8512
B( 19-C , 26-H ) :   0.9330 B( 19-C , 27-H ) :   0.9381 B( 22-O , 28-H ) :   0.7931

FINAL SINGLE POINT ENERGY      -652.852254908800

DIPOLE MOMENT
-------------
                                X             Y             Z
Electronic contribution:     -1.53436      -2.19388       2.23156
Nuclear contribution   :      1.82705       2.71711      -3.20567
                        -----------------------------------------
Total Dipole Moment    :      0.29269       0.52323      -0.97411
                        -----------------------------------------
Magnitude (a.u.)       :      1.14382
Magnitude (Debye)      :      2.90736

Rotational constants in cm-1:     0.056705     0.012715     0.012047
Rotational constants in MHz :  1699.975391   381.196428   361.166594

                             ****ORCA TERMINATED NORMALLY****
TOTAL RUN TIME: 0 days 0 hours 19 minutes 53 seconds 391 msec
