                         Program Version 4.2.0 -  RELEASE  -
|  1> # Test redundant internal optimization
|  2> #
|  3> ! RKS B3LYP  Opt TightSCF SmallPrint
|  4>
|  5> %basis
|  6>         Basis "6-31G"
|  7> end
|  8>
|  9> %geom
| 10> Constraints
| 11> { D 4  0  15  12  225.0   C } # D for Dihedral angle
| 12> { D 0  15  12  16  210.0   C } # D for Dihedral angle
| 13> { D 0  4  3  2   C } # D for Dihedral angle
| 14> { D 4  3  2  1   C } # D for Dihedral angle
| 15> { D 3  2  1  0   C } # D for Dihedral angle
| 16> { D 2  1  0  4   C } # D for Dihedral angle
| 17> { D 1  0  4  3   C } # D for Dihedral angle
| 18> { D 16  20  19  18   C } # D for Dihedral angle
| 19> { D 20  19  18  17   C } # D for Dihedral angle
| 20> { D 19  18  17  16   C } # D for Dihedral angle
| 21> { D 18  17  16  20   C } # D for Dihedral angle
| 22> { D 17  16  20  19   C } # D for Dihedral angle
| 23> { D 15  12  16  20   C } # D for Dihedral angle
| 24> end
| 25> end
| 26>
| 27>
| 28> #%pal
| 29> #nprocs 8
| 30> #end
| 31>
| 32> * xyz 0 1
| 33> C  -21.048   26.222   46.251
| 34> C  -20.361   27.558   45.944
| 35> C  -20.329   28.222   47.341
| 36> C  -20.110   27.022   48.296
| 37> O  -20.473   25.807   47.535
| 38> H  -20.833   25.428   45.533
| 39> H  -19.344   27.382   45.576
| 40> H  -20.898   28.157   45.201
| 41> H  -19.543   28.978   47.434
| 42> H  -21.289   28.710   47.548
| 43> H  -20.733   27.082   49.195
| 44> H  -19.064   26.913   48.597
| 45> C  -23.415   25.773   45.218
| 46> H  -22.820   25.788   44.297
| 47> H  -23.669   24.729   45.445
| 48> O  -22.586   26.394   46.375
| 49> C  -24.743   26.536   44.954
| 50> C  -24.476   27.963   44.464
| 51> C  -24.137   27.725   42.973
| 52> C  -25.061   26.542   42.587
| 53> O  -25.484   25.909   43.854
| 54> H  -25.374   26.473   45.842
| 55> O  -25.763   28.823   44.603
| 56> H  -23.668   28.463   45.009
| 57> H  -24.310   28.609   42.352
| 58> H  -23.083   27.443   42.868
| 59> H  -24.551   25.797   41.967
| 60> H  -25.967   26.871   42.072
| 61> H  -26.588   28.342   44.063
| 62> *
| 63>
| 64>                          ****END OF INPUT****
 Total Charge           Charge          ....    0
 Multiplicity           Mult            ....    1
 Number of Electrons    NEL             ....  102
FINAL SINGLE POINT ENERGY      -652.834927061972
FINAL SINGLE POINT ENERGY      -652.857556713493
FINAL SINGLE POINT ENERGY      -652.860902541752
FINAL SINGLE POINT ENERGY      -652.861511115069
FINAL SINGLE POINT ENERGY      -652.861598772682
FINAL SINGLE POINT ENERGY      -652.861608777273
                    ***********************HURRAY********************

CARTESIAN COORDINATES (ANGSTROEM)
---------------------------------
  C    -21.097417   26.172837   46.198987
  C    -20.430204   27.508793   45.876481
  C    -20.494966   28.237131   47.240789
  C    -20.302193   27.087949   48.253365
  O    -20.597151   25.838697   47.504088
  H    -20.842029   25.344468   45.531774
  H    -19.389470   27.333053   45.578454
  H    -20.936151   28.050485   45.073209
  H    -19.731882   29.014851   47.339453
  H    -21.478983   28.698700   47.365928
  H    -20.979526   27.149129   49.108506
  H    -19.271627   27.002304   48.610294
  C    -23.323209   25.707912   45.200248
  H    -22.739740   25.650105   44.269663
  H    -23.605973   24.688288   45.487483
  O    -22.543265   26.335700   46.257838
  C    -24.584483   26.541478   44.978867
  C    -24.348487   27.978765   44.494837
  C    -24.097514   27.762969   42.979855
  C    -25.040117   26.584640   42.630591
  O    -25.388676   25.928530   43.915303
  H    -25.190783   26.534974   45.888519
  O    -25.522763   28.803845   44.731590
  H    -23.530942   28.475133   45.013955
  H    -24.323523   28.671627   42.416296
  H    -23.048588   27.501163   42.800990
  H    -24.574791   25.847105   41.969147
  H    -25.977917   26.917642   42.175257
  H    -26.327632   28.292727   44.502232

 Multiplicity           Mult            ....    1
 Number of Electrons    NEL             ....  102
 Basis Dimension        Dim             ....  149

ORBITAL ENERGIES
----------------

  NO   OCC          E(Eh)            E(eV)
   0   2.0000     -19.147790      -521.0379
   1   2.0000     -19.143996      -520.9346
   2   2.0000     -19.140989      -520.8528
   3   2.0000     -19.138038      -520.7725
   4   2.0000     -10.283099      -279.8174
   5   2.0000     -10.239368      -278.6274
   6   2.0000     -10.234928      -278.5066
   7   2.0000     -10.234843      -278.5042
   8   2.0000     -10.234429      -278.4930
   9   2.0000     -10.225444      -278.2485
  10   2.0000     -10.191586      -277.3271
  11   2.0000     -10.189194      -277.2621
  12   2.0000     -10.187286      -277.2101
  13   2.0000      -1.054296       -28.6889
  14   2.0000      -1.038742       -28.2656
  15   2.0000      -1.006986       -27.4015
  16   2.0000      -0.997092       -27.1323
  17   2.0000      -0.789751       -21.4902
  18   2.0000      -0.781994       -21.2791
  19   2.0000      -0.770251       -20.9596
  20   2.0000      -0.732282       -19.9264
  21   2.0000      -0.677093       -18.4246
  22   2.0000      -0.607010       -16.5176
  23   2.0000      -0.601000       -16.3540
  24   2.0000      -0.591702       -16.1010
  25   2.0000      -0.588102       -16.0031
  26   2.0000      -0.524807       -14.2807
  27   2.0000      -0.520891       -14.1742
  28   2.0000      -0.496350       -13.5064
  29   2.0000      -0.493182       -13.4202
  30   2.0000      -0.473252       -12.8778
  31   2.0000      -0.458267       -12.4701
  32   2.0000      -0.453965       -12.3530
  33   2.0000      -0.441222       -12.0063
  34   2.0000      -0.425700       -11.5839
  35   2.0000      -0.416153       -11.3241
  36   2.0000      -0.405498       -11.0342
  37   2.0000      -0.394903       -10.7458
  38   2.0000      -0.376775       -10.2526
  39   2.0000      -0.371100       -10.0981
  40   2.0000      -0.363339        -9.8869
  41   2.0000      -0.358202        -9.7472
  42   2.0000      -0.353704        -9.6248
  43   2.0000      -0.333053        -9.0628
  44   2.0000      -0.316286        -8.6066
  45   2.0000      -0.313190        -8.5223
  46   2.0000      -0.307273        -8.3613
  47   2.0000      -0.273000        -7.4287
  48   2.0000      -0.265600        -7.2273
  49   2.0000      -0.257472        -7.0062
  50   2.0000      -0.242950        -6.6110
  51   0.0000       0.060802         1.6545
  52   0.0000       0.065268         1.7760
  53   0.0000       0.084018         2.2863
  54   0.0000       0.092804         2.5253
  55   0.0000       0.102931         2.8009

MULLIKEN ATOMIC CHARGES
-----------------------
   0 C :    0.288638
   1 C :   -0.259494
   2 C :   -0.302673
   3 C :   -0.001472
   4 O :   -0.500175
   5 H :    0.140998
   6 H :    0.144524
   7 H :    0.140893
   8 H :    0.143312
   9 H :    0.166133
  10 H :    0.155536
  11 H :    0.141912
  12 C :   -0.003467
  13 H :    0.121396
  14 H :    0.157442
  15 O :   -0.521319
  16 C :    0.059183
  17 C :    0.084897
  18 C :   -0.297200
  19 C :   -0.032019
  20 O :   -0.527405
  21 H :    0.172059
  22 O :   -0.603900
  23 H :    0.168366
  24 H :    0.163322
  25 H :    0.139491
  26 H :    0.147626
  27 H :    0.148813
  28 H :    0.364582
Sum of atomic charges:   -0.0000000

LOEWDIN ATOMIC CHARGES
----------------------
   0 C :    0.178820
   1 C :   -0.225245
   2 C :   -0.216869
   3 C :   -0.025387
   4 O :   -0.309199
   5 H :    0.098988
   6 H :    0.113320
   7 H :    0.112952
   8 H :    0.115070
   9 H :    0.120249
  10 H :    0.110015
  11 H :    0.102500
  12 C :   -0.035594
  13 H :    0.089330
  14 H :    0.110594
  15 O :   -0.339533
  16 C :    0.017039
  17 C :    0.037008
  18 C :   -0.241626
  19 C :   -0.038678
  20 O :   -0.330033
  21 H :    0.121049
  22 O :   -0.414556
  23 H :    0.121694
  24 H :    0.127273
  25 H :    0.110045
  26 H :    0.104197
  27 H :    0.103843
  28 H :    0.282734

  Mayer bond orders larger than 0.100000
B(  0-C ,  1-C ) :   0.9360 B(  0-C ,  4-O ) :   0.9392 B(  0-C ,  5-H ) :   0.9213
B(  0-C , 15-O ) :   0.8327 B(  1-C ,  2-C ) :   0.9557 B(  1-C ,  6-H ) :   0.9348
B(  1-C ,  7-H ) :   0.9367 B(  2-C ,  3-C ) :   0.9541 B(  2-C ,  8-H ) :   0.9449
B(  2-C ,  9-H ) :   0.9422 B(  3-C ,  4-O ) :   0.8356 B(  3-C , 10-H ) :   0.9343
B(  3-C , 11-H ) :   0.9397 B( 12-C , 13-H ) :   0.9203 B( 12-C , 14-H ) :   0.9182
B( 12-C , 15-O ) :   0.8303 B( 12-C , 16-C ) :   0.9047 B( 16-C , 17-C ) :   0.9109
B( 16-C , 20-O ) :   0.8422 B( 16-C , 21-H ) :   0.9241 B( 17-C , 18-C ) :   0.9123
B( 17-C , 22-O ) :   0.8911 B( 17-C , 23-H ) :   0.9227 B( 18-C , 19-C ) :   0.9396
B( 18-C , 24-H ) :   0.9376 B( 18-C , 25-H ) :   0.9350 B( 19-C , 20-O ) :   0.8439
B( 19-C , 26-H ) :   0.9352 B( 19-C , 27-H ) :   0.9377 B( 22-O , 28-H ) :   0.7948

FINAL SINGLE POINT ENERGY      -652.861611399660

DIPOLE MOMENT
-------------
                                X             Y             Z
Electronic contribution:     -3.87172      -3.14517       2.12356
Nuclear contribution   :      4.63048       3.54375      -3.10966
                        -----------------------------------------
Total Dipole Moment    :      0.75876       0.39859      -0.98610
                        -----------------------------------------
Magnitude (a.u.)       :      1.30651
Magnitude (Debye)      :      3.32089

Rotational constants in cm-1:     0.055434     0.012986     0.012155
Rotational constants in MHz :  1661.861392   389.323124   364.388629

                             ****ORCA TERMINATED NORMALLY****
TOTAL RUN TIME: 0 days 0 hours 48 minutes 36 seconds 757 msec
