                         Program Version 4.2.0 -  RELEASE  -
|  1> # Test redundant internal optimization
|  2> #
|  3> ! RKS B3LYP  Opt TightSCF SmallPrint
|  4>
|  5> %basis
|  6>         Basis "6-31G"
|  7> end
|  8>
|  9> %geom
| 10> Constraints
| 11> { D 4  0  15  12  105.0   C } # D for Dihedral angle
| 12> { D 0  15  12  16  105.0   C } # D for Dihedral angle
| 13> { D 0  4  3  2   C } # D for Dihedral angle
| 14> { D 4  3  2  1   C } # D for Dihedral angle
| 15> { D 3  2  1  0   C } # D for Dihedral angle
| 16> { D 2  1  0  4   C } # D for Dihedral angle
| 17> { D 1  0  4  3   C } # D for Dihedral angle
| 18> { D 16  20  19  18   C } # D for Dihedral angle
| 19> { D 20  19  18  17   C } # D for Dihedral angle
| 20> { D 19  18  17  16   C } # D for Dihedral angle
| 21> { D 18  17  16  20   C } # D for Dihedral angle
| 22> { D 17  16  20  19   C } # D for Dihedral angle
| 23> { D 15  12  16  20   C } # D for Dihedral angle
| 24> end
| 25> end
| 26>
| 27>
| 28> #%pal
| 29> #nprocs 8
| 30> #end
| 31>
| 32> * xyz 0 1
| 33> C  -21.048   26.222   46.251
| 34> C  -20.361   27.558   45.944
| 35> C  -20.329   28.222   47.341
| 36> C  -20.110   27.022   48.296
| 37> O  -20.473   25.807   47.535
| 38> H  -20.833   25.428   45.533
| 39> H  -19.344   27.382   45.576
| 40> H  -20.898   28.157   45.201
| 41> H  -19.543   28.978   47.434
| 42> H  -21.289   28.710   47.548
| 43> H  -20.733   27.082   49.195
| 44> H  -19.064   26.913   48.597
| 45> C  -23.085   27.864   46.420
| 46> H  -23.827   27.970   47.221
| 47> H  -22.251   28.546   46.633
| 48> O  -22.586   26.394   46.375
| 49> C  -23.738   28.318   45.086
| 50> C  -22.786   28.113   43.901
| 51> C  -22.937   26.596   43.638
| 52> C  -24.428   26.329   43.959
| 53> O  -24.896   27.476   44.769
| 54> H  -24.107   29.340   45.197
| 55> O  -23.275   28.933   42.677
| 56> H  -21.754   28.405   44.123
| 57> H  -22.674   26.315   42.613
| 58> H  -22.288   26.029   44.317
| 59> H  -24.577   25.404   44.527
| 60> H  -25.050   26.296   43.060
| 61> H  -24.308   28.657   42.436
| 62> *
| 63>
| 64>                          ****END OF INPUT****
 Total Charge           Charge          ....    0
 Multiplicity           Mult            ....    1
 Number of Electrons    NEL             ....  102
FINAL SINGLE POINT ENERGY      -652.790347573646
FINAL SINGLE POINT ENERGY      -652.828807462117
FINAL SINGLE POINT ENERGY      -652.845422148790
FINAL SINGLE POINT ENERGY      -652.848674848249
FINAL SINGLE POINT ENERGY      -652.849144424362
FINAL SINGLE POINT ENERGY      -652.849216971563
FINAL SINGLE POINT ENERGY      -652.849223564930
                    ***********************HURRAY********************

CARTESIAN COORDINATES (ANGSTROEM)
---------------------------------
  C    -21.170557   26.280459   46.498398
  C    -20.199262   27.374513   46.031443
  C    -19.992562   28.209746   47.332584
  C    -20.043151   27.117624   48.430849
  O    -20.687129   25.938951   47.813516
  H    -21.098807   25.356711   45.922234
  H    -19.260887   26.893836   45.736895
  H    -20.556958   27.967124   45.188740
  H    -19.037268   28.743448   47.329783
  H    -20.784305   28.951221   47.466647
  H    -20.619770   27.420256   49.309633
  H    -19.045262   26.803380   48.749838
  C    -23.227503   27.863724   46.416234
  H    -24.039192   27.833485   47.148637
  H    -22.545927   28.676850   46.691561
  O    -22.594951   26.554675   46.504515
  C    -23.858559   28.186761   45.054281
  C    -22.974661   28.226546   43.798033
  C    -22.924554   26.727628   43.396626
  C    -24.338681   26.222029   43.781518
  O    -24.899392   27.214498   44.723323
  H    -24.361788   29.155426   45.173484
  O    -23.599913   29.043056   42.767751
  H    -21.995590   28.677850   43.951612
  H    -22.708001   26.620675   42.330220
  H    -22.157714   26.204199   43.970102
  H    -24.311263   25.248026   44.276149
  H    -25.016313   26.169539   42.922671
  H    -24.542082   28.783765   42.685721

 Multiplicity           Mult            ....    1
 Number of Electrons    NEL             ....  102
 Basis Dimension        Dim             ....  149

ORBITAL ENERGIES
----------------

  NO   OCC          E(Eh)            E(eV)
   0   2.0000     -19.144305      -520.9430
   1   2.0000     -19.142062      -520.8820
   2   2.0000     -19.140534      -520.8404
   3   2.0000     -19.140007      -520.8261
   4   2.0000     -10.285923      -279.8942
   5   2.0000     -10.244613      -278.7701
   6   2.0000     -10.236710      -278.5550
   7   2.0000     -10.236558      -278.5509
   8   2.0000     -10.231261      -278.4068
   9   2.0000     -10.226461      -278.2761
  10   2.0000     -10.200975      -277.5826
  11   2.0000     -10.199671      -277.5472
  12   2.0000     -10.186671      -277.1934
  13   2.0000      -1.053470       -28.6664
  14   2.0000      -1.037333       -28.2273
  15   2.0000      -1.007744       -27.4221
  16   2.0000      -0.995319       -27.0840
  17   2.0000      -0.795121       -21.6363
  18   2.0000      -0.781346       -21.2615
  19   2.0000      -0.772958       -21.0332
  20   2.0000      -0.739789       -20.1307
  21   2.0000      -0.682753       -18.5787
  22   2.0000      -0.614144       -16.7117
  23   2.0000      -0.607766       -16.5382
  24   2.0000      -0.603211       -16.4142
  25   2.0000      -0.569428       -15.4949
  26   2.0000      -0.522590       -14.2204
  27   2.0000      -0.519383       -14.1331
  28   2.0000      -0.510324       -13.8866
  29   2.0000      -0.493052       -13.4166
  30   2.0000      -0.472624       -12.8607
  31   2.0000      -0.456966       -12.4347
  32   2.0000      -0.452333       -12.3086
  33   2.0000      -0.444217       -12.0878
  34   2.0000      -0.430167       -11.7054
  35   2.0000      -0.425344       -11.5742
  36   2.0000      -0.404895       -11.0178
  37   2.0000      -0.393211       -10.6998
  38   2.0000      -0.387033       -10.5317
  39   2.0000      -0.370805       -10.0901
  40   2.0000      -0.369605       -10.0575
  41   2.0000      -0.365912        -9.9570
  42   2.0000      -0.355626        -9.6771
  43   2.0000      -0.331620        -9.0238
  44   2.0000      -0.317676        -8.6444
  45   2.0000      -0.307462        -8.3665
  46   2.0000      -0.294268        -8.0074
  47   2.0000      -0.275599        -7.4994
  48   2.0000      -0.270207        -7.3527
  49   2.0000      -0.258969        -7.0469
  50   2.0000      -0.238857        -6.4996
  51   0.0000       0.061005         1.6600
  52   0.0000       0.070015         1.9052
  53   0.0000       0.087540         2.3821
  54   0.0000       0.091435         2.4881
  55   0.0000       0.104726         2.8497

MULLIKEN ATOMIC CHARGES
-----------------------
   0 C :    0.323315
   1 C :   -0.309609
   2 C :   -0.313055
   3 C :   -0.004835
   4 O :   -0.500603
   5 H :    0.161022
   6 H :    0.161485
   7 H :    0.149019
   8 H :    0.148352
   9 H :    0.154978
  10 H :    0.149069
  11 H :    0.147225
  12 C :   -0.008394
  13 H :    0.174484
  14 H :    0.117136
  15 O :   -0.529513
  16 C :    0.074991
  17 C :    0.064822
  18 C :   -0.289772
  19 C :   -0.021405
  20 O :   -0.521396
  21 H :    0.151552
  22 O :   -0.604361
  23 H :    0.150835
  24 H :    0.153583
  25 H :    0.154716
  26 H :    0.160509
  27 H :    0.140306
  28 H :    0.365543
Sum of atomic charges:    0.0000000

LOEWDIN ATOMIC CHARGES
----------------------
   0 C :    0.177342
   1 C :   -0.234572
   2 C :   -0.221718
   3 C :   -0.030661
   4 O :   -0.312931
   5 H :    0.107087
   6 H :    0.126246
   7 H :    0.113488
   8 H :    0.117453
   9 H :    0.108996
  10 H :    0.105747
  11 H :    0.104871
  12 C :   -0.038090
  13 H :    0.125264
  14 H :    0.093578
  15 O :   -0.327224
  16 C :    0.006770
  17 C :    0.033524
  18 C :   -0.238807
  19 C :   -0.033542
  20 O :   -0.327270
  21 H :    0.114717
  22 O :   -0.415151
  23 H :    0.110307
  24 H :    0.121392
  25 H :    0.118796
  26 H :    0.112880
  27 H :    0.097869
  28 H :    0.283638

  Mayer bond orders larger than 0.100000
B(  0-C ,  1-C ) :   0.9227 B(  0-C ,  4-O ) :   0.9051 B(  0-C ,  5-H ) :   0.9310
B(  0-C , 15-O ) :   0.8756 B(  1-C ,  2-C ) :   0.9523 B(  1-C ,  6-H ) :   0.9333
B(  1-C ,  7-H ) :   0.9186 B(  2-C ,  3-C ) :   0.9462 B(  2-C ,  8-H ) :   0.9449
B(  2-C ,  9-H ) :   0.9358 B(  3-C ,  4-O ) :   0.8472 B(  3-C , 10-H ) :   0.9341
B(  3-C , 11-H ) :   0.9388 B( 12-C , 13-H ) :   0.9284 B( 12-C , 14-H ) :   0.8980
B( 12-C , 15-O ) :   0.8622 B( 12-C , 16-C ) :   0.8886 B( 16-C , 17-C ) :   0.9091
B( 16-C , 20-O ) :   0.8702 B( 16-C , 21-H ) :   0.9162 B( 17-C , 18-C ) :   0.9215
B( 17-C , 22-O ) :   0.8860 B( 17-C , 23-H ) :   0.9222 B( 18-C , 19-C ) :   0.9449
B( 18-C , 24-H ) :   0.9373 B( 18-C , 25-H ) :   0.9223 B( 19-C , 20-O ) :   0.8404
B( 19-C , 26-H ) :   0.9322 B( 19-C , 27-H ) :   0.9357 B( 22-O , 28-H ) :   0.7931

FINAL SINGLE POINT ENERGY      -652.849221409251

DIPOLE MOMENT
-------------
                                X             Y             Z
Electronic contribution:     -4.47897      -1.79741       0.07277
Nuclear contribution   :      5.41980       2.39890      -0.21850
                        -----------------------------------------
Total Dipole Moment    :      0.94083       0.60150      -0.14572
                        -----------------------------------------
Magnitude (a.u.)       :      1.12614
Magnitude (Debye)      :      2.86243

Rotational constants in cm-1:     0.054013     0.015120     0.014224
Rotational constants in MHz :  1619.278349   453.290422   426.414505

                             ****ORCA TERMINATED NORMALLY****
TOTAL RUN TIME: 0 days 0 hours 30 minutes 58 seconds 250 msec
