                         Program Version 4.2.0 -  RELEASE  -
|  1> # Test redundant internal optimization
|  2> #
|  3> ! RKS B3LYP  Opt TightSCF SmallPrint
|  4>
|  5> %basis
|  6>         Basis "6-31G"
|  7> end
|  8>
|  9> %geom
| 10> Constraints
| 11> { D 4  0  15  12  300.0   C } # D for Dihedral angle
| 12> { D 0  15  12  16  300.0   C } # D for Dihedral angle
| 13> { D 0  4  3  2   C } # D for Dihedral angle
| 14> { D 4  3  2  1   C } # D for Dihedral angle
| 15> { D 3  2  1  0   C } # D for Dihedral angle
| 16> { D 2  1  0  4   C } # D for Dihedral angle
| 17> { D 1  0  4  3   C } # D for Dihedral angle
| 18> { D 16  20  19  18   C } # D for Dihedral angle
| 19> { D 20  19  18  17   C } # D for Dihedral angle
| 20> { D 19  18  17  16   C } # D for Dihedral angle
| 21> { D 18  17  16  20   C } # D for Dihedral angle
| 22> { D 17  16  20  19   C } # D for Dihedral angle
| 23> { D 15  12  16  20   C } # D for Dihedral angle
| 24> end
| 25> end
| 26>
| 27>
| 28> #%pal
| 29> #nprocs 8
| 30> #end
| 31>
| 32> * xyz 0 1
| 33> C  -21.048   26.222   46.251
| 34> C  -20.361   27.558   45.944
| 35> C  -20.329   28.222   47.341
| 36> C  -20.110   27.022   48.296
| 37> O  -20.473   25.807   47.535
| 38> H  -20.833   25.428   45.533
| 39> H  -19.344   27.382   45.576
| 40> H  -20.898   28.157   45.201
| 41> H  -19.543   28.978   47.434
| 42> H  -21.289   28.710   47.548
| 43> H  -20.733   27.082   49.195
| 44> H  -19.064   26.913   48.597
| 45> C  -23.362   25.116   46.798
| 46> H  -23.008   24.788   47.783
| 47> H  -24.436   25.326   46.871
| 48> O  -22.586   26.394   46.375
| 49> C  -23.177   23.943   45.796
| 50> C  -24.045   22.740   46.182
| 51> C  -25.434   23.174   45.655
| 52> C  -25.090   23.964   44.367
| 53> O  -23.659   24.324   44.465
| 54> H  -22.112   23.719   45.699
| 55> H  -23.697   21.841   45.660
| 56> O  -24.044   22.451   47.708
| 57> H  -26.098   22.326   45.460
| 58> H  -25.927   23.824   46.387
| 59> H  -25.684   24.879   44.266
| 60> H  -25.210   23.361   43.463
| 61> H  -24.390   23.336   48.252
| 62> *
| 63>
| 64>                          ****END OF INPUT****
 Total Charge           Charge          ....    0
 Multiplicity           Mult            ....    1
 Number of Electrons    NEL             ....  102
FINAL SINGLE POINT ENERGY      -652.830809397759
FINAL SINGLE POINT ENERGY      -652.855119245172
FINAL SINGLE POINT ENERGY      -652.860249477215
FINAL SINGLE POINT ENERGY      -652.861143571140
FINAL SINGLE POINT ENERGY      -652.861301998025
FINAL SINGLE POINT ENERGY      -652.861325590304
FINAL SINGLE POINT ENERGY      -652.861328008223
                    ***********************HURRAY********************

CARTESIAN COORDINATES (ANGSTROEM)
---------------------------------
  C    -21.042634   26.170747   46.229065
  C    -20.441123   27.548845   45.950653
  C    -20.423400   28.175586   47.362964
  C    -20.119846   26.970084   48.280603
  O    -20.430532   25.758200   47.477806
  H    -20.804130   25.396110   45.497479
  H    -19.425758   27.425706   45.557487
  H    -21.036736   28.116139   45.232806
  H    -19.676613   28.969498   47.462762
  H    -21.408036   28.594560   47.588959
  H    -20.727025   26.958550   49.189543
  H    -19.062725   26.899375   48.553631
  C    -23.248874   25.192750   46.763651
  H    -22.925496   24.878794   47.764588
  H    -24.271704   25.576641   46.812338
  O    -22.466677   26.353538   46.355057
  C    -23.155400   23.989964   45.821160
  C    -24.046812   22.812099   46.255415
  C    -25.436841   23.235260   45.685502
  C    -25.058340   23.952798   44.370743
  O    -23.618960   24.303370   44.472103
  H    -22.114240   23.673454   45.720602
  H    -23.700247   21.900289   45.764499
  O    -24.032194   22.487905   47.664593
  H    -26.094955   22.376745   45.528984
  H    -25.931402   23.916835   46.389931
  H    -25.635653   24.866875   44.201451
  H    -25.166898   23.301075   43.498754
  H    -24.480751   23.185208   48.184873

 Multiplicity           Mult            ....    1
 Number of Electrons    NEL             ....  102
 Basis Dimension        Dim             ....  149

ORBITAL ENERGIES
----------------

  NO   OCC          E(Eh)            E(eV)
   0   2.0000     -19.148879      -521.0675
   1   2.0000     -19.139847      -520.8217
   2   2.0000     -19.137421      -520.7557
   3   2.0000     -19.137066      -520.7460
   4   2.0000     -10.271853      -279.5113
   5   2.0000     -10.245329      -278.7896
   6   2.0000     -10.230526      -278.3868
   7   2.0000     -10.230350      -278.3820
   8   2.0000     -10.226208      -278.2693
   9   2.0000     -10.222434      -278.1666
  10   2.0000     -10.195067      -277.4219
  11   2.0000     -10.181202      -277.0446
  12   2.0000     -10.179939      -277.0102
  13   2.0000      -1.050593       -28.5881
  14   2.0000      -1.033035       -28.1103
  15   2.0000      -1.015363       -27.6294
  16   2.0000      -0.988230       -26.8911
  17   2.0000      -0.786074       -21.3902
  18   2.0000      -0.780705       -21.2441
  19   2.0000      -0.763046       -20.7635
  20   2.0000      -0.730653       -19.8821
  21   2.0000      -0.677657       -18.4400
  22   2.0000      -0.610988       -16.6258
  23   2.0000      -0.602459       -16.3937
  24   2.0000      -0.593936       -16.1618
  25   2.0000      -0.560998       -15.2655
  26   2.0000      -0.531143       -14.4531
  27   2.0000      -0.509307       -13.8590
  28   2.0000      -0.496561       -13.5121
  29   2.0000      -0.486267       -13.2320
  30   2.0000      -0.467351       -12.7173
  31   2.0000      -0.453646       -12.3443
  32   2.0000      -0.437721       -11.9110
  33   2.0000      -0.434684       -11.8283
  34   2.0000      -0.427227       -11.6254
  35   2.0000      -0.418593       -11.3905
  36   2.0000      -0.401450       -10.9240
  37   2.0000      -0.399642       -10.8748
  38   2.0000      -0.378274       -10.2934
  39   2.0000      -0.367554       -10.0017
  40   2.0000      -0.355011        -9.6603
  41   2.0000      -0.352334        -9.5875
  42   2.0000      -0.342367        -9.3163
  43   2.0000      -0.332376        -9.0444
  44   2.0000      -0.325991        -8.8707
  45   2.0000      -0.313188        -8.5223
  46   2.0000      -0.293270        -7.9803
  47   2.0000      -0.272842        -7.4244
  48   2.0000      -0.268002        -7.2927
  49   2.0000      -0.250220        -6.8088
  50   2.0000      -0.236024        -6.4225
  51   0.0000       0.052869         1.4386
  52   0.0000       0.080010         2.1772
  53   0.0000       0.089491         2.4352
  54   0.0000       0.092939         2.5290
  55   0.0000       0.105188         2.8623

MULLIKEN ATOMIC CHARGES
-----------------------
   0 C :    0.278143
   1 C :   -0.260523
   2 C :   -0.298478
   3 C :   -0.003990
   4 O :   -0.517255
   5 H :    0.157957
   6 H :    0.144082
   7 H :    0.161547
   8 H :    0.139593
   9 H :    0.160654
  10 H :    0.143132
  11 H :    0.142796
  12 C :   -0.005631
  13 H :    0.144708
  14 H :    0.139056
  15 O :   -0.515832
  16 C :    0.064784
  17 C :    0.085632
  18 C :   -0.329223
  19 C :   -0.006648
  20 O :   -0.511908
  21 H :    0.167377
  22 H :    0.167381
  23 O :   -0.594885
  24 H :    0.160677
  25 H :    0.135524
  26 H :    0.146948
  27 H :    0.148606
  28 H :    0.355776
Sum of atomic charges:   -0.0000000

LOEWDIN ATOMIC CHARGES
----------------------
   0 C :    0.170439
   1 C :   -0.212603
   2 C :   -0.216628
   3 C :   -0.028221
   4 O :   -0.333424
   5 H :    0.101040
   6 H :    0.113488
   7 H :    0.126721
   8 H :    0.112618
   9 H :    0.118336
  10 H :    0.103083
  11 H :    0.102696
  12 C :   -0.052832
  13 H :    0.104987
  14 H :    0.106937
  15 O :   -0.315652
  16 C :    0.005721
  17 C :    0.037579
  18 C :   -0.243659
  19 C :   -0.028652
  20 O :   -0.321051
  21 H :    0.117055
  22 H :    0.119237
  23 O :   -0.403527
  24 H :    0.123736
  25 H :    0.104916
  26 H :    0.104263
  27 H :    0.105812
  28 H :    0.277587

  Mayer bond orders larger than 0.100000
B(  0-C ,  1-C ) :   0.9503 B(  0-C ,  4-O ) :   0.8909 B(  0-C ,  5-H ) :   0.9125
B(  0-C , 15-O ) :   0.8653 B(  1-C ,  2-C ) :   0.9552 B(  1-C ,  6-H ) :   0.9410
B(  1-C ,  7-H ) :   0.9353 B(  2-C ,  3-C ) :   0.9557 B(  2-C ,  8-H ) :   0.9454
B(  2-C ,  9-H ) :   0.9446 B(  3-C ,  4-O ) :   0.8381 B(  3-C , 10-H ) :   0.9363
B(  3-C , 11-H ) :   0.9406 B( 12-C , 13-H ) :   0.9006 B( 12-C , 14-H ) :   0.9404
B( 12-C , 15-O ) :   0.8586 B( 12-C , 16-C ) :   0.8885 B( 16-C , 17-C ) :   0.8691
B( 16-C , 20-O ) :   0.8627 B( 16-C , 21-H ) :   0.9246 B( 17-C , 18-C ) :   0.9212
B( 17-C , 22-H ) :   0.9336 B( 17-C , 23-O ) :   0.9048 B( 18-C , 19-C ) :   0.9393
B( 18-C , 24-H ) :   0.9413 B( 18-C , 25-H ) :   0.9413 B( 19-C , 20-O ) :   0.8472
B( 19-C , 26-H ) :   0.9315 B( 19-C , 27-H ) :   0.9382 B( 23-O , 28-H ) :   0.7967

FINAL SINGLE POINT ENERGY      -652.861328225742

DIPOLE MOMENT
-------------
                                X             Y             Z
Electronic contribution:      0.32494      -3.10675      -0.67097
Nuclear contribution   :     -0.96197       3.63329       0.84905
                        -----------------------------------------
Total Dipole Moment    :     -0.63703       0.52653       0.17808
                        -----------------------------------------
Magnitude (a.u.)       :      0.84543
Magnitude (Debye)      :      2.14892

Rotational constants in cm-1:     0.057562     0.013281     0.011748
Rotational constants in MHz :  1725.655957   398.165088   352.210393

                             ****ORCA TERMINATED NORMALLY****
TOTAL RUN TIME: 0 days 2 hours 8 minutes 10 seconds 324 msec
