                         Program Version 4.2.1 -  RELEASE  -
|  1> # Test redundant internal optimization
|  2> #
|  3> ! RKS B3LYP  Opt TightSCF SmallPrint
|  4>
|  5> %basis
|  6>         Basis "6-31G"
|  7> end
|  8>
|  9> %geom
| 10> Constraints
| 11> { D 4  0  19  14  300.0   C } # D for Dihedral angle
| 12> { D 0  19  14  12  90.0   C } # D for Dihedral angle
| 13> { D 0  4  3  2   C } # D for Dihedral angle
| 14> { D 4  3  2  1   C } # D for Dihedral angle
| 15> { D 3  2  1  0   C } # D for Dihedral angle
| 16> { D 2  1  0  4   C } # D for Dihedral angle
| 17> { D 1  0  4  3   C } # D for Dihedral angle
| 18> { D 14  15  16  17   C } # D for Dihedral angle
| 19> { D 15  16  17  12   C } # D for Dihedral angle
| 20> { D 16  17  12  14   C } # D for Dihedral angle
| 21> { D 17  12  14  15   C } # D for Dihedral angle
| 22> { D 12  14  15  16   C } # D for Dihedral angle
| 23> end
| 24> end
| 25>
| 26>
| 27> #%pal
| 28> #nprocs 8
| 29> #end
| 30>
| 31> * xyz 0 1
| 32> C  -21.048   26.222   46.251
| 33> C  -20.361   27.558   45.944
| 34> C  -20.329   28.222   47.341
| 35> C  -20.110   27.022   48.296
| 36> O  -20.473   25.807   47.535
| 37> H  -20.833   25.428   45.533
| 38> H  -19.344   27.382   45.576
| 39> H  -20.898   28.157   45.201
| 40> H  -19.543   28.978   47.434
| 41> H  -21.289   28.710   47.548
| 42> H  -20.733   27.082   49.195
| 43> H  -19.064   26.913   48.597
| 44> C  -23.275   25.118   48.286
| 45> H  -23.536   24.103   48.623
| 46> C  -23.171   25.189   46.758
| 47> C  -24.660   25.268   46.346
| 48> C  -25.296   26.105   47.483
| 49> O  -24.349   26.061   48.619
| 50> H  -22.381   25.452   48.816
| 51> O  -22.472   26.381   46.366
| 52> H  -22.655   24.327   46.322
| 53> H  -24.805   25.723   45.361
| 54> H  -25.097   24.262   46.316
| 55> H  -26.264   25.707   47.808
| 56> H  -25.420   27.157   47.209
| 57> *
| 58>
| 59>                          ****END OF INPUT****
 Total Charge           Charge          ....    0
 Multiplicity           Mult            ....    1
 Number of Electrons    NEL             ....   86
FINAL SINGLE POINT ENERGY      -538.436183753955
FINAL SINGLE POINT ENERGY      -538.439261601681
FINAL SINGLE POINT ENERGY      -538.439643064143
FINAL SINGLE POINT ENERGY      -538.439703529839
FINAL SINGLE POINT ENERGY      -538.439715821743
                    ***********************HURRAY********************

CARTESIAN COORDINATES (ANGSTROEM)
---------------------------------
  C    -20.998245   26.180425   46.269045
  C    -20.432289   27.563673   45.944803
  C    -20.409799   28.228250   47.339331
  C    -20.066370   27.056976   48.286290
  O    -20.360688   25.814678   47.519329
  H    -20.746519   25.377963   45.566155
  H    -19.419724   27.452323   45.540841
  H    -21.050266   28.098926   45.221123
  H    -19.681543   29.042322   47.406820
  H    -21.401525   28.627326   47.569923
  H    -20.665803   27.058005   49.200187
  H    -19.005195   27.014589   48.548180
  C    -23.321236   25.044196   48.314749
  H    -23.666692   24.040627   48.607692
  C    -23.164084   25.121794   46.796566
  C    -24.623303   25.314274   46.342497
  C    -25.235514   26.184586   47.466417
  O    -24.329747   26.057605   48.628045
  H    -22.410213   25.290824   48.855524
  O    -22.429024   26.312483   46.373631
  H    -22.693219   24.225451   46.371933
  H    -24.668448   25.790963   45.360863
  H    -25.118736   24.338498   46.282777
  H    -26.239580   25.853447   47.754006
  H    -25.268240   27.243796   47.197274

 Multiplicity           Mult            ....    1
 Number of Electrons    NEL             ....   86
 Basis Dimension        Dim             ....  127

ORBITAL ENERGIES
----------------

  NO   OCC          E(Eh)            E(eV)
   0   2.0000     -19.143409      -520.9186
   1   2.0000     -19.141820      -520.8754
   2   2.0000     -19.123213      -520.3691
   3   2.0000     -10.278577      -279.6943
   4   2.0000     -10.237026      -278.5636
   5   2.0000     -10.224284      -278.2169
   6   2.0000     -10.216310      -277.9999
   7   2.0000     -10.212980      -277.9093
   8   2.0000     -10.184418      -277.1321
   9   2.0000     -10.182917      -277.0913
  10   2.0000     -10.182487      -277.0796
  11   2.0000      -1.054887       -28.7049
  12   2.0000      -1.009863       -27.4798
  13   2.0000      -0.989341       -26.9213
  14   2.0000      -0.792086       -21.5537
  15   2.0000      -0.774372       -21.0717
  16   2.0000      -0.734792       -19.9947
  17   2.0000      -0.718498       -19.5513
  18   2.0000      -0.608060       -16.5462
  19   2.0000      -0.598113       -16.2755
  20   2.0000      -0.590708       -16.0740
  21   2.0000      -0.573951       -15.6180
  22   2.0000      -0.516176       -14.0459
  23   2.0000      -0.502948       -13.6859
  24   2.0000      -0.479834       -13.0569
  25   2.0000      -0.477169       -12.9844
  26   2.0000      -0.450467       -12.2578
  27   2.0000      -0.443630       -12.0718
  28   2.0000      -0.424723       -11.5573
  29   2.0000      -0.407820       -11.0974
  30   2.0000      -0.405859       -11.0440
  31   2.0000      -0.384586       -10.4651
  32   2.0000      -0.366306        -9.9677
  33   2.0000      -0.362928        -9.8758
  34   2.0000      -0.356101        -9.6900
  35   2.0000      -0.351441        -9.5632
  36   2.0000      -0.340131        -9.2554
  37   2.0000      -0.327494        -8.9116
  38   2.0000      -0.301513        -8.2046
  39   2.0000      -0.298695        -8.1279
  40   2.0000      -0.267736        -7.2855
  41   2.0000      -0.252620        -6.8741
  42   2.0000      -0.229838        -6.2542
  43   0.0000       0.082552         2.2464
  44   0.0000       0.094219         2.5638
  45   0.0000       0.101686         2.7670
  46   0.0000       0.116314         3.1651
  47   0.0000       0.123483         3.3602

MULLIKEN ATOMIC CHARGES
-----------------------
   0 C :    0.290436
   1 C :   -0.263872
   2 C :   -0.298513
   3 C :   -0.010152
   4 O :   -0.517600
   5 H :    0.142130
   6 H :    0.144374
   7 H :    0.158244
   8 H :    0.140744
   9 H :    0.170043
  10 H :    0.152141
  11 H :    0.143980
  12 C :    0.003598
  13 H :    0.116371
  14 C :    0.075258
  15 C :   -0.291541
  16 C :    0.004122
  17 O :   -0.524264
  18 H :    0.177104
  19 O :   -0.519421
  20 H :    0.125806
  21 H :    0.156520
  22 H :    0.141248
  23 H :    0.131687
  24 H :    0.151558
Sum of atomic charges:   -0.0000000

LOEWDIN ATOMIC CHARGES
----------------------
   0 C :    0.172703
   1 C :   -0.214435
   2 C :   -0.215716
   3 C :   -0.029570
   4 O :   -0.333692
   5 H :    0.094137
   6 H :    0.113841
   7 H :    0.124942
   8 H :    0.113555
   9 H :    0.123101
  10 H :    0.106719
  11 H :    0.103361
  12 C :   -0.043653
  13 H :    0.088818
  14 C :    0.040713
  15 C :   -0.225040
  16 C :   -0.027895
  17 O :   -0.333623
  18 H :    0.124945
  19 O :   -0.321621
  20 H :    0.098141
  21 H :    0.125117
  22 H :    0.112126
  23 H :    0.096350
  24 H :    0.106673

  Mayer bond orders larger than 0.100000
B(  0-C ,  1-C ) :   0.9498 B(  0-C ,  4-O ) :   0.8950 B(  0-C ,  5-H ) :   0.9196
B(  0-C , 19-O ) :   0.8686 B(  1-C ,  2-C ) :   0.9568 B(  1-C ,  6-H ) :   0.9399
B(  1-C ,  7-H ) :   0.9361 B(  2-C ,  3-C ) :   0.9561 B(  2-C ,  8-H ) :   0.9450
B(  2-C ,  9-H ) :   0.9424 B(  3-C ,  4-O ) :   0.8326 B(  3-C , 10-H ) :   0.9318
B(  3-C , 11-H ) :   0.9410 B( 12-C , 13-H ) :   0.9125 B( 12-C , 14-C ) :   0.9163
B( 12-C , 17-O ) :   0.8676 B( 12-C , 18-H ) :   0.9213 B( 14-C , 15-C ) :   0.9584
B( 14-C , 19-O ) :   0.8228 B( 14-C , 20-H ) :   0.9199 B( 15-C , 16-C ) :   0.9467
B( 15-C , 21-H ) :   0.9384 B( 15-C , 22-H ) :   0.9421 B( 16-C , 17-O ) :   0.8572
B( 16-C , 23-H ) :   0.9333 B( 16-C , 24-H ) :   0.9367

FINAL SINGLE POINT ENERGY      -538.439717124031

DIPOLE MOMENT
-------------
                                X             Y             Z
Electronic contribution:     -0.02058      -1.72485       0.73477
Nuclear contribution   :      0.28035       1.72043      -1.49784
                        -----------------------------------------
Total Dipole Moment    :      0.25977      -0.00442      -0.76307
                        -----------------------------------------
Magnitude (a.u.)       :      0.80609
Magnitude (Debye)      :      2.04892

Rotational constants in cm-1:     0.072334     0.023517     0.022223
Rotational constants in MHz :  2168.528816   705.022254   666.218799

                             ****ORCA TERMINATED NORMALLY****
TOTAL RUN TIME: 0 days 0 hours 5 minutes 59 seconds 174 msec
