                         Program Version 4.2.0 -  RELEASE  -
|  1> # Test redundant internal optimization
|  2> #
|  3> ! RKS B3LYP  Opt TightSCF SmallPrint
|  4>
|  5> %basis
|  6>         Basis "6-31G"
|  7> end
|  8>
|  9> %geom
| 10> Constraints
| 11> { D 4  0  15  12  285.0   C } # D for Dihedral angle
| 12> { D 0  15  12  16  255.0   C } # D for Dihedral angle
| 13> { D 0  4  3  2   C } # D for Dihedral angle
| 14> { D 4  3  2  1   C } # D for Dihedral angle
| 15> { D 3  2  1  0   C } # D for Dihedral angle
| 16> { D 2  1  0  4   C } # D for Dihedral angle
| 17> { D 1  0  4  3   C } # D for Dihedral angle
| 18> { D 16  20  19  18   C } # D for Dihedral angle
| 19> { D 20  19  18  17   C } # D for Dihedral angle
| 20> { D 19  18  17  16   C } # D for Dihedral angle
| 21> { D 18  17  16  20   C } # D for Dihedral angle
| 22> { D 17  16  20  19   C } # D for Dihedral angle
| 23> { D 15  12  16  20   C } # D for Dihedral angle
| 24> end
| 25> end
| 26>
| 27>
| 28> #%pal
| 29> #nprocs 8
| 30> #end
| 31>
| 32> * xyz 0 1
| 33> C  -21.048   26.222   46.251
| 34> C  -20.361   27.558   45.944
| 35> C  -20.329   28.222   47.341
| 36> C  -20.110   27.022   48.296
| 37> O  -20.473   25.807   47.535
| 38> H  -20.833   25.428   45.533
| 39> H  -19.344   27.382   45.576
| 40> H  -20.898   28.157   45.201
| 41> H  -19.543   28.978   47.434
| 42> H  -21.289   28.710   47.548
| 43> H  -20.733   27.082   49.195
| 44> H  -19.064   26.913   48.597
| 45> C  -23.396   25.070   46.435
| 46> H  -22.715   24.239   46.655
| 47> H  -24.149   25.116   47.232
| 48> O  -22.586   26.394   46.375
| 49> C  -24.135   24.757   45.105
| 50> C  -23.143   24.506   43.963
| 51> C  -22.705   23.049   44.242
| 52> C  -23.996   22.393   44.794
| 53> O  -24.881   23.499   45.217
| 54> H  -24.864   25.545   44.906
| 55> H  -23.656   24.578   42.997
| 56> O  -21.952   25.504   43.959
| 57> H  -22.328   22.541   43.349
| 58> H  -21.910   23.033   44.997
| 59> H  -23.802   21.741   45.651
| 60> H  -24.533   21.824   44.031
| 61> H  -21.424   25.449   44.917
| 62> *
| 63>
| 64>                          ****END OF INPUT****
 Total Charge           Charge          ....    0
 Multiplicity           Mult            ....    1
 Number of Electrons    NEL             ....  102
FINAL SINGLE POINT ENERGY      -652.767837160498
FINAL SINGLE POINT ENERGY      -652.831280949742
FINAL SINGLE POINT ENERGY      -652.851576261419
FINAL SINGLE POINT ENERGY      -652.855863359980
FINAL SINGLE POINT ENERGY      -652.856692374663
FINAL SINGLE POINT ENERGY      -652.856905648131
FINAL SINGLE POINT ENERGY      -652.856947609668
FINAL SINGLE POINT ENERGY      -652.856967481180
FINAL SINGLE POINT ENERGY      -652.856973234153
FINAL SINGLE POINT ENERGY      -652.856977198631
FINAL SINGLE POINT ENERGY      -652.856980135916
FINAL SINGLE POINT ENERGY      -652.856981495590
                    ***********************HURRAY********************

CARTESIAN COORDINATES (ANGSTROEM)
---------------------------------
  C    -21.009308   26.196659   46.332104
  C    -20.381903   27.562274   46.052806
  C    -20.418025   28.216805   47.451178
  C    -20.167116   27.027666   48.405375
  O    -20.456429   25.803216   47.613067
  H    -20.726575   25.385844   45.651773
  H    -19.349969   27.424389   45.710087
  H    -20.939689   28.118038   45.296990
  H    -19.667995   29.005408   47.565187
  H    -21.406870   28.649810   47.626713
  H    -20.815432   27.039343   49.285064
  H    -19.123940   26.951283   48.726008
  C    -23.259539   25.175356   46.434463
  H    -22.655857   24.325878   46.781554
  H    -24.029795   25.357444   47.187194
  O    -22.429880   26.376314   46.384052
  C    -23.980531   24.822076   45.117149
  C    -23.179524   24.463129   43.848648
  C    -22.745259   22.990677   44.146391
  C    -23.960351   22.435901   44.922574
  O    -24.735549   23.602797   45.408582
  H    -24.710859   25.604412   44.893220
  H    -23.890690   24.460934   43.017090
  O    -22.140848   25.355649   43.405608
  H    -22.535699   22.432525   43.230396
  H    -21.836619   22.986041   44.762687
  H    -23.674294   21.818021   45.779594
  H    -24.629201   21.855760   44.279293
  H    -21.342254   25.275351   43.961153

 Multiplicity           Mult            ....    1
 Number of Electrons    NEL             ....  102
 Basis Dimension        Dim             ....  149

ORBITAL ENERGIES
----------------

  NO   OCC          E(Eh)            E(eV)
   0   2.0000     -19.147236      -521.0228
   1   2.0000     -19.146543      -521.0039
   2   2.0000     -19.142838      -520.9031
   3   2.0000     -19.142310      -520.8887
   4   2.0000     -10.286489      -279.9096
   5   2.0000     -10.244739      -278.7735
   6   2.0000     -10.232999      -278.4541
   7   2.0000     -10.231281      -278.4073
   8   2.0000     -10.227869      -278.3145
   9   2.0000     -10.226681      -278.2821
  10   2.0000     -10.194834      -277.4155
  11   2.0000     -10.187336      -277.2115
  12   2.0000     -10.186258      -277.1822
  13   2.0000      -1.057692       -28.7813
  14   2.0000      -1.034052       -28.1380
  15   2.0000      -1.018989       -27.7281
  16   2.0000      -0.996347       -27.1120
  17   2.0000      -0.790730       -21.5169
  18   2.0000      -0.780446       -21.2370
  19   2.0000      -0.766042       -20.8451
  20   2.0000      -0.733339       -19.9552
  21   2.0000      -0.680007       -18.5039
  22   2.0000      -0.614489       -16.7211
  23   2.0000      -0.601648       -16.3717
  24   2.0000      -0.597025       -16.2459
  25   2.0000      -0.575027       -15.6473
  26   2.0000      -0.530311       -14.4305
  27   2.0000      -0.521561       -14.1924
  28   2.0000      -0.498927       -13.5765
  29   2.0000      -0.490422       -13.3451
  30   2.0000      -0.468054       -12.7364
  31   2.0000      -0.455766       -12.4020
  32   2.0000      -0.442541       -12.0422
  33   2.0000      -0.433113       -11.7856
  34   2.0000      -0.432247       -11.7620
  35   2.0000      -0.416826       -11.3424
  36   2.0000      -0.410263       -11.1638
  37   2.0000      -0.402588       -10.9550
  38   2.0000      -0.380243       -10.3469
  39   2.0000      -0.367163        -9.9910
  40   2.0000      -0.359225        -9.7750
  41   2.0000      -0.354235        -9.6392
  42   2.0000      -0.349720        -9.5164
  43   2.0000      -0.332432        -9.0459
  44   2.0000      -0.327453        -8.9104
  45   2.0000      -0.315161        -8.5760
  46   2.0000      -0.300813        -8.1855
  47   2.0000      -0.277928        -7.5628
  48   2.0000      -0.267053        -7.2669
  49   2.0000      -0.258969        -7.0469
  50   2.0000      -0.238947        -6.5021
  51   0.0000       0.040433         1.1002
  52   0.0000       0.075599         2.0572
  53   0.0000       0.084762         2.3065
  54   0.0000       0.091696         2.4952
  55   0.0000       0.100214         2.7270

MULLIKEN ATOMIC CHARGES
-----------------------
   0 C :    0.287620
   1 C :   -0.259648
   2 C :   -0.298484
   3 C :   -0.003965
   4 O :   -0.516817
   5 H :    0.101785
   6 H :    0.142622
   7 H :    0.169031
   8 H :    0.142452
   9 H :    0.166998
  10 H :    0.150424
  11 H :    0.142247
  12 C :   -0.026741
  13 H :    0.142696
  14 H :    0.171361
  15 O :   -0.512477
  16 C :    0.082262
  17 C :    0.091229
  18 C :   -0.329687
  19 C :   -0.014417
  20 O :   -0.519341
  21 H :    0.160858
  22 H :    0.169087
  23 O :   -0.600839
  24 H :    0.157918
  25 H :    0.140000
  26 H :    0.148163
  27 H :    0.152342
  28 H :    0.363322
Sum of atomic charges:   -0.0000000

LOEWDIN ATOMIC CHARGES
----------------------
   0 C :    0.168372
   1 C :   -0.215205
   2 C :   -0.214687
   3 C :   -0.026775
   4 O :   -0.331944
   5 H :    0.074033
   6 H :    0.113212
   7 H :    0.129680
   8 H :    0.114206
   9 H :    0.121465
  10 H :    0.107156
  11 H :    0.102705
  12 C :   -0.045191
  13 H :    0.103020
  14 H :    0.123075
  15 O :   -0.323676
  16 C :    0.015120
  17 C :    0.035538
  18 C :   -0.244204
  19 C :   -0.030857
  20 O :   -0.320928
  21 H :    0.115701
  22 H :    0.118784
  23 O :   -0.399961
  24 H :    0.122902
  25 H :    0.105838
  26 H :    0.104221
  27 H :    0.106916
  28 H :    0.271483

  Mayer bond orders larger than 0.100000
B(  0-C ,  1-C ) :   0.9470 B(  0-C ,  4-O ) :   0.8987 B(  0-C ,  5-H ) :   0.8967
B(  0-C , 15-O ) :   0.8775 B(  1-C ,  2-C ) :   0.9577 B(  1-C ,  6-H ) :   0.9397
B(  1-C ,  7-H ) :   0.9327 B(  2-C ,  3-C ) :   0.9548 B(  2-C ,  8-H ) :   0.9450
B(  2-C ,  9-H ) :   0.9434 B(  3-C ,  4-O ) :   0.8348 B(  3-C , 10-H ) :   0.9354
B(  3-C , 11-H ) :   0.9403 B( 12-C , 13-H ) :   0.9246 B( 12-C , 14-H ) :   0.9334
B( 12-C , 15-O ) :   0.8225 B( 12-C , 16-C ) :   0.8958 B( 16-C , 17-C ) :   0.8831
B( 16-C , 20-O ) :   0.8320 B( 16-C , 21-H ) :   0.9305 B( 17-C , 18-C ) :   0.9212
B( 17-C , 22-H ) :   0.9312 B( 17-C , 23-O ) :   0.9167 B( 18-C , 19-C ) :   0.9394
B( 18-C , 24-H ) :   0.9414 B( 18-C , 25-H ) :   0.9410 B( 19-C , 20-O ) :   0.8380
B( 19-C , 26-H ) :   0.9319 B( 19-C , 27-H ) :   0.9378 B( 23-O , 28-H ) :   0.7715

FINAL SINGLE POINT ENERGY      -652.856981980621

DIPOLE MOMENT
-------------
                                X             Y             Z
Electronic contribution:     -3.04333      -0.69934      -0.76070
Nuclear contribution   :      3.86077       0.55468       0.81907
                        -----------------------------------------
Total Dipole Moment    :      0.81745      -0.14466       0.05837
                        -----------------------------------------
Magnitude (a.u.)       :      0.83220
Magnitude (Debye)      :      2.11528

Rotational constants in cm-1:     0.055956     0.013922     0.012918
Rotational constants in MHz :  1677.514303   417.385139   387.257913

                             ****ORCA TERMINATED NORMALLY****
TOTAL RUN TIME: 0 days 0 hours 36 minutes 42 seconds 229 msec
