                         Program Version 4.2.0 -  RELEASE  -
|  1> # Test redundant internal optimization
|  2> #
|  3> ! RKS B3LYP  Opt TightSCF SmallPrint
|  4>
|  5> %basis
|  6>         Basis "6-31G"
|  7> end
|  8>
|  9> %geom
| 10> Constraints
| 11> { D 4  0  15  12  60.0   C } # D for Dihedral angle
| 12> { D 0  15  12  16  210.0   C } # D for Dihedral angle
| 13> { D 0  4  3  2   C } # D for Dihedral angle
| 14> { D 4  3  2  1   C } # D for Dihedral angle
| 15> { D 3  2  1  0   C } # D for Dihedral angle
| 16> { D 2  1  0  4   C } # D for Dihedral angle
| 17> { D 1  0  4  3   C } # D for Dihedral angle
| 18> { D 16  20  19  18   C } # D for Dihedral angle
| 19> { D 20  19  18  17   C } # D for Dihedral angle
| 20> { D 19  18  17  16   C } # D for Dihedral angle
| 21> { D 18  17  16  20   C } # D for Dihedral angle
| 22> { D 17  16  20  19   C } # D for Dihedral angle
| 23> { D 15  12  16  20   C } # D for Dihedral angle
| 24> end
| 25> end
| 26>
| 27>
| 28> #%pal
| 29> #nprocs 8
| 30> #end
| 31>
| 32> * xyz 0 1
| 33> C  -21.048   26.222   46.251
| 34> C  -20.361   27.558   45.944
| 35> C  -20.329   28.222   47.341
| 36> C  -20.110   27.022   48.296
| 37> O  -20.473   25.807   47.535
| 38> H  -20.833   25.428   45.533
| 39> H  -19.344   27.382   45.576
| 40> H  -20.898   28.157   45.201
| 41> H  -19.543   28.978   47.434
| 42> H  -21.289   28.710   47.548
| 43> H  -20.733   27.082   49.195
| 44> H  -19.064   26.913   48.597
| 45> C  -23.051   27.452   47.413
| 46> H  -22.310   27.516   48.220
| 47> H  -23.134   28.440   46.944
| 48> O  -22.586   26.394   46.375
| 49> C  -24.430   27.110   48.042
| 50> C  -24.910   28.229   48.973
| 51> C  -25.454   29.266   47.962
| 52> C  -26.056   28.382   46.841
| 53> O  -25.463   27.037   47.004
| 54> H  -24.376   26.125   48.510
| 55> H  -25.713   27.862   49.621
| 56> O  -23.780   28.802   49.872
| 57> H  -26.195   29.941   48.403
| 58> H  -24.633   29.879   47.571
| 59> H  -25.821   28.758   45.839
| 60> H  -27.140   28.270   46.933
| 61> H  -22.963   29.177   49.245
| 62> *
| 63>
| 64>                          ****END OF INPUT****
 Total Charge           Charge          ....    0
 Multiplicity           Mult            ....    1
 Number of Electrons    NEL             ....  102
FINAL SINGLE POINT ENERGY      -652.806283522963
FINAL SINGLE POINT ENERGY      -652.834341155519
FINAL SINGLE POINT ENERGY      -652.848085805501
FINAL SINGLE POINT ENERGY      -652.850384063783
FINAL SINGLE POINT ENERGY      -652.850848775490
FINAL SINGLE POINT ENERGY      -652.850994228534
FINAL SINGLE POINT ENERGY      -652.851016840171
FINAL SINGLE POINT ENERGY      -652.851021673891
                    ***********************HURRAY********************

CARTESIAN COORDINATES (ANGSTROEM)
---------------------------------
  C    -21.178029   26.326348   46.397812
  C    -20.274459   27.465935   45.904475
  C    -19.882635   28.169511   47.236909
  C    -19.784126   26.980942   48.228288
  O    -20.518617   25.856597   47.597951
  H    -21.198872   25.475775   45.715285
  H    -19.392203   27.033244   45.421492
  H    -20.779634   28.124432   45.193039
  H    -18.935525   28.712505   47.159547
  H    -20.650831   28.886407   47.540123
  H    -20.226374   27.192798   49.206755
  H    -18.752274   26.646349   48.370931
  C    -23.045270   27.611081   47.492473
  H    -22.397779   27.654360   48.375466
  H    -23.067400   28.598631   47.008105
  O    -22.581488   26.611283   46.546775
  C    -24.433549   27.187629   47.968324
  C    -25.076490   28.178237   48.953514
  C    -25.697180   29.232356   47.988456
  C    -26.145434   28.369511   46.787857
  O    -25.408101   27.085960   46.886904
  H    -24.345559   26.181162   48.385450
  H    -25.858558   27.669095   49.520537
  O    -24.184490   28.721629   49.959706
  H    -26.520239   29.784439   48.449765
  H    -24.924776   29.956228   47.694208
  H    -25.925237   28.835621   45.822077
  H    -27.212761   28.129794   46.826191
  H    -23.642114   29.443140   49.580589

 Multiplicity           Mult            ....    1
 Number of Electrons    NEL             ....  102
 Basis Dimension        Dim             ....  149

ORBITAL ENERGIES
----------------

  NO   OCC          E(Eh)            E(eV)
   0   2.0000     -19.151938      -521.1507
   1   2.0000     -19.141769      -520.8740
   2   2.0000     -19.140244      -520.8325
   3   2.0000     -19.134510      -520.6765
   4   2.0000     -10.275592      -279.6131
   5   2.0000     -10.245484      -278.7938
   6   2.0000     -10.231024      -278.4003
   7   2.0000     -10.230513      -278.3864
   8   2.0000     -10.229920      -278.3703
   9   2.0000     -10.228027      -278.3188
  10   2.0000     -10.197439      -277.4864
  11   2.0000     -10.195170      -277.4247
  12   2.0000     -10.189774      -277.2778
  13   2.0000      -1.051579       -28.6149
  14   2.0000      -1.034292       -28.1445
  15   2.0000      -1.015235       -27.6259
  16   2.0000      -0.993987       -27.0478
  17   2.0000      -0.789153       -21.4739
  18   2.0000      -0.783793       -21.3281
  19   2.0000      -0.772081       -21.0094
  20   2.0000      -0.732474       -19.9316
  21   2.0000      -0.682861       -18.5816
  22   2.0000      -0.612622       -16.6703
  23   2.0000      -0.604677       -16.4541
  24   2.0000      -0.598046       -16.2737
  25   2.0000      -0.570813       -15.5326
  26   2.0000      -0.525251       -14.2928
  27   2.0000      -0.512469       -13.9450
  28   2.0000      -0.502000       -13.6601
  29   2.0000      -0.494479       -13.4554
  30   2.0000      -0.472118       -12.8470
  31   2.0000      -0.461893       -12.5688
  32   2.0000      -0.443104       -12.0575
  33   2.0000      -0.433830       -11.8051
  34   2.0000      -0.422644       -11.5007
  35   2.0000      -0.421476       -11.4690
  36   2.0000      -0.415339       -11.3020
  37   2.0000      -0.401289       -10.9196
  38   2.0000      -0.382088       -10.3971
  39   2.0000      -0.376537       -10.2461
  40   2.0000      -0.361492        -9.8367
  41   2.0000      -0.355501        -9.6737
  42   2.0000      -0.349234        -9.5031
  43   2.0000      -0.329317        -8.9612
  44   2.0000      -0.318903        -8.6778
  45   2.0000      -0.315163        -8.5760
  46   2.0000      -0.301929        -8.2159
  47   2.0000      -0.272004        -7.4016
  48   2.0000      -0.265258        -7.2180
  49   2.0000      -0.251748        -6.8504
  50   2.0000      -0.238081        -6.4785
  51   0.0000       0.042872         1.1666
  52   0.0000       0.071436         1.9439
  53   0.0000       0.083662         2.2766
  54   0.0000       0.091436         2.4881
  55   0.0000       0.102067         2.7774

MULLIKEN ATOMIC CHARGES
-----------------------
   0 C :    0.293140
   1 C :   -0.271945
   2 C :   -0.312634
   3 C :   -0.015864
   4 O :   -0.504103
   5 H :    0.168870
   6 H :    0.154179
   7 H :    0.150155
   8 H :    0.145928
   9 H :    0.138189
  10 H :    0.147995
  11 H :    0.148370
  12 C :   -0.019781
  13 H :    0.146327
  14 H :    0.113759
  15 O :   -0.502264
  16 C :    0.096180
  17 C :    0.084533
  18 C :   -0.325772
  19 C :   -0.010577
  20 O :   -0.501321
  21 H :    0.172007
  22 H :    0.169543
  23 O :   -0.600430
  24 H :    0.156856
  25 H :    0.130760
  26 H :    0.143437
  27 H :    0.151405
  28 H :    0.353056
Sum of atomic charges:   -0.0000000

LOEWDIN ATOMIC CHARGES
----------------------
   0 C :    0.173338
   1 C :   -0.228970
   2 C :   -0.224300
   3 C :   -0.036087
   4 O :   -0.320926
   5 H :    0.115253
   6 H :    0.120757
   7 H :    0.119274
   8 H :    0.115912
   9 H :    0.104857
  10 H :    0.102221
  11 H :    0.105156
  12 C :   -0.053858
  13 H :    0.105698
  14 H :    0.085209
  15 O :   -0.303837
  16 C :    0.022477
  17 C :    0.034574
  18 C :   -0.241576
  19 C :   -0.030356
  20 O :   -0.310113
  21 H :    0.124535
  22 H :    0.120408
  23 O :   -0.408736
  24 H :    0.122045
  25 H :    0.101934
  26 H :    0.102686
  27 H :    0.106508
  28 H :    0.275916

  Mayer bond orders larger than 0.100000
B(  0-C ,  1-C ) :   0.9136 B(  0-C ,  4-O ) :   0.8968 B(  0-C ,  5-H ) :   0.9354
B(  0-C , 15-O ) :   0.9108 B(  1-C ,  2-C ) :   0.9553 B(  1-C ,  6-H ) :   0.9356
B(  1-C ,  7-H ) :   0.9378 B(  2-C ,  3-C ) :   0.9473 B(  2-C ,  8-H ) :   0.9453
B(  2-C ,  9-H ) :   0.9434 B(  3-C ,  4-O ) :   0.8457 B(  3-C , 10-H ) :   0.9304
B(  3-C , 11-H ) :   0.9384 B( 12-C , 13-H ) :   0.8941 B( 12-C , 14-H ) :   0.9187
B( 12-C , 15-O ) :   0.8474 B( 12-C , 16-C ) :   0.9022 B( 16-C , 17-C ) :   0.8707
B( 16-C , 20-O ) :   0.8727 B( 16-C , 21-H ) :   0.9276 B( 17-C , 18-C ) :   0.9243
B( 17-C , 22-H ) :   0.9335 B( 17-C , 23-O ) :   0.8909 B( 18-C , 19-C ) :   0.9392
B( 18-C , 24-H ) :   0.9419 B( 18-C , 25-H ) :   0.9402 B( 19-C , 20-O ) :   0.8525
B( 19-C , 26-H ) :   0.9318 B( 19-C , 27-H ) :   0.9369 B( 23-O , 28-H ) :   0.8003

FINAL SINGLE POINT ENERGY      -652.851010929589

DIPOLE MOMENT
-------------
                                X             Y             Z
Electronic contribution:     -2.51573      -5.49469       0.33772
Nuclear contribution   :      3.02663       7.37708      -0.50294
                        -----------------------------------------
Total Dipole Moment    :      0.51090       1.88239      -0.16522
                        -----------------------------------------
Magnitude (a.u.)       :      1.95747
Magnitude (Debye)      :      4.97550

Rotational constants in cm-1:     0.049073     0.014289     0.012838
Rotational constants in MHz :  1471.178264   428.371715   384.864537

                             ****ORCA TERMINATED NORMALLY****
TOTAL RUN TIME: 0 days 0 hours 28 minutes 49 seconds 380 msec
