                         Program Version 4.2.0 -  RELEASE  -
|  1> # Test redundant internal optimization
|  2> #
|  3> ! RKS B3LYP  Opt TightSCF SmallPrint
|  4>
|  5> %basis
|  6>         Basis "6-31G"
|  7> end
|  8>
|  9> %geom
| 10> Constraints
| 11> { D 4  0  15  12  210.0   C } # D for Dihedral angle
| 12> { D 0  15  12  16  30.0   C } # D for Dihedral angle
| 13> { D 0  4  3  2   C } # D for Dihedral angle
| 14> { D 4  3  2  1   C } # D for Dihedral angle
| 15> { D 3  2  1  0   C } # D for Dihedral angle
| 16> { D 2  1  0  4   C } # D for Dihedral angle
| 17> { D 1  0  4  3   C } # D for Dihedral angle
| 18> { D 16  20  19  18   C } # D for Dihedral angle
| 19> { D 20  19  18  17   C } # D for Dihedral angle
| 20> { D 19  18  17  16   C } # D for Dihedral angle
| 21> { D 18  17  16  20   C } # D for Dihedral angle
| 22> { D 17  16  20  19   C } # D for Dihedral angle
| 23> { D 15  12  16  20   C } # D for Dihedral angle
| 24> end
| 25> end
| 26>
| 27>
| 28> #%pal
| 29> #nprocs 8
| 30> #end
| 31>
| 32> * xyz 0 1
| 33> C  -21.048   26.222   46.251
| 34> C  -20.361   27.558   45.944
| 35> C  -20.329   28.222   47.341
| 36> C  -20.110   27.022   48.296
| 37> O  -20.473   25.807   47.535
| 38> H  -20.833   25.428   45.533
| 39> H  -19.344   27.382   45.576
| 40> H  -20.898   28.157   45.201
| 41> H  -19.543   28.978   47.434
| 42> H  -21.289   28.710   47.548
| 43> H  -20.733   27.082   49.195
| 44> H  -19.064   26.913   48.597
| 45> C  -23.389   26.110   45.076
| 46> H  -24.388   25.742   45.341
| 47> H  -23.508   27.030   44.489
| 48> O  -22.586   26.394   46.375
| 49> C  -22.705   25.054   44.165
| 50> C  -22.651   23.682   44.848
| 51> C  -24.092   23.165   44.626
| 52> C  -24.457   23.729   43.230
| 53> O  -23.503   24.825   42.957
| 54> H  -21.735   25.436   43.841
| 55> O  -21.623   22.769   44.126
| 56> H  -22.377   23.738   45.907
| 57> H  -24.162   22.074   44.667
| 58> H  -24.760   23.572   45.395
| 59> H  -25.478   24.124   43.191
| 60> H  -24.335   22.988   42.436
| 61> H  -21.877   22.697   43.061
| 62> *
| 63>
| 64>                          ****END OF INPUT****
 Total Charge           Charge          ....    0
 Multiplicity           Mult            ....    1
 Number of Electrons    NEL             ....  102
FINAL SINGLE POINT ENERGY      -652.829533812691
FINAL SINGLE POINT ENERGY      -652.851864400186
FINAL SINGLE POINT ENERGY      -652.855608225771
FINAL SINGLE POINT ENERGY      -652.856527030821
FINAL SINGLE POINT ENERGY      -652.856636221821
FINAL SINGLE POINT ENERGY      -652.856653139127
                    ***********************HURRAY********************

CARTESIAN COORDINATES (ANGSTROEM)
---------------------------------
  C    -20.959191   26.202998   46.235295
  C    -20.263756   27.535470   45.962179
  C    -20.406403   28.256156   47.324360
  C    -20.284377   27.100590   48.340074
  O    -20.542233   25.857093   47.566501
  H    -20.661605   25.378843   45.586062
  H    -19.208749   27.355749   45.722476
  H    -20.719293   28.088562   45.135749
  H    -19.644739   29.027100   47.474393
  H    -21.393015   28.723517   47.390643
  H    -21.012127   27.162198   49.153149
  H    -19.277991   27.004416   48.758448
  C    -23.215070   26.088349   45.076565
  H    -24.194999   25.807888   45.471854
  H    -23.343240   27.004520   44.483702
  O    -22.405312   26.372946   46.256611
  C    -22.691681   25.003249   44.126558
  C    -22.598110   23.588669   44.719643
  C    -24.074541   23.121751   44.648292
  C    -24.591308   23.777443   43.342555
  O    -23.639658   24.868891   43.013570
  H    -21.741141   25.302104   43.675205
  O    -21.713771   22.754053   43.922132
  H    -22.192876   23.559830   45.730902
  H    -24.133491   22.030394   44.630166
  H    -24.626644   23.480881   45.522573
  H    -25.594859   24.200587   43.445926
  H    -24.590363   23.085861   42.493776
  H    -21.930454   22.869893   42.972641

 Multiplicity           Mult            ....    1
 Number of Electrons    NEL             ....  102
 Basis Dimension        Dim             ....  149

ORBITAL ENERGIES
----------------

  NO   OCC          E(Eh)            E(eV)
   0   2.0000     -19.150666      -521.1161
   1   2.0000     -19.141010      -520.8534
   2   2.0000     -19.139527      -520.8130
   3   2.0000     -19.138033      -520.7723
   4   2.0000     -10.278942      -279.7042
   5   2.0000     -10.242441      -278.7110
   6   2.0000     -10.240283      -278.6523
   7   2.0000     -10.236371      -278.5458
   8   2.0000     -10.233134      -278.4577
   9   2.0000     -10.222793      -278.1763
  10   2.0000     -10.192067      -277.3402
  11   2.0000     -10.184641      -277.1382
  12   2.0000     -10.184015      -277.1211
  13   2.0000      -1.050788       -28.5934
  14   2.0000      -1.041085       -28.3294
  15   2.0000      -1.010227       -27.4897
  16   2.0000      -0.991190       -26.9717
  17   2.0000      -0.786463       -21.4007
  18   2.0000      -0.781872       -21.2758
  19   2.0000      -0.769228       -20.9318
  20   2.0000      -0.735668       -20.0186
  21   2.0000      -0.677829       -18.4447
  22   2.0000      -0.611013       -16.6265
  23   2.0000      -0.605766       -16.4837
  24   2.0000      -0.597297       -16.2533
  25   2.0000      -0.571180       -15.5426
  26   2.0000      -0.526985       -14.3400
  27   2.0000      -0.518886       -14.1196
  28   2.0000      -0.499530       -13.5929
  29   2.0000      -0.483742       -13.1633
  30   2.0000      -0.472469       -12.8565
  31   2.0000      -0.461786       -12.5658
  32   2.0000      -0.452888       -12.3237
  33   2.0000      -0.434617       -11.8265
  34   2.0000      -0.424823       -11.5600
  35   2.0000      -0.417875       -11.3710
  36   2.0000      -0.401486       -10.9250
  37   2.0000      -0.397107       -10.8058
  38   2.0000      -0.374084       -10.1793
  39   2.0000      -0.372150       -10.1267
  40   2.0000      -0.366422        -9.9708
  41   2.0000      -0.355971        -9.6865
  42   2.0000      -0.352391        -9.5891
  43   2.0000      -0.335404        -9.1268
  44   2.0000      -0.313335        -8.5263
  45   2.0000      -0.310575        -8.4512
  46   2.0000      -0.309779        -8.4295
  47   2.0000      -0.273354        -7.4383
  48   2.0000      -0.260582        -7.0908
  49   2.0000      -0.255827        -6.9614
  50   2.0000      -0.241853        -6.5811
  51   0.0000       0.059929         1.6308
  52   0.0000       0.073776         2.0076
  53   0.0000       0.092309         2.5119
  54   0.0000       0.093174         2.5354
  55   0.0000       0.098001         2.6667

MULLIKEN ATOMIC CHARGES
-----------------------
   0 C :    0.277484
   1 C :   -0.260276
   2 C :   -0.297831
   3 C :   -0.001882
   4 O :   -0.504728
   5 H :    0.157882
   6 H :    0.144804
   7 H :    0.142929
   8 H :    0.140995
   9 H :    0.162314
  10 H :    0.153209
  11 H :    0.141584
  12 C :    0.010921
  13 H :    0.149320
  14 H :    0.145556
  15 O :   -0.526156
  16 C :    0.019759
  17 C :    0.085767
  18 C :   -0.304279
  19 C :   -0.035710
  20 O :   -0.527779
  21 H :    0.160676
  22 O :   -0.602748
  23 H :    0.184467
  24 H :    0.167469
  25 H :    0.153996
  26 H :    0.150917
  27 H :    0.149464
  28 H :    0.361874
Sum of atomic charges:   -0.0000000

LOEWDIN ATOMIC CHARGES
----------------------
   0 C :    0.172987
   1 C :   -0.226986
   2 C :   -0.216129
   3 C :   -0.025515
   4 O :   -0.308079
   5 H :    0.103352
   6 H :    0.113524
   7 H :    0.115202
   8 H :    0.113847
   9 H :    0.119276
  10 H :    0.108698
  11 H :    0.102203
  12 C :   -0.038670
  13 H :    0.111263
  14 H :    0.102228
  15 O :   -0.336722
  16 C :   -0.002886
  17 C :    0.032789
  18 C :   -0.240333
  19 C :   -0.039066
  20 O :   -0.326944
  21 H :    0.111049
  22 O :   -0.412976
  23 H :    0.128699
  24 H :    0.128970
  25 H :    0.118627
  26 H :    0.106179
  27 H :    0.103847
  28 H :    0.281568

  Mayer bond orders larger than 0.100000
B(  0-C ,  1-C ) :   0.9325 B(  0-C ,  4-O ) :   0.9283 B(  0-C ,  5-H ) :   0.9082
B(  0-C , 15-O ) :   0.8305 B(  1-C ,  2-C ) :   0.9541 B(  1-C ,  6-H ) :   0.9347
B(  1-C ,  7-H ) :   0.9387 B(  2-C ,  3-C ) :   0.9551 B(  2-C ,  8-H ) :   0.9451
B(  2-C ,  9-H ) :   0.9439 B(  3-C ,  4-O ) :   0.8364 B(  3-C , 10-H ) :   0.9347
B(  3-C , 11-H ) :   0.9397 B( 12-C , 13-H ) :   0.9352 B( 12-C , 14-H ) :   0.9164
B( 12-C , 15-O ) :   0.8410 B( 12-C , 16-C ) :   0.8873 B( 16-C , 17-C ) :   0.8986
B( 16-C , 20-O ) :   0.8336 B( 16-C , 21-H ) :   0.9236 B( 17-C , 18-C ) :   0.9123
B( 17-C , 22-O ) :   0.8846 B( 17-C , 23-H ) :   0.9215 B( 18-C , 19-C ) :   0.9433
B( 18-C , 24-H ) :   0.9365 B( 18-C , 25-H ) :   0.9332 B( 19-C , 20-O ) :   0.8380
B( 19-C , 26-H ) :   0.9346 B( 19-C , 27-H ) :   0.9377 B( 22-O , 28-H ) :   0.7971

FINAL SINGLE POINT ENERGY      -652.856655012012

DIPOLE MOMENT
-------------
                                X             Y             Z
Electronic contribution:      0.14999      -2.83080      -1.31700
Nuclear contribution   :     -0.51874       3.37439       1.00447
                        -----------------------------------------
Total Dipole Moment    :     -0.36875       0.54360      -0.31253
                        -----------------------------------------
Magnitude (a.u.)       :      0.72742
Magnitude (Debye)      :      1.84896

Rotational constants in cm-1:     0.060173     0.012976     0.012224
Rotational constants in MHz :  1803.951052   389.000738   366.461007

                             ****ORCA TERMINATED NORMALLY****
TOTAL RUN TIME: 0 days 0 hours 25 minutes 32 seconds 549 msec
