                         Program Version 4.2.1 -  RELEASE  -
|  1> # Test redundant internal optimization
|  2> #
|  3> ! RKS B3LYP  Opt TightSCF SmallPrint
|  4>
|  5> %basis
|  6>         Basis "6-31G"
|  7> end
|  8>
|  9> %geom
| 10> Constraints
| 11> { D 4  0  19  14  285.0   C } # D for Dihedral angle
| 12> { D 0  19  14  12  120.0   C } # D for Dihedral angle
| 13> { D 0  4  3  2   C } # D for Dihedral angle
| 14> { D 4  3  2  1   C } # D for Dihedral angle
| 15> { D 3  2  1  0   C } # D for Dihedral angle
| 16> { D 2  1  0  4   C } # D for Dihedral angle
| 17> { D 1  0  4  3   C } # D for Dihedral angle
| 18> { D 14  15  16  17   C } # D for Dihedral angle
| 19> { D 15  16  17  12   C } # D for Dihedral angle
| 20> { D 16  17  12  14   C } # D for Dihedral angle
| 21> { D 17  12  14  15   C } # D for Dihedral angle
| 22> { D 12  14  15  16   C } # D for Dihedral angle
| 23> end
| 24> end
| 25>
| 26>
| 27> #%pal
| 28> #nprocs 8
| 29> #end
| 30>
| 31> * xyz 0 1
| 32> C  -21.048   26.222   46.251
| 33> C  -20.361   27.558   45.944
| 34> C  -20.329   28.222   47.341
| 35> C  -20.110   27.022   48.296
| 36> O  -20.473   25.807   47.535
| 37> H  -20.833   25.428   45.533
| 38> H  -19.344   27.382   45.576
| 39> H  -20.898   28.157   45.201
| 40> H  -19.543   28.978   47.434
| 41> H  -21.289   28.710   47.548
| 42> H  -20.733   27.082   49.195
| 43> H  -19.064   26.913   48.597
| 44> C  -23.988   25.057   47.734
| 45> H  -24.316   24.025   47.936
| 46> C  -23.203   25.146   46.420
| 47> C  -24.342   25.138   45.373
| 48> C  -25.474   25.926   46.078
| 49> O  -25.148   25.930   47.522
| 50> H  -23.456   25.440   48.606
| 51> O  -22.472   26.381   46.366
| 52> H  -22.497   24.320   46.285
| 53> H  -24.047   25.592   44.422
| 54> H  -24.659   24.108   45.168
| 55> H  -26.458   25.468   45.934
| 56> H  -25.519   26.971   45.756
| 57> *
| 58>
| 59>                          ****END OF INPUT****
 Total Charge           Charge          ....    0
 Multiplicity           Mult            ....    1
 Number of Electrons    NEL             ....   86
FINAL SINGLE POINT ENERGY      -538.435474414463
FINAL SINGLE POINT ENERGY      -538.437366910429
FINAL SINGLE POINT ENERGY      -538.437696572945
FINAL SINGLE POINT ENERGY      -538.437717477528
FINAL SINGLE POINT ENERGY      -538.437724517698
                    ***********************HURRAY********************

CARTESIAN COORDINATES (ANGSTROEM)
---------------------------------
  C    -20.995612   26.176215   46.244010
  C    -20.412311   27.558009   45.945394
  C    -20.417857   28.212485   47.345907
  C    -20.104967   27.028252   48.288241
  O    -20.389670   25.798180   47.505181
  H    -20.739954   25.381796   45.535176
  H    -19.390139   27.443543   45.566962
  H    -21.007270   28.104116   45.210781
  H    -19.684975   29.020043   47.436907
  H    -21.411635   28.618222   47.555297
  H    -20.722829   27.024996   49.189700
  H    -19.049900   26.978895   48.573863
  C    -23.991033   25.056671   47.738247
  H    -24.367325   24.042755   47.941594
  C    -23.201230   25.089647   46.430210
  C    -24.331816   25.143164   45.384264
  C    -25.417265   26.001377   46.077764
  O    -25.092994   25.993004   47.520027
  H    -23.411084   25.413671   48.589616
  O    -22.423028   26.325522   46.348570
  H    -22.541842   24.222626   46.311223
  H    -23.983822   25.576845   44.443930
  H    -24.696353   24.128506   45.186278
  H    -26.426674   25.600590   45.932655
  H    -25.392415   27.043872   45.749203

 Multiplicity           Mult            ....    1
 Number of Electrons    NEL             ....   86
 Basis Dimension        Dim             ....  127

ORBITAL ENERGIES
----------------

  NO   OCC          E(Eh)            E(eV)
   0   2.0000     -19.142118      -520.8835
   1   2.0000     -19.137899      -520.7687
   2   2.0000     -19.124877      -520.4144
   3   2.0000     -10.278562      -279.6939
   4   2.0000     -10.238116      -278.5933
   5   2.0000     -10.223047      -278.1833
   6   2.0000     -10.217918      -278.0437
   7   2.0000     -10.216836      -278.0143
   8   2.0000     -10.183902      -277.1181
   9   2.0000     -10.183782      -277.1148
  10   2.0000     -10.182434      -277.0781
  11   2.0000      -1.053893       -28.6779
  12   2.0000      -1.011368       -27.5207
  13   2.0000      -0.988820       -26.9072
  14   2.0000      -0.791255       -21.5311
  15   2.0000      -0.774456       -21.0740
  16   2.0000      -0.737078       -20.0569
  17   2.0000      -0.718607       -19.5543
  18   2.0000      -0.605607       -16.4794
  19   2.0000      -0.597418       -16.2566
  20   2.0000      -0.593933       -16.1617
  21   2.0000      -0.577226       -15.7071
  22   2.0000      -0.519640       -14.1401
  23   2.0000      -0.502190       -13.6653
  24   2.0000      -0.480186       -13.0665
  25   2.0000      -0.474662       -12.9162
  26   2.0000      -0.452334       -12.3086
  27   2.0000      -0.440949       -11.9988
  28   2.0000      -0.425993       -11.5919
  29   2.0000      -0.413603       -11.2547
  30   2.0000      -0.404760       -11.0141
  31   2.0000      -0.384336       -10.4583
  32   2.0000      -0.368417       -10.0251
  33   2.0000      -0.365138        -9.9359
  34   2.0000      -0.355116        -9.6632
  35   2.0000      -0.351526        -9.5655
  36   2.0000      -0.340454        -9.2642
  37   2.0000      -0.325789        -8.8652
  38   2.0000      -0.302358        -8.2276
  39   2.0000      -0.297218        -8.0877
  40   2.0000      -0.268438        -7.3046
  41   2.0000      -0.250045        -6.8041
  42   2.0000      -0.230156        -6.2629
  43   0.0000       0.079894         2.1740
  44   0.0000       0.096342         2.6216
  45   0.0000       0.100322         2.7299
  46   0.0000       0.116076         3.1586
  47   0.0000       0.120224         3.2715

MULLIKEN ATOMIC CHARGES
-----------------------
   0 C :    0.279253
   1 C :   -0.259661
   2 C :   -0.299203
   3 C :   -0.004043
   4 O :   -0.515180
   5 H :    0.140071
   6 H :    0.143756
   7 H :    0.155166
   8 H :    0.139925
   9 H :    0.168979
  10 H :    0.148383
  11 H :    0.141426
  12 C :    0.015758
  13 H :    0.120304
  14 C :    0.062684
  15 C :   -0.283152
  16 C :    0.006623
  17 O :   -0.522334
  18 H :    0.164013
  19 O :   -0.512186
  20 H :    0.137365
  21 H :    0.150320
  22 H :    0.138693
  23 H :    0.131883
  24 H :    0.151155
Sum of atomic charges:   -0.0000000

LOEWDIN ATOMIC CHARGES
----------------------
   0 C :    0.170767
   1 C :   -0.215024
   2 C :   -0.215956
   3 C :   -0.028021
   4 O :   -0.334716
   5 H :    0.094464
   6 H :    0.113399
   7 H :    0.123355
   8 H :    0.112925
   9 H :    0.122441
  10 H :    0.105585
  11 H :    0.102041
  12 C :   -0.036381
  13 H :    0.089955
  14 C :    0.038948
  15 C :   -0.228389
  16 C :   -0.026947
  17 O :   -0.331250
  18 H :    0.121063
  19 O :   -0.320122
  20 H :    0.104976
  21 H :    0.121829
  22 H :    0.111341
  23 H :    0.096730
  24 H :    0.106990

  Mayer bond orders larger than 0.100000
B(  0-C ,  1-C ) :   0.9499 B(  0-C ,  4-O ) :   0.9014 B(  0-C ,  5-H ) :   0.9185
B(  0-C , 19-O ) :   0.8747 B(  1-C ,  2-C ) :   0.9570 B(  1-C ,  6-H ) :   0.9402
B(  1-C ,  7-H ) :   0.9366 B(  2-C ,  3-C ) :   0.9554 B(  2-C ,  8-H ) :   0.9452
B(  2-C ,  9-H ) :   0.9428 B(  3-C ,  4-O ) :   0.8371 B(  3-C , 10-H ) :   0.9349
B(  3-C , 11-H ) :   0.9406 B( 12-C , 13-H ) :   0.9133 B( 12-C , 14-C ) :   0.9270
B( 12-C , 17-O ) :   0.8683 B( 12-C , 18-H ) :   0.9322 B( 14-C , 15-C ) :   0.9492
B( 14-C , 19-O ) :   0.8163 B( 14-C , 20-H ) :   0.9187 B( 15-C , 16-C ) :   0.9468
B( 15-C , 21-H ) :   0.9404 B( 15-C , 22-H ) :   0.9400 B( 16-C , 17-O ) :   0.8578
B( 16-C , 23-H ) :   0.9337 B( 16-C , 24-H ) :   0.9366

FINAL SINGLE POINT ENERGY      -538.437725023160

DIPOLE MOMENT
-------------
                                X             Y             Z
Electronic contribution:     -0.73138      -1.59368       1.25074
Nuclear contribution   :      1.26299       1.50875      -2.02554
                        -----------------------------------------
Total Dipole Moment    :      0.53161      -0.08492      -0.77480
                        -----------------------------------------
Magnitude (a.u.)       :      0.94347
Magnitude (Debye)      :      2.39812

Rotational constants in cm-1:     0.077445     0.021011     0.020205
Rotational constants in MHz :  2321.730784   629.886554   605.740162

                             ****ORCA TERMINATED NORMALLY****
TOTAL RUN TIME: 0 days 0 hours 5 minutes 49 seconds 140 msec
