                         Program Version 4.2.0 -  RELEASE  -
|  1> # Test redundant internal optimization
|  2> #
|  3> ! RKS B3LYP  Opt TightSCF SmallPrint
|  4>
|  5> %basis
|  6>         Basis "6-31G"
|  7> end
|  8>
|  9> %geom
| 10> Constraints
| 11> { D 4  0  15  12  210.0   C } # D for Dihedral angle
| 12> { D 0  15  12  16  105.0   C } # D for Dihedral angle
| 13> { D 0  4  3  2   C } # D for Dihedral angle
| 14> { D 4  3  2  1   C } # D for Dihedral angle
| 15> { D 3  2  1  0   C } # D for Dihedral angle
| 16> { D 2  1  0  4   C } # D for Dihedral angle
| 17> { D 1  0  4  3   C } # D for Dihedral angle
| 18> { D 16  20  19  18   C } # D for Dihedral angle
| 19> { D 20  19  18  17   C } # D for Dihedral angle
| 20> { D 19  18  17  16   C } # D for Dihedral angle
| 21> { D 18  17  16  20   C } # D for Dihedral angle
| 22> { D 17  16  20  19   C } # D for Dihedral angle
| 23> { D 15  12  16  20   C } # D for Dihedral angle
| 24> end
| 25> end
| 26>
| 27>
| 28> #%pal
| 29> #nprocs 8
| 30> #end
| 31>
| 32> * xyz 0 1
| 33> C  -21.048   26.222   46.251
| 34> C  -20.361   27.558   45.944
| 35> C  -20.329   28.222   47.341
| 36> C  -20.110   27.022   48.296
| 37> O  -20.473   25.807   47.535
| 38> H  -20.833   25.428   45.533
| 39> H  -19.344   27.382   45.576
| 40> H  -20.898   28.157   45.201
| 41> H  -19.543   28.978   47.434
| 42> H  -21.289   28.710   47.548
| 43> H  -20.733   27.082   49.195
| 44> H  -19.064   26.913   48.597
| 45> C  -23.389   26.110   45.076
| 46> H  -24.131   26.905   44.928
| 47> H  -22.720   26.099   44.206
| 48> O  -22.586   26.394   46.375
| 49> C  -24.135   24.748   45.117
| 50> C  -24.820   24.448   43.779
| 51> C  -23.632   23.948   42.923
| 52> C  -22.756   23.186   43.949
| 53> O  -23.181   23.646   45.288
| 54> H  -24.803   24.731   45.980
| 55> H  -25.566   23.656   43.906
| 56> O  -25.525   25.688   43.163
| 57> H  -23.947   23.312   42.090
| 58> H  -23.084   24.800   42.505
| 59> H  -21.687   23.392   43.822
| 60> H  -22.916   22.105   43.913
| 61> H  -24.798   26.496   43.025
| 62> *
| 63>
| 64>                          ****END OF INPUT****
 Total Charge           Charge          ....    0
 Multiplicity           Mult            ....    1
 Number of Electrons    NEL             ....  102
FINAL SINGLE POINT ENERGY      -652.825998805703
FINAL SINGLE POINT ENERGY      -652.849512208628
FINAL SINGLE POINT ENERGY      -652.853691572569
FINAL SINGLE POINT ENERGY      -652.854365686138
FINAL SINGLE POINT ENERGY      -652.854477034166
FINAL SINGLE POINT ENERGY      -652.854502646150
FINAL SINGLE POINT ENERGY      -652.854508493890
FINAL SINGLE POINT ENERGY      -652.854510043983
                    ***********************HURRAY********************

CARTESIAN COORDINATES (ANGSTROEM)
---------------------------------
  C    -21.033104   26.237899   46.176324
  C    -20.344881   27.584451   45.964333
  C    -20.397986   28.199336   47.383750
  C    -20.223800   26.968120   48.297510
  O    -20.539231   25.790628   47.446543
  H    -20.802669   25.459186   45.445292
  H    -19.307180   27.418650   45.649451
  H    -20.842314   28.202103   45.211028
  H    -19.623485   28.954970   47.545298
  H    -21.375971   28.662407   47.545719
  H    -20.899791   26.968376   49.155842
  H    -19.194491   26.836719   48.644586
  C    -23.239680   26.197475   45.053713
  H    -23.972611   27.009068   44.984104
  H    -22.580227   26.251332   44.172928
  O    -22.477098   26.411497   46.270369
  C    -23.971695   24.857245   45.115282
  C    -24.787598   24.505029   43.859492
  C    -23.693192   23.908402   42.925342
  C    -22.758510   23.178344   43.914370
  O    -23.046565   23.734143   45.263296
  H    -24.584126   24.854249   46.021049
  H    -25.529955   23.745382   44.111575
  O    -25.557229   25.591834   43.290537
  H    -24.114298   23.243016   42.166548
  H    -23.171550   24.723237   42.405741
  H    -21.697368   23.322675   43.685862
  H    -22.963295   22.104517   43.962658
  H    -24.971101   26.224707   42.827458

 Multiplicity           Mult            ....    1
 Number of Electrons    NEL             ....  102
 Basis Dimension        Dim             ....  149

ORBITAL ENERGIES
----------------

  NO   OCC          E(Eh)            E(eV)
   0   2.0000     -19.151739      -521.1453
   1   2.0000     -19.139608      -520.8152
   2   2.0000     -19.134597      -520.6788
   3   2.0000     -19.133456      -520.6478
   4   2.0000     -10.273272      -279.5499
   5   2.0000     -10.246440      -278.8198
   6   2.0000     -10.233244      -278.4607
   7   2.0000     -10.233040      -278.4552
   8   2.0000     -10.228731      -278.3379
   9   2.0000     -10.219226      -278.0793
  10   2.0000     -10.198271      -277.5091
  11   2.0000     -10.182606      -277.0828
  12   2.0000     -10.181966      -277.0654
  13   2.0000      -1.047543       -28.5051
  14   2.0000      -1.034570       -28.1521
  15   2.0000      -1.016821       -27.6691
  16   2.0000      -0.988621       -26.9017
  17   2.0000      -0.785209       -21.3666
  18   2.0000      -0.782005       -21.2794
  19   2.0000      -0.766441       -20.8559
  20   2.0000      -0.727984       -19.8094
  21   2.0000      -0.681354       -18.5406
  22   2.0000      -0.613549       -16.6955
  23   2.0000      -0.596431       -16.2297
  24   2.0000      -0.589336       -16.0366
  25   2.0000      -0.575968       -15.6729
  26   2.0000      -0.530108       -14.4250
  27   2.0000      -0.508147       -13.8274
  28   2.0000      -0.501141       -13.6367
  29   2.0000      -0.486623       -13.2417
  30   2.0000      -0.467111       -12.7107
  31   2.0000      -0.456345       -12.4178
  32   2.0000      -0.446791       -12.1578
  33   2.0000      -0.435715       -11.8564
  34   2.0000      -0.430270       -11.7083
  35   2.0000      -0.415164       -11.2972
  36   2.0000      -0.408735       -11.1223
  37   2.0000      -0.392306       -10.6752
  38   2.0000      -0.382064       -10.3965
  39   2.0000      -0.367376        -9.9968
  40   2.0000      -0.359178        -9.7737
  41   2.0000      -0.351990        -9.5781
  42   2.0000      -0.348174        -9.4743
  43   2.0000      -0.332410        -9.0453
  44   2.0000      -0.315929        -8.5969
  45   2.0000      -0.306771        -8.3477
  46   2.0000      -0.302838        -8.2407
  47   2.0000      -0.272226        -7.4076
  48   2.0000      -0.263036        -7.1576
  49   2.0000      -0.251054        -6.8315
  50   2.0000      -0.231828        -6.3084
  51   0.0000       0.046558         1.2669
  52   0.0000       0.065205         1.7743
  53   0.0000       0.089398         2.4326
  54   0.0000       0.095384         2.5955
  55   0.0000       0.106077         2.8865

MULLIKEN ATOMIC CHARGES
-----------------------
   0 C :    0.298603
   1 C :   -0.261925
   2 C :   -0.299786
   3 C :   -0.000635
   4 O :   -0.497433
   5 H :    0.145679
   6 H :    0.140350
   7 H :    0.137414
   8 H :    0.139409
   9 H :    0.161226
  10 H :    0.154182
  11 H :    0.138836
  12 C :   -0.036996
  13 H :    0.150821
  14 H :    0.108530
  15 O :   -0.503294
  16 C :    0.100972
  17 C :    0.084577
  18 C :   -0.319527
  19 C :   -0.021671
  20 O :   -0.502126
  21 H :    0.171042
  22 H :    0.171052
  23 O :   -0.599641
  24 H :    0.158605
  25 H :    0.127825
  26 H :    0.142977
  27 H :    0.156677
  28 H :    0.354257
Sum of atomic charges:   -0.0000000

LOEWDIN ATOMIC CHARGES
----------------------
   0 C :    0.181741
   1 C :   -0.229526
   2 C :   -0.217253
   3 C :   -0.025565
   4 O :   -0.300588
   5 H :    0.100799
   6 H :    0.111122
   7 H :    0.112052
   8 H :    0.112925
   9 H :    0.118804
  10 H :    0.109304
  11 H :    0.100874
  12 C :   -0.051267
  13 H :    0.111643
  14 H :    0.084181
  15 O :   -0.326969
  16 C :    0.013705
  17 C :    0.034243
  18 C :   -0.241192
  19 C :   -0.033934
  20 O :   -0.313934
  21 H :    0.123225
  22 H :    0.121256
  23 O :   -0.407050
  24 H :    0.123126
  25 H :    0.101435
  26 H :    0.100914
  27 H :    0.109088
  28 H :    0.276838

  Mayer bond orders larger than 0.100000
B(  0-C ,  1-C ) :   0.9295 B(  0-C ,  4-O ) :   0.9388 B(  0-C ,  5-H ) :   0.9175
B(  0-C , 15-O ) :   0.8244 B(  1-C ,  2-C ) :   0.9542 B(  1-C ,  6-H ) :   0.9348
B(  1-C ,  7-H ) :   0.9388 B(  2-C ,  3-C ) :   0.9553 B(  2-C ,  8-H ) :   0.9453
B(  2-C ,  9-H ) :   0.9436 B(  3-C ,  4-O ) :   0.8395 B(  3-C , 10-H ) :   0.9342
B(  3-C , 11-H ) :   0.9398 B( 12-C , 13-H ) :   0.9194 B( 12-C , 14-H ) :   0.9218
B( 12-C , 15-O ) :   0.8688 B( 12-C , 16-C ) :   0.8921 B( 16-C , 17-C ) :   0.8675
B( 16-C , 20-O ) :   0.8689 B( 16-C , 21-H ) :   0.9291 B( 17-C , 18-C ) :   0.9220
B( 17-C , 22-H ) :   0.9313 B( 17-C , 23-O ) :   0.8959 B( 18-C , 19-C ) :   0.9394
B( 18-C , 24-H ) :   0.9416 B( 18-C , 25-H ) :   0.9416 B( 19-C , 20-O ) :   0.8510
B( 19-C , 26-H ) :   0.9303 B( 19-C , 27-H ) :   0.9366 B( 23-O , 28-H ) :   0.7995

FINAL SINGLE POINT ENERGY      -652.854510463691

DIPOLE MOMENT
-------------
                                X             Y             Z
Electronic contribution:     -3.18689      -2.94293       2.03135
Nuclear contribution   :      3.82715       3.67130      -3.39247
                        -----------------------------------------
Total Dipole Moment    :      0.64026       0.72838      -1.36111
                        -----------------------------------------
Magnitude (a.u.)       :      1.67126
Magnitude (Debye)      :      4.24800

Rotational constants in cm-1:     0.058955     0.012800     0.011755
Rotational constants in MHz :  1767.437613   383.728706   352.398750

                             ****ORCA TERMINATED NORMALLY****
TOTAL RUN TIME: 0 days 0 hours 23 minutes 46 seconds 634 msec
