                         Program Version 4.2.0 -  RELEASE  -
|  1> # Test redundant internal optimization
|  2> #
|  3> ! RKS B3LYP  Opt TightSCF SmallPrint
|  4>
|  5> %basis
|  6>         Basis "6-31G"
|  7> end
|  8>
|  9> %geom
| 10> Constraints
| 11> { D 4  0  15  12  315.0   C } # D for Dihedral angle
| 12> { D 0  15  12  16  120.0   C } # D for Dihedral angle
| 13> { D 0  4  3  2   C } # D for Dihedral angle
| 14> { D 4  3  2  1   C } # D for Dihedral angle
| 15> { D 3  2  1  0   C } # D for Dihedral angle
| 16> { D 2  1  0  4   C } # D for Dihedral angle
| 17> { D 1  0  4  3   C } # D for Dihedral angle
| 18> { D 16  20  19  18   C } # D for Dihedral angle
| 19> { D 20  19  18  17   C } # D for Dihedral angle
| 20> { D 19  18  17  16   C } # D for Dihedral angle
| 21> { D 18  17  16  20   C } # D for Dihedral angle
| 22> { D 17  16  20  19   C } # D for Dihedral angle
| 23> { D 15  12  16  20   C } # D for Dihedral angle
| 24> end
| 25> end
| 26>
| 27>
| 28> #%pal
| 29> #nprocs 8
| 30> #end
| 31>
| 32> * xyz 0 1
| 33> C  -21.048   26.222   46.251
| 34> C  -20.361   27.558   45.944
| 35> C  -20.329   28.222   47.341
| 36> C  -20.110   27.022   48.296
| 37> O  -20.473   25.807   47.535
| 38> H  -20.833   25.428   45.533
| 39> H  -19.344   27.382   45.576
| 40> H  -20.898   28.157   45.201
| 41> H  -19.543   28.978   47.434
| 42> H  -21.289   28.710   47.548
| 43> H  -20.733   27.082   49.195
| 44> H  -19.064   26.913   48.597
| 45> C  -23.319   25.255   47.135
| 46> H  -24.047   24.782   46.464
| 47> H  -22.604   24.488   47.460
| 48> O  -22.586   26.394   46.375
| 49> C  -24.073   25.762   48.395
| 50> C  -23.131   26.516   49.342
| 51> C  -23.037   27.898   48.653
| 52> C  -24.455   28.095   48.062
| 53> O  -25.084   26.756   48.023
| 54> H  -24.602   24.925   48.856
| 55> O  -23.781   26.647   50.746
| 56> H  -22.156   26.031   49.456
| 57> H  -22.759   28.700   49.346
| 58> H  -22.286   27.871   47.854
| 59> H  -24.434   28.512   47.050
| 60> H  -25.086   28.728   48.693
| 61> H  -24.760   27.131   50.656
| 62> *
| 63>
| 64>                          ****END OF INPUT****
 Total Charge           Charge          ....    0
 Multiplicity           Mult            ....    1
 Number of Electrons    NEL             ....  102
FINAL SINGLE POINT ENERGY      -652.809251200520
FINAL SINGLE POINT ENERGY      -652.839520164543
FINAL SINGLE POINT ENERGY      -652.855396075007
FINAL SINGLE POINT ENERGY      -652.859207513349
FINAL SINGLE POINT ENERGY      -652.859755052900
FINAL SINGLE POINT ENERGY      -652.859852508349
FINAL SINGLE POINT ENERGY      -652.859861162615
                    ***********************HURRAY********************

CARTESIAN COORDINATES (ANGSTROEM)
---------------------------------
  C    -21.030233   26.164983   46.309884
  C    -20.276877   27.394255   45.797258
  C    -20.096240   28.215783   47.094635
  C    -19.892769   27.131806   48.178215
  O    -20.404305   25.862857   47.580283
  H    -20.839164   25.268530   45.706283
  H    -19.312370   27.067673   45.396803
  H    -20.828478   27.927294   45.019858
  H    -19.240004   28.896207   47.039372
  H    -20.985771   28.820698   47.285414
  H    -20.432648   27.334934   49.106197
  H    -18.838267   26.958617   48.408531
  C    -23.208751   25.360107   47.122576
  H    -23.905938   24.897517   46.415042
  H    -22.516070   24.593492   47.489762
  O    -22.466574   26.357901   46.337112
  C    -24.042023   25.854509   48.305284
  C    -23.332478   26.546104   49.477196
  C    -23.284391   28.016134   48.993464
  C    -24.616887   28.170070   48.215083
  O    -25.084381   26.802333   47.909895
  H    -24.563241   24.962987   48.678056
  O    -24.102909   26.399647   50.703718
  H    -22.352468   26.123895   49.696667
  H    -23.193603   28.707333   49.835533
  H    -22.446175   28.151988   48.314853
  H    -24.489414   28.717409   47.276902
  H    -25.400399   28.656311   48.806363
  H    -25.042173   26.610627   50.516762

 Multiplicity           Mult            ....    1
 Number of Electrons    NEL             ....  102
 Basis Dimension        Dim             ....  149

ORBITAL ENERGIES
----------------

  NO   OCC          E(Eh)            E(eV)
   0   2.0000     -19.154284      -521.2146
   1   2.0000     -19.148743      -521.0638
   2   2.0000     -19.136825      -520.7395
   3   2.0000     -19.134538      -520.6772
   4   2.0000     -10.282673      -279.8058
   5   2.0000     -10.235675      -278.5269
   6   2.0000     -10.235375      -278.5187
   7   2.0000     -10.232014      -278.4272
   8   2.0000     -10.228017      -278.3185
   9   2.0000     -10.224265      -278.2164
  10   2.0000     -10.195430      -277.4318
  11   2.0000     -10.193372      -277.3758
  12   2.0000     -10.180894      -277.0362
  13   2.0000      -1.057506       -28.7762
  14   2.0000      -1.032656       -28.1000
  15   2.0000      -1.003512       -27.3070
  16   2.0000      -0.996707       -27.1218
  17   2.0000      -0.796963       -21.6865
  18   2.0000      -0.777586       -21.1592
  19   2.0000      -0.765805       -20.8386
  20   2.0000      -0.737323       -20.0636
  21   2.0000      -0.675487       -18.3809
  22   2.0000      -0.609262       -16.5789
  23   2.0000      -0.599115       -16.3028
  24   2.0000      -0.598322       -16.2812
  25   2.0000      -0.574813       -15.6414
  26   2.0000      -0.523626       -14.2486
  27   2.0000      -0.510223       -13.8839
  28   2.0000      -0.503225       -13.6935
  29   2.0000      -0.489890       -13.3306
  30   2.0000      -0.469749       -12.7825
  31   2.0000      -0.462181       -12.5766
  32   2.0000      -0.449239       -12.2244
  33   2.0000      -0.440544       -11.9878
  34   2.0000      -0.418509       -11.3882
  35   2.0000      -0.414482       -11.2786
  36   2.0000      -0.410073       -11.1587
  37   2.0000      -0.388226       -10.5642
  38   2.0000      -0.374859       -10.2004
  39   2.0000      -0.368982       -10.0405
  40   2.0000      -0.366232        -9.9657
  41   2.0000      -0.356639        -9.7046
  42   2.0000      -0.352564        -9.5938
  43   2.0000      -0.340283        -9.2596
  44   2.0000      -0.326272        -8.8783
  45   2.0000      -0.305851        -8.3226
  46   2.0000      -0.301742        -8.2108
  47   2.0000      -0.270991        -7.3740
  48   2.0000      -0.267812        -7.2875
  49   2.0000      -0.264247        -7.1905
  50   2.0000      -0.237601        -6.4655
  51   0.0000       0.065875         1.7925
  52   0.0000       0.078829         2.1450
  53   0.0000       0.091933         2.5016
  54   0.0000       0.100183         2.7261
  55   0.0000       0.105754         2.8777

MULLIKEN ATOMIC CHARGES
-----------------------
   0 C :    0.293223
   1 C :   -0.265989
   2 C :   -0.312948
   3 C :   -0.017264
   4 O :   -0.516525
   5 H :    0.148445
   6 H :    0.152388
   7 H :    0.162577
   8 H :    0.146803
   9 H :    0.164508
  10 H :    0.147656
  11 H :    0.152229
  12 C :   -0.016359
  13 H :    0.157709
  14 H :    0.155040
  15 O :   -0.524017
  16 C :    0.074410
  17 C :    0.066268
  18 C :   -0.306365
  19 C :   -0.022952
  20 O :   -0.524741
  21 H :    0.154535
  22 O :   -0.603189
  23 H :    0.167462
  24 H :    0.150195
  25 H :    0.162880
  26 H :    0.153702
  27 H :    0.137787
  28 H :    0.362531
Sum of atomic charges:   -0.0000000

LOEWDIN ATOMIC CHARGES
----------------------
   0 C :    0.171632
   1 C :   -0.211468
   2 C :   -0.219651
   3 C :   -0.033639
   4 O :   -0.329879
   5 H :    0.092751
   6 H :    0.119083
   7 H :    0.127603
   8 H :    0.116930
   9 H :    0.114771
  10 H :    0.103129
  11 H :    0.108368
  12 C :   -0.042379
  13 H :    0.114455
  14 H :    0.114616
  15 O :   -0.333191
  16 C :    0.011080
  17 C :    0.035550
  18 C :   -0.244882
  19 C :   -0.034077
  20 O :   -0.329488
  21 H :    0.117133
  22 O :   -0.416470
  23 H :    0.120895
  24 H :    0.120575
  25 H :    0.119845
  26 H :    0.108352
  27 H :    0.096788
  28 H :    0.281569

  Mayer bond orders larger than 0.100000
B(  0-C ,  1-C ) :   0.9414 B(  0-C ,  4-O ) :   0.8880 B(  0-C ,  5-H ) :   0.9239
B(  0-C , 15-O ) :   0.8739 B(  1-C ,  2-C ) :   0.9573 B(  1-C ,  6-H ) :   0.9387
B(  1-C ,  7-H ) :   0.9356 B(  2-C ,  3-C ) :   0.9539 B(  2-C ,  8-H ) :   0.9434
B(  2-C ,  9-H ) :   0.9305 B(  3-C ,  4-O ) :   0.8334 B(  3-C , 10-H ) :   0.9247
B(  3-C , 11-H ) :   0.9395 B( 12-C , 13-H ) :   0.9278 B( 12-C , 14-H ) :   0.9065
B( 12-C , 15-O ) :   0.8428 B( 12-C , 16-C ) :   0.9047 B( 16-C , 17-C ) :   0.9082
B( 16-C , 20-O ) :   0.8652 B( 16-C , 21-H ) :   0.9156 B( 17-C , 18-C ) :   0.9236
B( 17-C , 22-O ) :   0.8861 B( 17-C , 23-H ) :   0.9247 B( 18-C , 19-C ) :   0.9447
B( 18-C , 24-H ) :   0.9387 B( 18-C , 25-H ) :   0.9011 B( 19-C , 20-O ) :   0.8437
B( 19-C , 26-H ) :   0.9330 B( 19-C , 27-H ) :   0.9369 B( 22-O , 28-H ) :   0.7960

FINAL SINGLE POINT ENERGY      -652.859859637311

DIPOLE MOMENT
-------------
                                X             Y             Z
Electronic contribution:     -3.95720      -4.13440       0.43926
Nuclear contribution   :      4.80459       4.85773      -0.84098
                        -----------------------------------------
Total Dipole Moment    :      0.84738       0.72333      -0.40172
                        -----------------------------------------
Magnitude (a.u.)       :      1.18433
Magnitude (Debye)      :      3.01033

Rotational constants in cm-1:     0.044190     0.018120     0.016939
Rotational constants in MHz :  1324.780667   543.223862   507.809142

                             ****ORCA TERMINATED NORMALLY****
TOTAL RUN TIME: 0 days 1 hours 23 minutes 40 seconds 683 msec
