                         Program Version 4.2.0 -  RELEASE  -
|  1> # Test redundant internal optimization
|  2> #
|  3> ! RKS B3LYP  Opt TightSCF SmallPrint
|  4>
|  5> %basis
|  6>         Basis "6-31G"
|  7> end
|  8>
|  9> %geom
| 10> Constraints
| 11> { D 4  0  15  12  75.0   C } # D for Dihedral angle
| 12> { D 0  15  12  16  240.0   C } # D for Dihedral angle
| 13> { D 0  4  3  2   C } # D for Dihedral angle
| 14> { D 4  3  2  1   C } # D for Dihedral angle
| 15> { D 3  2  1  0   C } # D for Dihedral angle
| 16> { D 2  1  0  4   C } # D for Dihedral angle
| 17> { D 1  0  4  3   C } # D for Dihedral angle
| 18> { D 16  20  19  18   C } # D for Dihedral angle
| 19> { D 20  19  18  17   C } # D for Dihedral angle
| 20> { D 19  18  17  16   C } # D for Dihedral angle
| 21> { D 18  17  16  20   C } # D for Dihedral angle
| 22> { D 17  16  20  19   C } # D for Dihedral angle
| 23> { D 15  12  16  20   C } # D for Dihedral angle
| 24> end
| 25> end
| 26>
| 27>
| 28> #%pal
| 29> #nprocs 8
| 30> #end
| 31>
| 32> * xyz 0 1
| 33> C  -21.048   26.222   46.251
| 34> C  -20.361   27.558   45.944
| 35> C  -20.329   28.222   47.341
| 36> C  -20.110   27.022   48.296
| 37> O  -20.473   25.807   47.535
| 38> H  -20.833   25.428   45.533
| 39> H  -19.344   27.382   45.576
| 40> H  -20.898   28.157   45.201
| 41> H  -19.543   28.978   47.434
| 42> H  -21.289   28.710   47.548
| 43> H  -20.733   27.082   49.195
| 44> H  -19.064   26.913   48.597
| 45> C  -23.049   27.675   47.122
| 46> H  -22.169   28.252   47.431
| 47> H  -23.658   28.305   46.462
| 48> O  -22.586   26.394   46.375
| 49> C  -23.895   27.360   48.387
| 50> C  -25.100   26.475   48.045
| 51> C  -24.444   25.077   47.947
| 52> C  -23.341   25.129   49.033
| 53> O  -23.117   26.559   49.337
| 54> H  -24.149   28.295   48.889
| 55> O  -26.135   26.515   49.202
| 56> H  -25.605   26.773   47.120
| 57> H  -25.155   24.261   48.113
| 58> H  -24.001   24.938   46.953
| 59> H  -22.399   24.681   48.697
| 60> H  -23.649   24.646   49.965
| 61> H  -25.651   26.219   50.139
| 62> *
| 63>
| 64>                          ****END OF INPUT****
 Total Charge           Charge          ....    0
 Multiplicity           Mult            ....    1
 Number of Electrons    NEL             ....  102
FINAL SINGLE POINT ENERGY      -652.785571308095
FINAL SINGLE POINT ENERGY      -652.833223754607
FINAL SINGLE POINT ENERGY      -652.853425006789
FINAL SINGLE POINT ENERGY      -652.857739863597
FINAL SINGLE POINT ENERGY      -652.858549504209
FINAL SINGLE POINT ENERGY      -652.858716481333
FINAL SINGLE POINT ENERGY      -652.858762076605
FINAL SINGLE POINT ENERGY      -652.858770976455
FINAL SINGLE POINT ENERGY      -652.858772738581
                    ***********************HURRAY********************

CARTESIAN COORDINATES (ANGSTROEM)
---------------------------------
  C    -21.147482   26.415774   46.377441
  C    -20.274964   27.595096   45.918774
  C    -19.932306   28.295609   47.269891
  C    -19.811025   27.093226   48.243492
  O    -20.494157   25.956163   47.579731
  H    -21.116301   25.573468   45.684298
  H    -19.368576   27.195356   45.453431
  H    -20.781525   28.246724   45.201559
  H    -18.994536   28.857881   47.210436
  H    -20.710410   28.997840   47.574636
  H    -20.295156   27.267489   49.207479
  H    -18.771966   26.791209   48.401507
  C    -23.198916   27.731054   47.203950
  H    -22.458666   28.424035   47.604505
  H    -23.813317   28.268482   46.469595
  O    -22.570094   26.612860   46.511614
  C    -24.076129   27.262948   48.367184
  C    -25.235979   26.315559   48.023545
  C    -24.518373   24.939886   47.981286
  C    -23.445063   25.070443   49.090368
  O    -23.291516   26.525372   49.354212
  H    -24.466082   28.158375   48.866681
  O    -26.264946   26.377307   49.052532
  H    -25.747448   26.565764   47.093314
  H    -25.227608   24.128624   48.167971
  H    -24.049115   24.805835   47.005768
  H    -22.472445   24.680818   48.786974
  H    -23.752332   24.607720   50.034747
  H    -25.841567   26.274083   49.931079

 Multiplicity           Mult            ....    1
 Number of Electrons    NEL             ....  102
 Basis Dimension        Dim             ....  149

ORBITAL ENERGIES
----------------

  NO   OCC          E(Eh)            E(eV)
   0   2.0000     -19.146651      -521.0069
   1   2.0000     -19.142707      -520.8995
   2   2.0000     -19.132806      -520.6301
   3   2.0000     -19.130636      -520.5711
   4   2.0000     -10.282976      -279.8140
   5   2.0000     -10.234109      -278.4843
   6   2.0000     -10.231264      -278.4068
   7   2.0000     -10.229317      -278.3539
   8   2.0000     -10.227332      -278.2999
   9   2.0000     -10.212174      -277.8874
  10   2.0000     -10.195473      -277.4329
  11   2.0000     -10.195075      -277.4221
  12   2.0000     -10.168924      -276.7105
  13   2.0000      -1.053531       -28.6680
  14   2.0000      -1.026841       -27.9418
  15   2.0000      -1.000729       -27.2312
  16   2.0000      -0.992684       -27.0123
  17   2.0000      -0.790463       -21.5096
  18   2.0000      -0.777670       -21.1615
  19   2.0000      -0.759439       -20.6654
  20   2.0000      -0.732313       -19.9272
  21   2.0000      -0.675922       -18.3928
  22   2.0000      -0.607998       -16.5445
  23   2.0000      -0.601573       -16.3696
  24   2.0000      -0.590067       -16.0565
  25   2.0000      -0.565578       -15.3902
  26   2.0000      -0.523883       -14.2556
  27   2.0000      -0.508351       -13.8329
  28   2.0000      -0.495112       -13.4727
  29   2.0000      -0.485832       -13.2202
  30   2.0000      -0.469433       -12.7739
  31   2.0000      -0.458162       -12.4672
  32   2.0000      -0.443818       -12.0769
  33   2.0000      -0.431291       -11.7360
  34   2.0000      -0.426324       -11.6009
  35   2.0000      -0.414643       -11.2830
  36   2.0000      -0.399421       -10.8688
  37   2.0000      -0.386568       -10.5191
  38   2.0000      -0.380543       -10.3551
  39   2.0000      -0.362546        -9.8654
  40   2.0000      -0.360546        -9.8110
  41   2.0000      -0.355025        -9.6607
  42   2.0000      -0.348444        -9.4816
  43   2.0000      -0.324668        -8.8347
  44   2.0000      -0.313427        -8.5288
  45   2.0000      -0.304127        -8.2757
  46   2.0000      -0.294858        -8.0235
  47   2.0000      -0.273959        -7.4548
  48   2.0000      -0.261383        -7.1126
  49   2.0000      -0.254264        -6.9189
  50   2.0000      -0.234709        -6.3868
  51   0.0000       0.069135         1.8813
  52   0.0000       0.080662         2.1949
  53   0.0000       0.092980         2.5301
  54   0.0000       0.104558         2.8452
  55   0.0000       0.107920         2.9367

MULLIKEN ATOMIC CHARGES
-----------------------
   0 C :    0.309216
   1 C :   -0.279643
   2 C :   -0.321942
   3 C :   -0.010312
   4 O :   -0.502741
   5 H :    0.164461
   6 H :    0.157781
   7 H :    0.148719
   8 H :    0.145799
   9 H :    0.154977
  10 H :    0.167412
  11 H :    0.145072
  12 C :   -0.012304
  13 H :    0.139106
  14 H :    0.139150
  15 O :   -0.530819
  16 C :    0.079824
  17 C :    0.079646
  18 C :   -0.284269
  19 C :   -0.029687
  20 O :   -0.532904
  21 H :    0.147115
  22 O :   -0.606398
  23 H :    0.148171
  24 H :    0.144157
  25 H :    0.172915
  26 H :    0.177467
  27 H :    0.127993
  28 H :    0.362037
Sum of atomic charges:    0.0000000

LOEWDIN ATOMIC CHARGES
----------------------
   0 C :    0.176397
   1 C :   -0.227918
   2 C :   -0.224295
   3 C :   -0.033120
   4 O :   -0.318872
   5 H :    0.111838
   6 H :    0.123369
   7 H :    0.118379
   8 H :    0.115768
   9 H :    0.109156
  10 H :    0.115064
  11 H :    0.104092
  12 C :   -0.040069
  13 H :    0.104061
  14 H :    0.104235
  15 O :   -0.323981
  16 C :    0.010542
  17 C :    0.038868
  18 C :   -0.240134
  19 C :   -0.037098
  20 O :   -0.334480
  21 H :    0.112357
  22 O :   -0.419186
  23 H :    0.114315
  24 H :    0.116452
  25 H :    0.129901
  26 H :    0.120402
  27 H :    0.092502
  28 H :    0.281453

  Mayer bond orders larger than 0.100000
B(  0-C ,  1-C ) :   0.9225 B(  0-C ,  4-O ) :   0.9015 B(  0-C ,  5-H ) :   0.9362
B(  0-C , 15-O ) :   0.8890 B(  1-C ,  2-C ) :   0.9550 B(  1-C ,  6-H ) :   0.9347
B(  1-C ,  7-H ) :   0.9372 B(  2-C ,  3-C ) :   0.9473 B(  2-C ,  8-H ) :   0.9441
B(  2-C ,  9-H ) :   0.9337 B(  3-C ,  4-O ) :   0.8363 B(  3-C , 10-H ) :   0.9276
B(  3-C , 11-H ) :   0.9387 B( 12-C , 13-H ) :   0.9046 B( 12-C , 14-H ) :   0.9254
B( 12-C , 15-O ) :   0.8463 B( 12-C , 16-C ) :   0.8887 B( 16-C , 17-C ) :   0.9121
B( 16-C , 20-O ) :   0.8782 B( 16-C , 21-H ) :   0.9190 B( 17-C , 18-C ) :   0.9241
B( 17-C , 22-O ) :   0.8892 B( 17-C , 23-H ) :   0.9365 B( 18-C , 19-C ) :   0.9471
B( 18-C , 24-H ) :   0.9378 B( 18-C , 25-H ) :   0.9191 B( 19-C , 20-O ) :   0.8251
B( 19-C , 26-H ) :   0.9205 B( 19-C , 27-H ) :   0.9378 B( 22-O , 28-H ) :   0.7966

FINAL SINGLE POINT ENERGY      -652.858771793037

DIPOLE MOMENT
-------------
                                X             Y             Z
Electronic contribution:     -3.30354      -1.93942       1.28879
Nuclear contribution   :      4.32040       2.68776      -1.79148
                        -----------------------------------------
Total Dipole Moment    :      1.01686       0.74834      -0.50269
                        -----------------------------------------
Magnitude (a.u.)       :      1.35894
Magnitude (Debye)      :      3.45414

Rotational constants in cm-1:     0.057940     0.015895     0.015309
Rotational constants in MHz :  1737.003649   476.531636   458.944814

                             ****ORCA TERMINATED NORMALLY****
TOTAL RUN TIME: 0 days 0 hours 59 minutes 12 seconds 294 msec
