                         Program Version 4.2.0 -  RELEASE  -
|  1> # Test redundant internal optimization
|  2> #
|  3> ! RKS B3LYP  Opt TightSCF SmallPrint
|  4>
|  5> %basis
|  6>         Basis "6-31G"
|  7> end
|  8>
|  9> %geom
| 10> Constraints
| 11> { D 4  0  15  12  15.0   C } # D for Dihedral angle
| 12> { D 0  15  12  16  150.0   C } # D for Dihedral angle
| 13> { D 0  4  3  2   C } # D for Dihedral angle
| 14> { D 4  3  2  1   C } # D for Dihedral angle
| 15> { D 3  2  1  0   C } # D for Dihedral angle
| 16> { D 2  1  0  4   C } # D for Dihedral angle
| 17> { D 1  0  4  3   C } # D for Dihedral angle
| 18> { D 16  20  19  18   C } # D for Dihedral angle
| 19> { D 20  19  18  17   C } # D for Dihedral angle
| 20> { D 19  18  17  16   C } # D for Dihedral angle
| 21> { D 18  17  16  20   C } # D for Dihedral angle
| 22> { D 17  16  20  19   C } # D for Dihedral angle
| 23> { D 15  12  16  20   C } # D for Dihedral angle
| 24> end
| 25> end
| 26>
| 27>
| 28> #%pal
| 29> #nprocs 8
| 30> #end
| 31>
| 32> * xyz 0 1
| 33> C  -21.048   26.222   46.251
| 34> C  -20.361   27.558   45.944
| 35> C  -20.329   28.222   47.341
| 36> C  -20.110   27.022   48.296
| 37> O  -20.473   25.807   47.535
| 38> H  -20.833   25.428   45.533
| 39> H  -19.344   27.382   45.576
| 40> H  -20.898   28.157   45.201
| 41> H  -19.543   28.978   47.434
| 42> H  -21.289   28.710   47.548
| 43> H  -20.733   27.082   49.195
| 44> H  -19.064   26.913   48.597
| 45> C  -23.128   26.462   47.829
| 46> H  -23.360   25.448   48.177
| 47> H  -22.372   26.890   48.501
| 48> O  -22.586   26.394   46.375
| 49> C  -24.413   27.327   47.951
| 50> C  -24.188   28.739   47.398
| 51> C  -24.308   28.501   45.874
| 52> C  -25.391   27.397   45.774
| 53> O  -25.483   26.776   47.113
| 54> H  -24.767   27.297   48.983
| 55> H  -24.981   29.410   47.748
| 56> O  -22.818   29.344   47.807
| 57> H  -24.583   29.406   45.323
| 58> H  -23.353   28.142   45.472
| 59> H  -25.138   26.627   45.037
| 60> H  -26.379   27.802   45.538
| 61> H  -22.009   28.688   47.466
| 62> *
| 63>
| 64>                          ****END OF INPUT****
 Total Charge           Charge          ....    0
 Multiplicity           Mult            ....    1
 Number of Electrons    NEL             ....  102
FINAL SINGLE POINT ENERGY      -652.737378854201
FINAL SINGLE POINT ENERGY      -652.785957243530
FINAL SINGLE POINT ENERGY      -652.815282289086
FINAL SINGLE POINT ENERGY      -652.832528278290
FINAL SINGLE POINT ENERGY      -652.842067915758
FINAL SINGLE POINT ENERGY      -652.847095087141
FINAL SINGLE POINT ENERGY      -652.849229847261
FINAL SINGLE POINT ENERGY      -652.849937220484
FINAL SINGLE POINT ENERGY      -652.850067282259
FINAL SINGLE POINT ENERGY      -652.850085750237
FINAL SINGLE POINT ENERGY      -652.857105987909
FINAL SINGLE POINT ENERGY      -652.857104995618
FINAL SINGLE POINT ENERGY      -652.857100102119
FINAL SINGLE POINT ENERGY      -652.857098439425
FINAL SINGLE POINT ENERGY      -652.857100706573
FINAL SINGLE POINT ENERGY      -652.857109782223
FINAL SINGLE POINT ENERGY      -652.857121199446
FINAL SINGLE POINT ENERGY      -652.857129707369
FINAL SINGLE POINT ENERGY      -652.857133985608
                    ***********************HURRAY********************

CARTESIAN COORDINATES (ANGSTROEM)
---------------------------------
  C    -21.079928   26.142044   46.410489
  C    -20.351586   27.407704   45.950822
  C    -20.092818   28.136214   47.296679
  C    -19.833486   26.968092   48.275556
  O    -20.383054   25.753945   47.612103
  H    -20.972056   25.306425   45.714319
  H    -19.410498   27.115337   45.470570
  H    -20.940796   27.997767   45.245312
  H    -19.241351   28.822470   47.244703
  H    -20.985026   28.694757   47.590250
  H    -20.326345   27.097034   49.243945
  H    -18.769116   26.774598   48.439849
  C    -23.135932   26.397957   47.873294
  H    -23.417442   25.391627   48.204681
  H    -22.445344   26.822498   48.606955
  O    -22.522646   26.301550   46.554038
  C    -24.405092   27.250043   47.841700
  C    -24.287729   28.715763   47.397043
  C    -24.357781   28.588086   45.847965
  C    -25.342221   27.412251   45.651767
  O    -25.402751   26.690744   46.940560
  H    -24.835924   27.187506   48.849105
  H    -25.166571   29.260626   47.769630
  O    -23.081473   29.319253   47.929362
  H    -24.706545   29.506970   45.363597
  H    -23.365166   28.329428   45.478290
  H    -25.007272   26.718865   44.875770
  H    -26.358756   27.748756   45.423132
  H    -23.057295   30.272690   47.715511

 Multiplicity           Mult            ....    1
 Number of Electrons    NEL             ....  102
 Basis Dimension        Dim             ....  149

ORBITAL ENERGIES
----------------

  NO   OCC          E(Eh)            E(eV)
   0   2.0000     -19.156478      -521.2743
   1   2.0000     -19.141468      -520.8658
   2   2.0000     -19.129529      -520.5409
   3   2.0000     -19.128795      -520.5210
   4   2.0000     -10.271747      -279.5084
   5   2.0000     -10.244565      -278.7688
   6   2.0000     -10.229502      -278.3589
   7   2.0000     -10.222865      -278.1783
   8   2.0000     -10.218884      -278.0700
   9   2.0000     -10.217568      -278.0342
  10   2.0000     -10.179267      -276.9919
  11   2.0000     -10.179115      -276.9878
  12   2.0000     -10.174996      -276.8757
  13   2.0000      -1.045406       -28.4469
  14   2.0000      -1.034948       -28.1624
  15   2.0000      -1.013201       -27.5706
  16   2.0000      -0.982320       -26.7303
  17   2.0000      -0.780453       -21.2372
  18   2.0000      -0.774121       -21.0649
  19   2.0000      -0.762207       -20.7407
  20   2.0000      -0.727654       -19.8005
  21   2.0000      -0.670212       -18.2374
  22   2.0000      -0.601243       -16.3607
  23   2.0000      -0.593884       -16.1604
  24   2.0000      -0.589076       -16.0296
  25   2.0000      -0.553258       -15.0549
  26   2.0000      -0.528221       -14.3736
  27   2.0000      -0.509456       -13.8630
  28   2.0000      -0.499536       -13.5931
  29   2.0000      -0.486271       -13.2321
  30   2.0000      -0.454373       -12.3641
  31   2.0000      -0.454043       -12.3551
  32   2.0000      -0.438238       -11.9251
  33   2.0000      -0.432242       -11.7619
  34   2.0000      -0.414666       -11.2836
  35   2.0000      -0.410061       -11.1583
  36   2.0000      -0.403087       -10.9685
  37   2.0000      -0.391618       -10.6565
  38   2.0000      -0.369962       -10.0672
  39   2.0000      -0.360653        -9.8139
  40   2.0000      -0.358097        -9.7443
  41   2.0000      -0.350404        -9.5350
  42   2.0000      -0.344591        -9.3768
  43   2.0000      -0.326911        -8.8957
  44   2.0000      -0.318789        -8.6747
  45   2.0000      -0.301093        -8.1932
  46   2.0000      -0.295944        -8.0531
  47   2.0000      -0.275723        -7.5028
  48   2.0000      -0.255853        -6.9621
  49   2.0000      -0.242996        -6.6123
  50   2.0000      -0.230414        -6.2699
  51   0.0000       0.048924         1.3313
  52   0.0000       0.081640         2.2215
  53   0.0000       0.091880         2.5002
  54   0.0000       0.107285         2.9194
  55   0.0000       0.114919         3.1271

MULLIKEN ATOMIC CHARGES
-----------------------
   0 C :    0.311331
   1 C :   -0.260719
   2 C :   -0.339837
   3 C :   -0.019026
   4 O :   -0.513802
   5 H :    0.155733
   6 H :    0.141153
   7 H :    0.145508
   8 H :    0.133426
   9 H :    0.201379
  10 H :    0.144725
  11 H :    0.144748
  12 C :    0.031406
  13 H :    0.149037
  14 H :    0.147815
  15 O :   -0.549538
  16 C :    0.084440
  17 C :    0.086302
  18 C :   -0.310630
  19 C :    0.001696
  20 O :   -0.519997
  21 H :    0.145633
  22 H :    0.137118
  23 O :   -0.607718
  24 H :    0.122497
  25 H :    0.183046
  26 H :    0.154814
  27 H :    0.134036
  28 H :    0.365425
Sum of atomic charges:   -0.0000000

LOEWDIN ATOMIC CHARGES
----------------------
   0 C :    0.185391
   1 C :   -0.222791
   2 C :   -0.238358
   3 C :   -0.032987
   4 O :   -0.319049
   5 H :    0.104487
   6 H :    0.112258
   7 H :    0.115951
   8 H :    0.110986
   9 H :    0.132061
  10 H :    0.100656
  11 H :    0.102926
  12 C :   -0.027499
  13 H :    0.108308
  14 H :    0.108897
  15 O :   -0.342913
  16 C :    0.032539
  17 C :    0.035356
  18 C :   -0.245079
  19 C :   -0.022173
  20 O :   -0.320376
  21 H :    0.111822
  22 H :    0.096754
  23 O :   -0.412211
  24 H :    0.103812
  25 H :    0.127650
  26 H :    0.109792
  27 H :    0.097010
  28 H :    0.286782

  Mayer bond orders larger than 0.100000
B(  0-C ,  1-C ) :   0.9228 B(  0-C ,  4-O ) :   0.9144 B(  0-C ,  5-H ) :   0.9339
B(  0-C , 15-O ) :   0.8521 B(  1-C ,  2-C ) :   0.9560 B(  1-C ,  6-H ) :   0.9353
B(  1-C ,  7-H ) :   0.9356 B(  2-C ,  3-C ) :   0.9548 B(  2-C ,  8-H ) :   0.9460
B(  2-C ,  9-H ) :   0.9010 B(  3-C ,  4-O ) :   0.8289 B(  3-C , 10-H ) :   0.9303
B(  3-C , 11-H ) :   0.9408 B( 12-C , 13-H ) :   0.9235 B( 12-C , 14-H ) :   0.9001
B( 12-C , 15-O ) :   0.8297 B( 12-C , 16-C ) :   0.9225 B( 16-C , 17-C ) :   0.9202
B( 16-C , 20-O ) :   0.8757 B( 16-C , 21-H ) :   0.9276 B( 17-C , 18-C ) :   0.9272
B( 17-C , 22-H ) :   0.9242 B( 17-C , 23-O ) :   0.8615 B( 18-C , 19-C ) :   0.9470
B( 18-C , 24-H ) :   0.9422 B( 18-C , 25-H ) :   0.9192 B( 19-C , 20-O ) :   0.8440
B( 19-C , 26-H ) :   0.9310 B( 19-C , 27-H ) :   0.9368 B( 23-O , 28-H ) :   0.7997

FINAL SINGLE POINT ENERGY      -652.857133259997

DIPOLE MOMENT
-------------
                                X             Y             Z
Electronic contribution:     -2.66301      -3.71248       1.31873
Nuclear contribution   :      2.98437       5.52579      -1.53001
                        -----------------------------------------
Total Dipole Moment    :      0.32136       1.81331      -0.21128
                        -----------------------------------------
Magnitude (a.u.)       :      1.85364
Magnitude (Debye)      :      4.71159

Rotational constants in cm-1:     0.046858     0.018185     0.016763
Rotational constants in MHz :  1404.762296   545.167272   502.531931

                             ****ORCA TERMINATED NORMALLY****
TOTAL RUN TIME: 0 days 4 hours 16 minutes 36 seconds 783 msec
