                         Program Version 4.2.0 -  RELEASE  -
|  1> # Test redundant internal optimization
|  2> #
|  3> ! RKS B3LYP  Opt TightSCF SmallPrint
|  4>
|  5> %basis
|  6>         Basis "6-31G"
|  7> end
|  8>
|  9> %geom
| 10> Constraints
| 11> { D 4  0  15  12  180.0   C } # D for Dihedral angle
| 12> { D 0  15  12  16  315.0   C } # D for Dihedral angle
| 13> { D 0  4  3  2   C } # D for Dihedral angle
| 14> { D 4  3  2  1   C } # D for Dihedral angle
| 15> { D 3  2  1  0   C } # D for Dihedral angle
| 16> { D 2  1  0  4   C } # D for Dihedral angle
| 17> { D 1  0  4  3   C } # D for Dihedral angle
| 18> { D 16  20  19  18   C } # D for Dihedral angle
| 19> { D 20  19  18  17   C } # D for Dihedral angle
| 20> { D 19  18  17  16   C } # D for Dihedral angle
| 21> { D 18  17  16  20   C } # D for Dihedral angle
| 22> { D 17  16  20  19   C } # D for Dihedral angle
| 23> { D 15  12  16  20   C } # D for Dihedral angle
| 24> end
| 25> end
| 26>
| 27>
| 28> #%pal
| 29> #nprocs 8
| 30> #end
| 31>
| 32> * xyz 0 1
| 33> C  -21.048   26.222   46.251
| 34> C  -20.361   27.558   45.944
| 35> C  -20.329   28.222   47.341
| 36> C  -20.110   27.022   48.296
| 37> O  -20.473   25.807   47.535
| 38> H  -20.833   25.428   45.533
| 39> H  -19.344   27.382   45.576
| 40> H  -20.898   28.157   45.201
| 41> H  -19.543   28.978   47.434
| 42> H  -21.289   28.710   47.548
| 43> H  -20.733   27.082   49.195
| 44> H  -19.064   26.913   48.597
| 45> C  -23.309   26.834   45.072
| 46> H  -23.378   25.977   44.390
| 47> H  -24.327   27.178   45.295
| 48> O  -22.586   26.394   46.375
| 49> C  -22.571   27.986   44.336
| 50> C  -23.369   28.472   43.121
| 51> C  -24.437   29.373   43.787
| 52> C  -23.669   30.009   44.973
| 53> O  -22.474   29.167   45.200
| 54> H  -21.550   27.671   44.109
| 55> O  -22.456   29.306   42.181
| 56> H  -23.808   27.653   42.540
| 57> H  -24.845   30.124   43.103
| 58> H  -25.271   28.762   44.151
| 59> H  -24.266   30.039   45.891
| 60> H  -23.314   31.019   44.747
| 61> H  -22.007   30.132   42.743
| 62> *
| 63>
| 64>                          ****END OF INPUT****
 Total Charge           Charge          ....    0
 Multiplicity           Mult            ....    1
 Number of Electrons    NEL             ....  102
FINAL SINGLE POINT ENERGY      -652.797967534164
FINAL SINGLE POINT ENERGY      -652.829374423630
FINAL SINGLE POINT ENERGY      -652.847768014452
FINAL SINGLE POINT ENERGY      -652.850846511513
FINAL SINGLE POINT ENERGY      -652.851365087831
FINAL SINGLE POINT ENERGY      -652.851451890244
                    ***********************HURRAY********************

CARTESIAN COORDINATES (ANGSTROEM)
---------------------------------
  C    -20.903439   26.234683   46.200136
  C    -20.057608   27.501766   46.067373
  C    -20.231477   28.157624   47.464517
  C    -20.304525   26.932896   48.398658
  O    -20.624806   25.776400   47.529238
  H    -20.645735   25.426469   45.506978
  H    -19.015321   27.195674   45.910287
  H    -20.341615   28.183349   45.270306
  H    -19.405531   28.829514   47.715970
  H    -21.165250   28.725205   47.474621
  H    -21.082097   27.017318   49.162627
  H    -19.347566   26.706396   48.879341
  C    -23.111331   26.927922   45.044157
  H    -23.263456   26.087385   44.343820
  H    -24.082923   27.174654   45.481597
  O    -22.351307   26.455675   46.187535
  C    -22.594690   28.102332   44.210473
  C    -23.569035   28.494359   43.088368
  C    -24.584879   29.391830   43.849213
  C    -23.693021   30.116851   44.890241
  O    -22.440248   29.330899   44.994717
  H    -21.618424   27.871979   43.778516
  O    -22.880490   29.223101   42.036416
  H    -24.032825   27.643971   42.587887
  H    -25.084534   30.079146   43.162033
  H    -25.347841   28.776083   44.335899
  H    -24.157774   30.175414   45.878488
  H    -23.414555   31.127389   44.574873
  H    -22.309695   29.910717   42.440715

 Multiplicity           Mult            ....    1
 Number of Electrons    NEL             ....  102
 Basis Dimension        Dim             ....  149

ORBITAL ENERGIES
----------------

  NO   OCC          E(Eh)            E(eV)
   0   2.0000     -19.153931      -521.2050
   1   2.0000     -19.147872      -521.0401
   2   2.0000     -19.133018      -520.6359
   3   2.0000     -19.132224      -520.6143
   4   2.0000     -10.275407      -279.6080
   5   2.0000     -10.252018      -278.9716
   6   2.0000     -10.243186      -278.7313
   7   2.0000     -10.240749      -278.6649
   8   2.0000     -10.235494      -278.5219
   9   2.0000     -10.216227      -277.9977
  10   2.0000     -10.198600      -277.5180
  11   2.0000     -10.176496      -276.9165
  12   2.0000     -10.174710      -276.8679
  13   2.0000      -1.049507       -28.5585
  14   2.0000      -1.042708       -28.3735
  15   2.0000      -1.016080       -27.6490
  16   2.0000      -0.983743       -26.7690
  17   2.0000      -0.793721       -21.5983
  18   2.0000      -0.775412       -21.1000
  19   2.0000      -0.774164       -21.0661
  20   2.0000      -0.732274       -19.9262
  21   2.0000      -0.677422       -18.4336
  22   2.0000      -0.614942       -16.7334
  23   2.0000      -0.607522       -16.5315
  24   2.0000      -0.590533       -16.0692
  25   2.0000      -0.572218       -15.5709
  26   2.0000      -0.530408       -14.4331
  27   2.0000      -0.513992       -13.9864
  28   2.0000      -0.492649       -13.4057
  29   2.0000      -0.490293       -13.3416
  30   2.0000      -0.473260       -12.8781
  31   2.0000      -0.455709       -12.4005
  32   2.0000      -0.451206       -12.2779
  33   2.0000      -0.450053       -12.2466
  34   2.0000      -0.423758       -11.5311
  35   2.0000      -0.414563       -11.2808
  36   2.0000      -0.405822       -11.0430
  37   2.0000      -0.399528       -10.8717
  38   2.0000      -0.380947       -10.3661
  39   2.0000      -0.369898       -10.0654
  40   2.0000      -0.366089        -9.9618
  41   2.0000      -0.347831        -9.4650
  42   2.0000      -0.341442        -9.2911
  43   2.0000      -0.339135        -9.2283
  44   2.0000      -0.319859        -8.7038
  45   2.0000      -0.305501        -8.3131
  46   2.0000      -0.291895        -7.9429
  47   2.0000      -0.281316        -7.6550
  48   2.0000      -0.261100        -7.1049
  49   2.0000      -0.250427        -6.8145
  50   2.0000      -0.241946        -6.5837
  51   0.0000       0.055305         1.5049
  52   0.0000       0.082751         2.2518
  53   0.0000       0.085104         2.3158
  54   0.0000       0.088575         2.4103
  55   0.0000       0.101530         2.7628

MULLIKEN ATOMIC CHARGES
-----------------------
   0 C :    0.299284
   1 C :   -0.278393
   2 C :   -0.300015
   3 C :   -0.000317
   4 O :   -0.499349
   5 H :    0.135695
   6 H :    0.138245
   7 H :    0.166622
   8 H :    0.135074
   9 H :    0.173207
  10 H :    0.150144
  11 H :    0.137859
  12 C :    0.016713
  13 H :    0.123136
  14 H :    0.151601
  15 O :   -0.515883
  16 C :    0.038258
  17 C :    0.076831
  18 C :   -0.294614
  19 C :   -0.029439
  20 O :   -0.524829
  21 H :    0.159486
  22 O :   -0.598516
  23 H :    0.156863
  24 H :    0.165035
  25 H :    0.148853
  26 H :    0.155630
  27 H :    0.148568
  28 H :    0.364250
Sum of atomic charges:   -0.0000000

LOEWDIN ATOMIC CHARGES
----------------------
   0 C :    0.186498
   1 C :   -0.233818
   2 C :   -0.216036
   3 C :   -0.026742
   4 O :   -0.302482
   5 H :    0.094218
   6 H :    0.111765
   7 H :    0.124918
   8 H :    0.111688
   9 H :    0.123812
  10 H :    0.107074
  11 H :    0.100004
  12 C :   -0.038923
  13 H :    0.092762
  14 H :    0.113936
  15 O :   -0.333942
  16 C :   -0.003816
  17 C :    0.038300
  18 C :   -0.239288
  19 C :   -0.036814
  20 O :   -0.331064
  21 H :    0.112251
  22 O :   -0.411777
  23 H :    0.118048
  24 H :    0.127925
  25 H :    0.115746
  26 H :    0.108960
  27 H :    0.103677
  28 H :    0.283119

  Mayer bond orders larger than 0.100000
B(  0-C ,  1-C ) :   0.9300 B(  0-C ,  4-O ) :   0.9398 B(  0-C ,  5-H ) :   0.9212
B(  0-C , 15-O ) :   0.8289 B(  1-C ,  2-C ) :   0.9522 B(  1-C ,  6-H ) :   0.9322
B(  1-C ,  7-H ) :   0.9146 B(  2-C ,  3-C ) :   0.9548 B(  2-C ,  8-H ) :   0.9454
B(  2-C ,  9-H ) :   0.9359 B(  3-C ,  4-O ) :   0.8315 B(  3-C , 10-H ) :   0.9358
B(  3-C , 11-H ) :   0.9398 B( 12-C , 13-H ) :   0.9085 B( 12-C , 14-H ) :   0.9361
B( 12-C , 15-O ) :   0.8762 B( 12-C , 16-C ) :   0.8789 B( 16-C , 17-C ) :   0.8936
B( 16-C , 20-O ) :   0.8378 B( 16-C , 21-H ) :   0.9183 B( 17-C , 18-C ) :   0.9130
B( 17-C , 22-O ) :   0.8947 B( 17-C , 23-H ) :   0.9319 B( 18-C , 19-C ) :   0.9403
B( 18-C , 24-H ) :   0.9370 B( 18-C , 25-H ) :   0.9334 B( 19-C , 20-O ) :   0.8379
B( 19-C , 26-H ) :   0.9337 B( 19-C , 27-H ) :   0.9374 B( 22-O , 28-H ) :   0.7949

FINAL SINGLE POINT ENERGY      -652.851456917707

DIPOLE MOMENT
-------------
                                X             Y             Z
Electronic contribution:      0.27679      -3.09620      -0.90733
Nuclear contribution   :     -0.59956       4.18437       0.57840
                        -----------------------------------------
Total Dipole Moment    :     -0.32277       1.08816      -0.32892
                        -----------------------------------------
Magnitude (a.u.)       :      1.18173
Magnitude (Debye)      :      3.00371

Rotational constants in cm-1:     0.057910     0.013947     0.013376
Rotational constants in MHz :  1736.112966   418.110672   400.991766

                             ****ORCA TERMINATED NORMALLY****
TOTAL RUN TIME: 0 days 1 hours 55 minutes 46 seconds 856 msec
