                         Program Version 4.2.0 -  RELEASE  -
|  1> # Test redundant internal optimization
|  2> #
|  3> ! RKS B3LYP  Opt TightSCF SmallPrint
|  4>
|  5> %basis
|  6>         Basis "6-31G"
|  7> end
|  8>
|  9> %geom
| 10> Constraints
| 11> { D 4  0  15  12  315.0   C } # D for Dihedral angle
| 12> { D 0  15  12  16  255.0   C } # D for Dihedral angle
| 13> { D 0  4  3  2   C } # D for Dihedral angle
| 14> { D 4  3  2  1   C } # D for Dihedral angle
| 15> { D 3  2  1  0   C } # D for Dihedral angle
| 16> { D 2  1  0  4   C } # D for Dihedral angle
| 17> { D 1  0  4  3   C } # D for Dihedral angle
| 18> { D 16  20  19  18   C } # D for Dihedral angle
| 19> { D 20  19  18  17   C } # D for Dihedral angle
| 20> { D 19  18  17  16   C } # D for Dihedral angle
| 21> { D 18  17  16  20   C } # D for Dihedral angle
| 22> { D 17  16  20  19   C } # D for Dihedral angle
| 23> { D 15  12  16  20   C } # D for Dihedral angle
| 24> end
| 25> end
| 26>
| 27>
| 28> #%pal
| 29> #nprocs 8
| 30> #end
| 31>
| 32> * xyz 0 1
| 33> C  -21.048   26.222   46.251
| 34> C  -20.361   27.558   45.944
| 35> C  -20.329   28.222   47.341
| 36> C  -20.110   27.022   48.296
| 37> O  -20.473   25.807   47.535
| 38> H  -20.833   25.428   45.533
| 39> H  -19.344   27.382   45.576
| 40> H  -20.898   28.157   45.201
| 41> H  -19.543   28.978   47.434
| 42> H  -21.289   28.710   47.548
| 43> H  -20.733   27.082   49.195
| 44> H  -19.064   26.913   48.597
| 45> C  -23.319   25.255   47.135
| 46> H  -22.584   24.660   47.692
| 47> H  -24.037   25.672   47.853
| 48> O  -22.586   26.394   46.375
| 49> C  -24.098   24.304   46.185
| 50> C  -25.086   25.081   45.306
| 51> C  -24.150   25.654   44.215
| 52> C  -23.098   24.532   44.029
| 53> O  -23.184   23.671   45.229
| 54> H  -24.551   23.503   46.773
| 55> O  -26.123   24.108   44.682
| 56> H  -25.628   25.860   45.853
| 57> H  -24.676   25.891   43.285
| 58> H  -23.673   26.574   44.574
| 59> H  -22.079   24.922   43.939
| 60> H  -23.312   23.899   43.163
| 61> H  -25.602   23.319   44.129
| 62> *
| 63>
| 64>                          ****END OF INPUT****
 Total Charge           Charge          ....    0
 Multiplicity           Mult            ....    1
 Number of Electrons    NEL             ....  102
FINAL SINGLE POINT ENERGY      -652.839101860113
FINAL SINGLE POINT ENERGY      -652.862345946656
FINAL SINGLE POINT ENERGY      -652.866613302859
FINAL SINGLE POINT ENERGY      -652.868493183275
FINAL SINGLE POINT ENERGY      -652.868631977874
FINAL SINGLE POINT ENERGY      -652.868654399755
FINAL SINGLE POINT ENERGY      -652.868655402956
                    ***********************HURRAY********************

CARTESIAN COORDINATES (ANGSTROEM)
---------------------------------
  C    -21.023135   26.199305   46.290348
  C    -20.389726   27.564173   46.025127
  C    -20.375934   28.184921   47.439302
  C    -20.109551   26.972260   48.356727
  O    -20.438204   25.769673   47.539886
  H    -20.803197   25.406317   45.572350
  H    -19.372749   27.420713   45.643082
  H    -20.961746   28.152288   45.304050
  H    -19.614052   28.962624   47.550049
  H    -21.353897   28.624869   47.654939
  H    -20.728563   26.966671   49.257383
  H    -19.058096   26.873341   48.640594
  C    -23.210593   25.351448   47.078897
  H    -22.514310   24.754484   47.674286
  H    -23.906136   25.861146   47.756832
  O    -22.463687   26.398905   46.382150
  C    -23.993499   24.440858   46.134617
  C    -25.068518   25.097193   45.253669
  C    -24.226708   25.595798   44.049849
  C    -23.145201   24.497713   43.899135
  O    -23.118320   23.750729   45.180859
  H    -24.456770   23.659086   46.750369
  O    -26.076929   24.123897   44.860249
  H    -25.618632   25.894123   45.754488
  H    -24.849947   25.706031   43.158172
  H    -23.769959   26.554732   44.301360
  H    -22.151264   24.911637   43.705104
  H    -23.381760   23.773476   43.112656
  H    -25.629918   23.311588   44.541470

 Multiplicity           Mult            ....    1
 Number of Electrons    NEL             ....  102
 Basis Dimension        Dim             ....  149

ORBITAL ENERGIES
----------------

  NO   OCC          E(Eh)            E(eV)
   0   2.0000     -19.147499      -521.0299
   1   2.0000     -19.145521      -520.9761
   2   2.0000     -19.140460      -520.8384
   3   2.0000     -19.133228      -520.6416
   4   2.0000     -10.279162      -279.7102
   5   2.0000     -10.234981      -278.5080
   6   2.0000     -10.230151      -278.3766
   7   2.0000     -10.229842      -278.3682
   8   2.0000     -10.225870      -278.2601
   9   2.0000     -10.225033      -278.2373
  10   2.0000     -10.188704      -277.2487
  11   2.0000     -10.188252      -277.2364
  12   2.0000     -10.176962      -276.9292
  13   2.0000      -1.056569       -28.7507
  14   2.0000      -1.031713       -28.0743
  15   2.0000      -1.002483       -27.2789
  16   2.0000      -0.991922       -26.9916
  17   2.0000      -0.792769       -21.5723
  18   2.0000      -0.774106       -21.0645
  19   2.0000      -0.763928       -20.7875
  20   2.0000      -0.732812       -19.9408
  21   2.0000      -0.671654       -18.2766
  22   2.0000      -0.603984       -16.4352
  23   2.0000      -0.598112       -16.2754
  24   2.0000      -0.596876       -16.2418
  25   2.0000      -0.569686       -15.5019
  26   2.0000      -0.524548       -14.2737
  27   2.0000      -0.507306       -13.8045
  28   2.0000      -0.493156       -13.4195
  29   2.0000      -0.491341       -13.3701
  30   2.0000      -0.467471       -12.7205
  31   2.0000      -0.461496       -12.5580
  32   2.0000      -0.446335       -12.1454
  33   2.0000      -0.441332       -12.0092
  34   2.0000      -0.415001       -11.2927
  35   2.0000      -0.411830       -11.2065
  36   2.0000      -0.398682       -10.8487
  37   2.0000      -0.388373       -10.5682
  38   2.0000      -0.375224       -10.2104
  39   2.0000      -0.364715        -9.9244
  40   2.0000      -0.361575        -9.8390
  41   2.0000      -0.358684        -9.7603
  42   2.0000      -0.347632        -9.4595
  43   2.0000      -0.336404        -9.1540
  44   2.0000      -0.325620        -8.8606
  45   2.0000      -0.305588        -8.3155
  46   2.0000      -0.295269        -8.0347
  47   2.0000      -0.274998        -7.4831
  48   2.0000      -0.264798        -7.2055
  49   2.0000      -0.260364        -7.0849
  50   2.0000      -0.238570        -6.4918
  51   0.0000       0.066133         1.7996
  52   0.0000       0.084542         2.3005
  53   0.0000       0.102282         2.7832
  54   0.0000       0.104647         2.8476
  55   0.0000       0.108691         2.9576

MULLIKEN ATOMIC CHARGES
-----------------------
   0 C :    0.288772
   1 C :   -0.263479
   2 C :   -0.299386
   3 C :   -0.009541
   4 O :   -0.511798
   5 H :    0.165875
   6 H :    0.146545
   7 H :    0.156084
   8 H :    0.143621
   9 H :    0.161312
  10 H :    0.147363
  11 H :    0.147428
  12 C :   -0.026549
  13 H :    0.179673
  14 H :    0.136534
  15 O :   -0.533015
  16 C :    0.070078
  17 C :    0.078988
  18 C :   -0.286597
  19 C :   -0.023902
  20 O :   -0.527909
  21 H :    0.154146
  22 O :   -0.604437
  23 H :    0.152158
  24 H :    0.149338
  25 H :    0.169629
  26 H :    0.136890
  27 H :    0.139785
  28 H :    0.362392
Sum of atomic charges:   -0.0000000

LOEWDIN ATOMIC CHARGES
----------------------
   0 C :    0.174834
   1 C :   -0.215574
   2 C :   -0.216306
   3 C :   -0.029193
   4 O :   -0.321278
   5 H :    0.105360
   6 H :    0.114947
   7 H :    0.123429
   8 H :    0.114867
   9 H :    0.118714
  10 H :    0.105296
  11 H :    0.105476
  12 C :   -0.046962
  13 H :    0.124058
  14 H :    0.106309
  15 O :   -0.338321
  16 C :    0.007572
  17 C :    0.038702
  18 C :   -0.241841
  19 C :   -0.034970
  20 O :   -0.333551
  21 H :    0.114838
  22 O :   -0.417891
  23 H :    0.116216
  24 H :    0.119019
  25 H :    0.127795
  26 H :    0.098577
  27 H :    0.098218
  28 H :    0.281659

  Mayer bond orders larger than 0.100000
B(  0-C ,  1-C ) :   0.9468 B(  0-C ,  4-O ) :   0.8995 B(  0-C ,  5-H ) :   0.9128
B(  0-C , 15-O ) :   0.8400 B(  1-C ,  2-C ) :   0.9537 B(  1-C ,  6-H ) :   0.9388
B(  1-C ,  7-H ) :   0.9360 B(  2-C ,  3-C ) :   0.9564 B(  2-C ,  8-H ) :   0.9449
B(  2-C ,  9-H ) :   0.9443 B(  3-C ,  4-O ) :   0.8314 B(  3-C , 10-H ) :   0.9357
B(  3-C , 11-H ) :   0.9405 B( 12-C , 13-H ) :   0.9064 B( 12-C , 14-H ) :   0.9282
B( 12-C , 15-O ) :   0.8521 B( 12-C , 16-C ) :   0.8941 B( 16-C , 17-C ) :   0.9080
B( 16-C , 20-O ) :   0.8642 B( 16-C , 21-H ) :   0.9190 B( 17-C , 18-C ) :   0.9232
B( 17-C , 22-O ) :   0.8897 B( 17-C , 23-H ) :   0.9360 B( 18-C , 19-C ) :   0.9434
B( 18-C , 24-H ) :   0.9372 B( 18-C , 25-H ) :   0.9208 B( 19-C , 20-O ) :   0.8450
B( 19-C , 26-H ) :   0.9314 B( 19-C , 27-H ) :   0.9382 B( 22-O , 28-H ) :   0.7960

FINAL SINGLE POINT ENERGY      -652.868653798307

DIPOLE MOMENT
-------------
                                X             Y             Z
Electronic contribution:     -2.59431      -4.86768       0.15953
Nuclear contribution   :      3.30320       5.81697      -0.13735
                        -----------------------------------------
Total Dipole Moment    :      0.70890       0.94929       0.02219
                        -----------------------------------------
Magnitude (a.u.)       :      1.18498
Magnitude (Debye)      :      3.01198

Rotational constants in cm-1:     0.063949     0.013677     0.013275
Rotational constants in MHz :  1917.129735   410.034995   397.967506

                             ****ORCA TERMINATED NORMALLY****
TOTAL RUN TIME: 0 days 1 hours 24 minutes 24 seconds 42 msec
