                         Program Version 4.2.0 -  RELEASE  -
|  1> # Test redundant internal optimization
|  2> #
|  3> ! RKS B3LYP  Opt TightSCF SmallPrint
|  4>
|  5> %basis
|  6>         Basis "6-31G"
|  7> end
|  8>
|  9> %geom
| 10> Constraints
| 11> { D 4  0  15  12  300.0   C } # D for Dihedral angle
| 12> { D 0  15  12  16  345.0   C } # D for Dihedral angle
| 13> { D 0  4  3  2   C } # D for Dihedral angle
| 14> { D 4  3  2  1   C } # D for Dihedral angle
| 15> { D 3  2  1  0   C } # D for Dihedral angle
| 16> { D 2  1  0  4   C } # D for Dihedral angle
| 17> { D 1  0  4  3   C } # D for Dihedral angle
| 18> { D 16  20  19  18   C } # D for Dihedral angle
| 19> { D 20  19  18  17   C } # D for Dihedral angle
| 20> { D 19  18  17  16   C } # D for Dihedral angle
| 21> { D 18  17  16  20   C } # D for Dihedral angle
| 22> { D 17  16  20  19   C } # D for Dihedral angle
| 23> { D 15  12  16  20   C } # D for Dihedral angle
| 24> end
| 25> end
| 26>
| 27>
| 28> #%pal
| 29> #nprocs 8
| 30> #end
| 31>
| 32> * xyz 0 1
| 33> C  -21.048   26.222   46.251
| 34> C  -20.361   27.558   45.944
| 35> C  -20.329   28.222   47.341
| 36> C  -20.110   27.022   48.296
| 37> O  -20.473   25.807   47.535
| 38> H  -20.833   25.428   45.533
| 39> H  -19.344   27.382   45.576
| 40> H  -20.898   28.157   45.201
| 41> H  -19.543   28.978   47.434
| 42> H  -21.289   28.710   47.548
| 43> H  -20.733   27.082   49.195
| 44> H  -19.064   26.913   48.597
| 45> C  -23.362   25.116   46.798
| 46> H  -23.674   25.213   47.845
| 47> H  -24.261   24.991   46.181
| 48> O  -22.586   26.394   46.375
| 49> C  -22.510   23.824   46.659
| 50> C  -23.340   22.574   46.973
| 51> C  -24.128   22.382   45.655
| 52> C  -23.116   22.834   44.572
| 53> O  -22.087   23.635   45.268
| 54> H  -21.603   23.926   47.259
| 55> O  -22.404   21.363   47.234
| 56> H  -23.994   22.699   47.844
| 57> H  -24.463   21.350   45.508
| 58> H  -25.015   23.026   45.649
| 59> H  -23.582   23.447   43.793
| 60> H  -22.604   21.990   44.101
| 61> H  -21.740   21.219   46.375
| 62> *
| 63>
| 64>                          ****END OF INPUT****
 Total Charge           Charge          ....    0
 Multiplicity           Mult            ....    1
 Number of Electrons    NEL             ....  102
FINAL SINGLE POINT ENERGY      -652.836652864097
FINAL SINGLE POINT ENERGY      -652.859946049964
FINAL SINGLE POINT ENERGY      -652.864174603709
FINAL SINGLE POINT ENERGY      -652.864903554443
FINAL SINGLE POINT ENERGY      -652.865043970573
FINAL SINGLE POINT ENERGY      -652.865060954326
FINAL SINGLE POINT ENERGY      -652.865063589317
                    ***********************HURRAY********************

CARTESIAN COORDINATES (ANGSTROEM)
---------------------------------
  C    -20.979175   26.210743   46.213241
  C    -20.450194   27.626573   45.974900
  C    -20.439762   28.204304   47.408753
  C    -20.062065   26.982558   48.278384
  O    -20.325676   25.785702   47.439397
  H    -20.729772   25.461927   45.460829
  H    -19.436627   27.565809   45.562791
  H    -21.083904   28.189415   45.286814
  H    -19.731409   29.030156   47.526893
  H    -21.440030   28.564845   47.664527
  H    -20.652998   26.911470   49.195690
  H    -18.998504   26.957184   48.534509
  C    -23.184761   25.138824   46.737424
  H    -23.492216   25.259831   47.785119
  H    -24.081471   25.172308   46.110620
  O    -22.411027   26.320603   46.360959
  C    -22.476600   23.787825   46.607261
  C    -23.381451   22.595443   46.959169
  C    -24.172370   22.398962   45.636658
  C    -23.125616   22.753738   44.548499
  O    -22.054608   23.522442   45.225537
  H    -21.568367   23.791840   47.213005
  O    -22.591602   21.422649   47.292999
  H    -24.023388   22.767543   47.824159
  H    -24.539028   21.372836   45.556423
  H    -25.032033   23.076944   45.600738
  H    -23.544050   23.361629   43.740451
  H    -22.658496   21.865863   44.111886
  H    -21.826800   21.364032   46.682364

 Multiplicity           Mult            ....    1
 Number of Electrons    NEL             ....  102
 Basis Dimension        Dim             ....  149

ORBITAL ENERGIES
----------------

  NO   OCC          E(Eh)            E(eV)
   0   2.0000     -19.145214      -520.9678
   1   2.0000     -19.138346      -520.7809
   2   2.0000     -19.136274      -520.7245
   3   2.0000     -19.135997      -520.7169
   4   2.0000     -10.267025      -279.3800
   5   2.0000     -10.244004      -278.7535
   6   2.0000     -10.232564      -278.4422
   7   2.0000     -10.231155      -278.4039
   8   2.0000     -10.228954      -278.3440
   9   2.0000     -10.221383      -278.1380
  10   2.0000     -10.190843      -277.3069
  11   2.0000     -10.180142      -277.0158
  12   2.0000     -10.178743      -276.9777
  13   2.0000      -1.047947       -28.5161
  14   2.0000      -1.035786       -28.1852
  15   2.0000      -1.006929       -27.3999
  16   2.0000      -0.985424       -26.8148
  17   2.0000      -0.788353       -21.4522
  18   2.0000      -0.779820       -21.2200
  19   2.0000      -0.762801       -20.7569
  20   2.0000      -0.729652       -19.8548
  21   2.0000      -0.671445       -18.2710
  22   2.0000      -0.605520       -16.4770
  23   2.0000      -0.602298       -16.3894
  24   2.0000      -0.592964       -16.1354
  25   2.0000      -0.565274       -15.3819
  26   2.0000      -0.525745       -14.3062
  27   2.0000      -0.507911       -13.8210
  28   2.0000      -0.493723       -13.4349
  29   2.0000      -0.479656       -13.0521
  30   2.0000      -0.474833       -12.9209
  31   2.0000      -0.456716       -12.4279
  32   2.0000      -0.446911       -12.1611
  33   2.0000      -0.439450       -11.9580
  34   2.0000      -0.415719       -11.3123
  35   2.0000      -0.405127       -11.0241
  36   2.0000      -0.398524       -10.8444
  37   2.0000      -0.394177       -10.7261
  38   2.0000      -0.378126       -10.2893
  39   2.0000      -0.366814        -9.9815
  40   2.0000      -0.361250        -9.8301
  41   2.0000      -0.351549        -9.5661
  42   2.0000      -0.342703        -9.3254
  43   2.0000      -0.332737        -9.0542
  44   2.0000      -0.322638        -8.7794
  45   2.0000      -0.312315        -8.4985
  46   2.0000      -0.292321        -7.9545
  47   2.0000      -0.274334        -7.4650
  48   2.0000      -0.263063        -7.1583
  49   2.0000      -0.245663        -6.6848
  50   2.0000      -0.241765        -6.5787
  51   0.0000       0.065960         1.7949
  52   0.0000       0.087464         2.3800
  53   0.0000       0.089666         2.4399
  54   0.0000       0.101156         2.7526
  55   0.0000       0.104362         2.8398

MULLIKEN ATOMIC CHARGES
-----------------------
   0 C :    0.277508
   1 C :   -0.260546
   2 C :   -0.297647
   3 C :   -0.003671
   4 O :   -0.523156
   5 H :    0.185566
   6 H :    0.144333
   7 H :    0.157614
   8 H :    0.138184
   9 H :    0.159899
  10 H :    0.141913
  11 H :    0.142446
  12 C :    0.031722
  13 H :    0.134118
  14 H :    0.140821
  15 O :   -0.541231
  16 C :    0.012992
  17 C :    0.078255
  18 C :   -0.297281
  19 C :   -0.024054
  20 O :   -0.528374
  21 H :    0.206730
  22 O :   -0.600353
  23 H :    0.153158
  24 H :    0.162641
  25 H :    0.145494
  26 H :    0.148513
  27 H :    0.147683
  28 H :    0.366722
Sum of atomic charges:   -0.0000000

LOEWDIN ATOMIC CHARGES
----------------------
   0 C :    0.166865
   1 C :   -0.212028
   2 C :   -0.216075
   3 C :   -0.029504
   4 O :   -0.336098
   5 H :    0.115435
   6 H :    0.113582
   7 H :    0.124792
   8 H :    0.111875
   9 H :    0.118008
  10 H :    0.102278
  11 H :    0.102319
  12 C :   -0.035803
  13 H :    0.102284
  14 H :    0.105771
  15 O :   -0.328179
  16 C :   -0.006032
  17 C :    0.039590
  18 C :   -0.241133
  19 C :   -0.037203
  20 O :   -0.333310
  21 H :    0.135442
  22 O :   -0.412727
  23 H :    0.116057
  24 H :    0.126894
  25 H :    0.113332
  26 H :    0.105431
  27 H :    0.103516
  28 H :    0.284621

  Mayer bond orders larger than 0.100000
B(  0-C ,  1-C ) :   0.9455 B(  0-C ,  4-O ) :   0.8754 B(  0-C ,  5-H ) :   0.9009
B(  0-C , 15-O ) :   0.8529 B(  1-C ,  2-C ) :   0.9545 B(  1-C ,  6-H ) :   0.9411
B(  1-C ,  7-H ) :   0.9368 B(  2-C ,  3-C ) :   0.9559 B(  2-C ,  8-H ) :   0.9456
B(  2-C ,  9-H ) :   0.9446 B(  3-C ,  4-O ) :   0.8364 B(  3-C , 10-H ) :   0.9365
B(  3-C , 11-H ) :   0.9408 B( 12-C , 13-H ) :   0.9164 B( 12-C , 14-H ) :   0.9326
B( 12-C , 15-O ) :   0.8416 B( 12-C , 16-C ) :   0.9046 B( 16-C , 17-C ) :   0.8942
B( 16-C , 20-O ) :   0.8282 B( 16-C , 21-H ) :   0.8959 B( 17-C , 18-C ) :   0.9096
B( 17-C , 22-O ) :   0.8967 B( 17-C , 23-H ) :   0.9335 B( 18-C , 19-C ) :   0.9433
B( 18-C , 24-H ) :   0.9376 B( 18-C , 25-H ) :   0.9332 B( 19-C , 20-O ) :   0.8419
B( 19-C , 26-H ) :   0.9345 B( 19-C , 27-H ) :   0.9383 B( 22-O , 28-H ) :   0.7932

FINAL SINGLE POINT ENERGY      -652.865063849839

DIPOLE MOMENT
-------------
                                X             Y             Z
Electronic contribution:      0.85766      -3.24166       0.06720
Nuclear contribution   :     -1.23927       3.67316      -0.39604
                        -----------------------------------------
Total Dipole Moment    :     -0.38160       0.43150      -0.32883
                        -----------------------------------------
Magnitude (a.u.)       :      0.66328
Magnitude (Debye)      :      1.68594

Rotational constants in cm-1:     0.061123     0.013736     0.012823
Rotational constants in MHz :  1832.408631   411.794252   384.435508

                             ****ORCA TERMINATED NORMALLY****
TOTAL RUN TIME: 0 days 0 hours 28 minutes 22 seconds 962 msec
