                         Program Version 4.2.0 -  RELEASE  -
|  1> # Test redundant internal optimization
|  2> #
|  3> ! RKS B3LYP  Opt TightSCF SmallPrint
|  4>
|  5> %basis
|  6>         Basis "6-31G"
|  7> end
|  8>
|  9> %geom
| 10> Constraints
| 11> { D 4  0  15  12  285.0   C } # D for Dihedral angle
| 12> { D 0  15  12  16  330.0   C } # D for Dihedral angle
| 13> { D 0  4  3  2   C } # D for Dihedral angle
| 14> { D 4  3  2  1   C } # D for Dihedral angle
| 15> { D 3  2  1  0   C } # D for Dihedral angle
| 16> { D 2  1  0  4   C } # D for Dihedral angle
| 17> { D 1  0  4  3   C } # D for Dihedral angle
| 18> { D 16  20  19  18   C } # D for Dihedral angle
| 19> { D 20  19  18  17   C } # D for Dihedral angle
| 20> { D 19  18  17  16   C } # D for Dihedral angle
| 21> { D 18  17  16  20   C } # D for Dihedral angle
| 22> { D 17  16  20  19   C } # D for Dihedral angle
| 23> { D 15  12  16  20   C } # D for Dihedral angle
| 24> end
| 25> end
| 26>
| 27>
| 28> #%pal
| 29> #nprocs 8
| 30> #end
| 31>
| 32> * xyz 0 1
| 33> C  -21.048   26.222   46.251
| 34> C  -20.361   27.558   45.944
| 35> C  -20.329   28.222   47.341
| 36> C  -20.110   27.022   48.296
| 37> O  -20.473   25.807   47.535
| 38> H  -20.833   25.428   45.533
| 39> H  -19.344   27.382   45.576
| 40> H  -20.898   28.157   45.201
| 41> H  -19.543   28.978   47.434
| 42> H  -21.289   28.710   47.548
| 43> H  -20.733   27.082   49.195
| 44> H  -19.064   26.913   48.597
| 45> C  -23.396   25.070   46.435
| 46> H  -23.509   24.762   47.482
| 47> H  -24.397   25.213   46.009
| 48> O  -22.586   26.394   46.375
| 49> C  -22.712   23.912   45.657
| 50> C  -21.371   23.529   46.295
| 51> C  -21.829   22.661   47.491
| 52> C  -23.077   21.929   46.937
| 53> O  -23.517   22.689   45.747
| 54> H  -22.651   24.177   44.601
| 55> O  -20.529   22.687   45.297
| 56> H  -20.777   24.396   46.601
| 57> H  -21.055   21.967   47.832
| 58> H  -22.101   23.302   48.338
| 59> H  -23.897   21.891   47.662
| 60> H  -22.851   20.912   46.605
| 61> H  -21.105   21.811   44.976
| 62> *
| 63>
| 64>                          ****END OF INPUT****
 Total Charge           Charge          ....    0
 Multiplicity           Mult            ....    1
 Number of Electrons    NEL             ....  102
FINAL SINGLE POINT ENERGY      -652.806934569531
FINAL SINGLE POINT ENERGY      -652.838914730933
FINAL SINGLE POINT ENERGY      -652.857211455025
FINAL SINGLE POINT ENERGY      -652.859844628305
FINAL SINGLE POINT ENERGY      -652.860333581782
FINAL SINGLE POINT ENERGY      -652.860411674581
FINAL SINGLE POINT ENERGY      -652.860415984537
                    ***********************HURRAY********************

CARTESIAN COORDINATES (ANGSTROEM)
---------------------------------
  C    -20.867781   26.311494   46.231751
  C    -20.433545   27.761603   46.005127
  C    -20.544741   28.353194   47.431515
  C    -20.124531   27.168417   48.332277
  O    -20.252823   25.950907   47.494232
  H    -20.503691   25.605701   45.485025
  H    -19.395997   27.775495   45.652586
  H    -21.067917   28.268022   45.275673
  H    -19.905844   29.229354   47.575456
  H    -21.581060   28.639989   47.629567
  H    -20.758616   27.057175   49.215785
  H    -19.077575   27.223382   48.645049
  C    -23.092746   25.092167   46.340368
  H    -23.284708   24.846163   47.392848
  H    -24.045562   25.365401   45.882734
  O    -22.298577   26.322513   46.307258
  C    -22.586682   23.814395   45.638871
  C    -21.299991   23.154927   46.170646
  C    -21.811239   22.455822   47.465588
  C    -23.243138   22.012611   47.071532
  O    -23.628265   22.808178   45.883469
  H    -22.524991   23.958387   44.555940
  O    -20.797877   22.199450   45.193001
  H    -20.470195   23.821165   46.380014
  H    -21.162129   21.618299   47.731718
  H    -21.815550   23.172567   48.292654
  H    -23.977217   22.185961   47.864533
  H    -23.289111   20.958435   46.779556
  H    -21.542901   21.651827   44.866226

 Multiplicity           Mult            ....    1
 Number of Electrons    NEL             ....  102
 Basis Dimension        Dim             ....  149

ORBITAL ENERGIES
----------------

  NO   OCC          E(Eh)            E(eV)
   0   2.0000     -19.147229      -521.0226
   1   2.0000     -19.143197      -520.9129
   2   2.0000     -19.142771      -520.9013
   3   2.0000     -19.135682      -520.7084
   4   2.0000     -10.279825      -279.7283
   5   2.0000     -10.237417      -278.5743
   6   2.0000     -10.235642      -278.5260
   7   2.0000     -10.231646      -278.4173
   8   2.0000     -10.229457      -278.3577
   9   2.0000     -10.227211      -278.2966
  10   2.0000     -10.185299      -277.1561
  11   2.0000     -10.184799      -277.1425
  12   2.0000     -10.184249      -277.1275
  13   2.0000      -1.054169       -28.6854
  14   2.0000      -1.038010       -28.2457
  15   2.0000      -1.005182       -27.3524
  16   2.0000      -0.993506       -27.0347
  17   2.0000      -0.788829       -21.4651
  18   2.0000      -0.774615       -21.0783
  19   2.0000      -0.765327       -20.8256
  20   2.0000      -0.736374       -20.0378
  21   2.0000      -0.674377       -18.3507
  22   2.0000      -0.604767       -16.4565
  23   2.0000      -0.602955       -16.4073
  24   2.0000      -0.596177       -16.2228
  25   2.0000      -0.574640       -15.6367
  26   2.0000      -0.523215       -14.2374
  27   2.0000      -0.519129       -14.1262
  28   2.0000      -0.499109       -13.5814
  29   2.0000      -0.478930       -13.0324
  30   2.0000      -0.466911       -12.7053
  31   2.0000      -0.459315       -12.4986
  32   2.0000      -0.452685       -12.3182
  33   2.0000      -0.429658       -11.6916
  34   2.0000      -0.422692       -11.5020
  35   2.0000      -0.417934       -11.3726
  36   2.0000      -0.401839       -10.9346
  37   2.0000      -0.391011       -10.6400
  38   2.0000      -0.374676       -10.1954
  39   2.0000      -0.366657        -9.9772
  40   2.0000      -0.362303        -9.8588
  41   2.0000      -0.355736        -9.6801
  42   2.0000      -0.347344        -9.4517
  43   2.0000      -0.331896        -9.0314
  44   2.0000      -0.324200        -8.8219
  45   2.0000      -0.307560        -8.3691
  46   2.0000      -0.303169        -8.2497
  47   2.0000      -0.273322        -7.4375
  48   2.0000      -0.268263        -7.2998
  49   2.0000      -0.250340        -6.8121
  50   2.0000      -0.244964        -6.6658
  51   0.0000       0.065595         1.7849
  52   0.0000       0.075603         2.0573
  53   0.0000       0.092979         2.5301
  54   0.0000       0.100532         2.7356
  55   0.0000       0.107765         2.9324

MULLIKEN ATOMIC CHARGES
-----------------------
   0 C :    0.275386
   1 C :   -0.253876
   2 C :   -0.296480
   3 C :   -0.000381
   4 O :   -0.525833
   5 H :    0.154610
   6 H :    0.144316
   7 H :    0.157715
   8 H :    0.139471
   9 H :    0.163691
  10 H :    0.146398
  11 H :    0.144179
  12 C :    0.016265
  13 H :    0.136003
  14 H :    0.165671
  15 O :   -0.530143
  16 C :    0.018443
  17 C :    0.071538
  18 C :   -0.305706
  19 C :   -0.033262
  20 O :   -0.523975
  21 H :    0.162008
  22 O :   -0.604619
  23 H :    0.196694
  24 H :    0.162454
  25 H :    0.161966
  26 H :    0.148882
  27 H :    0.146200
  28 H :    0.362386
Sum of atomic charges:   -0.0000000

LOEWDIN ATOMIC CHARGES
----------------------
   0 C :    0.166042
   1 C :   -0.212357
   2 C :   -0.214839
   3 C :   -0.026066
   4 O :   -0.338975
   5 H :    0.100285
   6 H :    0.113134
   7 H :    0.124785
   8 H :    0.112971
   9 H :    0.120035
  10 H :    0.104770
  11 H :    0.103284
  12 C :   -0.039710
  13 H :    0.098814
  14 H :    0.122062
  15 O :   -0.327383
  16 C :    0.003468
  17 C :    0.028579
  18 C :   -0.240641
  19 C :   -0.040665
  20 O :   -0.326241
  21 H :    0.113928
  22 O :   -0.416238
  23 H :    0.133548
  24 H :    0.127035
  25 H :    0.122256
  26 H :    0.104859
  27 H :    0.102262
  28 H :    0.280995

  Mayer bond orders larger than 0.100000
B(  0-C ,  1-C ) :   0.9484 B(  0-C ,  4-O ) :   0.8804 B(  0-C ,  5-H ) :   0.9130
B(  0-C , 15-O ) :   0.8711 B(  1-C ,  2-C ) :   0.9568 B(  1-C ,  6-H ) :   0.9411
B(  1-C ,  7-H ) :   0.9368 B(  2-C ,  3-C ) :   0.9550 B(  2-C ,  8-H ) :   0.9457
B(  2-C ,  9-H ) :   0.9434 B(  3-C ,  4-O ) :   0.8302 B(  3-C , 10-H ) :   0.9363
B(  3-C , 11-H ) :   0.9404 B( 12-C , 13-H ) :   0.9250 B( 12-C , 14-H ) :   0.9310
B( 12-C , 15-O ) :   0.8337 B( 12-C , 16-C ) :   0.8880 B( 16-C , 17-C ) :   0.9047
B( 16-C , 20-O ) :   0.8296 B( 16-C , 21-H ) :   0.9231 B( 17-C , 18-C ) :   0.9119
B( 17-C , 22-O ) :   0.8810 B( 17-C , 23-H ) :   0.9049 B( 18-C , 19-C ) :   0.9423
B( 18-C , 24-H ) :   0.9377 B( 18-C , 25-H ) :   0.9305 B( 19-C , 20-O ) :   0.8351
B( 19-C , 26-H ) :   0.9354 B( 19-C , 27-H ) :   0.9379 B( 22-O , 28-H ) :   0.7956

FINAL SINGLE POINT ENERGY      -652.860415850733

DIPOLE MOMENT
-------------
                                X             Y             Z
Electronic contribution:     -1.36113      -3.09630      -3.24185
Nuclear contribution   :      1.37716       3.54214       3.79750
                        -----------------------------------------
Total Dipole Moment    :      0.01604       0.44585       0.55564
                        -----------------------------------------
Magnitude (a.u.)       :      0.71258
Magnitude (Debye)      :      1.81124

Rotational constants in cm-1:     0.053774     0.014475     0.013907
Rotational constants in MHz :  1612.117738   433.961344   416.932058

                             ****ORCA TERMINATED NORMALLY****
TOTAL RUN TIME: 0 days 1 hours 24 minutes 38 seconds 875 msec
