                         Program Version 4.2.0 -  RELEASE  -
|  1> # Test redundant internal optimization
|  2> #
|  3> ! RKS B3LYP  Opt TightSCF SmallPrint
|  4>
|  5> %basis
|  6>         Basis "6-31G"
|  7> end
|  8>
|  9> %geom
| 10> Constraints
| 11> { D 4  0  15  12  240.0   C } # D for Dihedral angle
| 12> { D 0  15  12  16  120.0   C } # D for Dihedral angle
| 13> { D 0  4  3  2   C } # D for Dihedral angle
| 14> { D 4  3  2  1   C } # D for Dihedral angle
| 15> { D 3  2  1  0   C } # D for Dihedral angle
| 16> { D 2  1  0  4   C } # D for Dihedral angle
| 17> { D 1  0  4  3   C } # D for Dihedral angle
| 18> { D 16  20  19  18   C } # D for Dihedral angle
| 19> { D 20  19  18  17   C } # D for Dihedral angle
| 20> { D 19  18  17  16   C } # D for Dihedral angle
| 21> { D 18  17  16  20   C } # D for Dihedral angle
| 22> { D 17  16  20  19   C } # D for Dihedral angle
| 23> { D 15  12  16  20   C } # D for Dihedral angle
| 24> end
| 25> end
| 26>
| 27>
| 28> #%pal
| 29> #nprocs 8
| 30> #end
| 31>
| 32> * xyz 0 1
| 33> C  -21.048   26.222   46.251
| 34> C  -20.361   27.558   45.944
| 35> C  -20.329   28.222   47.341
| 36> C  -20.110   27.022   48.296
| 37> O  -20.473   25.807   47.535
| 38> H  -20.833   25.428   45.533
| 39> H  -19.344   27.382   45.576
| 40> H  -20.898   28.157   45.201
| 41> H  -19.543   28.978   47.434
| 42> H  -21.289   28.710   47.548
| 43> H  -20.733   27.082   49.195
| 44> H  -19.064   26.913   48.597
| 45> C  -23.430   25.483   45.442
| 46> H  -24.035   26.109   44.775
| 47> H  -22.775   24.855   44.823
| 48> O  -22.586   26.394   46.375
| 49> C  -24.384   24.540   46.226
| 50> C  -23.616   23.694   47.248
| 51> C  -23.414   24.703   48.403
| 52> C  -24.716   25.543   48.368
| 53> O  -25.324   25.321   47.038
| 54> H  -24.979   23.962   45.517
| 55> O  -24.490   22.497   47.713
| 56> H  -22.671   23.301   46.858
| 57> H  -23.258   24.216   49.371
| 58> H  -22.542   25.336   48.202
| 59> H  -24.529   26.613   48.504
| 60> H  -25.446   25.213   49.114
| 61> H  -25.442   22.867   48.108
| 62> *
| 63>
| 64>                          ****END OF INPUT****
 Total Charge           Charge          ....    0
 Multiplicity           Mult            ....    1
 Number of Electrons    NEL             ....  102
FINAL SINGLE POINT ENERGY      -652.835068869607
FINAL SINGLE POINT ENERGY      -652.857538843476
FINAL SINGLE POINT ENERGY      -652.861540728117
FINAL SINGLE POINT ENERGY      -652.863989261788
FINAL SINGLE POINT ENERGY      -652.864160727271
FINAL SINGLE POINT ENERGY      -652.864188832849
FINAL SINGLE POINT ENERGY      -652.864190547983
                    ***********************HURRAY********************

CARTESIAN COORDINATES (ANGSTROEM)
---------------------------------
  C    -21.024237   26.205106   46.214197
  C    -20.376711   27.550837   45.882694
  C    -20.401797   28.262975   47.257142
  C    -20.167377   27.105693   48.252963
  O    -20.476530   25.857526   47.505139
  H    -20.776121   25.385404   45.532559
  H    -19.346257   27.386748   45.546136
  H    -20.923603   28.090209   45.106586
  H    -19.641345   29.044906   47.342015
  H    -21.385082   28.715486   47.416490
  H    -20.814933   27.155434   49.131639
  H    -19.125235   27.024953   48.575071
  C    -23.309891   25.507422   45.481898
  H    -23.903512   26.166173   44.839559
  H    -22.693188   24.858043   44.841641
  O    -22.460118   26.366817   46.298149
  C    -24.276379   24.645195   46.294973
  C    -23.681991   23.649128   47.300649
  C    -23.458631   24.549015   48.543491
  C    -24.655104   25.529180   48.484769
  O    -25.182299   25.467243   47.098744
  H    -24.902415   24.107612   45.570877
  O    -24.620341   22.564309   47.552823
  H    -22.769714   23.161780   46.954395
  H    -23.449775   23.944899   49.455597
  H    -22.506387   25.071755   48.444123
  H    -24.359340   26.559924   48.697172
  H    -25.475560   25.246160   49.153141
  H    -25.498124   22.948065   47.761369

 Multiplicity           Mult            ....    1
 Number of Electrons    NEL             ....  102
 Basis Dimension        Dim             ....  149

ORBITAL ENERGIES
----------------

  NO   OCC          E(Eh)            E(eV)
   0   2.0000     -19.149206      -521.0764
   1   2.0000     -19.148481      -521.0566
   2   2.0000     -19.133020      -520.6359
   3   2.0000     -19.129551      -520.5416
   4   2.0000     -10.287666      -279.9416
   5   2.0000     -10.236037      -278.5367
   6   2.0000     -10.231179      -278.4045
   7   2.0000     -10.230924      -278.3976
   8   2.0000     -10.229234      -278.3516
   9   2.0000     -10.217388      -278.0293
  10   2.0000     -10.190282      -277.2917
  11   2.0000     -10.190144      -277.2879
  12   2.0000     -10.166908      -276.6556
  13   2.0000      -1.059225       -28.8230
  14   2.0000      -1.027480       -27.9591
  15   2.0000      -1.002788       -27.2872
  16   2.0000      -0.994027       -27.0489
  17   2.0000      -0.792506       -21.5652
  18   2.0000      -0.772875       -21.0310
  19   2.0000      -0.759718       -20.6730
  20   2.0000      -0.734935       -19.9986
  21   2.0000      -0.673992       -18.3403
  22   2.0000      -0.604130       -16.4392
  23   2.0000      -0.600593       -16.3430
  24   2.0000      -0.590438       -16.0666
  25   2.0000      -0.577575       -15.7166
  26   2.0000      -0.525984       -14.3128
  27   2.0000      -0.501170       -13.6375
  28   2.0000      -0.500406       -13.6167
  29   2.0000      -0.489353       -13.3160
  30   2.0000      -0.473207       -12.8766
  31   2.0000      -0.449765       -12.2387
  32   2.0000      -0.447012       -12.1638
  33   2.0000      -0.438765       -11.9394
  34   2.0000      -0.429489       -11.6870
  35   2.0000      -0.408733       -11.1222
  36   2.0000      -0.402541       -10.9537
  37   2.0000      -0.381963       -10.3937
  38   2.0000      -0.372103       -10.1254
  39   2.0000      -0.363338        -9.8869
  40   2.0000      -0.361670        -9.8415
  41   2.0000      -0.353075        -9.6076
  42   2.0000      -0.350502        -9.5376
  43   2.0000      -0.327809        -8.9201
  44   2.0000      -0.320762        -8.7284
  45   2.0000      -0.312610        -8.5066
  46   2.0000      -0.298918        -8.1340
  47   2.0000      -0.273341        -7.4380
  48   2.0000      -0.260907        -7.0996
  49   2.0000      -0.258906        -7.0452
  50   2.0000      -0.233455        -6.3526
  51   0.0000       0.066340         1.8052
  52   0.0000       0.082091         2.2338
  53   0.0000       0.086880         2.3641
  54   0.0000       0.105824         2.8796
  55   0.0000       0.112373         3.0578

MULLIKEN ATOMIC CHARGES
-----------------------
   0 C :    0.283976
   1 C :   -0.251159
   2 C :   -0.300660
   3 C :   -0.005558
   4 O :   -0.503838
   5 H :    0.143382
   6 H :    0.144415
   7 H :    0.152227
   8 H :    0.144358
   9 H :    0.166326
  10 H :    0.149328
  11 H :    0.145841
  12 C :   -0.000892
  13 H :    0.157863
  14 H :    0.118874
  15 O :   -0.520523
  16 C :    0.073310
  17 C :    0.075262
  18 C :   -0.305776
  19 C :   -0.022152
  20 O :   -0.526297
  21 H :    0.151994
  22 O :   -0.604546
  23 H :    0.149101
  24 H :    0.143858
  25 H :    0.197914
  26 H :    0.148044
  27 H :    0.134016
  28 H :    0.361312
Sum of atomic charges:   -0.0000000

LOEWDIN ATOMIC CHARGES
----------------------
   0 C :    0.174833
   1 C :   -0.219511
   2 C :   -0.216227
   3 C :   -0.027814
   4 O :   -0.318279
   5 H :    0.098103
   6 H :    0.113551
   7 H :    0.121463
   8 H :    0.115558
   9 H :    0.121219
  10 H :    0.106242
  11 H :    0.104362
  12 C :   -0.032970
  13 H :    0.113590
  14 H :    0.095000
  15 O :   -0.330008
  16 C :    0.007600
  17 C :    0.038775
  18 C :   -0.247495
  19 C :   -0.033996
  20 O :   -0.332168
  21 H :    0.114401
  22 O :   -0.418315
  23 H :    0.114670
  24 H :    0.117032
  25 H :    0.138310
  26 H :    0.106279
  27 H :    0.094869
  28 H :    0.280923

  Mayer bond orders larger than 0.100000
B(  0-C ,  1-C ) :   0.9425 B(  0-C ,  4-O ) :   0.9094 B(  0-C ,  5-H ) :   0.9166
B(  0-C , 15-O ) :   0.8474 B(  1-C ,  2-C ) :   0.9568 B(  1-C ,  6-H ) :   0.9360
B(  1-C ,  7-H ) :   0.9384 B(  2-C ,  3-C ) :   0.9543 B(  2-C ,  8-H ) :   0.9449
B(  2-C ,  9-H ) :   0.9429 B(  3-C ,  4-O ) :   0.8314 B(  3-C , 10-H ) :   0.9344
B(  3-C , 11-H ) :   0.9400 B( 12-C , 13-H ) :   0.9282 B( 12-C , 14-H ) :   0.9115
B( 12-C , 15-O ) :   0.8543 B( 12-C , 16-C ) :   0.8971 B( 16-C , 17-C ) :   0.9073
B( 16-C , 20-O ) :   0.8750 B( 16-C , 21-H ) :   0.9173 B( 17-C , 18-C ) :   0.9255
B( 17-C , 22-O ) :   0.8886 B( 17-C , 23-H ) :   0.9362 B( 18-C , 19-C ) :   0.9424
B( 18-C , 24-H ) :   0.9394 B( 18-C , 25-H ) :   0.8971 B( 19-C , 20-O ) :   0.8381
B( 19-C , 26-H ) :   0.9352 B( 19-C , 27-H ) :   0.9374 B( 22-O , 28-H ) :   0.7967

FINAL SINGLE POINT ENERGY      -652.864189273012

DIPOLE MOMENT
-------------
                                X             Y             Z
Electronic contribution:     -3.58789      -3.75472      -1.07074
Nuclear contribution   :      4.44767       4.72688       0.76945
                        -----------------------------------------
Total Dipole Moment    :      0.85977       0.97216      -0.30129
                        -----------------------------------------
Magnitude (a.u.)       :      1.33232
Magnitude (Debye)      :      3.38649

Rotational constants in cm-1:     0.051857     0.015423     0.014682
Rotational constants in MHz :  1554.640328   462.375936   440.147916

                             ****ORCA TERMINATED NORMALLY****
TOTAL RUN TIME: 0 days 0 hours 16 minutes 57 seconds 566 msec
