                         Program Version 4.2.0 -  RELEASE  -
|  1> # Test redundant internal optimization
|  2> #
|  3> ! RKS B3LYP  Opt TightSCF SmallPrint
|  4>
|  5> %basis
|  6>         Basis "6-31G"
|  7> end
|  8>
|  9> %geom
| 10> Constraints
| 11> { D 4  0  15  12  285.0   C } # D for Dihedral angle
| 12> { D 0  15  12  16  210.0   C } # D for Dihedral angle
| 13> { D 0  4  3  2   C } # D for Dihedral angle
| 14> { D 4  3  2  1   C } # D for Dihedral angle
| 15> { D 3  2  1  0   C } # D for Dihedral angle
| 16> { D 2  1  0  4   C } # D for Dihedral angle
| 17> { D 1  0  4  3   C } # D for Dihedral angle
| 18> { D 16  20  19  18   C } # D for Dihedral angle
| 19> { D 20  19  18  17   C } # D for Dihedral angle
| 20> { D 19  18  17  16   C } # D for Dihedral angle
| 21> { D 18  17  16  20   C } # D for Dihedral angle
| 22> { D 17  16  20  19   C } # D for Dihedral angle
| 23> { D 15  12  16  20   C } # D for Dihedral angle
| 24> end
| 25> end
| 26>
| 27>
| 28> #%pal
| 29> #nprocs 8
| 30> #end
| 31>
| 32> * xyz 0 1
| 33> C  -21.048   26.222   46.251
| 34> C  -20.361   27.558   45.944
| 35> C  -20.329   28.222   47.341
| 36> C  -20.110   27.022   48.296
| 37> O  -20.473   25.807   47.535
| 38> H  -20.833   25.428   45.533
| 39> H  -19.344   27.382   45.576
| 40> H  -20.898   28.157   45.201
| 41> H  -19.543   28.978   47.434
| 42> H  -21.289   28.710   47.548
| 43> H  -20.733   27.082   49.195
| 44> H  -19.064   26.913   48.597
| 45> C  -23.396   25.070   46.435
| 46> H  -22.860   24.292   45.878
| 47> H  -23.505   24.734   47.474
| 48> O  -22.586   26.394   46.375
| 49> C  -24.821   25.209   45.831
| 50> C  -25.630   23.921   46.012
| 51> C  -26.078   24.035   47.488
| 52> C  -26.305   25.557   47.670
| 53> O  -25.590   26.224   46.560
| 54> H  -24.739   25.551   44.797
| 55> H  -26.499   23.924   45.343
| 56> O  -24.803   22.636   45.731
| 57> H  -26.977   23.450   47.706
| 58> H  -25.279   23.682   48.152
| 59> H  -25.913   25.929   48.623
| 60> H  -27.359   25.835   47.587
| 61> H  -23.928   22.609   46.390
| 62> *
| 63>
| 64>                          ****END OF INPUT****
 Total Charge           Charge          ....    0
 Multiplicity           Mult            ....    1
 Number of Electrons    NEL             ....  102
FINAL SINGLE POINT ENERGY      -652.830711634213
FINAL SINGLE POINT ENERGY      -652.855714187728
FINAL SINGLE POINT ENERGY      -652.860570007565
FINAL SINGLE POINT ENERGY      -652.861455389437
FINAL SINGLE POINT ENERGY      -652.861603304864
FINAL SINGLE POINT ENERGY      -652.861631663657
FINAL SINGLE POINT ENERGY      -652.861635836071
                    ***********************HURRAY********************

CARTESIAN COORDINATES (ANGSTROEM)
---------------------------------
  C    -21.074638   26.152672   46.248898
  C    -20.528208   27.546208   45.936004
  C    -20.499573   28.196075   47.338139
  C    -20.132859   27.015317   48.265037
  O    -20.419538   25.782450   47.488338
  H    -20.830330   25.364291   45.528263
  H    -19.517590   27.452646   45.522372
  H    -21.159320   28.082251   45.224582
  H    -19.779410   29.017221   47.407712
  H    -21.493422   28.582396   47.580780
  H    -20.720211   26.997217   49.186689
  H    -19.067973   26.985932   48.515589
  C    -23.232175   25.024676   46.500076
  H    -22.721329   24.240565   45.921574
  H    -23.268365   24.710969   47.551416
  O    -22.499581   26.275682   46.399483
  C    -24.628105   25.230244   45.918599
  C    -25.522015   23.983005   46.012309
  C    -26.070630   24.088561   47.467240
  C    -26.220936   25.613011   47.662303
  O    -25.389709   26.262295   46.616853
  H    -24.519413   25.586299   44.890471
  H    -26.337067   24.066880   45.290395
  O    -24.875104   22.728006   45.688013
  H    -27.010583   23.545633   47.594717
  H    -25.337115   23.665508   48.166925
  H    -25.884605   25.952068   48.646897
  H    -27.250295   25.950357   47.507089
  H    -24.302906   22.434568   46.426236

 Multiplicity           Mult            ....    1
 Number of Electrons    NEL             ....  102
 Basis Dimension        Dim             ....  149

ORBITAL ENERGIES
----------------

  NO   OCC          E(Eh)            E(eV)
   0   2.0000     -19.149901      -521.0953
   1   2.0000     -19.141575      -520.8687
   2   2.0000     -19.135549      -520.7048
   3   2.0000     -19.135130      -520.6933
   4   2.0000     -10.275143      -279.6009
   5   2.0000     -10.244832      -278.7761
   6   2.0000     -10.229259      -278.3523
   7   2.0000     -10.228893      -278.3423
   8   2.0000     -10.228205      -278.3236
   9   2.0000     -10.221330      -278.1365
  10   2.0000     -10.195329      -277.4290
  11   2.0000     -10.180655      -277.0297
  12   2.0000     -10.180048      -277.0132
  13   2.0000      -1.051965       -28.6254
  14   2.0000      -1.032852       -28.1053
  15   2.0000      -1.014250       -27.5991
  16   2.0000      -0.990989       -26.9662
  17   2.0000      -0.786188       -21.3933
  18   2.0000      -0.780709       -21.2442
  19   2.0000      -0.765228       -20.8229
  20   2.0000      -0.727197       -19.7880
  21   2.0000      -0.677862       -18.4456
  22   2.0000      -0.611253       -16.6331
  23   2.0000      -0.595110       -16.1938
  24   2.0000      -0.587885       -15.9972
  25   2.0000      -0.575337       -15.6557
  26   2.0000      -0.531009       -14.4495
  27   2.0000      -0.509586       -13.8665
  28   2.0000      -0.494972       -13.4689
  29   2.0000      -0.488481       -13.2922
  30   2.0000      -0.467324       -12.7165
  31   2.0000      -0.454613       -12.3706
  32   2.0000      -0.440540       -11.9877
  33   2.0000      -0.436988       -11.8911
  34   2.0000      -0.427226       -11.6254
  35   2.0000      -0.412025       -11.2118
  36   2.0000      -0.405569       -11.0361
  37   2.0000      -0.397515       -10.8169
  38   2.0000      -0.377168       -10.2633
  39   2.0000      -0.365422        -9.9436
  40   2.0000      -0.355758        -9.6807
  41   2.0000      -0.351686        -9.5699
  42   2.0000      -0.342562        -9.3216
  43   2.0000      -0.332213        -9.0400
  44   2.0000      -0.320409        -8.7188
  45   2.0000      -0.314565        -8.5597
  46   2.0000      -0.296532        -8.0690
  47   2.0000      -0.271517        -7.3884
  48   2.0000      -0.266008        -7.2384
  49   2.0000      -0.250753        -6.8233
  50   2.0000      -0.237869        -6.4727
  51   0.0000       0.051292         1.3957
  52   0.0000       0.078152         2.1266
  53   0.0000       0.090842         2.4719
  54   0.0000       0.097085         2.6418
  55   0.0000       0.103896         2.8272

MULLIKEN ATOMIC CHARGES
-----------------------
   0 C :    0.281656
   1 C :   -0.260732
   2 C :   -0.299180
   3 C :   -0.002467
   4 O :   -0.516415
   5 H :    0.139414
   6 H :    0.143033
   7 H :    0.159837
   8 H :    0.138681
   9 H :    0.169213
  10 H :    0.144720
  11 H :    0.140613
  12 C :   -0.005265
  13 H :    0.132182
  14 H :    0.134702
  15 O :   -0.507702
  16 C :    0.092932
  17 C :    0.080681
  18 C :   -0.325896
  19 C :   -0.003591
  20 O :   -0.505460
  21 H :    0.158718
  22 H :    0.170470
  23 O :   -0.600830
  24 H :    0.157045
  25 H :    0.135027
  26 H :    0.143654
  27 H :    0.147395
  28 H :    0.357565
Sum of atomic charges:   -0.0000000

LOEWDIN ATOMIC CHARGES
----------------------
   0 C :    0.170189
   1 C :   -0.215174
   2 C :   -0.216078
   3 C :   -0.027883
   4 O :   -0.334596
   5 H :    0.094011
   6 H :    0.113092
   7 H :    0.125649
   8 H :    0.112304
   9 H :    0.122588
  10 H :    0.104186
  11 H :    0.101362
  12 C :   -0.048802
  13 H :    0.099993
  14 H :    0.096490
  15 O :   -0.311503
  16 C :    0.020185
  17 C :    0.033767
  18 C :   -0.241662
  19 C :   -0.028293
  20 O :   -0.313771
  21 H :    0.117875
  22 H :    0.120411
  23 O :   -0.408384
  24 H :    0.122353
  25 H :    0.104633
  26 H :    0.103186
  27 H :    0.104998
  28 H :    0.278872

  Mayer bond orders larger than 0.100000
B(  0-C ,  1-C ) :   0.9508 B(  0-C ,  4-O ) :   0.9003 B(  0-C ,  5-H ) :   0.9167
B(  0-C , 15-O ) :   0.8722 B(  1-C ,  2-C ) :   0.9574 B(  1-C ,  6-H ) :   0.9404
B(  1-C ,  7-H ) :   0.9355 B(  2-C ,  3-C ) :   0.9555 B(  2-C ,  8-H ) :   0.9453
B(  2-C ,  9-H ) :   0.9429 B(  3-C ,  4-O ) :   0.8389 B(  3-C , 10-H ) :   0.9362
B(  3-C , 11-H ) :   0.9405 B( 12-C , 13-H ) :   0.9024 B( 12-C , 14-H ) :   0.9220
B( 12-C , 15-O ) :   0.8367 B( 12-C , 16-C ) :   0.9060 B( 16-C , 17-C ) :   0.8728
B( 16-C , 20-O ) :   0.8716 B( 16-C , 21-H ) :   0.9301 B( 17-C , 18-C ) :   0.9261
B( 17-C , 22-H ) :   0.9326 B( 17-C , 23-O ) :   0.8964 B( 18-C , 19-C ) :   0.9371
B( 18-C , 24-H ) :   0.9420 B( 18-C , 25-H ) :   0.9403 B( 19-C , 20-O ) :   0.8500
B( 19-C , 26-H ) :   0.9323 B( 19-C , 27-H ) :   0.9383 B( 23-O , 28-H ) :   0.7977

FINAL SINGLE POINT ENERGY      -652.861636135108

DIPOLE MOMENT
-------------
                                X             Y             Z
Electronic contribution:     -1.27699      -2.03956      -2.38880
Nuclear contribution   :      1.34442       1.95773       2.98612
                        -----------------------------------------
Total Dipole Moment    :      0.06743      -0.08183       0.59731
                        -----------------------------------------
Magnitude (a.u.)       :      0.60665
Magnitude (Debye)      :      1.54199

Rotational constants in cm-1:     0.054303     0.012372     0.011572
Rotational constants in MHz :  1627.950326   370.900166   346.923121

                             ****ORCA TERMINATED NORMALLY****
TOTAL RUN TIME: 0 days 0 hours 28 minutes 44 seconds 16 msec
