                         Program Version 4.2.0 -  RELEASE  -
|  1> # Test redundant internal optimization
|  2> #
|  3> ! RKS B3LYP  Opt TightSCF SmallPrint
|  4>
|  5> %basis
|  6>         Basis "6-31G"
|  7> end
|  8>
|  9> %geom
| 10> Constraints
| 11> { D 4  0  15  12  225.0   C } # D for Dihedral angle
| 12> { D 0  15  12  16  255.0   C } # D for Dihedral angle
| 13> { D 0  4  3  2   C } # D for Dihedral angle
| 14> { D 4  3  2  1   C } # D for Dihedral angle
| 15> { D 3  2  1  0   C } # D for Dihedral angle
| 16> { D 2  1  0  4   C } # D for Dihedral angle
| 17> { D 1  0  4  3   C } # D for Dihedral angle
| 18> { D 16  20  19  18   C } # D for Dihedral angle
| 19> { D 20  19  18  17   C } # D for Dihedral angle
| 20> { D 19  18  17  16   C } # D for Dihedral angle
| 21> { D 18  17  16  20   C } # D for Dihedral angle
| 22> { D 17  16  20  19   C } # D for Dihedral angle
| 23> { D 15  12  16  20   C } # D for Dihedral angle
| 24> end
| 25> end
| 26>
| 27>
| 28> #%pal
| 29> #nprocs 8
| 30> #end
| 31>
| 32> * xyz 0 1
| 33> C  -21.048   26.222   46.251
| 34> C  -20.361   27.558   45.944
| 35> C  -20.329   28.222   47.341
| 36> C  -20.110   27.022   48.296
| 37> O  -20.473   25.807   47.535
| 38> H  -20.833   25.428   45.533
| 39> H  -19.344   27.382   45.576
| 40> H  -20.898   28.157   45.201
| 41> H  -19.543   28.978   47.434
| 42> H  -21.289   28.710   47.548
| 43> H  -20.733   27.082   49.195
| 44> H  -19.064   26.913   48.597
| 45> C  -23.415   25.773   45.218
| 46> H  -22.782   25.080   44.650
| 47> H  -24.269   25.209   45.617
| 48> O  -22.586   26.394   46.375
| 49> C  -23.972   26.842   44.237
| 50> C  -24.878   26.206   43.177
| 51> C  -26.197   26.019   43.964
| 52> C  -26.229   27.256   44.896
| 53> O  -24.848   27.781   44.945
| 54> H  -23.141   27.422   43.831
| 55> H  -25.023   26.898   42.340
| 56> O  -24.318   24.871   42.616
| 57> H  -27.076   25.964   43.313
| 58> H  -26.157   25.094   44.552
| 59> H  -26.555   27.007   45.912
| 60> H  -26.865   28.056   44.506
| 61> H  -24.166   24.160   43.436
| 62> *
| 63>
| 64>                          ****END OF INPUT****
 Total Charge           Charge          ....    0
 Multiplicity           Mult            ....    1
 Number of Electrons    NEL             ....  102
FINAL SINGLE POINT ENERGY      -652.826300719854
FINAL SINGLE POINT ENERGY      -652.849306421984
FINAL SINGLE POINT ENERGY      -652.853663081145
FINAL SINGLE POINT ENERGY      -652.854479716919
FINAL SINGLE POINT ENERGY      -652.854651640763
FINAL SINGLE POINT ENERGY      -652.854687673282
FINAL SINGLE POINT ENERGY      -652.854695142462
FINAL SINGLE POINT ENERGY      -652.854696380739
                    ***********************HURRAY********************

CARTESIAN COORDINATES (ANGSTROEM)
---------------------------------
  C    -21.042995   26.195099   46.196048
  C    -20.415089   27.557005   45.904054
  C    -20.457773   28.234276   47.295210
  C    -20.210977   27.054525   48.259799
  O    -20.498544   25.825984   47.474908
  H    -20.790628   25.397169   45.489419
  H    -19.379655   27.416950   45.569752
  H    -20.960364   28.115388   45.139614
  H    -19.710886   29.026510   47.402118
  H    -21.450269   28.664077   47.459164
  H    -20.865594   27.069531   49.134483
  H    -19.169116   26.980716   48.586016
  C    -23.305169   25.720748   45.274658
  H    -22.720207   24.995839   44.688738
  H    -24.108027   25.183640   45.794345
  O    -22.486604   26.318354   46.310755
  C    -23.887896   26.771987   44.327538
  C    -24.806051   26.182285   43.243368
  C    -26.158846   26.050742   44.006750
  C    -26.143487   27.282201   44.939206
  O    -24.733541   27.741019   45.016801
  H    -23.066397   27.349566   43.892087
  H    -24.901267   26.895747   42.421741
  O    -24.327510   24.965886   42.619009
  H    -27.016704   26.038517   43.329267
  H    -26.166511   25.114458   44.580843
  H    -26.501135   27.057621   45.948557
  H    -26.728381   28.114237   44.535279
  H    -24.492375   24.192924   43.196476

 Multiplicity           Mult            ....    1
 Number of Electrons    NEL             ....  102
 Basis Dimension        Dim             ....  149

ORBITAL ENERGIES
----------------

  NO   OCC          E(Eh)            E(eV)
   0   2.0000     -19.153145      -521.1836
   1   2.0000     -19.138262      -520.7786
   2   2.0000     -19.135955      -520.7158
   3   2.0000     -19.134045      -520.6638
   4   2.0000     -10.275728      -279.6168
   5   2.0000     -10.247863      -278.8585
   6   2.0000     -10.231983      -278.4264
   7   2.0000     -10.231914      -278.4245
   8   2.0000     -10.231749      -278.4200
   9   2.0000     -10.218806      -278.0679
  10   2.0000     -10.198771      -277.5227
  11   2.0000     -10.179738      -277.0048
  12   2.0000     -10.178706      -276.9767
  13   2.0000      -1.048190       -28.5227
  14   2.0000      -1.035885       -28.1879
  15   2.0000      -1.017566       -27.6894
  16   2.0000      -0.989735       -26.9321
  17   2.0000      -0.785614       -21.3776
  18   2.0000      -0.780120       -21.2281
  19   2.0000      -0.766822       -20.8663
  20   2.0000      -0.729052       -19.8385
  21   2.0000      -0.680247       -18.5105
  22   2.0000      -0.614479       -16.7208
  23   2.0000      -0.593718       -16.1559
  24   2.0000      -0.592513       -16.1231
  25   2.0000      -0.576350       -15.6833
  26   2.0000      -0.528701       -14.3867
  27   2.0000      -0.512990       -13.9592
  28   2.0000      -0.496257       -13.5038
  29   2.0000      -0.489197       -13.3117
  30   2.0000      -0.465651       -12.6710
  31   2.0000      -0.453094       -12.3293
  32   2.0000      -0.443886       -12.0787
  33   2.0000      -0.438756       -11.9392
  34   2.0000      -0.429750       -11.6941
  35   2.0000      -0.418824       -11.3968
  36   2.0000      -0.408996       -11.1293
  37   2.0000      -0.396621       -10.7926
  38   2.0000      -0.378847       -10.3090
  39   2.0000      -0.365051        -9.9336
  40   2.0000      -0.358431        -9.7534
  41   2.0000      -0.351092        -9.5537
  42   2.0000      -0.345800        -9.4097
  43   2.0000      -0.330670        -8.9980
  44   2.0000      -0.319391        -8.6911
  45   2.0000      -0.308601        -8.3974
  46   2.0000      -0.300442        -8.1754
  47   2.0000      -0.274334        -7.4650
  48   2.0000      -0.262933        -7.1548
  49   2.0000      -0.251890        -6.8543
  50   2.0000      -0.232772        -6.3340
  51   0.0000       0.048548         1.3211
  52   0.0000       0.077572         2.1108
  53   0.0000       0.083693         2.2774
  54   0.0000       0.089079         2.4240
  55   0.0000       0.103582         2.8186

MULLIKEN ATOMIC CHARGES
-----------------------
   0 C :    0.281015
   1 C :   -0.255692
   2 C :   -0.301394
   3 C :   -0.000588
   4 O :   -0.502865
   5 H :    0.137642
   6 H :    0.139735
   7 H :    0.149373
   8 H :    0.138875
   9 H :    0.171878
  10 H :    0.152277
  11 H :    0.138466
  12 C :   -0.017108
  13 H :    0.126291
  14 H :    0.139653
  15 O :   -0.501236
  16 C :    0.094051
  17 C :    0.081353
  18 C :   -0.322564
  19 C :   -0.013935
  20 O :   -0.504525
  21 H :    0.151014
  22 H :    0.169586
  23 O :   -0.601303
  24 H :    0.158704
  25 H :    0.132983
  26 H :    0.150520
  27 H :    0.150672
  28 H :    0.357117
Sum of atomic charges:   -0.0000000

LOEWDIN ATOMIC CHARGES
----------------------
   0 C :    0.176765
   1 C :   -0.224422
   2 C :   -0.216809
   3 C :   -0.025819
   4 O :   -0.312292
   5 H :    0.095670
   6 H :    0.110930
   7 H :    0.117253
   8 H :    0.112971
   9 H :    0.124128
  10 H :    0.108313
  11 H :    0.100550
  12 C :   -0.045903
  13 H :    0.097140
  14 H :    0.102897
  15 O :   -0.319647
  16 C :    0.011343
  17 C :    0.032587
  18 C :   -0.240424
  19 C :   -0.030221
  20 O :   -0.314832
  21 H :    0.110834
  22 H :    0.119874
  23 O :   -0.408706
  24 H :    0.123035
  25 H :    0.103882
  26 H :    0.105912
  27 H :    0.106351
  28 H :    0.278640

  Mayer bond orders larger than 0.100000
B(  0-C ,  1-C ) :   0.9375 B(  0-C ,  4-O ) :   0.9342 B(  0-C ,  5-H ) :   0.9160
B(  0-C , 15-O ) :   0.8436 B(  1-C ,  2-C ) :   0.9565 B(  1-C ,  6-H ) :   0.9353
B(  1-C ,  7-H ) :   0.9350 B(  2-C ,  3-C ) :   0.9549 B(  2-C ,  8-H ) :   0.9452
B(  2-C ,  9-H ) :   0.9413 B(  3-C ,  4-O ) :   0.8366 B(  3-C , 10-H ) :   0.9349
B(  3-C , 11-H ) :   0.9399 B( 12-C , 13-H ) :   0.9035 B( 12-C , 14-H ) :   0.9352
B( 12-C , 15-O ) :   0.8670 B( 12-C , 16-C ) :   0.8872 B( 16-C , 17-C ) :   0.8699
B( 16-C , 20-O ) :   0.8731 B( 16-C , 21-H ) :   0.9312 B( 17-C , 18-C ) :   0.9253
B( 17-C , 22-H ) :   0.9316 B( 17-C , 23-O ) :   0.8940 B( 18-C , 19-C ) :   0.9387
B( 18-C , 24-H ) :   0.9417 B( 18-C , 25-H ) :   0.9409 B( 19-C , 20-O ) :   0.8486
B( 19-C , 26-H ) :   0.9305 B( 19-C , 27-H ) :   0.9372 B( 23-O , 28-H ) :   0.7982

FINAL SINGLE POINT ENERGY      -652.854696587824

DIPOLE MOMENT
-------------
                                X             Y             Z
Electronic contribution:     -0.00471      -2.11183      -0.41767
Nuclear contribution   :     -0.51489       2.10133       0.07033
                        -----------------------------------------
Total Dipole Moment    :     -0.51960      -0.01050      -0.34734
                        -----------------------------------------
Magnitude (a.u.)       :      0.62509
Magnitude (Debye)      :      1.58885

Rotational constants in cm-1:     0.057495     0.012341     0.011441
Rotational constants in MHz :  1723.655994   369.980760   343.005221

                             ****ORCA TERMINATED NORMALLY****
TOTAL RUN TIME: 0 days 0 hours 25 minutes 17 seconds 153 msec
