                         Program Version 4.2.0 -  RELEASE  -
|  1> # Test redundant internal optimization
|  2> #
|  3> ! RKS B3LYP  Opt TightSCF SmallPrint
|  4>
|  5> %basis
|  6>         Basis "6-31G"
|  7> end
|  8>
|  9> %geom
| 10> Constraints
| 11> { D 4  0  15  12  180.0   C } # D for Dihedral angle
| 12> { D 0  15  12  16  135.0   C } # D for Dihedral angle
| 13> { D 0  4  3  2   C } # D for Dihedral angle
| 14> { D 4  3  2  1   C } # D for Dihedral angle
| 15> { D 3  2  1  0   C } # D for Dihedral angle
| 16> { D 2  1  0  4   C } # D for Dihedral angle
| 17> { D 1  0  4  3   C } # D for Dihedral angle
| 18> { D 16  20  19  18   C } # D for Dihedral angle
| 19> { D 20  19  18  17   C } # D for Dihedral angle
| 20> { D 19  18  17  16   C } # D for Dihedral angle
| 21> { D 18  17  16  20   C } # D for Dihedral angle
| 22> { D 17  16  20  19   C } # D for Dihedral angle
| 23> { D 15  12  16  20   C } # D for Dihedral angle
| 24> end
| 25> end
| 26>
| 27>
| 28> #%pal
| 29> #nprocs 8
| 30> #end
| 31>
| 32> * xyz 0 1
| 33> C  -21.048   26.222   46.251
| 34> C  -20.361   27.558   45.944
| 35> C  -20.329   28.222   47.341
| 36> C  -20.110   27.022   48.296
| 37> O  -20.473   25.807   47.535
| 38> H  -20.833   25.428   45.533
| 39> H  -19.344   27.382   45.576
| 40> H  -20.898   28.157   45.201
| 41> H  -19.543   28.978   47.434
| 42> H  -21.289   28.710   47.548
| 43> H  -20.733   27.082   49.195
| 44> H  -19.064   26.913   48.597
| 45> C  -23.309   26.834   45.072
| 46> H  -23.576   27.895   45.147
| 47> H  -22.648   26.707   44.205
| 48> O  -22.586   26.394   46.375
| 49> C  -24.605   26.021   44.801
| 50> C  -25.228   26.400   43.453
| 51> C  -24.340   25.608   42.463
| 52> C  -24.018   24.309   43.243
| 53> O  -24.296   24.593   44.667
| 54> H  -25.278   26.125   45.655
| 55> O  -26.698   25.906   43.387
| 56> H  -25.217   27.479   43.263
| 57> H  -24.840   25.409   41.510
| 58> H  -23.422   26.168   42.250
| 59> H  -22.970   24.005   43.137
| 60> H  -24.661   23.475   42.949
| 61> H  -26.733   24.827   43.574
| 62> *
| 63>
| 64>                          ****END OF INPUT****
 Total Charge           Charge          ....    0
 Multiplicity           Mult            ....    1
 Number of Electrons    NEL             ....  102
FINAL SINGLE POINT ENERGY      -652.828667655571
FINAL SINGLE POINT ENERGY      -652.851762934813
FINAL SINGLE POINT ENERGY      -652.855565160137
FINAL SINGLE POINT ENERGY      -652.856254029983
FINAL SINGLE POINT ENERGY      -652.856337698480
FINAL SINGLE POINT ENERGY      -652.856347215248
                    ***********************HURRAY********************

CARTESIAN COORDINATES (ANGSTROEM)
---------------------------------
  C    -21.069278   26.250659   46.151349
  C    -20.334593   27.574108   45.947116
  C    -20.418654   28.211450   47.357153
  C    -20.312546   26.987224   48.289507
  O    -20.633188   25.809229   47.441371
  H    -20.833386   25.461191   45.430733
  H    -19.292957   27.367132   45.674087
  H    -20.771540   28.204593   45.167391
  H    -19.624909   28.943210   47.534183
  H    -21.384497   28.710075   47.482710
  H    -21.017467   27.016679   49.123737
  H    -19.300170   26.829193   48.672674
  C    -23.167677   26.874854   45.002403
  H    -23.441991   27.935234   45.096887
  H    -22.491553   26.773524   44.140422
  O    -22.515589   26.426151   46.218533
  C    -24.422238   26.032191   44.785078
  C    -25.202863   26.365766   43.506069
  C    -24.418104   25.558854   42.438162
  C    -23.986260   24.286512   43.208711
  O    -24.105686   24.607468   44.652261
  H    -25.056406   26.120024   45.672266
  O    -26.582647   25.920117   43.608597
  H    -25.260068   27.432780   43.284305
  H    -25.052754   25.342806   41.575412
  H    -23.549720   26.130857   42.090881
  H    -22.956140   23.987775   42.992359
  H    -24.643529   23.433935   43.012150
  H    -26.603591   25.042410   44.045494

 Multiplicity           Mult            ....    1
 Number of Electrons    NEL             ....  102
 Basis Dimension        Dim             ....  149

ORBITAL ENERGIES
----------------

  NO   OCC          E(Eh)            E(eV)
   0   2.0000     -19.142189      -520.8854
   1   2.0000     -19.139515      -520.8127
   2   2.0000     -19.138901      -520.7960
   3   2.0000     -19.137217      -520.7501
   4   2.0000     -10.278326      -279.6875
   5   2.0000     -10.244855      -278.7767
   6   2.0000     -10.235864      -278.5320
   7   2.0000     -10.233957      -278.4801
   8   2.0000     -10.231599      -278.4160
   9   2.0000     -10.224068      -278.2110
  10   2.0000     -10.192106      -277.3413
  11   2.0000     -10.188624      -277.2466
  12   2.0000     -10.187682      -277.2209
  13   2.0000      -1.052819       -28.6487
  14   2.0000      -1.036959       -28.2171
  15   2.0000      -1.007395       -27.4126
  16   2.0000      -0.991896       -26.9909
  17   2.0000      -0.788265       -21.4498
  18   2.0000      -0.784748       -21.3541
  19   2.0000      -0.769156       -20.9298
  20   2.0000      -0.731514       -19.9055
  21   2.0000      -0.677742       -18.4423
  22   2.0000      -0.605654       -16.4807
  23   2.0000      -0.602811       -16.4033
  24   2.0000      -0.592432       -16.1209
  25   2.0000      -0.582113       -15.8401
  26   2.0000      -0.527750       -14.3608
  27   2.0000      -0.508385       -13.8339
  28   2.0000      -0.497834       -13.5467
  29   2.0000      -0.491719       -13.3803
  30   2.0000      -0.478363       -13.0169
  31   2.0000      -0.460779       -12.5384
  32   2.0000      -0.451265       -12.2795
  33   2.0000      -0.448967       -12.2170
  34   2.0000      -0.421389       -11.4666
  35   2.0000      -0.413486       -11.2515
  36   2.0000      -0.399142       -10.8612
  37   2.0000      -0.395481       -10.7616
  38   2.0000      -0.375691       -10.2231
  39   2.0000      -0.373757       -10.1705
  40   2.0000      -0.366868        -9.9830
  41   2.0000      -0.356893        -9.7116
  42   2.0000      -0.352134        -9.5820
  43   2.0000      -0.333780        -9.0826
  44   2.0000      -0.312635        -8.5072
  45   2.0000      -0.307250        -8.3607
  46   2.0000      -0.301431        -8.2024
  47   2.0000      -0.272570        -7.4170
  48   2.0000      -0.259352        -7.0573
  49   2.0000      -0.255032        -6.9398
  50   2.0000      -0.240762        -6.5515
  51   0.0000       0.061434         1.6717
  52   0.0000       0.081201         2.2096
  53   0.0000       0.083933         2.2839
  54   0.0000       0.099329         2.7029
  55   0.0000       0.107017         2.9121

MULLIKEN ATOMIC CHARGES
-----------------------
   0 C :    0.304937
   1 C :   -0.280754
   2 C :   -0.298731
   3 C :   -0.000293
   4 O :   -0.499350
   5 H :    0.145919
   6 H :    0.146844
   7 H :    0.140356
   8 H :    0.142467
   9 H :    0.158032
  10 H :    0.156380
  11 H :    0.141598
  12 C :   -0.011545
  13 H :    0.133110
  14 H :    0.119880
  15 O :   -0.499375
  16 C :    0.074392
  17 C :    0.074818
  18 C :   -0.298008
  19 C :   -0.027851
  20 O :   -0.508477
  21 H :    0.172809
  22 O :   -0.601747
  23 H :    0.150249
  24 H :    0.165053
  25 H :    0.139663
  26 H :    0.143513
  27 H :    0.148474
  28 H :    0.367637
Sum of atomic charges:   -0.0000000

LOEWDIN ATOMIC CHARGES
----------------------
   0 C :    0.183219
   1 C :   -0.234754
   2 C :   -0.216933
   3 C :   -0.024677
   4 O :   -0.298973
   5 H :    0.099638
   6 H :    0.115282
   7 H :    0.111964
   8 H :    0.114440
   9 H :    0.116709
  10 H :    0.110586
  11 H :    0.102455
  12 C :   -0.044170
  13 H :    0.098928
  14 H :    0.090952
  15 O :   -0.327108
  16 C :    0.016110
  17 C :    0.033987
  18 C :   -0.242426
  19 C :   -0.038362
  20 O :   -0.319629
  21 H :    0.122554
  22 O :   -0.413896
  23 H :    0.114383
  24 H :    0.127795
  25 H :    0.110248
  26 H :    0.102954
  27 H :    0.103757
  28 H :    0.284967

  Mayer bond orders larger than 0.100000
B(  0-C ,  1-C ) :   0.9258 B(  0-C ,  4-O ) :   0.9421 B(  0-C ,  5-H ) :   0.9192
B(  0-C , 15-O ) :   0.8329 B(  1-C ,  2-C ) :   0.9514 B(  1-C ,  6-H ) :   0.9339
B(  1-C ,  7-H ) :   0.9330 B(  2-C ,  3-C ) :   0.9559 B(  2-C ,  8-H ) :   0.9451
B(  2-C ,  9-H ) :   0.9450 B(  3-C ,  4-O ) :   0.8356 B(  3-C , 10-H ) :   0.9341
B(  3-C , 11-H ) :   0.9397 B( 12-C , 13-H ) :   0.9152 B( 12-C , 14-H ) :   0.9176
B( 12-C , 15-O ) :   0.8538 B( 12-C , 16-C ) :   0.8896 B( 16-C , 17-C ) :   0.8975
B( 16-C , 20-O ) :   0.8666 B( 16-C , 21-H ) :   0.9235 B( 17-C , 18-C ) :   0.9101
B( 17-C , 22-O ) :   0.8957 B( 17-C , 23-H ) :   0.9327 B( 18-C , 19-C ) :   0.9393
B( 18-C , 24-H ) :   0.9376 B( 18-C , 25-H ) :   0.9340 B( 19-C , 20-O ) :   0.8532
B( 19-C , 26-H ) :   0.9350 B( 19-C , 27-H ) :   0.9376 B( 22-O , 28-H ) :   0.7923

FINAL SINGLE POINT ENERGY      -652.856349636495

DIPOLE MOMENT
-------------
                                X             Y             Z
Electronic contribution:     -3.70320      -4.08429       2.23595
Nuclear contribution   :      4.56056       5.07042      -3.19914
                        -----------------------------------------
Total Dipole Moment    :      0.85736       0.98614      -0.96319
                        -----------------------------------------
Magnitude (a.u.)       :      1.62335
Magnitude (Debye)      :      4.12622

Rotational constants in cm-1:     0.068104     0.011415     0.011121
Rotational constants in MHz :  2041.707975   342.221022   333.386997

                             ****ORCA TERMINATED NORMALLY****
TOTAL RUN TIME: 0 days 0 hours 22 minutes 9 seconds 374 msec
