                         Program Version 4.2.0 -  RELEASE  -
|  1> # Test redundant internal optimization
|  2> #
|  3> ! RKS B3LYP  Opt TightSCF SmallPrint
|  4>
|  5> %basis
|  6>         Basis "6-31G"
|  7> end
|  8>
|  9> %geom
| 10> Constraints
| 11> { D 4  0  15  12  255.0   C } # D for Dihedral angle
| 12> { D 0  15  12  16  135.0   C } # D for Dihedral angle
| 13> { D 0  4  3  2   C } # D for Dihedral angle
| 14> { D 4  3  2  1   C } # D for Dihedral angle
| 15> { D 3  2  1  0   C } # D for Dihedral angle
| 16> { D 2  1  0  4   C } # D for Dihedral angle
| 17> { D 1  0  4  3   C } # D for Dihedral angle
| 18> { D 16  20  19  18   C } # D for Dihedral angle
| 19> { D 20  19  18  17   C } # D for Dihedral angle
| 20> { D 19  18  17  16   C } # D for Dihedral angle
| 21> { D 18  17  16  20   C } # D for Dihedral angle
| 22> { D 17  16  20  19   C } # D for Dihedral angle
| 23> { D 15  12  16  20   C } # D for Dihedral angle
| 24> end
| 25> end
| 26>
| 27>
| 28> #%pal
| 29> #nprocs 8
| 30> #end
| 31>
| 32> * xyz 0 1
| 33> C  -21.048   26.222   46.251
| 34> C  -20.361   27.558   45.944
| 35> C  -20.329   28.222   47.341
| 36> C  -20.110   27.022   48.296
| 37> O  -20.473   25.807   47.535
| 38> H  -20.833   25.428   45.533
| 39> H  -19.344   27.382   45.576
| 40> H  -20.898   28.157   45.201
| 41> H  -19.543   28.978   47.434
| 42> H  -21.289   28.710   47.548
| 43> H  -20.733   27.082   49.195
| 44> H  -19.064   26.913   48.597
| 45> C  -23.431   25.260   45.734
| 46> H  -23.860   25.617   44.789
| 47> H  -22.801   24.387   45.516
| 48> O  -22.586   26.394   46.375
| 49> C  -24.594   24.786   46.649
| 50> C  -24.078   24.354   48.027
| 51> C  -23.877   25.719   48.728
| 52> C  -25.035   26.578   48.164
| 53> O  -25.505   25.898   46.937
| 54> H  -25.174   24.024   46.125
| 55> O  -25.158   23.515   48.761
| 56> H  -23.157   23.763   47.976
| 57> H  -23.906   25.644   49.820
| 58> H  -22.907   26.147   48.447
| 59> H  -24.719   27.596   47.912
| 60> H  -25.887   26.632   48.848
| 61> H  -26.090   24.088   48.824
| 62> *
| 63>
| 64>                          ****END OF INPUT****
 Total Charge           Charge          ....    0
 Multiplicity           Mult            ....    1
 Number of Electrons    NEL             ....  102
FINAL SINGLE POINT ENERGY      -652.836925800902
FINAL SINGLE POINT ENERGY      -652.859351263838
FINAL SINGLE POINT ENERGY      -652.863280824489
FINAL SINGLE POINT ENERGY      -652.864818845563
FINAL SINGLE POINT ENERGY      -652.864931047663
FINAL SINGLE POINT ENERGY      -652.864947692866
                    ***********************HURRAY********************

CARTESIAN COORDINATES (ANGSTROEM)
---------------------------------
  C    -21.053255   26.171114   46.222358
  C    -20.413451   27.521533   45.894599
  C    -20.416227   28.217794   47.276717
  C    -20.163010   27.049548   48.256308
  O    -20.482327   25.809335   47.501820
  H    -20.807820   25.357987   45.532423
  H    -19.388966   27.360183   45.539995
  H    -20.973793   28.067861   45.133420
  H    -19.654752   28.999351   47.357708
  H    -21.395880   28.670459   47.457836
  H    -20.794356   27.091705   49.147655
  H    -19.115301   26.968375   48.560141
  C    -23.327338   25.280207   45.754604
  H    -23.753848   25.651392   44.815641
  H    -22.726345   24.384499   45.540051
  O    -22.485414   26.334982   46.310569
  C    -24.478548   24.900010   46.683094
  C    -24.114107   24.365305   48.075383
  C    -23.915157   25.678096   48.874826
  C    -24.973929   26.626533   48.261329
  O    -25.357712   26.038354   46.954801
  H    -25.085890   24.158055   46.148825
  O    -25.195783   23.546726   48.605607
  H    -23.234196   23.721808   48.085089
  H    -24.065311   25.505859   49.944728
  H    -22.905989   26.049591   48.698968
  H    -24.582046   27.632281   48.088429
  H    -25.886418   26.695598   48.863235
  H    -26.042828   24.028457   48.496841

 Multiplicity           Mult            ....    1
 Number of Electrons    NEL             ....  102
 Basis Dimension        Dim             ....  149

ORBITAL ENERGIES
----------------

  NO   OCC          E(Eh)            E(eV)
   0   2.0000     -19.149022      -521.0714
   1   2.0000     -19.145670      -520.9802
   2   2.0000     -19.134961      -520.6888
   3   2.0000     -19.131532      -520.5955
   4   2.0000     -10.285687      -279.8878
   5   2.0000     -10.235391      -278.5192
   6   2.0000     -10.231890      -278.4239
   7   2.0000     -10.231168      -278.4042
   8   2.0000     -10.229901      -278.3698
   9   2.0000     -10.220007      -278.1005
  10   2.0000     -10.189792      -277.2783
  11   2.0000     -10.189267      -277.2640
  12   2.0000     -10.172042      -276.7953
  13   2.0000      -1.058021       -28.7902
  14   2.0000      -1.029093       -28.0031
  15   2.0000      -1.002443       -27.2779
  16   2.0000      -0.994967       -27.0744
  17   2.0000      -0.792237       -21.5579
  18   2.0000      -0.774262       -21.0687
  19   2.0000      -0.762082       -20.7373
  20   2.0000      -0.733941       -19.9715
  21   2.0000      -0.674212       -18.3462
  22   2.0000      -0.602907       -16.4059
  23   2.0000      -0.599232       -16.3059
  24   2.0000      -0.592706       -16.1283
  25   2.0000      -0.579506       -15.7692
  26   2.0000      -0.526192       -14.3184
  27   2.0000      -0.502719       -13.6797
  28   2.0000      -0.499822       -13.6008
  29   2.0000      -0.488835       -13.3019
  30   2.0000      -0.473122       -12.8743
  31   2.0000      -0.454043       -12.3551
  32   2.0000      -0.444441       -12.0939
  33   2.0000      -0.440460       -11.9855
  34   2.0000      -0.427248       -11.6260
  35   2.0000      -0.410302       -11.1649
  36   2.0000      -0.404296       -11.0014
  37   2.0000      -0.384061       -10.4508
  38   2.0000      -0.370847       -10.0913
  39   2.0000      -0.364164        -9.9094
  40   2.0000      -0.361324        -9.8321
  41   2.0000      -0.357055        -9.7160
  42   2.0000      -0.349183        -9.5017
  43   2.0000      -0.326251        -8.8777
  44   2.0000      -0.324253        -8.8234
  45   2.0000      -0.310247        -8.4422
  46   2.0000      -0.300024        -8.1641
  47   2.0000      -0.274993        -7.4829
  48   2.0000      -0.262841        -7.1523
  49   2.0000      -0.255746        -6.9592
  50   2.0000      -0.236918        -6.4469
  51   0.0000       0.065148         1.7728
  52   0.0000       0.082929         2.2566
  53   0.0000       0.085796         2.3346
  54   0.0000       0.104738         2.8501
  55   0.0000       0.109808         2.9880

MULLIKEN ATOMIC CHARGES
-----------------------
   0 C :    0.281073
   1 C :   -0.252771
   2 C :   -0.301343
   3 C :   -0.006108
   4 O :   -0.507681
   5 H :    0.143792
   6 H :    0.145635
   7 H :    0.155168
   8 H :    0.144151
   9 H :    0.162586
  10 H :    0.145203
  11 H :    0.145413
  12 C :    0.005456
  13 H :    0.151609
  14 H :    0.129365
  15 O :   -0.522623
  16 C :    0.068026
  17 C :    0.076032
  18 C :   -0.301059
  19 C :   -0.021440
  20 O :   -0.526399
  21 H :    0.152886
  22 O :   -0.604847
  23 H :    0.159434
  24 H :    0.147456
  25 H :    0.184152
  26 H :    0.149705
  27 H :    0.135213
  28 H :    0.361916
Sum of atomic charges:    0.0000000

LOEWDIN ATOMIC CHARGES
----------------------
   0 C :    0.173487
   1 C :   -0.217397
   2 C :   -0.216423
   3 C :   -0.029435
   4 O :   -0.325809
   5 H :    0.098587
   6 H :    0.114325
   7 H :    0.123259
   8 H :    0.115250
   9 H :    0.118723
  10 H :    0.102950
  11 H :    0.104159
  12 C :   -0.033165
  13 H :    0.109280
  14 H :    0.099988
  15 O :   -0.329310
  16 C :    0.010588
  17 C :    0.039822
  18 C :   -0.243300
  19 C :   -0.033850
  20 O :   -0.331324
  21 H :    0.114744
  22 O :   -0.418432
  23 H :    0.119584
  24 H :    0.118217
  25 H :    0.131471
  26 H :    0.106857
  27 H :    0.095859
  28 H :    0.281295

  Mayer bond orders larger than 0.100000
B(  0-C ,  1-C ) :   0.9446 B(  0-C ,  4-O ) :   0.9124 B(  0-C ,  5-H ) :   0.9189
B(  0-C , 15-O ) :   0.8550 B(  1-C ,  2-C ) :   0.9570 B(  1-C ,  6-H ) :   0.9377
B(  1-C ,  7-H ) :   0.9372 B(  2-C ,  3-C ) :   0.9539 B(  2-C ,  8-H ) :   0.9449
B(  2-C ,  9-H ) :   0.9437 B(  3-C ,  4-O ) :   0.8363 B(  3-C , 10-H ) :   0.9318
B(  3-C , 11-H ) :   0.9406 B( 12-C , 13-H ) :   0.9248 B( 12-C , 14-H ) :   0.9102
B( 12-C , 15-O ) :   0.8427 B( 12-C , 16-C ) :   0.9065 B( 16-C , 17-C ) :   0.9080
B( 16-C , 20-O ) :   0.8724 B( 16-C , 21-H ) :   0.9198 B( 17-C , 18-C ) :   0.9236
B( 17-C , 22-O ) :   0.8886 B( 17-C , 23-H ) :   0.9336 B( 18-C , 19-C ) :   0.9444
B( 18-C , 24-H ) :   0.9377 B( 18-C , 25-H ) :   0.9089 B( 19-C , 20-O ) :   0.8394
B( 19-C , 26-H ) :   0.9342 B( 19-C , 27-H ) :   0.9372 B( 22-O , 28-H ) :   0.7965

FINAL SINGLE POINT ENERGY      -652.864948390342

DIPOLE MOMENT
-------------
                                X             Y             Z
Electronic contribution:     -3.62609      -4.00887      -1.05700
Nuclear contribution   :      4.44510       4.85861       0.69053
                        -----------------------------------------
Total Dipole Moment    :      0.81901       0.84975      -0.36647
                        -----------------------------------------
Magnitude (a.u.)       :      1.23578
Magnitude (Debye)      :      3.14109

Rotational constants in cm-1:     0.049822     0.015665     0.015027
Rotational constants in MHz :  1493.633894   469.638665   450.487616

                             ****ORCA TERMINATED NORMALLY****
TOTAL RUN TIME: 0 days 0 hours 49 minutes 39 seconds 488 msec
