                         Program Version 4.2.0 -  RELEASE  -
|  1> # Test redundant internal optimization
|  2> #
|  3> ! RKS B3LYP  Opt TightSCF SmallPrint
|  4>
|  5> %basis
|  6>         Basis "6-31G"
|  7> end
|  8>
|  9> %geom
| 10> Constraints
| 11> { D 4  0  15  12  285.0   C } # D for Dihedral angle
| 12> { D 0  15  12  16  270.0   C } # D for Dihedral angle
| 13> { D 0  4  3  2   C } # D for Dihedral angle
| 14> { D 4  3  2  1   C } # D for Dihedral angle
| 15> { D 3  2  1  0   C } # D for Dihedral angle
| 16> { D 2  1  0  4   C } # D for Dihedral angle
| 17> { D 1  0  4  3   C } # D for Dihedral angle
| 18> { D 16  20  19  18   C } # D for Dihedral angle
| 19> { D 20  19  18  17   C } # D for Dihedral angle
| 20> { D 19  18  17  16   C } # D for Dihedral angle
| 21> { D 18  17  16  20   C } # D for Dihedral angle
| 22> { D 17  16  20  19   C } # D for Dihedral angle
| 23> { D 15  12  16  20   C } # D for Dihedral angle
| 24> end
| 25> end
| 26>
| 27>
| 28> #%pal
| 29> #nprocs 8
| 30> #end
| 31>
| 32> * xyz 0 1
| 33> C  -21.048   26.222   46.251
| 34> C  -20.361   27.558   45.944
| 35> C  -20.329   28.222   47.341
| 36> C  -20.110   27.022   48.296
| 37> O  -20.473   25.807   47.535
| 38> H  -20.833   25.428   45.533
| 39> H  -19.344   27.382   45.576
| 40> H  -20.898   28.157   45.201
| 41> H  -19.543   28.978   47.434
| 42> H  -21.289   28.710   47.548
| 43> H  -20.733   27.082   49.195
| 44> H  -19.064   26.913   48.597
| 45> C  -23.396   25.070   46.435
| 46> H  -22.784   24.293   46.911
| 47> H  -24.307   25.204   47.033
| 48> O  -22.586   26.394   46.375
| 49> C  -23.824   24.563   45.030
| 50> C  -24.717   23.322   45.134
| 51> C  -26.084   23.949   45.494
| 52> C  -26.078   25.283   44.708
| 53> O  -24.667   25.559   44.361
| 54> H  -22.934   24.429   44.412
| 55> H  -24.768   22.812   44.166
| 56> O  -24.223   22.303   46.198
| 57> H  -26.930   23.308   45.222
| 58> H  -26.140   24.137   46.573
| 59> H  -26.472   26.119   45.296
| 60> H  -26.634   25.217   43.768
| 61> H  -24.164   22.790   47.177
| 62> *
| 63>
| 64>                          ****END OF INPUT****
 Total Charge           Charge          ....    0
 Multiplicity           Mult            ....    1
 Number of Electrons    NEL             ....  102
FINAL SINGLE POINT ENERGY      -652.830821662450
FINAL SINGLE POINT ENERGY      -652.855411221244
FINAL SINGLE POINT ENERGY      -652.860103632026
FINAL SINGLE POINT ENERGY      -652.860970100794
FINAL SINGLE POINT ENERGY      -652.861132432615
FINAL SINGLE POINT ENERGY      -652.861160229546
FINAL SINGLE POINT ENERGY      -652.861167329932
FINAL SINGLE POINT ENERGY      -652.861169055026
                    ***********************HURRAY********************

CARTESIAN COORDINATES (ANGSTROEM)
---------------------------------
  C    -21.088605   26.153620   46.237809
  C    -20.470012   27.514400   45.917113
  C    -20.426428   28.177252   47.312007
  C    -20.130252   26.990928   48.256635
  O    -20.468285   25.764842   47.489334
  H    -20.872203   25.349551   45.528519
  H    -19.460163   27.367392   45.517652
  H    -21.065766   28.071400   45.191471
  H    -19.666930   28.962328   47.381869
  H    -21.402109   28.616478   47.538543
  H    -20.728385   27.012138   49.171270
  H    -19.071273   26.911265   48.520289
  C    -23.302811   25.137882   46.498199
  H    -22.723568   24.363911   47.018107
  H    -24.158930   25.415778   47.121786
  O    -22.509764   26.356498   46.383903
  C    -23.762373   24.627515   45.131623
  C    -24.648464   23.371365   45.203546
  C    -26.050144   23.984715   45.502235
  C    -26.017117   25.309377   44.708565
  O    -24.589232   25.600896   44.423032
  H    -22.885606   24.464144   44.496268
  H    -24.651525   22.875439   44.230498
  O    -24.213494   22.347750   46.129630
  H    -26.863370   23.321896   45.194477
  H    -26.150551   24.163775   46.581125
  H    -26.448145   26.149925   45.261765
  H    -26.525171   25.226623   43.743229
  H    -24.382324   22.623918   47.053501

 Multiplicity           Mult            ....    1
 Number of Electrons    NEL             ....  102
 Basis Dimension        Dim             ....  149

ORBITAL ENERGIES
----------------

  NO   OCC          E(Eh)            E(eV)
   0   2.0000     -19.149928      -521.0960
   1   2.0000     -19.140133      -520.8295
   2   2.0000     -19.136505      -520.7308
   3   2.0000     -19.135684      -520.7084
   4   2.0000     -10.273720      -279.5621
   5   2.0000     -10.245947      -278.8064
   6   2.0000     -10.230910      -278.3972
   7   2.0000     -10.230428      -278.3841
   8   2.0000     -10.227065      -278.2926
   9   2.0000     -10.221410      -278.1387
  10   2.0000     -10.196279      -277.4549
  11   2.0000     -10.180466      -277.0246
  12   2.0000     -10.179739      -277.0048
  13   2.0000      -1.050441       -28.5839
  14   2.0000      -1.033413       -28.1206
  15   2.0000      -1.015263       -27.6267
  16   2.0000      -0.989068       -26.9139
  17   2.0000      -0.785617       -21.3777
  18   2.0000      -0.781130       -21.2556
  19   2.0000      -0.763811       -20.7844
  20   2.0000      -0.728985       -19.8367
  21   2.0000      -0.678017       -18.4498
  22   2.0000      -0.611689       -16.6449
  23   2.0000      -0.598737       -16.2925
  24   2.0000      -0.592507       -16.1229
  25   2.0000      -0.567634       -15.4461
  26   2.0000      -0.531274       -14.4567
  27   2.0000      -0.509640       -13.8680
  28   2.0000      -0.495837       -13.4924
  29   2.0000      -0.489029       -13.3072
  30   2.0000      -0.466383       -12.6909
  31   2.0000      -0.450313       -12.2536
  32   2.0000      -0.443383       -12.0651
  33   2.0000      -0.432087       -11.7577
  34   2.0000      -0.427793       -11.6408
  35   2.0000      -0.419909       -11.4263
  36   2.0000      -0.405142       -11.0245
  37   2.0000      -0.397760       -10.8236
  38   2.0000      -0.377462       -10.2713
  39   2.0000      -0.365739        -9.9523
  40   2.0000      -0.354026        -9.6335
  41   2.0000      -0.351869        -9.5749
  42   2.0000      -0.342222        -9.3123
  43   2.0000      -0.333821        -9.0837
  44   2.0000      -0.323082        -8.7915
  45   2.0000      -0.313969        -8.5435
  46   2.0000      -0.294602        -8.0165
  47   2.0000      -0.272639        -7.4189
  48   2.0000      -0.270023        -7.3477
  49   2.0000      -0.249814        -6.7978
  50   2.0000      -0.235254        -6.4016
  51   0.0000       0.052270         1.4223
  52   0.0000       0.078997         2.1496
  53   0.0000       0.089315         2.4304
  54   0.0000       0.093428         2.5423
  55   0.0000       0.105418         2.8686

MULLIKEN ATOMIC CHARGES
-----------------------
   0 C :    0.276650
   1 C :   -0.259037
   2 C :   -0.299711
   3 C :   -0.001733
   4 O :   -0.514409
   5 H :    0.143538
   6 H :    0.143102
   7 H :    0.164118
   8 H :    0.139515
   9 H :    0.164024
  10 H :    0.144026
  11 H :    0.141154
  12 C :   -0.036495
  13 H :    0.153338
  14 H :    0.140738
  15 O :   -0.500597
  16 C :    0.087367
  17 C :    0.084809
  18 C :   -0.326658
  19 C :   -0.011030
  20 O :   -0.504455
  21 H :    0.154137
  22 H :    0.168328
  23 O :   -0.598793
  24 H :    0.158579
  25 H :    0.135679
  26 H :    0.146326
  27 H :    0.150382
  28 H :    0.357108
Sum of atomic charges:   -0.0000000

LOEWDIN ATOMIC CHARGES
----------------------
   0 C :    0.169492
   1 C :   -0.213874
   2 C :   -0.216306
   3 C :   -0.027642
   4 O :   -0.332743
   5 H :    0.096170
   6 H :    0.113121
   7 H :    0.127671
   8 H :    0.112575
   9 H :    0.119952
  10 H :    0.103914
  11 H :    0.101879
  12 C :   -0.055986
  13 H :    0.110041
  14 H :    0.106445
  15 O :   -0.312808
  16 C :    0.010023
  17 C :    0.034491
  18 C :   -0.242578
  19 C :   -0.030074
  20 O :   -0.315931
  21 H :    0.112149
  22 H :    0.119513
  23 O :   -0.406311
  24 H :    0.123036
  25 H :    0.104941
  26 H :    0.103983
  27 H :    0.106386
  28 H :    0.278471

  Mayer bond orders larger than 0.100000
B(  0-C ,  1-C ) :   0.9496 B(  0-C ,  4-O ) :   0.8992 B(  0-C ,  5-H ) :   0.9162
B(  0-C , 15-O ) :   0.8686 B(  1-C ,  2-C ) :   0.9565 B(  1-C ,  6-H ) :   0.9410
B(  1-C ,  7-H ) :   0.9348 B(  2-C ,  3-C ) :   0.9555 B(  2-C ,  8-H ) :   0.9455
B(  2-C ,  9-H ) :   0.9441 B(  3-C ,  4-O ) :   0.8383 B(  3-C , 10-H ) :   0.9363
B(  3-C , 11-H ) :   0.9405 B( 12-C , 13-H ) :   0.9020 B( 12-C , 14-H ) :   0.9394
B( 12-C , 15-O ) :   0.8568 B( 12-C , 16-C ) :   0.8889 B( 16-C , 17-C ) :   0.8725
B( 16-C , 20-O ) :   0.8700 B( 16-C , 21-H ) :   0.9297 B( 17-C , 18-C ) :   0.9230
B( 17-C , 22-H ) :   0.9322 B( 17-C , 23-O ) :   0.8988 B( 18-C , 19-C ) :   0.9397
B( 18-C , 24-H ) :   0.9416 B( 18-C , 25-H ) :   0.9416 B( 19-C , 20-O ) :   0.8485
B( 19-C , 26-H ) :   0.9315 B( 19-C , 27-H ) :   0.9374 B( 23-O , 28-H ) :   0.7977

FINAL SINGLE POINT ENERGY      -652.861169321985

DIPOLE MOMENT
-------------
                                X             Y             Z
Electronic contribution:      0.01526      -2.90841      -1.36378
Nuclear contribution   :     -0.52961       3.22762       1.76679
                        -----------------------------------------
Total Dipole Moment    :     -0.51435       0.31921       0.40301
                        -----------------------------------------
Magnitude (a.u.)       :      0.72723
Magnitude (Debye)      :      1.84847

Rotational constants in cm-1:     0.058018     0.012491     0.011206
Rotational constants in MHz :  1739.335305   374.472043   335.940309

                             ****ORCA TERMINATED NORMALLY****
TOTAL RUN TIME: 0 days 0 hours 24 minutes 29 seconds 738 msec
