                         Program Version 4.2.0 -  RELEASE  -
|  1> # Test redundant internal optimization
|  2> #
|  3> ! RKS B3LYP  Opt TightSCF SmallPrint
|  4>
|  5> %basis
|  6>         Basis "6-31G"
|  7> end
|  8>
|  9> %geom
| 10> Constraints
| 11> { D 4  0  15  12  225.0   C } # D for Dihedral angle
| 12> { D 0  15  12  16  180.0   C } # D for Dihedral angle
| 13> { D 0  4  3  2   C } # D for Dihedral angle
| 14> { D 4  3  2  1   C } # D for Dihedral angle
| 15> { D 3  2  1  0   C } # D for Dihedral angle
| 16> { D 2  1  0  4   C } # D for Dihedral angle
| 17> { D 1  0  4  3   C } # D for Dihedral angle
| 18> { D 16  20  19  18   C } # D for Dihedral angle
| 19> { D 20  19  18  17   C } # D for Dihedral angle
| 20> { D 19  18  17  16   C } # D for Dihedral angle
| 21> { D 18  17  16  20   C } # D for Dihedral angle
| 22> { D 17  16  20  19   C } # D for Dihedral angle
| 23> { D 15  12  16  20   C } # D for Dihedral angle
| 24> end
| 25> end
| 26>
| 27>
| 28> #%pal
| 29> #nprocs 8
| 30> #end
| 31>
| 32> * xyz 0 1
| 33> C  -21.048   26.222   46.251
| 34> C  -20.361   27.558   45.944
| 35> C  -20.329   28.222   47.341
| 36> C  -20.110   27.022   48.296
| 37> O  -20.473   25.807   47.535
| 38> H  -20.833   25.428   45.533
| 39> H  -19.344   27.382   45.576
| 40> H  -20.898   28.157   45.201
| 41> H  -19.543   28.978   47.434
| 42> H  -21.289   28.710   47.548
| 43> H  -20.733   27.082   49.195
| 44> H  -19.064   26.913   48.597
| 45> C  -23.415   25.773   45.218
| 46> H  -23.115   26.235   44.269
| 47> H  -23.229   24.693   45.148
| 48> O  -22.586   26.394   46.375
| 49> C  -24.945   25.977   45.398
| 50> C  -25.319   27.463   45.336
| 51> C  -25.308   27.725   43.812
| 52> C  -25.834   26.393   43.221
| 53> O  -25.678   25.373   44.281
| 54> H  -25.269   25.467   46.307
| 55> H  -26.324   27.614   45.747
| 56> O  -24.330   28.374   46.113
| 57> H  -25.926   28.582   43.524
| 58> H  -24.284   27.922   43.472
| 59> H  -25.274   26.077   42.335
| 60> H  -26.897   26.438   42.971
| 61> H  -23.317   28.238   45.717
| 62> *
| 63>
| 64>                          ****END OF INPUT****
 Total Charge           Charge          ....    0
 Multiplicity           Mult            ....    1
 Number of Electrons    NEL             ....  102
FINAL SINGLE POINT ENERGY      -652.828653766849
FINAL SINGLE POINT ENERGY      -652.853441900221
FINAL SINGLE POINT ENERGY      -652.859708837890
FINAL SINGLE POINT ENERGY      -652.862319301436
FINAL SINGLE POINT ENERGY      -652.863942139882
FINAL SINGLE POINT ENERGY      -652.865042819107
FINAL SINGLE POINT ENERGY      -652.865613522093
FINAL SINGLE POINT ENERGY      -652.865781942685
FINAL SINGLE POINT ENERGY      -652.865808592717
FINAL SINGLE POINT ENERGY      -652.865813217541
                    ***********************HURRAY********************

CARTESIAN COORDINATES (ANGSTROEM)
---------------------------------
  C    -21.087732   26.182801   46.197914
  C    -20.403896   27.510979   45.880696
  C    -20.456273   28.232923   47.248604
  C    -20.276788   27.078451   48.256431
  O    -20.591243   25.835034   47.497108
  H    -20.854049   25.352902   45.525586
  H    -19.367963   27.322739   45.576510
  H    -20.908639   28.065383   45.084720
  H    -19.677735   28.995353   47.346468
  H    -21.425395   28.724159   47.381040
  H    -20.951297   27.140742   49.113391
  H    -19.246974   26.974128   48.608755
  C    -23.302876   25.730158   45.162983
  H    -22.978765   26.131618   44.193274
  H    -23.141400   24.645869   45.166621
  O    -22.538886   26.355823   46.247877
  C    -24.785045   26.031691   45.407514
  C    -25.165219   27.522111   45.356244
  C    -25.243868   27.775104   43.822868
  C    -25.799532   26.443380   43.276583
  O    -25.578235   25.422262   44.343575
  H    -25.092766   25.561350   46.345310
  H    -26.161051   27.641866   45.798947
  O    -24.265437   28.423713   46.031860
  H    -25.880429   28.630876   43.583854
  H    -24.237393   27.990456   43.448436
  H    -25.301915   26.107879   42.361744
  H    -26.878182   26.476840   43.098774
  H    -23.476016   27.912410   46.331311

 Multiplicity           Mult            ....    1
 Number of Electrons    NEL             ....  102
 Basis Dimension        Dim             ....  149

ORBITAL ENERGIES
----------------

  NO   OCC          E(Eh)            E(eV)
   0   2.0000     -19.164360      -521.4887
   1   2.0000     -19.150001      -521.0980
   2   2.0000     -19.142061      -520.8820
   3   2.0000     -19.114525      -520.1327
   4   2.0000     -10.292910      -280.0843
   5   2.0000     -10.241908      -278.6965
   6   2.0000     -10.236216      -278.5416
   7   2.0000     -10.232431      -278.4386
   8   2.0000     -10.231702      -278.4188
   9   2.0000     -10.228195      -278.3233
  10   2.0000     -10.195848      -277.4431
  11   2.0000     -10.194091      -277.3953
  12   2.0000     -10.181068      -277.0410
  13   2.0000      -1.066052       -29.0088
  14   2.0000      -1.027738       -27.9662
  15   2.0000      -1.009716       -27.4758
  16   2.0000      -0.993611       -27.0375
  17   2.0000      -0.796425       -21.6718
  18   2.0000      -0.774885       -21.0857
  19   2.0000      -0.769593       -20.9417
  20   2.0000      -0.736980       -20.0543
  21   2.0000      -0.680504       -18.5174
  22   2.0000      -0.608143       -16.5484
  23   2.0000      -0.603868       -16.4321
  24   2.0000      -0.594786       -16.1849
  25   2.0000      -0.583148       -15.8683
  26   2.0000      -0.530062       -14.4237
  27   2.0000      -0.522133       -14.2080
  28   2.0000      -0.502000       -13.6601
  29   2.0000      -0.489364       -13.3163
  30   2.0000      -0.475191       -12.9306
  31   2.0000      -0.460904       -12.5418
  32   2.0000      -0.445465       -12.1217
  33   2.0000      -0.436301       -11.8723
  34   2.0000      -0.429307       -11.6820
  35   2.0000      -0.423033       -11.5113
  36   2.0000      -0.407783       -11.0963
  37   2.0000      -0.389389       -10.5958
  38   2.0000      -0.383037       -10.4230
  39   2.0000      -0.370889       -10.0924
  40   2.0000      -0.364894        -9.9293
  41   2.0000      -0.363104        -9.8806
  42   2.0000      -0.349226        -9.5029
  43   2.0000      -0.342997        -9.3334
  44   2.0000      -0.323714        -8.8087
  45   2.0000      -0.322797        -8.7838
  46   2.0000      -0.292279        -7.9533
  47   2.0000      -0.275803        -7.5050
  48   2.0000      -0.263536        -7.1712
  49   2.0000      -0.249663        -6.7937
  50   2.0000      -0.245011        -6.6671
  51   0.0000       0.052738         1.4351
  52   0.0000       0.075511         2.0548
  53   0.0000       0.092691         2.5223
  54   0.0000       0.096779         2.6335
  55   0.0000       0.098622         2.6836

MULLIKEN ATOMIC CHARGES
-----------------------
   0 C :    0.301673
   1 C :   -0.266552
   2 C :   -0.311056
   3 C :   -0.006170
   4 O :   -0.498224
   5 H :    0.149232
   6 H :    0.151217
   7 H :    0.151395
   8 H :    0.150027
   9 H :    0.169476
  10 H :    0.159143
  11 H :    0.147202
  12 C :   -0.014797
  13 H :    0.134923
  14 H :    0.165375
  15 O :   -0.553556
  16 C :    0.048165
  17 C :    0.120151
  18 C :   -0.296725
  19 C :   -0.022464
  20 O :   -0.521512
  21 H :    0.165733
  22 H :    0.146132
  23 O :   -0.654067
  24 H :    0.151858
  25 H :    0.140154
  26 H :    0.140596
  27 H :    0.152007
  28 H :    0.400664
Sum of atomic charges:   -0.0000000

LOEWDIN ATOMIC CHARGES
----------------------
   0 C :    0.180241
   1 C :   -0.225068
   2 C :   -0.217819
   3 C :   -0.026066
   4 O :   -0.305966
   5 H :    0.104663
   6 H :    0.117379
   7 H :    0.119457
   8 H :    0.118776
   9 H :    0.120641
  10 H :    0.111833
  11 H :    0.105584
  12 C :   -0.042889
  13 H :    0.094007
  14 H :    0.113563
  15 O :   -0.342479
  16 C :    0.019668
  17 C :    0.042939
  18 C :   -0.234594
  19 C :   -0.033035
  20 O :   -0.322952
  21 H :    0.118739
  22 H :    0.104263
  23 O :   -0.442094
  24 H :    0.121474
  25 H :    0.108923
  26 H :    0.101313
  27 H :    0.107236
  28 H :    0.282264

  Mayer bond orders larger than 0.100000
B(  0-C ,  1-C ) :   0.9411 B(  0-C ,  4-O ) :   0.9478 B(  0-C ,  5-H ) :   0.9206
B(  0-C , 15-O ) :   0.7944 B(  1-C ,  2-C ) :   0.9517 B(  1-C ,  6-H ) :   0.9345
B(  1-C ,  7-H ) :   0.9358 B(  2-C ,  3-C ) :   0.9520 B(  2-C ,  8-H ) :   0.9444
B(  2-C ,  9-H ) :   0.9403 B(  3-C ,  4-O ) :   0.8304 B(  3-C , 10-H ) :   0.9339
B(  3-C , 11-H ) :   0.9394 B( 12-C , 13-H ) :   0.9188 B( 12-C , 14-H ) :   0.9203
B( 12-C , 15-O ) :   0.7890 B( 12-C , 16-C ) :   0.9101 B( 15-O , 28-H ) :   0.1043
B( 16-C , 17-C ) :   0.9150 B( 16-C , 20-O ) :   0.8556 B( 16-C , 21-H ) :   0.9279
B( 17-C , 18-C ) :   0.9032 B( 17-C , 22-H ) :   0.9286 B( 17-C , 23-O ) :   0.9317
B( 18-C , 19-C ) :   0.9405 B( 18-C , 24-H ) :   0.9450 B( 18-C , 25-H ) :   0.9433
B( 19-C , 20-O ) :   0.8329 B( 19-C , 26-H ) :   0.9344 B( 19-C , 27-H ) :   0.9378
B( 23-O , 28-H ) :   0.7035

FINAL SINGLE POINT ENERGY      -652.865814470925

DIPOLE MOMENT
-------------
                                X             Y             Z
Electronic contribution:     -1.94598      -3.97639       2.23156
Nuclear contribution   :      2.84768       4.39510      -2.92484
                        -----------------------------------------
Total Dipole Moment    :      0.90171       0.41872      -0.69328
                        -----------------------------------------
Magnitude (a.u.)       :      1.21204
Magnitude (Debye)      :      3.08075

Rotational constants in cm-1:     0.059914     0.013546     0.012506
Rotational constants in MHz :  1796.190840   406.087083   374.910815

                             ****ORCA TERMINATED NORMALLY****
TOTAL RUN TIME: 0 days 0 hours 40 minutes 32 seconds 955 msec
