                         Program Version 4.2.0 -  RELEASE  -
|  1> # Test redundant internal optimization
|  2> #
|  3> ! RKS B3LYP  Opt TightSCF SmallPrint
|  4>
|  5> %basis
|  6>         Basis "6-31G"
|  7> end
|  8>
|  9> %geom
| 10> Constraints
| 11> { D 4  0  15  12  60.0   C } # D for Dihedral angle
| 12> { D 0  15  12  16  120.0   C } # D for Dihedral angle
| 13> { D 0  4  3  2   C } # D for Dihedral angle
| 14> { D 4  3  2  1   C } # D for Dihedral angle
| 15> { D 3  2  1  0   C } # D for Dihedral angle
| 16> { D 2  1  0  4   C } # D for Dihedral angle
| 17> { D 1  0  4  3   C } # D for Dihedral angle
| 18> { D 16  20  19  18   C } # D for Dihedral angle
| 19> { D 20  19  18  17   C } # D for Dihedral angle
| 20> { D 19  18  17  16   C } # D for Dihedral angle
| 21> { D 18  17  16  20   C } # D for Dihedral angle
| 22> { D 17  16  20  19   C } # D for Dihedral angle
| 23> { D 15  12  16  20   C } # D for Dihedral angle
| 24> end
| 25> end
| 26>
| 27>
| 28> #%pal
| 29> #nprocs 8
| 30> #end
| 31>
| 32> * xyz 0 1
| 33> C  -21.048   26.222   46.251
| 34> C  -20.361   27.558   45.944
| 35> C  -20.329   28.222   47.341
| 36> C  -20.110   27.022   48.296
| 37> O  -20.473   25.807   47.535
| 38> H  -20.833   25.428   45.533
| 39> H  -19.344   27.382   45.576
| 40> H  -20.898   28.157   45.201
| 41> H  -19.543   28.978   47.434
| 42> H  -21.289   28.710   47.548
| 43> H  -20.733   27.082   49.195
| 44> H  -19.064   26.913   48.597
| 45> C  -23.051   27.452   47.413
| 46> H  -23.665   26.962   48.179
| 47> H  -22.185   27.909   47.909
| 48> O  -22.586   26.394   46.375
| 49> C  -23.887   28.594   46.774
| 50> C  -25.207   28.065   46.202
| 51> C  -26.073   27.937   47.478
| 52> C  -25.605   29.135   48.341
| 53> O  -24.299   29.562   47.796
| 54> H  -23.266   29.133   46.055
| 55> H  -25.640   28.800   45.513
| 56> O  -25.047   26.719   45.444
| 57> H  -27.146   27.968   47.267
| 58> H  -25.858   26.988   47.984
| 59> H  -25.483   28.869   49.397
| 60> H  -26.281   29.991   48.268
| 61> H  -24.615   25.968   46.115
| 62> *
| 63>
| 64>                          ****END OF INPUT****
 Total Charge           Charge          ....    0
 Multiplicity           Mult            ....    1
 Number of Electrons    NEL             ....  102
FINAL SINGLE POINT ENERGY      -652.798967888097
FINAL SINGLE POINT ENERGY      -652.833788759616
FINAL SINGLE POINT ENERGY      -652.852178523165
FINAL SINGLE POINT ENERGY      -652.856880840374
FINAL SINGLE POINT ENERGY      -652.858596407873
FINAL SINGLE POINT ENERGY      -652.859653669157
FINAL SINGLE POINT ENERGY      -652.860132862351
FINAL SINGLE POINT ENERGY      -652.860255885956
FINAL SINGLE POINT ENERGY      -652.860273723126
FINAL SINGLE POINT ENERGY      -652.860274892185
                    ***********************HURRAY********************

CARTESIAN COORDINATES (ANGSTROEM)
---------------------------------
  C    -21.212632   26.335286   46.446972
  C    -20.362888   27.504690   45.932276
  C    -19.934635   28.203211   47.256339
  C    -19.761882   27.008577   48.226294
  O    -20.494817   25.871457   47.606615
  H    -21.243181   25.495452   45.751253
  H    -19.491803   27.094684   45.410835
  H    -20.907924   28.159275   45.247328
  H    -19.002503   28.765392   47.141802
  H    -20.697532   28.908097   47.595826
  H    -20.171614   27.191612   49.223711
  H    -18.718537   26.695104   48.319879
  C    -23.159164   27.526153   47.645084
  H    -23.769325   26.949617   48.347762
  H    -22.372694   28.020591   48.214774
  O    -22.626192   26.567452   46.667472
  C    -24.003273   28.569618   46.906229
  C    -25.248271   28.007504   46.198424
  C    -26.246832   27.863987   47.384087
  C    -25.901366   29.069301   48.282214
  O    -24.538624   29.528497   47.870465
  H    -23.363878   29.136150   46.221204
  H    -25.623025   28.763203   45.498805
  O    -25.056316   26.793458   45.448875
  H    -27.284512   27.873463   47.040982
  H    -26.068270   26.907961   47.887502
  H    -25.879920   28.825831   49.348946
  H    -26.573450   29.918772   48.127087
  H    -24.203940   26.372608   45.711956

 Multiplicity           Mult            ....    1
 Number of Electrons    NEL             ....  102
 Basis Dimension        Dim             ....  149

ORBITAL ENERGIES
----------------

  NO   OCC          E(Eh)            E(eV)
   0   2.0000     -19.163881      -521.4757
   1   2.0000     -19.153828      -521.2022
   2   2.0000     -19.142725      -520.9000
   3   2.0000     -19.113701      -520.1102
   4   2.0000     -10.292556      -280.0747
   5   2.0000     -10.239709      -278.6367
   6   2.0000     -10.238943      -278.6158
   7   2.0000     -10.236015      -278.5361
   8   2.0000     -10.231394      -278.4104
   9   2.0000     -10.228306      -278.3264
  10   2.0000     -10.201465      -277.5960
  11   2.0000     -10.199953      -277.5548
  12   2.0000     -10.179536      -276.9993
  13   2.0000      -1.064679       -28.9714
  14   2.0000      -1.027202       -27.9516
  15   2.0000      -1.009360       -27.4661
  16   2.0000      -0.992827       -27.0162
  17   2.0000      -0.798048       -21.7160
  18   2.0000      -0.780332       -21.2339
  19   2.0000      -0.769647       -20.9432
  20   2.0000      -0.739594       -20.1254
  21   2.0000      -0.684709       -18.6319
  22   2.0000      -0.614131       -16.7113
  23   2.0000      -0.603340       -16.4177
  24   2.0000      -0.597356       -16.2549
  25   2.0000      -0.578577       -15.7439
  26   2.0000      -0.538295       -14.6478
  27   2.0000      -0.511498       -13.9186
  28   2.0000      -0.509245       -13.8573
  29   2.0000      -0.489972       -13.3328
  30   2.0000      -0.475559       -12.9406
  31   2.0000      -0.460840       -12.5401
  32   2.0000      -0.446177       -12.1411
  33   2.0000      -0.435260       -11.8440
  34   2.0000      -0.426610       -11.6086
  35   2.0000      -0.425637       -11.5822
  36   2.0000      -0.412304       -11.2194
  37   2.0000      -0.392031       -10.6677
  38   2.0000      -0.389774       -10.6063
  39   2.0000      -0.371512       -10.1094
  40   2.0000      -0.368918       -10.0388
  41   2.0000      -0.356802        -9.7091
  42   2.0000      -0.351737        -9.5713
  43   2.0000      -0.342186        -9.3114
  44   2.0000      -0.326771        -8.8919
  45   2.0000      -0.321838        -8.7577
  46   2.0000      -0.288426        -7.8485
  47   2.0000      -0.279328        -7.6009
  48   2.0000      -0.270516        -7.3611
  49   2.0000      -0.248848        -6.7715
  50   2.0000      -0.241166        -6.5625
  51   0.0000       0.054615         1.4861
  52   0.0000       0.067137         1.8269
  53   0.0000       0.089687         2.4405
  54   0.0000       0.093357         2.5404
  55   0.0000       0.103227         2.8090

MULLIKEN ATOMIC CHARGES
-----------------------
   0 C :    0.311607
   1 C :   -0.274834
   2 C :   -0.326939
   3 C :   -0.016669
   4 O :   -0.500471
   5 H :    0.171617
   6 H :    0.160433
   7 H :    0.154764
   8 H :    0.151851
   9 H :    0.163054
  10 H :    0.151560
  11 H :    0.154300
  12 C :   -0.025061
  13 H :    0.159114
  14 H :    0.154692
  15 O :   -0.563689
  16 C :    0.057317
  17 C :    0.120472
  18 C :   -0.297975
  19 C :   -0.028473
  20 O :   -0.522779
  21 H :    0.147567
  22 H :    0.146314
  23 O :   -0.640799
  24 H :    0.152053
  25 H :    0.148180
  26 H :    0.145164
  27 H :    0.151311
  28 H :    0.396318
Sum of atomic charges:   -0.0000000

LOEWDIN ATOMIC CHARGES
----------------------
   0 C :    0.180100
   1 C :   -0.227483
   2 C :   -0.225758
   3 C :   -0.034222
   4 O :   -0.314819
   5 H :    0.116390
   6 H :    0.124207
   7 H :    0.120872
   8 H :    0.119277
   9 H :    0.114280
  10 H :    0.105714
  11 H :    0.108680
  12 C :   -0.044878
  13 H :    0.111449
  14 H :    0.111808
  15 O :   -0.333827
  16 C :    0.011808
  17 C :    0.042400
  18 C :   -0.236331
  19 C :   -0.033933
  20 O :   -0.327188
  21 H :    0.107801
  22 H :    0.105007
  23 O :   -0.434144
  24 H :    0.121910
  25 H :    0.112681
  26 H :    0.103002
  27 H :    0.106638
  28 H :    0.288557

  Mayer bond orders larger than 0.100000
B(  0-C ,  1-C ) :   0.9214 B(  0-C ,  4-O ) :   0.9245 B(  0-C ,  5-H ) :   0.9348
B(  0-C , 15-O ) :   0.8452 B(  1-C ,  2-C ) :   0.9530 B(  1-C ,  6-H ) :   0.9333
B(  1-C ,  7-H ) :   0.9348 B(  2-C ,  3-C ) :   0.9460 B(  2-C ,  8-H ) :   0.9438
B(  2-C ,  9-H ) :   0.9372 B(  3-C ,  4-O ) :   0.8375 B(  3-C , 10-H ) :   0.9325
B(  3-C , 11-H ) :   0.9379 B( 12-C , 13-H ) :   0.9321 B( 12-C , 14-H ) :   0.9170
B( 12-C , 15-O ) :   0.7783 B( 12-C , 16-C ) :   0.8920 B( 16-C , 17-C ) :   0.9118
B( 16-C , 20-O ) :   0.8558 B( 16-C , 21-H ) :   0.9300 B( 17-C , 18-C ) :   0.9011
B( 17-C , 22-H ) :   0.9313 B( 17-C , 23-O ) :   0.9367 B( 18-C , 19-C ) :   0.9391
B( 18-C , 24-H ) :   0.9442 B( 18-C , 25-H ) :   0.9425 B( 19-C , 20-O ) :   0.8311
B( 19-C , 26-H ) :   0.9337 B( 19-C , 27-H ) :   0.9380 B( 23-O , 28-H ) :   0.7232

FINAL SINGLE POINT ENERGY      -652.860275943857

DIPOLE MOMENT
-------------
                                X             Y             Z
Electronic contribution:     -1.13334      -2.74046      -1.49593
Nuclear contribution   :      2.03562       3.43395       1.93516
                        -----------------------------------------
Total Dipole Moment    :      0.90229       0.69349       0.43923
                        -----------------------------------------
Magnitude (a.u.)       :      1.21983
Magnitude (Debye)      :      3.10055

Rotational constants in cm-1:     0.052335     0.014607     0.013144
Rotational constants in MHz :  1568.954509   437.894941   394.049086

                             ****ORCA TERMINATED NORMALLY****
TOTAL RUN TIME: 0 days 0 hours 57 minutes 19 seconds 183 msec
