                         Program Version 4.2.1 -  RELEASE  -
|  1> # Test redundant internal optimization
|  2> #
|  3> ! RKS B3LYP  Opt TightSCF SmallPrint
|  4>
|  5> %basis
|  6>         Basis "6-31G"
|  7> end
|  8>
|  9> %geom
| 10> Constraints
| 11> { D 4  0  19  14  255.0   C } # D for Dihedral angle
| 12> { D 0  19  14  12  225.0   C } # D for Dihedral angle
| 13> { D 0  4  3  2   C } # D for Dihedral angle
| 14> { D 4  3  2  1   C } # D for Dihedral angle
| 15> { D 3  2  1  0   C } # D for Dihedral angle
| 16> { D 2  1  0  4   C } # D for Dihedral angle
| 17> { D 1  0  4  3   C } # D for Dihedral angle
| 18> { D 14  15  16  17   C } # D for Dihedral angle
| 19> { D 15  16  17  12   C } # D for Dihedral angle
| 20> { D 16  17  12  14   C } # D for Dihedral angle
| 21> { D 17  12  14  15   C } # D for Dihedral angle
| 22> { D 12  14  15  16   C } # D for Dihedral angle
| 23> end
| 24> end
| 25>
| 26>
| 27> #%pal
| 28> #nprocs 8
| 29> #end
| 30>
| 31> * xyz 0 1
| 32> C  -21.048   26.222   46.251
| 33> C  -20.361   27.558   45.944
| 34> C  -20.329   28.222   47.341
| 35> C  -20.110   27.022   48.296
| 36> O  -20.473   25.807   47.535
| 37> H  -20.833   25.428   45.533
| 38> H  -19.344   27.382   45.576
| 39> H  -20.898   28.157   45.201
| 40> H  -19.543   28.978   47.434
| 41> H  -21.289   28.710   47.548
| 42> H  -20.733   27.082   49.195
| 43> H  -19.064   26.913   48.597
| 44> C  -24.393   25.907   44.948
| 45> H  -25.152   25.142   44.723
| 46> C  -23.236   25.322   45.767
| 47> C  -22.411   24.602   44.676
| 48> C  -22.579   25.523   43.441
| 49> O  -23.757   26.377   43.711
| 50> H  -24.879   26.771   45.404
| 51> O  -22.472   26.381   46.366
| 52> H  -23.572   24.646   46.561
| 53> H  -21.362   24.467   44.956
| 54> H  -22.834   23.609   44.476
| 55> H  -22.748   24.961   42.517
| 56> H  -21.724   26.191   43.299
| 57> *
| 58>
| 59>                          ****END OF INPUT****
 Total Charge           Charge          ....    0
 Multiplicity           Mult            ....    1
 Number of Electrons    NEL             ....   86
FINAL SINGLE POINT ENERGY      -538.403074431420
FINAL SINGLE POINT ENERGY      -538.427400542334
FINAL SINGLE POINT ENERGY      -538.429180686499
FINAL SINGLE POINT ENERGY      -538.429470536215
FINAL SINGLE POINT ENERGY      -538.429511883288
FINAL SINGLE POINT ENERGY      -538.429519314715
                    ***********************HURRAY********************

CARTESIAN COORDINATES (ANGSTROEM)
---------------------------------
  C    -20.835824   26.245461   46.232036
  C    -20.336357   27.676000   46.020546
  C    -20.457508   28.269394   47.445163
  C    -20.109215   27.066503   48.351360
  O    -20.268001   25.858274   47.506376
  H    -20.480512   25.519064   45.502372
  H    -19.289384   27.652627   45.695607
  H    -20.933313   28.207034   45.276610
  H    -19.788744   29.119987   47.606048
  H    -21.486543   28.597359   47.618129
  H    -20.769022   26.979805   49.218695
  H    -19.068555   27.078467   48.690105
  C    -24.255610   26.046678   44.977020
  H    -25.149690   25.420250   44.845007
  C    -23.152116   25.279489   45.704631
  C    -22.566645   24.425966   44.567640
  C    -22.680072   25.347670   43.328904
  O    -23.664589   26.393516   43.679101
  H    -24.518151   26.975939   45.482128
  O    -22.272767   26.294812   46.292717
  H    -23.536237   24.659288   46.522917
  H    -21.554220   24.060047   44.749946
  H    -23.207361   23.544251   44.453148
  H    -23.024724   24.808800   42.439424
  H    -21.738839   25.853318   43.090367

 Multiplicity           Mult            ....    1
 Number of Electrons    NEL             ....   86
 Basis Dimension        Dim             ....  127

ORBITAL ENERGIES
----------------

  NO   OCC          E(Eh)            E(eV)
   0   2.0000     -19.138314      -520.7800
   1   2.0000     -19.132423      -520.6197
   2   2.0000     -19.132073      -520.6102
   3   2.0000     -10.275984      -279.6237
   4   2.0000     -10.243219      -278.7322
   5   2.0000     -10.227466      -278.3035
   6   2.0000     -10.221439      -278.1395
   7   2.0000     -10.219527      -278.0875
   8   2.0000     -10.194686      -277.4115
   9   2.0000     -10.179636      -277.0020
  10   2.0000     -10.178851      -276.9806
  11   2.0000      -1.047982       -28.5170
  12   2.0000      -1.015633       -27.6368
  13   2.0000      -0.985762       -26.8240
  14   2.0000      -0.791850       -21.5473
  15   2.0000      -0.775199       -21.0942
  16   2.0000      -0.747727       -20.3467
  17   2.0000      -0.717106       -19.5134
  18   2.0000      -0.616351       -16.7718
  19   2.0000      -0.602978       -16.4079
  20   2.0000      -0.592287       -16.1170
  21   2.0000      -0.565331       -15.3834
  22   2.0000      -0.528158       -14.3719
  23   2.0000      -0.502037       -13.6611
  24   2.0000      -0.483443       -13.1551
  25   2.0000      -0.477935       -13.0053
  26   2.0000      -0.455838       -12.4040
  27   2.0000      -0.435057       -11.8385
  28   2.0000      -0.429364       -11.6836
  29   2.0000      -0.419549       -11.4165
  30   2.0000      -0.399613       -10.8740
  31   2.0000      -0.387654       -10.5486
  32   2.0000      -0.373773       -10.1709
  33   2.0000      -0.369363       -10.0509
  34   2.0000      -0.360250        -9.8029
  35   2.0000      -0.350565        -9.5394
  36   2.0000      -0.342158        -9.3106
  37   2.0000      -0.316526        -8.6131
  38   2.0000      -0.305351        -8.3090
  39   2.0000      -0.296608        -8.0711
  40   2.0000      -0.263028        -7.1573
  41   2.0000      -0.245051        -6.6682
  42   2.0000      -0.237106        -6.4520
  43   0.0000       0.075082         2.0431
  44   0.0000       0.094719         2.5774
  45   0.0000       0.100284         2.7289
  46   0.0000       0.113240         3.0814
  47   0.0000       0.115791         3.1508

MULLIKEN ATOMIC CHARGES
-----------------------
   0 C :    0.284881
   1 C :   -0.253396
   2 C :   -0.296693
   3 C :   -0.000891
   4 O :   -0.509167
   5 H :    0.139305
   6 H :    0.138137
   7 H :    0.160626
   8 H :    0.137589
   9 H :    0.161898
  10 H :    0.146978
  11 H :    0.138474
  12 C :   -0.000372
  13 H :    0.124015
  14 C :    0.104519
  15 C :   -0.335673
  16 C :    0.004073
  17 O :   -0.521475
  18 H :    0.169576
  19 O :   -0.530046
  20 H :    0.142384
  21 H :    0.158764
  22 H :    0.154898
  23 H :    0.138694
  24 H :    0.142901
Sum of atomic charges:    0.0000000

LOEWDIN ATOMIC CHARGES
----------------------
   0 C :    0.173628
   1 C :   -0.218159
   2 C :   -0.215667
   3 C :   -0.027382
   4 O :   -0.327228
   5 H :    0.096742
   6 H :    0.109965
   7 H :    0.125143
   8 H :    0.112071
   9 H :    0.119057
  10 H :    0.105059
  11 H :    0.100387
  12 C :   -0.036761
  13 H :    0.090469
  14 C :    0.048648
  15 C :   -0.240523
  16 C :   -0.030796
  17 O :   -0.331101
  18 H :    0.123853
  19 O :   -0.326088
  20 H :    0.104269
  21 H :    0.121504
  22 H :    0.121745
  23 H :    0.100284
  24 H :    0.100880

  Mayer bond orders larger than 0.100000
B(  0-C ,  1-C ) :   0.9430 B(  0-C ,  4-O ) :   0.9181 B(  0-C ,  5-H ) :   0.9111
B(  0-C , 19-O ) :   0.8557 B(  1-C ,  2-C ) :   0.9583 B(  1-C ,  6-H ) :   0.9399
B(  1-C ,  7-H ) :   0.9347 B(  2-C ,  3-C ) :   0.9539 B(  2-C ,  8-H ) :   0.9458
B(  2-C ,  9-H ) :   0.9439 B(  3-C ,  4-O ) :   0.8406 B(  3-C , 10-H ) :   0.9355
B(  3-C , 11-H ) :   0.9402 B( 12-C , 13-H ) :   0.9143 B( 12-C , 14-C ) :   0.9223
B( 12-C , 17-O ) :   0.8634 B( 12-C , 18-H ) :   0.9306 B( 14-C , 15-C ) :   0.9410
B( 14-C , 19-O ) :   0.8375 B( 14-C , 20-H ) :   0.9262 B( 15-C , 16-C ) :   0.9385
B( 15-C , 21-H ) :   0.9283 B( 15-C , 22-H ) :   0.9342 B( 16-C , 17-O ) :   0.8631
B( 16-C , 23-H ) :   0.9332 B( 16-C , 24-H ) :   0.9355

FINAL SINGLE POINT ENERGY      -538.429519983217

DIPOLE MOMENT
-------------
                                X             Y             Z
Electronic contribution:     -1.39295      -1.04202       0.30919
Nuclear contribution   :      1.61408       0.74462      -0.33861
                        -----------------------------------------
Total Dipole Moment    :      0.22113      -0.29741      -0.02942
                        -----------------------------------------
Magnitude (a.u.)       :      0.37177
Magnitude (Debye)      :      0.94497

Rotational constants in cm-1:     0.080911     0.021082     0.020355
Rotational constants in MHz :  2425.655779   632.028970   610.237422

                             ****ORCA TERMINATED NORMALLY****
TOTAL RUN TIME: 0 days 0 hours 7 minutes 19 seconds 539 msec
