                         Program Version 4.2.1 -  RELEASE  -
|  1> # Test redundant internal optimization
|  2> #
|  3> ! RKS B3LYP  Opt TightSCF SmallPrint
|  4>
|  5> %basis
|  6>         Basis "6-31G"
|  7> end
|  8>
|  9> %geom
| 10> Constraints
| 11> { D 4  0  19  14  345.0   C } # D for Dihedral angle
| 12> { D 0  19  14  12  105.0   C } # D for Dihedral angle
| 13> { D 0  4  3  2   C } # D for Dihedral angle
| 14> { D 4  3  2  1   C } # D for Dihedral angle
| 15> { D 3  2  1  0   C } # D for Dihedral angle
| 16> { D 2  1  0  4   C } # D for Dihedral angle
| 17> { D 1  0  4  3   C } # D for Dihedral angle
| 18> { D 14  15  16  17   C } # D for Dihedral angle
| 19> { D 15  16  17  12   C } # D for Dihedral angle
| 20> { D 16  17  12  14   C } # D for Dihedral angle
| 21> { D 17  12  14  15   C } # D for Dihedral angle
| 22> { D 12  14  15  16   C } # D for Dihedral angle
| 23> end
| 24> end
| 25>
| 26>
| 27> #%pal
| 28> #nprocs 8
| 29> #end
| 30>
| 31> * xyz 0 1
| 32> C  -21.048   26.222   46.251
| 33> C  -20.361   27.558   45.944
| 34> C  -20.329   28.222   47.341
| 35> C  -20.110   27.022   48.296
| 36> O  -20.473   25.807   47.535
| 37> H  -20.833   25.428   45.533
| 38> H  -19.344   27.382   45.576
| 39> H  -20.898   28.157   45.201
| 40> H  -19.543   28.978   47.434
| 41> H  -21.289   28.710   47.548
| 42> H  -20.733   27.082   49.195
| 43> H  -19.064   26.913   48.597
| 44> C  -23.398   26.886   48.560
| 45> H  -23.558   26.465   49.565
| 46> C  -23.040   25.792   47.547
| 47> C  -24.428   25.182   47.240
| 48> C  -25.373   26.408   47.305
| 49> O  -24.644   27.463   48.043
| 50> H  -22.672   27.698   48.624
| 51> O  -22.472   26.381   46.366
| 52> H  -22.331   25.056   47.941
| 53> H  -24.465   24.678   46.269
| 54> H  -24.696   24.447   48.009
| 55> H  -26.311   26.188   47.827
| 56> H  -25.605   26.810   46.314
| 57> *
| 58>
| 59>                          ****END OF INPUT****
 Total Charge           Charge          ....    0
 Multiplicity           Mult            ....    1
 Number of Electrons    NEL             ....   86
FINAL SINGLE POINT ENERGY      -538.425614022406
FINAL SINGLE POINT ENERGY      -538.430909089684
FINAL SINGLE POINT ENERGY      -538.432157012822
FINAL SINGLE POINT ENERGY      -538.432440986340
FINAL SINGLE POINT ENERGY      -538.432463363171
FINAL SINGLE POINT ENERGY      -538.432472422469
                    ***********************HURRAY********************

CARTESIAN COORDINATES (ANGSTROEM)
---------------------------------
  C    -21.016713   26.209056   46.323371
  C    -20.424228   27.565150   45.938650
  C    -20.278633   28.248028   47.317780
  C    -19.912992   27.077512   48.256805
  O    -20.308788   25.837449   47.527894
  H    -20.817676   25.405849   45.607754
  H    -19.447163   27.408195   45.467760
  H    -21.071588   28.115162   45.252616
  H    -19.513373   29.030539   47.320076
  H    -21.230335   28.704322   47.605555
  H    -20.437873   27.106520   49.215623
  H    -18.837837   26.997416   48.440061
  C    -23.521390   26.827894   48.652039
  H    -23.780360   26.377079   49.622359
  C    -23.104514   25.743691   47.658746
  C    -24.470399   25.191422   47.211093
  C    -25.380654   26.442168   47.209008
  O    -24.689812   27.458232   48.035845
  H    -22.773493   27.606714   48.802919
  O    -22.461235   26.316184   46.475062
  H    -22.453853   24.987984   48.106287
  H    -24.396674   24.715140   46.231154
  H    -24.822052   24.448402   47.936914
  H    -26.370326   26.246344   47.636320
  H    -25.496039   26.868548   46.209308

 Multiplicity           Mult            ....    1
 Number of Electrons    NEL             ....   86
 Basis Dimension        Dim             ....  127

ORBITAL ENERGIES
----------------

  NO   OCC          E(Eh)            E(eV)
   0   2.0000     -19.151350      -521.1347
   1   2.0000     -19.135334      -520.6989
   2   2.0000     -19.124202      -520.3960
   3   2.0000     -10.278919      -279.7036
   4   2.0000     -10.233787      -278.4755
   5   2.0000     -10.232978      -278.4535
   6   2.0000     -10.218388      -278.0565
   7   2.0000     -10.215487      -277.9775
   8   2.0000     -10.189454      -277.2691
   9   2.0000     -10.185364      -277.1578
  10   2.0000     -10.180385      -277.0224
  11   2.0000      -1.054355       -28.6905
  12   2.0000      -1.011002       -27.5108
  13   2.0000      -0.986240       -26.8370
  14   2.0000      -0.793021       -21.5792
  15   2.0000      -0.776970       -21.1424
  16   2.0000      -0.738476       -20.0949
  17   2.0000      -0.720589       -19.6082
  18   2.0000      -0.613948       -16.7064
  19   2.0000      -0.601242       -16.3606
  20   2.0000      -0.593431       -16.1481
  21   2.0000      -0.564710       -15.3666
  22   2.0000      -0.516874       -14.0648
  23   2.0000      -0.503580       -13.7031
  24   2.0000      -0.488853       -13.3024
  25   2.0000      -0.481590       -13.1047
  26   2.0000      -0.451333       -12.2814
  27   2.0000      -0.437137       -11.8951
  28   2.0000      -0.427810       -11.6413
  29   2.0000      -0.413065       -11.2401
  30   2.0000      -0.412083       -11.2134
  31   2.0000      -0.377904       -10.2833
  32   2.0000      -0.370246       -10.0749
  33   2.0000      -0.361079        -9.8255
  34   2.0000      -0.360868        -9.8197
  35   2.0000      -0.355503        -9.6737
  36   2.0000      -0.344739        -9.3808
  37   2.0000      -0.332722        -9.0538
  38   2.0000      -0.300560        -8.1786
  39   2.0000      -0.300249        -8.1702
  40   2.0000      -0.266014        -7.2386
  41   2.0000      -0.250453        -6.8152
  42   2.0000      -0.228711        -6.2236
  43   0.0000       0.076352         2.0776
  44   0.0000       0.094194         2.5631
  45   0.0000       0.098381         2.6771
  46   0.0000       0.105765         2.8780
  47   0.0000       0.112192         3.0529

MULLIKEN ATOMIC CHARGES
-----------------------
   0 C :    0.302711
   1 C :   -0.258128
   2 C :   -0.315532
   3 C :   -0.016540
   4 O :   -0.515382
   5 H :    0.150724
   6 H :    0.143994
   7 H :    0.165054
   8 H :    0.147172
   9 H :    0.170778
  10 H :    0.143096
  11 H :    0.151351
  12 C :    0.002661
  13 H :    0.120873
  14 C :    0.058647
  15 C :   -0.287945
  16 C :    0.003121
  17 O :   -0.523431
  18 H :    0.148322
  19 O :   -0.533899
  20 H :    0.159390
  21 H :    0.158339
  22 H :    0.139128
  23 H :    0.132618
  24 H :    0.152877
Sum of atomic charges:   -0.0000000

LOEWDIN ATOMIC CHARGES
----------------------
   0 C :    0.182208
   1 C :   -0.217143
   2 C :   -0.220287
   3 C :   -0.032480
   4 O :   -0.322815
   5 H :    0.099631
   6 H :    0.113760
   7 H :    0.128460
   8 H :    0.117358
   9 H :    0.119340
  10 H :    0.101280
  11 H :    0.107385
  12 C :   -0.044606
  13 H :    0.090247
  14 C :    0.036195
  15 C :   -0.225668
  16 C :   -0.027845
  17 O :   -0.332734
  18 H :    0.109844
  19 O :   -0.337364
  20 H :    0.113779
  21 H :    0.126052
  22 H :    0.110706
  23 H :    0.096734
  24 H :    0.107960

  Mayer bond orders larger than 0.100000
B(  0-C ,  1-C ) :   0.9372 B(  0-C ,  4-O ) :   0.9026 B(  0-C ,  5-H ) :   0.9275
B(  0-C , 19-O ) :   0.8534 B(  1-C ,  2-C ) :   0.9526 B(  1-C ,  6-H ) :   0.9362
B(  1-C ,  7-H ) :   0.9347 B(  2-C ,  3-C ) :   0.9549 B(  2-C ,  8-H ) :   0.9440
B(  2-C ,  9-H ) :   0.9359 B(  3-C ,  4-O ) :   0.8297 B(  3-C , 10-H ) :   0.9315
B(  3-C , 11-H ) :   0.9395 B( 12-C , 13-H ) :   0.9109 B( 12-C , 14-C ) :   0.9200
B( 12-C , 17-O ) :   0.8738 B( 12-C , 18-H ) :   0.9269 B( 14-C , 15-C ) :   0.9522
B( 14-C , 19-O ) :   0.8202 B( 14-C , 20-H ) :   0.9126 B( 15-C , 16-C ) :   0.9475
B( 15-C , 21-H ) :   0.9386 B( 15-C , 22-H ) :   0.9421 B( 16-C , 17-O ) :   0.8539
B( 16-C , 23-H ) :   0.9334 B( 16-C , 24-H ) :   0.9368

FINAL SINGLE POINT ENERGY      -538.432472867104

DIPOLE MOMENT
-------------
                                X             Y             Z
Electronic contribution:     -0.50467      -1.32802      -0.65343
Nuclear contribution   :      1.08904       1.12503       0.72124
                        -----------------------------------------
Total Dipole Moment    :      0.58437      -0.20299       0.06781
                        -----------------------------------------
Magnitude (a.u.)       :      0.62233
Magnitude (Debye)      :      1.58184

Rotational constants in cm-1:     0.074497     0.023260     0.022229
Rotational constants in MHz :  2233.354805   697.316639   666.398188

                             ****ORCA TERMINATED NORMALLY****
TOTAL RUN TIME: 0 days 0 hours 8 minutes 29 seconds 54 msec
