                         Program Version 4.2.0 -  RELEASE  -
|  1> # Test redundant internal optimization
|  2> #
|  3> ! RKS B3LYP  Opt TightSCF SmallPrint
|  4>
|  5> %basis
|  6>         Basis "6-31G"
|  7> end
|  8>
|  9> %geom
| 10> Constraints
| 11> { D 4  0  15  12  195.0   C } # D for Dihedral angle
| 12> { D 0  15  12  16  15.0   C } # D for Dihedral angle
| 13> { D 0  4  3  2   C } # D for Dihedral angle
| 14> { D 4  3  2  1   C } # D for Dihedral angle
| 15> { D 3  2  1  0   C } # D for Dihedral angle
| 16> { D 2  1  0  4   C } # D for Dihedral angle
| 17> { D 1  0  4  3   C } # D for Dihedral angle
| 18> { D 16  20  19  18   C } # D for Dihedral angle
| 19> { D 20  19  18  17   C } # D for Dihedral angle
| 20> { D 19  18  17  16   C } # D for Dihedral angle
| 21> { D 18  17  16  20   C } # D for Dihedral angle
| 22> { D 17  16  20  19   C } # D for Dihedral angle
| 23> { D 15  12  16  20   C } # D for Dihedral angle
| 24> end
| 25> end
| 26>
| 27>
| 28> #%pal
| 29> #nprocs 8
| 30> #end
| 31>
| 32> * xyz 0 1
| 33> C  -21.048   26.222   46.251
| 34> C  -20.361   27.558   45.944
| 35> C  -20.329   28.222   47.341
| 36> C  -20.110   27.022   48.296
| 37> O  -20.473   25.807   47.535
| 38> H  -20.833   25.428   45.533
| 39> H  -19.344   27.382   45.576
| 40> H  -20.898   28.157   45.201
| 41> H  -19.543   28.978   47.434
| 42> H  -21.289   28.710   47.548
| 43> H  -20.733   27.082   49.195
| 44> H  -19.064   26.913   48.597
| 45> C  -23.353   26.472   45.026
| 46> H  -24.249   25.842   45.082
| 47> H  -23.671   27.503   44.825
| 48> O  -22.586   26.394   46.375
| 49> C  -22.496   25.997   43.820
| 50> C  -22.148   24.509   43.937
| 51> C  -23.462   23.841   43.465
| 52> C  -23.973   24.809   42.368
| 53> O  -23.267   26.091   42.576
| 54> H  -21.633   26.656   43.713
| 55> H  -21.323   24.262   43.259
| 56> O  -21.741   24.088   45.376
| 57> H  -23.310   22.826   43.087
| 58> H  -24.175   23.787   44.295
| 59> H  -25.053   24.980   42.430
| 60> H  -23.727   24.465   41.360
| 61> H  -22.553   24.327   46.072
| 62> *
| 63>
| 64>                          ****END OF INPUT****
 Total Charge           Charge          ....    0
 Multiplicity           Mult            ....    1
 Number of Electrons    NEL             ....  102
FINAL SINGLE POINT ENERGY      -652.801449885822
FINAL SINGLE POINT ENERGY      -652.835231513841
FINAL SINGLE POINT ENERGY      -652.848263991335
FINAL SINGLE POINT ENERGY      -652.849862884269
FINAL SINGLE POINT ENERGY      -652.850253358963
FINAL SINGLE POINT ENERGY      -652.850314804590
FINAL SINGLE POINT ENERGY      -652.850325597817
FINAL SINGLE POINT ENERGY      -652.850327698724
                    ***********************HURRAY********************

CARTESIAN COORDINATES (ANGSTROEM)
---------------------------------
  C    -20.890943   26.242347   46.345823
  C    -20.135541   27.544816   46.085132
  C    -20.391912   28.334046   47.394204
  C    -20.401861   27.222794   48.464240
  O    -20.616353   25.952662   47.723299
  H    -20.580510   25.385500   45.753175
  H    -19.067541   27.327164   45.960885
  H    -20.485877   28.074402   45.194023
  H    -19.626361   29.092001   47.585646
  H    -21.366343   28.827660   47.342603
  H    -21.203967   27.338089   49.198001
  H    -19.444253   27.122504   48.984681
  C    -23.079905   26.467910   44.993113
  H    -24.006030   25.921815   45.205311
  H    -23.361762   27.504306   44.770889
  O    -22.340099   26.458791   46.255728
  C    -22.458274   25.916553   43.688584
  C    -22.161281   24.401660   43.650198
  C    -23.594700   23.791134   43.453249
  C    -24.273260   24.845865   42.551411
  O    -23.477916   26.092123   42.659517
  H    -21.592996   26.511266   43.382881
  H    -21.538139   24.186863   42.778555
  O    -21.448786   23.807747   44.756707
  H    -23.553502   22.799438   42.997278
  H    -24.090634   23.703528   44.426935
  H    -25.305861   25.061565   42.843357
  H    -24.261265   24.555326   41.496616
  H    -21.989130   23.840122   45.574958

 Multiplicity           Mult            ....    1
 Number of Electrons    NEL             ....  102
 Basis Dimension        Dim             ....  149

ORBITAL ENERGIES
----------------

  NO   OCC          E(Eh)            E(eV)
   0   2.0000     -19.155403      -521.2450
   1   2.0000     -19.150478      -521.1110
   2   2.0000     -19.134633      -520.6798
   3   2.0000     -19.134284      -520.6703
   4   2.0000     -10.267439      -279.3912
   5   2.0000     -10.251711      -278.9632
   6   2.0000     -10.243898      -278.7506
   7   2.0000     -10.237633      -278.5802
   8   2.0000     -10.230999      -278.3996
   9   2.0000     -10.219800      -278.0949
  10   2.0000     -10.198830      -277.5243
  11   2.0000     -10.180966      -277.0382
  12   2.0000     -10.180729      -277.0317
  13   2.0000      -1.047319       -28.4990
  14   2.0000      -1.039568       -28.2881
  15   2.0000      -1.026659       -27.9368
  16   2.0000      -0.983463       -26.7614
  17   2.0000      -0.784985       -21.3605
  18   2.0000      -0.780024       -21.2255
  19   2.0000      -0.768886       -20.9225
  20   2.0000      -0.731589       -19.9075
  21   2.0000      -0.681265       -18.5382
  22   2.0000      -0.616887       -16.7863
  23   2.0000      -0.607027       -16.5180
  24   2.0000      -0.593836       -16.1591
  25   2.0000      -0.563044       -15.3212
  26   2.0000      -0.535260       -14.5652
  27   2.0000      -0.515677       -14.0323
  28   2.0000      -0.498649       -13.5689
  29   2.0000      -0.481420       -13.1001
  30   2.0000      -0.466586       -12.6964
  31   2.0000      -0.457375       -12.4458
  32   2.0000      -0.445376       -12.1193
  33   2.0000      -0.439138       -11.9495
  34   2.0000      -0.429147       -11.6777
  35   2.0000      -0.416502       -11.3336
  36   2.0000      -0.413145       -11.2423
  37   2.0000      -0.397346       -10.8123
  38   2.0000      -0.381819       -10.3898
  39   2.0000      -0.369092       -10.0435
  40   2.0000      -0.364108        -9.9079
  41   2.0000      -0.354004        -9.6329
  42   2.0000      -0.349634        -9.5140
  43   2.0000      -0.338436        -9.2093
  44   2.0000      -0.322659        -8.7800
  45   2.0000      -0.310280        -8.4431
  46   2.0000      -0.303210        -8.2508
  47   2.0000      -0.270300        -7.3552
  48   2.0000      -0.254377        -6.9220
  49   2.0000      -0.252000        -6.8573
  50   2.0000      -0.242642        -6.6026
  51   0.0000       0.051968         1.4141
  52   0.0000       0.069965         1.9038
  53   0.0000       0.084517         2.2998
  54   0.0000       0.095862         2.6086
  55   0.0000       0.100394         2.7319

MULLIKEN ATOMIC CHARGES
-----------------------
   0 C :    0.251051
   1 C :   -0.269184
   2 C :   -0.296495
   3 C :   -0.000691
   4 O :   -0.506334
   5 H :    0.189469
   6 H :    0.145535
   7 H :    0.137738
   8 H :    0.138749
   9 H :    0.159788
  10 H :    0.151004
  11 H :    0.140893
  12 C :   -0.005568
  13 H :    0.140805
  14 H :    0.155397
  15 O :   -0.538273
  16 C :    0.040816
  17 C :    0.097792
  18 C :   -0.319703
  19 C :   -0.019159
  20 O :   -0.516154
  21 H :    0.158445
  22 H :    0.167631
  23 O :   -0.593230
  24 H :    0.161000
  25 H :    0.145419
  26 H :    0.149403
  27 H :    0.155311
  28 H :    0.378543
Sum of atomic charges:   -0.0000000

LOEWDIN ATOMIC CHARGES
----------------------
   0 C :    0.159853
   1 C :   -0.229820
   2 C :   -0.216714
   3 C :   -0.026013
   4 O :   -0.306166
   5 H :    0.116256
   6 H :    0.113681
   7 H :    0.110927
   8 H :    0.112664
   9 H :    0.117839
  10 H :    0.107598
  11 H :    0.101538
  12 C :   -0.051709
  13 H :    0.103997
  14 H :    0.109640
  15 O :   -0.350743
  16 C :    0.004975
  17 C :    0.032871
  18 C :   -0.239295
  19 C :   -0.032179
  20 O :   -0.315326
  21 H :    0.112494
  22 H :    0.118821
  23 O :   -0.394718
  24 H :    0.125428
  25 H :    0.109859
  26 H :    0.105077
  27 H :    0.108421
  28 H :    0.290746

  Mayer bond orders larger than 0.100000
B(  0-C ,  1-C ) :   0.9297 B(  0-C ,  4-O ) :   0.9294 B(  0-C ,  5-H ) :   0.8746
B(  0-C , 15-O ) :   0.8091 B(  1-C ,  2-C ) :   0.9516 B(  1-C ,  6-H ) :   0.9351
B(  1-C ,  7-H ) :   0.9377 B(  2-C ,  3-C ) :   0.9558 B(  2-C ,  8-H ) :   0.9453
B(  2-C ,  9-H ) :   0.9446 B(  3-C ,  4-O ) :   0.8356 B(  3-C , 10-H ) :   0.9354
B(  3-C , 11-H ) :   0.9399 B( 12-C , 13-H ) :   0.9322 B( 12-C , 14-H ) :   0.9207
B( 12-C , 15-O ) :   0.8449 B( 12-C , 16-C ) :   0.8904 B( 16-C , 17-C ) :   0.8797
B( 16-C , 20-O ) :   0.8340 B( 16-C , 21-H ) :   0.9268 B( 17-C , 18-C ) :   0.9226
B( 17-C , 22-H ) :   0.9314 B( 17-C , 23-O ) :   0.8974 B( 18-C , 19-C ) :   0.9397
B( 18-C , 24-H ) :   0.9411 B( 18-C , 25-H ) :   0.9403 B( 19-C , 20-O ) :   0.8317
B( 19-C , 26-H ) :   0.9323 B( 19-C , 27-H ) :   0.9376 B( 23-O , 28-H ) :   0.7807

FINAL SINGLE POINT ENERGY      -652.850327766126

DIPOLE MOMENT
-------------
                                X             Y             Z
Electronic contribution:     -0.02274      -2.32573      -0.12030
Nuclear contribution   :     -0.28590       2.47360      -0.33267
                        -----------------------------------------
Total Dipole Moment    :     -0.30864       0.14786      -0.45297
                        -----------------------------------------
Magnitude (a.u.)       :      0.56772
Magnitude (Debye)      :      1.44303

Rotational constants in cm-1:     0.061670     0.013952     0.012746
Rotational constants in MHz :  1848.822095   418.276421   382.108795

                             ****ORCA TERMINATED NORMALLY****
TOTAL RUN TIME: 0 days 1 hours 41 minutes 26 seconds 164 msec
