                         Program Version 4.2.0 -  RELEASE  -
|  1> # Test redundant internal optimization
|  2> #
|  3> ! RKS B3LYP  Opt TightSCF SmallPrint
|  4>
|  5> %basis
|  6>         Basis "6-31G"
|  7> end
|  8>
|  9> %geom
| 10> Constraints
| 11> { D 4  0  15  12  255.0   C } # D for Dihedral angle
| 12> { D 0  15  12  16  165.0   C } # D for Dihedral angle
| 13> { D 0  4  3  2   C } # D for Dihedral angle
| 14> { D 4  3  2  1   C } # D for Dihedral angle
| 15> { D 3  2  1  0   C } # D for Dihedral angle
| 16> { D 2  1  0  4   C } # D for Dihedral angle
| 17> { D 1  0  4  3   C } # D for Dihedral angle
| 18> { D 16  20  19  18   C } # D for Dihedral angle
| 19> { D 20  19  18  17   C } # D for Dihedral angle
| 20> { D 19  18  17  16   C } # D for Dihedral angle
| 21> { D 18  17  16  20   C } # D for Dihedral angle
| 22> { D 17  16  20  19   C } # D for Dihedral angle
| 23> { D 15  12  16  20   C } # D for Dihedral angle
| 24> end
| 25> end
| 26>
| 27>
| 28> #%pal
| 29> #nprocs 8
| 30> #end
| 31>
| 32> * xyz 0 1
| 33> C  -21.048   26.222   46.251
| 34> C  -20.361   27.558   45.944
| 35> C  -20.329   28.222   47.341
| 36> C  -20.110   27.022   48.296
| 37> O  -20.473   25.807   47.535
| 38> H  -20.833   25.428   45.533
| 39> H  -19.344   27.382   45.576
| 40> H  -20.898   28.157   45.201
| 41> H  -19.543   28.978   47.434
| 42> H  -21.289   28.710   47.548
| 43> H  -20.733   27.082   49.195
| 44> H  -19.064   26.913   48.597
| 45> C  -23.431   25.260   45.734
| 46> H  -23.410   25.365   44.642
| 47> H  -23.014   24.277   45.991
| 48> O  -22.586   26.394   46.375
| 49> C  -24.914   25.280   46.197
| 50> C  -25.020   25.226   47.726
| 51> C  -24.719   26.694   48.113
| 52> C  -25.356   27.501   46.954
| 53> O  -25.547   26.552   45.836
| 54> H  -25.462   24.491   45.679
| 55> H  -26.038   24.950   48.022
| 56> O  -24.031   24.218   48.372
| 57> H  -25.130   26.969   49.089
| 58> H  -23.635   26.859   48.148
| 59> H  -24.721   28.328   46.619
| 60> H  -26.343   27.895   47.214
| 61> H  -23.005   24.476   48.088
| 62> *
| 63>
| 64>                          ****END OF INPUT****
 Total Charge           Charge          ....    0
 Multiplicity           Mult            ....    1
 Number of Electrons    NEL             ....  102
FINAL SINGLE POINT ENERGY      -652.837214688552
FINAL SINGLE POINT ENERGY      -652.860551051265
FINAL SINGLE POINT ENERGY      -652.864870076096
FINAL SINGLE POINT ENERGY      -652.866552507267
FINAL SINGLE POINT ENERGY      -652.866727193305
FINAL SINGLE POINT ENERGY      -652.866756830138
FINAL SINGLE POINT ENERGY      -652.866758643730
                    ***********************HURRAY********************

CARTESIAN COORDINATES (ANGSTROEM)
---------------------------------
  C    -21.070204   26.163669   46.197015
  C    -20.411209   27.514047   45.909689
  C    -20.432683   28.179521   47.305714
  C    -20.209106   26.989144   48.265557
  O    -20.526158   25.767189   47.480415
  H    -20.830449   25.364041   45.491098
  H    -19.382730   27.349957   45.568626
  H    -20.953369   28.081871   45.150929
  H    -19.664825   28.950975   47.416949
  H    -21.410095   28.640151   47.479044
  H    -20.855099   27.020082   49.146682
  H    -19.167940   26.892066   48.586245
  C    -23.311951   25.277648   45.707270
  H    -23.285812   25.370920   44.613731
  H    -22.919708   24.292154   45.992834
  O    -22.499767   26.339301   46.297954
  C    -24.752801   25.374369   46.186097
  C    -24.926208   25.248632   47.710914
  C    -24.711543   26.720948   48.181820
  C    -25.333055   27.538167   47.028877
  O    -25.425300   26.623723   45.859721
  H    -25.307646   24.586898   45.661684
  H    -25.933404   24.899234   47.946203
  O    -24.036266   24.290790   48.333319
  H    -25.193841   26.916229   49.144156
  H    -23.640823   26.912558   48.264968
  H    -24.724778   28.402333   46.747159
  H    -26.351885   27.869747   47.249396
  H    -23.118347   24.639637   48.325931

 Multiplicity           Mult            ....    1
 Number of Electrons    NEL             ....  102
 Basis Dimension        Dim             ....  149

ORBITAL ENERGIES
----------------

  NO   OCC          E(Eh)            E(eV)
   0   2.0000     -19.152711      -521.1717
   1   2.0000     -19.149318      -521.0794
   2   2.0000     -19.132449      -520.6204
   3   2.0000     -19.132099      -520.6109
   4   2.0000     -10.287454      -279.9359
   5   2.0000     -10.233031      -278.4549
   6   2.0000     -10.232875      -278.4507
   7   2.0000     -10.232828      -278.4494
   8   2.0000     -10.229110      -278.3482
   9   2.0000     -10.219667      -278.0913
  10   2.0000     -10.192804      -277.3603
  11   2.0000     -10.191963      -277.3374
  12   2.0000     -10.176231      -276.9093
  13   2.0000      -1.062492       -28.9119
  14   2.0000      -1.023440       -27.8492
  15   2.0000      -1.004698       -27.3392
  16   2.0000      -1.000119       -27.2146
  17   2.0000      -0.794617       -21.6226
  18   2.0000      -0.772363       -21.0171
  19   2.0000      -0.763842       -20.7852
  20   2.0000      -0.734803       -19.9950
  21   2.0000      -0.677227       -18.4283
  22   2.0000      -0.605830       -16.4855
  23   2.0000      -0.600977       -16.3534
  24   2.0000      -0.596060       -16.2196
  25   2.0000      -0.575052       -15.6480
  26   2.0000      -0.527600       -14.3567
  27   2.0000      -0.507662       -13.8142
  28   2.0000      -0.501076       -13.6350
  29   2.0000      -0.487446       -13.2641
  30   2.0000      -0.474582       -12.9140
  31   2.0000      -0.461341       -12.5537
  32   2.0000      -0.439789       -11.9673
  33   2.0000      -0.434088       -11.8121
  34   2.0000      -0.421203       -11.4615
  35   2.0000      -0.413842       -11.2612
  36   2.0000      -0.402183       -10.9440
  37   2.0000      -0.400425       -10.8961
  38   2.0000      -0.377177       -10.2635
  39   2.0000      -0.370484       -10.0814
  40   2.0000      -0.363645        -9.8953
  41   2.0000      -0.355062        -9.6617
  42   2.0000      -0.348078        -9.4717
  43   2.0000      -0.331302        -9.0152
  44   2.0000      -0.320794        -8.7293
  45   2.0000      -0.311974        -8.4892
  46   2.0000      -0.303438        -8.2570
  47   2.0000      -0.277438        -7.5495
  48   2.0000      -0.258696        -7.0395
  49   2.0000      -0.255887        -6.9630
  50   2.0000      -0.237389        -6.4597
  51   0.0000       0.062529         1.7015
  52   0.0000       0.082955         2.2573
  53   0.0000       0.085402         2.3239
  54   0.0000       0.096012         2.6126
  55   0.0000       0.103584         2.8187

MULLIKEN ATOMIC CHARGES
-----------------------
   0 C :    0.279633
   1 C :   -0.251794
   2 C :   -0.304249
   3 C :   -0.006364
   4 O :   -0.511716
   5 H :    0.147984
   6 H :    0.147375
   7 H :    0.157624
   8 H :    0.146108
   9 H :    0.161925
  10 H :    0.147648
  11 H :    0.147133
  12 C :   -0.026100
  13 H :    0.150861
  14 H :    0.146675
  15 O :   -0.528963
  16 C :    0.088594
  17 C :    0.094229
  18 C :   -0.312234
  19 C :   -0.000225
  20 O :   -0.522561
  21 H :    0.149863
  22 H :    0.157273
  23 O :   -0.614717
  24 H :    0.138841
  25 H :    0.165675
  26 H :    0.142419
  27 H :    0.139755
  28 H :    0.369305
Sum of atomic charges:    0.0000000

LOEWDIN ATOMIC CHARGES
----------------------
   0 C :    0.172653
   1 C :   -0.216667
   2 C :   -0.216505
   3 C :   -0.029281
   4 O :   -0.329519
   5 H :    0.102519
   6 H :    0.115333
   7 H :    0.124725
   8 H :    0.116187
   9 H :    0.117640
  10 H :    0.104539
  11 H :    0.105287
  12 C :   -0.048500
  13 H :    0.105568
  14 H :    0.105874
  15 O :   -0.334136
  16 C :    0.018615
  17 C :    0.040507
  18 C :   -0.242775
  19 C :   -0.023887
  20 O :   -0.324064
  21 H :    0.115137
  22 H :    0.114415
  23 O :   -0.415270
  24 H :    0.112946
  25 H :    0.120313
  26 H :    0.102965
  27 H :    0.100487
  28 H :    0.284893

  Mayer bond orders larger than 0.100000
B(  0-C ,  1-C ) :   0.9456 B(  0-C ,  4-O ) :   0.9103 B(  0-C ,  5-H ) :   0.9184
B(  0-C , 15-O ) :   0.8504 B(  1-C ,  2-C ) :   0.9552 B(  1-C ,  6-H ) :   0.9374
B(  1-C ,  7-H ) :   0.9364 B(  2-C ,  3-C ) :   0.9540 B(  2-C ,  8-H ) :   0.9448
B(  2-C ,  9-H ) :   0.9434 B(  3-C ,  4-O ) :   0.8346 B(  3-C , 10-H ) :   0.9342
B(  3-C , 11-H ) :   0.9395 B( 12-C , 13-H ) :   0.9228 B( 12-C , 14-H ) :   0.9008
B( 12-C , 15-O ) :   0.8220 B( 12-C , 16-C ) :   0.9181 B( 16-C , 17-C ) :   0.8863
B( 16-C , 20-O ) :   0.8839 B( 16-C , 21-H ) :   0.9276 B( 17-C , 18-C ) :   0.9302
B( 17-C , 22-H ) :   0.9384 B( 17-C , 23-O ) :   0.9038 B( 18-C , 19-C ) :   0.9464
B( 18-C , 24-H ) :   0.9425 B( 18-C , 25-H ) :   0.9265 B( 19-C , 20-O ) :   0.8366
B( 19-C , 26-H ) :   0.9332 B( 19-C , 27-H ) :   0.9384 B( 23-O , 28-H ) :   0.7805

FINAL SINGLE POINT ENERGY      -652.866757000525

DIPOLE MOMENT
-------------
                                X             Y             Z
Electronic contribution:     -2.46687      -4.24641      -1.30899
Nuclear contribution   :      3.35626       5.16204       1.19746
                        -----------------------------------------
Total Dipole Moment    :      0.88939       0.91563      -0.11152
                        -----------------------------------------
Magnitude (a.u.)       :      1.28134
Magnitude (Debye)      :      3.25690

Rotational constants in cm-1:     0.043686     0.017144     0.016325
Rotational constants in MHz :  1309.661865   513.978788   489.422491

                             ****ORCA TERMINATED NORMALLY****
TOTAL RUN TIME: 0 days 0 hours 31 minutes 23 seconds 415 msec
