                         Program Version 4.2.0 -  RELEASE  -
|  1> # Test redundant internal optimization
|  2> #
|  3> ! RKS B3LYP  Opt TightSCF SmallPrint
|  4>
|  5> %basis
|  6>         Basis "6-31G"
|  7> end
|  8>
|  9> %geom
| 10> Constraints
| 11> { D 4  0  15  12  150.0   C } # D for Dihedral angle
| 12> { D 0  15  12  16  180.0   C } # D for Dihedral angle
| 13> { D 0  4  3  2   C } # D for Dihedral angle
| 14> { D 4  3  2  1   C } # D for Dihedral angle
| 15> { D 3  2  1  0   C } # D for Dihedral angle
| 16> { D 2  1  0  4   C } # D for Dihedral angle
| 17> { D 1  0  4  3   C } # D for Dihedral angle
| 18> { D 16  20  19  18   C } # D for Dihedral angle
| 19> { D 20  19  18  17   C } # D for Dihedral angle
| 20> { D 19  18  17  16   C } # D for Dihedral angle
| 21> { D 18  17  16  20   C } # D for Dihedral angle
| 22> { D 17  16  20  19   C } # D for Dihedral angle
| 23> { D 15  12  16  20   C } # D for Dihedral angle
| 24> end
| 25> end
| 26>
| 27>
| 28> #%pal
| 29> #nprocs 8
| 30> #end
| 31>
| 32> * xyz 0 1
| 33> C  -21.048   26.222   46.251
| 34> C  -20.361   27.558   45.944
| 35> C  -20.329   28.222   47.341
| 36> C  -20.110   27.022   48.296
| 37> O  -20.473   25.807   47.535
| 38> H  -20.833   25.428   45.533
| 39> H  -19.344   27.382   45.576
| 40> H  -20.898   28.157   45.201
| 41> H  -19.543   28.978   47.434
| 42> H  -21.289   28.710   47.548
| 43> H  -20.733   27.082   49.195
| 44> H  -19.064   26.913   48.597
| 45> C  -23.210   27.459   45.431
| 46> H  -22.759   28.437   45.641
| 47> H  -23.010   27.206   44.382
| 48> O  -22.586   26.394   46.375
| 49> C  -24.749   27.584   45.602
| 50> C  -25.345   28.557   44.578
| 51> C  -25.402   27.678   43.307
| 52> C  -25.732   26.271   43.867
| 53> O  -25.403   26.305   45.308
| 54> H  -24.975   27.828   46.642
| 55> O  -26.773   28.983   45.016
| 56> H  -24.741   29.461   44.442
| 57> H  -26.148   28.024   42.584
| 58> H  -24.427   27.675   42.806
| 59> H  -25.147   25.480   43.384
| 60> H  -26.795   26.027   43.784
| 61> H  -27.395   28.092   45.158
| 62> *
| 63>
| 64>                          ****END OF INPUT****
 Total Charge           Charge          ....    0
 Multiplicity           Mult            ....    1
 Number of Electrons    NEL             ....  102
FINAL SINGLE POINT ENERGY      -652.823758259712
FINAL SINGLE POINT ENERGY      -652.847392092126
FINAL SINGLE POINT ENERGY      -652.851798156357
FINAL SINGLE POINT ENERGY      -652.852756008987
FINAL SINGLE POINT ENERGY      -652.852875957603
FINAL SINGLE POINT ENERGY      -652.852892351334
                    ***********************HURRAY********************

CARTESIAN COORDINATES (ANGSTROEM)
---------------------------------
  C    -21.103037   26.289569   46.200431
  C    -20.244418   27.531824   45.961121
  C    -20.314883   28.244655   47.337143
  C    -20.349717   27.060723   48.327351
  O    -20.747658   25.876422   47.528206
  H    -20.891036   25.446677   45.536981
  H    -19.219874   27.204530   45.750931
  H    -20.569616   28.159707   45.128023
  H    -19.461555   28.907789   47.507815
  H    -21.230433   28.841467   47.411942
  H    -21.071926   27.197105   49.136214
  H    -19.367111   26.836158   48.752602
  C    -23.101805   27.516637   45.296513
  H    -22.711471   28.523115   45.510368
  H    -22.865685   27.273871   44.248671
  O    -22.544651   26.527805   46.192150
  C    -24.612468   27.530416   45.522562
  C    -25.369429   28.509253   44.612753
  C    -25.532900   27.673468   43.315985
  C    -25.729151   26.233792   43.852774
  O    -25.235222   26.234798   45.250720
  H    -24.797840   27.741694   46.579945
  O    -26.655862   28.861049   45.191352
  H    -24.856422   29.459175   44.453457
  H    -26.382772   28.032366   42.730172
  H    -24.631013   27.750861   42.697957
  H    -25.172772   25.487133   43.278763
  H    -26.782228   25.937114   43.882242
  H    -27.069044   28.052828   45.562857

 Multiplicity           Mult            ....    1
 Number of Electrons    NEL             ....  102
 Basis Dimension        Dim             ....  149

ORBITAL ENERGIES
----------------

  NO   OCC          E(Eh)            E(eV)
   0   2.0000     -19.140113      -520.8290
   1   2.0000     -19.139820      -520.8210
   2   2.0000     -19.138851      -520.7946
   3   2.0000     -19.137291      -520.7522
   4   2.0000     -10.279477      -279.7188
   5   2.0000     -10.244694      -278.7723
   6   2.0000     -10.236512      -278.5497
   7   2.0000     -10.235042      -278.5097
   8   2.0000     -10.229865      -278.3688
   9   2.0000     -10.226224      -278.2697
  10   2.0000     -10.193336      -277.3748
  11   2.0000     -10.192885      -277.3625
  12   2.0000     -10.191177      -277.3160
  13   2.0000      -1.052371       -28.6365
  14   2.0000      -1.036770       -28.2119
  15   2.0000      -1.007091       -27.4043
  16   2.0000      -0.991961       -26.9926
  17   2.0000      -0.790629       -21.5141
  18   2.0000      -0.786177       -21.3930
  19   2.0000      -0.770122       -20.9561
  20   2.0000      -0.733350       -19.9555
  21   2.0000      -0.678962       -18.4755
  22   2.0000      -0.606369       -16.5001
  23   2.0000      -0.604906       -16.4603
  24   2.0000      -0.593943       -16.1620
  25   2.0000      -0.579309       -15.7638
  26   2.0000      -0.526411       -14.3244
  27   2.0000      -0.513214       -13.9653
  28   2.0000      -0.498264       -13.5584
  29   2.0000      -0.494679       -13.4609
  30   2.0000      -0.476787       -12.9740
  31   2.0000      -0.462700       -12.5907
  32   2.0000      -0.450820       -12.2674
  33   2.0000      -0.446615       -12.1530
  34   2.0000      -0.424592       -11.5537
  35   2.0000      -0.415781       -11.3140
  36   2.0000      -0.399852       -10.8805
  37   2.0000      -0.394537       -10.7359
  38   2.0000      -0.380183       -10.3453
  39   2.0000      -0.373326       -10.1587
  40   2.0000      -0.366784        -9.9807
  41   2.0000      -0.360401        -9.8070
  42   2.0000      -0.354325        -9.6417
  43   2.0000      -0.333523        -9.0756
  44   2.0000      -0.313313        -8.5257
  45   2.0000      -0.306827        -8.3492
  46   2.0000      -0.295697        -8.0463
  47   2.0000      -0.272681        -7.4200
  48   2.0000      -0.262735        -7.1494
  49   2.0000      -0.248872        -6.7721
  50   2.0000      -0.244315        -6.6482
  51   0.0000       0.062812         1.7092
  52   0.0000       0.077319         2.1039
  53   0.0000       0.084385         2.2962
  54   0.0000       0.098598         2.6830
  55   0.0000       0.104296         2.8380

MULLIKEN ATOMIC CHARGES
-----------------------
   0 C :    0.319047
   1 C :   -0.297887
   2 C :   -0.301260
   3 C :   -0.000045
   4 O :   -0.494909
   5 H :    0.149618
   6 H :    0.153425
   7 H :    0.141359
   8 H :    0.145590
   9 H :    0.152007
  10 H :    0.154800
  11 H :    0.143593
  12 C :    0.004403
  13 H :    0.120576
  14 H :    0.121480
  15 O :   -0.510150
  16 C :    0.069181
  17 C :    0.074887
  18 C :   -0.294532
  19 C :   -0.029230
  20 O :   -0.505228
  21 H :    0.171195
  22 O :   -0.602380
  23 H :    0.147780
  24 H :    0.164326
  25 H :    0.139519
  26 H :    0.149930
  27 H :    0.146012
  28 H :    0.366892
Sum of atomic charges:    0.0000000

LOEWDIN ATOMIC CHARGES
----------------------
   0 C :    0.184824
   1 C :   -0.234932
   2 C :   -0.217551
   3 C :   -0.026484
   4 O :   -0.302717
   5 H :    0.101698
   6 H :    0.120219
   7 H :    0.112786
   8 H :    0.115934
   9 H :    0.111437
  10 H :    0.109544
  11 H :    0.103453
  12 C :   -0.042442
  13 H :    0.089624
  14 H :    0.087959
  15 O :   -0.324111
  16 C :    0.019738
  17 C :    0.034788
  18 C :   -0.241554
  19 C :   -0.038180
  20 O :   -0.315928
  21 H :    0.122262
  22 O :   -0.414183
  23 H :    0.113231
  24 H :    0.127023
  25 H :    0.110465
  26 H :    0.105963
  27 H :    0.102594
  28 H :    0.284538

  Mayer bond orders larger than 0.100000
B(  0-C ,  1-C ) :   0.9290 B(  0-C ,  4-O ) :   0.9344 B(  0-C ,  5-H ) :   0.9243
B(  0-C , 15-O ) :   0.8416 B(  1-C ,  2-C ) :   0.9498 B(  1-C ,  6-H ) :   0.9339
B(  1-C ,  7-H ) :   0.9285 B(  2-C ,  3-C ) :   0.9530 B(  2-C ,  8-H ) :   0.9452
B(  2-C ,  9-H ) :   0.9440 B(  3-C ,  4-O ) :   0.8393 B(  3-C , 10-H ) :   0.9339
B(  3-C , 11-H ) :   0.9395 B( 12-C , 13-H ) :   0.8992 B( 12-C , 14-H ) :   0.9144
B( 12-C , 15-O ) :   0.8503 B( 12-C , 16-C ) :   0.8963 B( 16-C , 17-C ) :   0.8997
B( 16-C , 20-O ) :   0.8720 B( 16-C , 21-H ) :   0.9227 B( 17-C , 18-C ) :   0.9116
B( 17-C , 22-O ) :   0.8942 B( 17-C , 23-H ) :   0.9333 B( 18-C , 19-C ) :   0.9393
B( 18-C , 24-H ) :   0.9371 B( 18-C , 25-H ) :   0.9344 B( 19-C , 20-O ) :   0.8531
B( 19-C , 26-H ) :   0.9337 B( 19-C , 27-H ) :   0.9378 B( 22-O , 28-H ) :   0.7928

FINAL SINGLE POINT ENERGY      -652.852894398773

DIPOLE MOMENT
-------------
                                X             Y             Z
Electronic contribution:     -3.37465      -3.80898       2.46467
Nuclear contribution   :      4.20132       4.77031      -3.48422
                        -----------------------------------------
Total Dipole Moment    :      0.82667       0.96133      -1.01955
                        -----------------------------------------
Magnitude (a.u.)       :      1.62697
Magnitude (Debye)      :      4.13543

Rotational constants in cm-1:     0.061547     0.011760     0.011267
Rotational constants in MHz :  1845.138119   352.544447   337.789134

                             ****ORCA TERMINATED NORMALLY****
TOTAL RUN TIME: 0 days 1 hours 21 minutes 35 seconds 204 msec
