                         Program Version 4.2.0 -  RELEASE  -
|  1> # Test redundant internal optimization
|  2> #
|  3> ! RKS B3LYP  Opt TightSCF SmallPrint
|  4>
|  5> %basis
|  6>         Basis "6-31G"
|  7> end
|  8>
|  9> %geom
| 10> Constraints
| 11> { D 4  0  15  12  210.0   C } # D for Dihedral angle
| 12> { D 0  15  12  16  0.0   C } # D for Dihedral angle
| 13> { D 0  4  3  2   C } # D for Dihedral angle
| 14> { D 4  3  2  1   C } # D for Dihedral angle
| 15> { D 3  2  1  0   C } # D for Dihedral angle
| 16> { D 2  1  0  4   C } # D for Dihedral angle
| 17> { D 1  0  4  3   C } # D for Dihedral angle
| 18> { D 16  20  19  18   C } # D for Dihedral angle
| 19> { D 20  19  18  17   C } # D for Dihedral angle
| 20> { D 19  18  17  16   C } # D for Dihedral angle
| 21> { D 18  17  16  20   C } # D for Dihedral angle
| 22> { D 17  16  20  19   C } # D for Dihedral angle
| 23> { D 15  12  16  20   C } # D for Dihedral angle
| 24> end
| 25> end
| 26>
| 27>
| 28> #%pal
| 29> #nprocs 8
| 30> #end
| 31>
| 32> * xyz 0 1
| 33> C  -21.048   26.222   46.251
| 34> C  -20.361   27.558   45.944
| 35> C  -20.329   28.222   47.341
| 36> C  -20.110   27.022   48.296
| 37> O  -20.473   25.807   47.535
| 38> H  -20.833   25.428   45.533
| 39> H  -19.344   27.382   45.576
| 40> H  -20.898   28.157   45.201
| 41> H  -19.543   28.978   47.434
| 42> H  -21.289   28.710   47.548
| 43> H  -20.733   27.082   49.195
| 44> H  -19.064   26.913   48.597
| 45> C  -23.389   26.110   45.076
| 46> H  -24.101   25.296   45.261
| 47> H  -23.957   27.000   44.773
| 48> O  -22.586   26.394   46.375
| 49> C  -22.479   25.702   43.884
| 50> C  -21.773   24.369   44.155
| 51> C  -22.896   23.351   43.846
| 52> C  -23.662   24.017   42.676
| 53> O  -23.287   25.447   42.687
| 54> H  -21.808   26.530   43.647
| 55> O  -20.583   24.188   43.173
| 56> H  -21.390   24.284   45.178
| 57> H  -22.510   22.361   43.583
| 58> H  -23.548   23.235   44.720
| 59> H  -24.749   23.930   42.783
| 60> H  -23.370   23.614   41.703
| 61> H  -20.942   24.270   42.140
| 62> *
| 63>
| 64>                          ****END OF INPUT****
 Total Charge           Charge          ....    0
 Multiplicity           Mult            ....    1
 Number of Electrons    NEL             ....  102
FINAL SINGLE POINT ENERGY      -652.805450874863
FINAL SINGLE POINT ENERGY      -652.833793576152
FINAL SINGLE POINT ENERGY      -652.847291494345
FINAL SINGLE POINT ENERGY      -652.849118141991
FINAL SINGLE POINT ENERGY      -652.849501617217
FINAL SINGLE POINT ENERGY      -652.849547957540
FINAL SINGLE POINT ENERGY      -652.849552386016
                    ***********************HURRAY********************

CARTESIAN COORDINATES (ANGSTROEM)
---------------------------------
  C    -20.833071   26.249504   46.335546
  C    -20.150513   27.597203   46.103134
  C    -20.429136   28.332768   47.437886
  C    -20.365690   27.192808   48.476142
  O    -20.523586   25.933508   47.703316
  H    -20.449166   25.433946   45.727186
  H    -19.074066   27.442382   45.959521
  H    -20.546216   28.126641   45.232014
  H    -19.702468   29.124937   47.640718
  H    -21.429368   28.774162   47.412244
  H    -21.162497   27.245210   49.222787
  H    -19.397025   27.129489   48.981588
  C    -23.071290   26.090645   45.043395
  H    -23.820548   25.353057   45.355914
  H    -23.606826   27.009686   44.782243
  O    -22.274854   26.385358   46.234238
  C    -22.404029   25.590119   43.747009
  C    -21.711040   24.216243   43.794972
  C    -22.926945   23.242340   43.747965
  C    -23.923436   23.988462   42.824092
  O    -23.492509   25.404128   42.782946
  H    -21.731866   26.346637   43.330656
  O    -20.833490   24.052100   42.647586
  H    -21.080966   24.040390   44.662672
  H    -22.624465   22.269693   43.353886
  H    -23.336196   23.098582   44.752809
  H    -24.954936   23.943660   43.185733
  H    -23.899010   23.616163   41.794987
  H    -21.299792   24.349176   41.837815

 Multiplicity           Mult            ....    1
 Number of Electrons    NEL             ....  102
 Basis Dimension        Dim             ....  149

ORBITAL ENERGIES
----------------

  NO   OCC          E(Eh)            E(eV)
   0   2.0000     -19.154200      -521.2123
   1   2.0000     -19.145512      -520.9759
   2   2.0000     -19.137058      -520.7458
   3   2.0000     -19.135700      -520.7089
   4   2.0000     -10.279327      -279.7147
   5   2.0000     -10.248242      -278.8688
   6   2.0000     -10.244965      -278.7797
   7   2.0000     -10.238454      -278.6025
   8   2.0000     -10.233753      -278.4746
   9   2.0000     -10.222149      -278.1588
  10   2.0000     -10.194585      -277.4088
  11   2.0000     -10.183501      -277.1071
  12   2.0000     -10.183140      -277.0973
  13   2.0000      -1.049849       -28.5678
  14   2.0000      -1.044862       -28.4321
  15   2.0000      -1.014703       -27.6115
  16   2.0000      -0.987672       -26.8759
  17   2.0000      -0.786199       -21.3936
  18   2.0000      -0.782591       -21.2954
  19   2.0000      -0.771283       -20.9877
  20   2.0000      -0.736485       -20.0408
  21   2.0000      -0.679064       -18.4783
  22   2.0000      -0.611864       -16.6497
  23   2.0000      -0.607076       -16.5194
  24   2.0000      -0.596389       -16.2286
  25   2.0000      -0.577127       -15.7044
  26   2.0000      -0.529663       -14.4129
  27   2.0000      -0.517739       -14.0884
  28   2.0000      -0.501486       -13.6461
  29   2.0000      -0.481870       -13.1123
  30   2.0000      -0.477021       -12.9804
  31   2.0000      -0.461272       -12.5519
  32   2.0000      -0.448584       -12.2066
  33   2.0000      -0.437193       -11.8966
  34   2.0000      -0.428391       -11.6571
  35   2.0000      -0.420461       -11.4413
  36   2.0000      -0.401428       -10.9234
  37   2.0000      -0.399114       -10.8604
  38   2.0000      -0.376258       -10.2385
  39   2.0000      -0.375954       -10.2302
  40   2.0000      -0.364975        -9.9315
  41   2.0000      -0.355648        -9.6777
  42   2.0000      -0.351293        -9.5592
  43   2.0000      -0.336903        -9.1676
  44   2.0000      -0.316414        -8.6101
  45   2.0000      -0.310752        -8.4560
  46   2.0000      -0.306319        -8.3354
  47   2.0000      -0.277939        -7.5631
  48   2.0000      -0.259256        -7.0547
  49   2.0000      -0.252740        -6.8774
  50   2.0000      -0.242180        -6.5900
  51   0.0000       0.058050         1.5796
  52   0.0000       0.071850         1.9551
  53   0.0000       0.089226         2.4280
  54   0.0000       0.090991         2.4760
  55   0.0000       0.095507         2.5989

MULLIKEN ATOMIC CHARGES
-----------------------
   0 C :    0.284762
   1 C :   -0.260157
   2 C :   -0.297859
   3 C :   -0.001782
   4 O :   -0.500733
   5 H :    0.144229
   6 H :    0.145633
   7 H :    0.140384
   8 H :    0.140213
   9 H :    0.162604
  10 H :    0.153208
  11 H :    0.141274
  12 C :    0.017106
  13 H :    0.141323
  14 H :    0.157562
  15 O :   -0.534892
  16 C :    0.025551
  17 C :    0.074762
  18 C :   -0.299966
  19 C :   -0.031526
  20 O :   -0.524195
  21 H :    0.160805
  22 O :   -0.602633
  23 H :    0.175462
  24 H :    0.165073
  25 H :    0.156722
  26 H :    0.152167
  27 H :    0.148651
  28 H :    0.366253
Sum of atomic charges:    0.0000000

LOEWDIN ATOMIC CHARGES
----------------------
   0 C :    0.178538
   1 C :   -0.227516
   2 C :   -0.216496
   3 C :   -0.025847
   4 O :   -0.307821
   5 H :    0.097651
   6 H :    0.113543
   7 H :    0.113281
   8 H :    0.113567
   9 H :    0.119343
  10 H :    0.108569
  11 H :    0.101776
  12 C :   -0.037281
  13 H :    0.103611
  14 H :    0.113135
  15 O :   -0.342336
  16 C :    0.003353
  17 C :    0.030885
  18 C :   -0.239876
  19 C :   -0.038570
  20 O :   -0.324170
  21 H :    0.112751
  22 O :   -0.413953
  23 H :    0.120915
  24 H :    0.128617
  25 H :    0.119776
  26 H :    0.106970
  27 H :    0.103597
  28 H :    0.283989

  Mayer bond orders larger than 0.100000
B(  0-C ,  1-C ) :   0.9316 B(  0-C ,  4-O ) :   0.9377 B(  0-C ,  5-H ) :   0.9019
B(  0-C , 15-O ) :   0.8345 B(  1-C ,  2-C ) :   0.9548 B(  1-C ,  6-H ) :   0.9342
B(  1-C ,  7-H ) :   0.9392 B(  2-C ,  3-C ) :   0.9540 B(  2-C ,  8-H ) :   0.9451
B(  2-C ,  9-H ) :   0.9437 B(  3-C ,  4-O ) :   0.8353 B(  3-C , 10-H ) :   0.9350
B(  3-C , 11-H ) :   0.9397 B( 12-C , 13-H ) :   0.9279 B( 12-C , 14-H ) :   0.9216
B( 12-C , 15-O ) :   0.8399 B( 12-C , 16-C ) :   0.8883 B( 16-C , 17-C ) :   0.8996
B( 16-C , 20-O ) :   0.8279 B( 16-C , 21-H ) :   0.9232 B( 17-C , 18-C ) :   0.9092
B( 17-C , 22-O ) :   0.8920 B( 17-C , 23-H ) :   0.9146 B( 18-C , 19-C ) :   0.9406
B( 18-C , 24-H ) :   0.9368 B( 18-C , 25-H ) :   0.9323 B( 19-C , 20-O ) :   0.8364
B( 19-C , 26-H ) :   0.9350 B( 19-C , 27-H ) :   0.9375 B( 22-O , 28-H ) :   0.7935

FINAL SINGLE POINT ENERGY      -652.849553660557

DIPOLE MOMENT
-------------
                                X             Y             Z
Electronic contribution:     -0.34287      -1.71915      -1.49699
Nuclear contribution   :      0.12125       1.94758       1.15823
                        -----------------------------------------
Total Dipole Moment    :     -0.22162       0.22843      -0.33877
                        -----------------------------------------
Magnitude (a.u.)       :      0.46482
Magnitude (Debye)      :      1.18148

Rotational constants in cm-1:     0.059207     0.012781     0.012346
Rotational constants in MHz :  1774.970487   383.177677   370.128017

                             ****ORCA TERMINATED NORMALLY****
TOTAL RUN TIME: 0 days 0 hours 22 minutes 18 seconds 874 msec
