                         Program Version 4.2.1 -  RELEASE  -
|  1> # Test redundant internal optimization
|  2> #
|  3> ! RKS B3LYP  Opt TightSCF SmallPrint
|  4>
|  5> %basis
|  6>         Basis "6-31G"
|  7> end
|  8>
|  9> %geom
| 10> Constraints
| 11> { D 4  0  19  14  225.0   C } # D for Dihedral angle
| 12> { D 0  19  14  12  195.0   C } # D for Dihedral angle
| 13> { D 0  4  3  2   C } # D for Dihedral angle
| 14> { D 4  3  2  1   C } # D for Dihedral angle
| 15> { D 3  2  1  0   C } # D for Dihedral angle
| 16> { D 2  1  0  4   C } # D for Dihedral angle
| 17> { D 1  0  4  3   C } # D for Dihedral angle
| 18> { D 14  15  16  17   C } # D for Dihedral angle
| 19> { D 15  16  17  12   C } # D for Dihedral angle
| 20> { D 16  17  12  14   C } # D for Dihedral angle
| 21> { D 17  12  14  15   C } # D for Dihedral angle
| 22> { D 12  14  15  16   C } # D for Dihedral angle
| 23> end
| 24> end
| 25>
| 26>
| 27> #%pal
| 28> #nprocs 8
| 29> #end
| 30>
| 31> * xyz 0 1
| 32> C  -21.048   26.222   46.251
| 33> C  -20.361   27.558   45.944
| 34> C  -20.329   28.222   47.341
| 35> C  -20.110   27.022   48.296
| 36> O  -20.473   25.807   47.535
| 37> H  -20.833   25.428   45.533
| 38> H  -19.344   27.382   45.576
| 39> H  -20.898   28.157   45.201
| 40> H  -19.543   28.978   47.434
| 41> H  -21.289   28.710   47.548
| 42> H  -20.733   27.082   49.195
| 43> H  -19.064   26.913   48.597
| 44> C  -24.659   26.333   45.300
| 45> H  -25.325   25.705   44.686
| 46> C  -23.222   25.800   45.287
| 47> C  -22.707   26.317   43.924
| 48> C  -23.415   27.688   43.777
| 49> O  -24.551   27.678   44.724
| 50> H  -25.092   26.445   46.295
| 51> O  -22.472   26.381   46.366
| 52> H  -23.167   24.710   45.376
| 53> H  -21.617   26.404   43.886
| 54> H  -23.016   25.636   43.121
| 55> H  -23.794   27.859   42.764
| 56> H  -22.768   28.524   44.059
| 57> *
| 58>
| 59>                          ****END OF INPUT****
 Total Charge           Charge          ....    0
 Multiplicity           Mult            ....    1
 Number of Electrons    NEL             ....   86
FINAL SINGLE POINT ENERGY      -538.425122384565
FINAL SINGLE POINT ENERGY      -538.429439623311
FINAL SINGLE POINT ENERGY      -538.429692539983
FINAL SINGLE POINT ENERGY      -538.429751133113
FINAL SINGLE POINT ENERGY      -538.429761131113
FINAL SINGLE POINT ENERGY      -538.429763214641
                    ***********************HURRAY********************

CARTESIAN COORDINATES (ANGSTROEM)
---------------------------------
  C    -20.936241   26.224709   46.224054
  C    -20.292144   27.591444   45.993357
  C    -20.377959   28.227948   47.402045
  C    -20.169029   27.018247   48.338752
  O    -20.435667   25.814992   47.510421
  H    -20.658296   25.442246   45.511697
  H    -19.246392   27.455165   45.690913
  H    -20.806532   28.178318   45.229786
  H    -19.630752   29.011768   47.556495
  H    -21.372971   28.658994   47.546319
  H    -20.851340   27.012922   49.192338
  H    -19.138746   26.930002   48.696705
  C    -24.587051   26.403763   45.377691
  H    -25.338516   25.791233   44.859130
  C    -23.192635   25.796080   45.226436
  C    -22.802522   26.260785   43.811144
  C    -23.448348   27.663623   43.704074
  O    -24.475624   27.730975   44.764699
  H    -24.869221   26.542472   46.421497
  O    -22.380892   26.356589   46.301555
  H    -23.195581   24.700262   45.312017
  H    -21.722831   26.275431   43.637993
  H    -23.243506   25.570250   43.082980
  H    -23.921855   27.831171   42.730181
  H    -22.735348   28.471611   43.893720

 Multiplicity           Mult            ....    1
 Number of Electrons    NEL             ....   86
 Basis Dimension        Dim             ....  127

ORBITAL ENERGIES
----------------

  NO   OCC          E(Eh)            E(eV)
   0   2.0000     -19.137906      -520.7689
   1   2.0000     -19.136696      -520.7360
   2   2.0000     -19.130665      -520.5719
   3   2.0000     -10.278749      -279.6990
   4   2.0000     -10.243253      -278.7331
   5   2.0000     -10.226407      -278.2747
   6   2.0000     -10.222696      -278.1737
   7   2.0000     -10.221757      -278.1481
   8   2.0000     -10.193947      -277.3914
   9   2.0000     -10.184608      -277.1373
  10   2.0000     -10.182730      -277.0862
  11   2.0000      -1.051124       -28.6025
  12   2.0000      -1.016053       -27.6482
  13   2.0000      -0.988344       -26.8942
  14   2.0000      -0.789076       -21.4719
  15   2.0000      -0.779833       -21.2203
  16   2.0000      -0.746908       -20.3244
  17   2.0000      -0.719844       -19.5880
  18   2.0000      -0.613535       -16.6951
  19   2.0000      -0.601777       -16.3752
  20   2.0000      -0.595740       -16.2109
  21   2.0000      -0.572467       -15.5776
  22   2.0000      -0.521891       -14.2014
  23   2.0000      -0.503970       -13.7137
  24   2.0000      -0.486035       -13.2257
  25   2.0000      -0.482707       -13.1351
  26   2.0000      -0.456038       -12.4094
  27   2.0000      -0.444408       -12.0929
  28   2.0000      -0.422112       -11.4863
  29   2.0000      -0.420555       -11.4439
  30   2.0000      -0.402466       -10.9517
  31   2.0000      -0.385325       -10.4852
  32   2.0000      -0.379622       -10.3300
  33   2.0000      -0.371164       -10.0999
  34   2.0000      -0.361925        -9.8485
  35   2.0000      -0.354155        -9.6371
  36   2.0000      -0.346967        -9.4415
  37   2.0000      -0.311986        -8.4896
  38   2.0000      -0.308312        -8.3896
  39   2.0000      -0.299170        -8.1408
  40   2.0000      -0.263146        -7.1606
  41   2.0000      -0.245402        -6.6777
  42   2.0000      -0.237042        -6.4503
  43   0.0000       0.073731         2.0063
  44   0.0000       0.090032         2.4499
  45   0.0000       0.096943         2.6380
  46   0.0000       0.104457         2.8424
  47   0.0000       0.115547         3.1442

MULLIKEN ATOMIC CHARGES
-----------------------
   0 C :    0.286525
   1 C :   -0.259925
   2 C :   -0.301552
   3 C :   -0.001042
   4 O :   -0.505281
   5 H :    0.138776
   6 H :    0.139953
   7 H :    0.147953
   8 H :    0.140388
   9 H :    0.170019
  10 H :    0.153202
  11 H :    0.139299
  12 C :    0.000770
  13 H :    0.124809
  14 C :    0.075534
  15 C :   -0.321429
  16 C :    0.006387
  17 O :   -0.519171
  18 H :    0.173901
  19 O :   -0.511192
  20 H :    0.138698
  21 H :    0.149869
  22 H :    0.150567
  23 H :    0.135695
  24 H :    0.147248
Sum of atomic charges:   -0.0000000

LOEWDIN ATOMIC CHARGES
----------------------
   0 C :    0.176101
   1 C :   -0.224860
   2 C :   -0.216298
   3 C :   -0.025630
   4 O :   -0.311758
   5 H :    0.096549
   6 H :    0.111080
   7 H :    0.115574
   8 H :    0.113701
   9 H :    0.123145
  10 H :    0.108599
  11 H :    0.100989
  12 C :   -0.032284
  13 H :    0.091854
  14 C :    0.040386
  15 C :   -0.243700
  16 C :   -0.028016
  17 O :   -0.328480
  18 H :    0.126366
  19 O :   -0.328373
  20 H :    0.099529
  21 H :    0.117074
  22 H :    0.118172
  23 H :    0.098918
  24 H :    0.101364

  Mayer bond orders larger than 0.100000
B(  0-C ,  1-C ) :   0.9341 B(  0-C ,  4-O ) :   0.9298 B(  0-C ,  5-H ) :   0.9190
B(  0-C , 19-O ) :   0.8373 B(  1-C ,  2-C ) :   0.9557 B(  1-C ,  6-H ) :   0.9355
B(  1-C ,  7-H ) :   0.9314 B(  2-C ,  3-C ) :   0.9549 B(  2-C ,  8-H ) :   0.9450
B(  2-C ,  9-H ) :   0.9417 B(  3-C ,  4-O ) :   0.8366 B(  3-C , 10-H ) :   0.9346
B(  3-C , 11-H ) :   0.9399 B( 12-C , 13-H ) :   0.9156 B( 12-C , 14-C ) :   0.9342
B( 12-C , 17-O ) :   0.8670 B( 12-C , 18-H ) :   0.9293 B( 14-C , 15-C ) :   0.9297
B( 14-C , 19-O ) :   0.8461 B( 14-C , 20-H ) :   0.9192 B( 15-C , 16-C ) :   0.9422
B( 15-C , 21-H ) :   0.9339 B( 15-C , 22-H ) :   0.9352 B( 16-C , 17-O ) :   0.8644
B( 16-C , 23-H ) :   0.9324 B( 16-C , 24-H ) :   0.9309

FINAL SINGLE POINT ENERGY      -538.429763487889

DIPOLE MOMENT
-------------
                                X             Y             Z
Electronic contribution:     -1.98304      -2.20095       1.99755
Nuclear contribution   :      2.59218       2.15088      -2.79848
                        -----------------------------------------
Total Dipole Moment    :      0.60913      -0.05007      -0.80093
                        -----------------------------------------
Magnitude (a.u.)       :      1.00749
Magnitude (Debye)      :      2.56084

Rotational constants in cm-1:     0.076484     0.021807     0.020956
Rotational constants in MHz :  2292.941823   653.755655   628.242993

                             ****ORCA TERMINATED NORMALLY****
TOTAL RUN TIME: 0 days 0 hours 8 minutes 20 seconds 966 msec
