                         Program Version 4.2.0 -  RELEASE  -
|  1> # Test redundant internal optimization
|  2> #
|  3> ! RKS B3LYP  Opt TightSCF SmallPrint
|  4>
|  5> %basis
|  6>         Basis "6-31G"
|  7> end
|  8>
|  9> %geom
| 10> Constraints
| 11> { D 4  0  15  12  150.0   C } # D for Dihedral angle
| 12> { D 0  15  12  16  150.0   C } # D for Dihedral angle
| 13> { D 0  4  3  2   C } # D for Dihedral angle
| 14> { D 4  3  2  1   C } # D for Dihedral angle
| 15> { D 3  2  1  0   C } # D for Dihedral angle
| 16> { D 2  1  0  4   C } # D for Dihedral angle
| 17> { D 1  0  4  3   C } # D for Dihedral angle
| 18> { D 16  20  19  18   C } # D for Dihedral angle
| 19> { D 20  19  18  17   C } # D for Dihedral angle
| 20> { D 19  18  17  16   C } # D for Dihedral angle
| 21> { D 18  17  16  20   C } # D for Dihedral angle
| 22> { D 17  16  20  19   C } # D for Dihedral angle
| 23> { D 15  12  16  20   C } # D for Dihedral angle
| 24> end
| 25> end
| 26>
| 27>
| 28> #%pal
| 29> #nprocs 8
| 30> #end
| 31>
| 32> * xyz 0 1
| 33> C  -21.048   26.222   46.251
| 34> C  -20.361   27.558   45.944
| 35> C  -20.329   28.222   47.341
| 36> C  -20.110   27.022   48.296
| 37> O  -20.473   25.807   47.535
| 38> H  -20.833   25.428   45.533
| 39> H  -19.344   27.382   45.576
| 40> H  -20.898   28.157   45.201
| 41> H  -19.543   28.978   47.434
| 42> H  -21.289   28.710   47.548
| 43> H  -20.733   27.082   49.195
| 44> H  -19.064   26.913   48.597
| 45> C  -23.210   27.459   45.431
| 46> H  -23.207   28.434   45.934
| 47> H  -22.621   27.547   44.509
| 48> O  -22.586   26.394   46.375
| 49> C  -24.672   27.121   45.028
| 50> C  -25.604   27.145   46.244
| 51> C  -25.842   28.663   46.427
| 52> C  -25.854   29.194   44.972
| 53> O  -25.210   28.156   44.140
| 54> H  -24.681   26.183   44.469
| 55> H  -26.544   26.632   46.008
| 56> O  -24.985   26.476   47.502
| 57> H  -26.772   28.885   46.961
| 58> H  -25.016   29.107   46.995
| 59> H  -25.303   30.134   44.864
| 60> H  -26.868   29.334   44.587
| 61> H  -24.043   26.974   47.757
| 62> *
| 63>
| 64>                          ****END OF INPUT****
 Total Charge           Charge          ....    0
 Multiplicity           Mult            ....    1
 Number of Electrons    NEL             ....  102
FINAL SINGLE POINT ENERGY      -652.824130222321
FINAL SINGLE POINT ENERGY      -652.848423439430
FINAL SINGLE POINT ENERGY      -652.855446558617
FINAL SINGLE POINT ENERGY      -652.858162368484
FINAL SINGLE POINT ENERGY      -652.859819560637
FINAL SINGLE POINT ENERGY      -652.860873943420
FINAL SINGLE POINT ENERGY      -652.861413880812
FINAL SINGLE POINT ENERGY      -652.861540543813
FINAL SINGLE POINT ENERGY      -652.861561371478
FINAL SINGLE POINT ENERGY      -652.861565637269
                    ***********************HURRAY********************

CARTESIAN COORDINATES (ANGSTROEM)
---------------------------------
  C    -21.133216   26.288329   46.229433
  C    -20.241012   27.493062   45.935055
  C    -20.246871   28.239184   47.293736
  C    -20.292640   27.084569   48.315475
  O    -20.755847   25.893766   47.552318
  H    -20.992478   25.422740   45.578918
  H    -19.236220   27.126118   45.698019
  H    -20.575780   28.113966   45.100914
  H    -19.365961   28.874908   47.421853
  H    -21.137171   28.871149   47.377727
  H    -20.987594   27.261122   49.139629
  H    -19.308118   26.830274   48.717037
  C    -23.148562   27.603683   45.362077
  H    -23.100747   28.597054   45.823954
  H    -22.619795   27.636597   44.403171
  O    -22.566727   26.605516   46.260877
  C    -24.596894   27.174726   45.100369
  C    -25.503137   27.157301   46.342664
  C    -25.855361   28.665675   46.497032
  C    -25.941494   29.156695   45.037605
  O    -25.230661   28.139508   44.204846
  H    -24.591258   26.212331   44.581757
  H    -26.413366   26.596431   46.097564
  O    -24.940885   26.583343   47.536984
  H    -26.786860   28.810011   47.050645
  H    -25.052563   29.159908   47.055073
  H    -25.470149   30.131491   44.877107
  H    -26.969239   29.197789   44.665571
  H    -23.982394   26.391755   47.396589

 Multiplicity           Mult            ....    1
 Number of Electrons    NEL             ....  102
 Basis Dimension        Dim             ....  149

ORBITAL ENERGIES
----------------

  NO   OCC          E(Eh)            E(eV)
   0   2.0000     -19.160662      -521.3881
   1   2.0000     -19.152632      -521.1696
   2   2.0000     -19.140245      -520.8325
   3   2.0000     -19.107893      -519.9522
   4   2.0000     -10.294912      -280.1388
   5   2.0000     -10.241612      -278.6884
   6   2.0000     -10.235704      -278.5277
   7   2.0000     -10.233726      -278.4738
   8   2.0000     -10.227840      -278.3137
   9   2.0000     -10.226432      -278.2754
  10   2.0000     -10.202437      -277.6224
  11   2.0000     -10.200613      -277.5728
  12   2.0000     -10.177975      -276.9568
  13   2.0000      -1.066337       -29.0165
  14   2.0000      -1.025452       -27.9040
  15   2.0000      -1.007214       -27.4077
  16   2.0000      -0.987600       -26.8740
  17   2.0000      -0.800166       -21.7736
  18   2.0000      -0.775954       -21.1148
  19   2.0000      -0.767361       -20.8810
  20   2.0000      -0.739399       -20.1201
  21   2.0000      -0.683108       -18.5883
  22   2.0000      -0.613858       -16.7039
  23   2.0000      -0.600079       -16.3290
  24   2.0000      -0.595642       -16.2082
  25   2.0000      -0.577088       -15.7034
  26   2.0000      -0.527625       -14.3574
  27   2.0000      -0.523560       -14.2468
  28   2.0000      -0.508727       -13.8432
  29   2.0000      -0.488160       -13.2835
  30   2.0000      -0.477543       -12.9946
  31   2.0000      -0.462037       -12.5727
  32   2.0000      -0.445986       -12.1359
  33   2.0000      -0.434164       -11.8142
  34   2.0000      -0.429723       -11.6934
  35   2.0000      -0.420313       -11.4373
  36   2.0000      -0.410997       -11.1838
  37   2.0000      -0.390296       -10.6205
  38   2.0000      -0.385197       -10.4817
  39   2.0000      -0.372491       -10.1360
  40   2.0000      -0.367729       -10.0064
  41   2.0000      -0.363273        -9.8851
  42   2.0000      -0.349190        -9.5019
  43   2.0000      -0.341304        -9.2873
  44   2.0000      -0.322284        -8.7698
  45   2.0000      -0.314564        -8.5597
  46   2.0000      -0.285230        -7.7615
  47   2.0000      -0.274712        -7.4753
  48   2.0000      -0.270440        -7.3590
  49   2.0000      -0.246841        -6.7169
  50   2.0000      -0.239133        -6.5071
  51   0.0000       0.056908         1.5486
  52   0.0000       0.069691         1.8964
  53   0.0000       0.090463         2.4616
  54   0.0000       0.095327         2.5940
  55   0.0000       0.102240         2.7821

MULLIKEN ATOMIC CHARGES
-----------------------
   0 C :    0.325274
   1 C :   -0.293861
   2 C :   -0.304147
   3 C :   -0.006500
   4 O :   -0.496422
   5 H :    0.160041
   6 H :    0.157994
   7 H :    0.151284
   8 H :    0.150080
   9 H :    0.156948
  10 H :    0.160937
  11 H :    0.149990
  12 C :   -0.013686
  13 H :    0.137418
  14 H :    0.155124
  15 O :   -0.568229
  16 C :    0.050569
  17 C :    0.125470
  18 C :   -0.301216
  19 C :   -0.019423
  20 O :   -0.523381
  21 H :    0.159258
  22 H :    0.144690
  23 O :   -0.643898
  24 H :    0.151764
  25 H :    0.143878
  26 H :    0.138135
  27 H :    0.149188
  28 H :    0.402722
Sum of atomic charges:   -0.0000000

LOEWDIN ATOMIC CHARGES
----------------------
   0 C :    0.188036
   1 C :   -0.231777
   2 C :   -0.216789
   3 C :   -0.026715
   4 O :   -0.301914
   5 H :    0.107878
   6 H :    0.122934
   7 H :    0.118204
   8 H :    0.118662
   9 H :    0.114037
  10 H :    0.112613
  11 H :    0.107166
  12 C :   -0.044730
  13 H :    0.096442
  14 H :    0.108357
  15 O :   -0.350155
  16 C :    0.017781
  17 C :    0.042977
  18 C :   -0.236113
  19 C :   -0.032171
  20 O :   -0.325982
  21 H :    0.115528
  22 H :    0.103418
  23 O :   -0.437215
  24 H :    0.121496
  25 H :    0.110042
  26 H :    0.099955
  27 H :    0.105994
  28 H :    0.292041

  Mayer bond orders larger than 0.100000
B(  0-C ,  1-C ) :   0.9368 B(  0-C ,  4-O ) :   0.9475 B(  0-C ,  5-H ) :   0.9256
B(  0-C , 15-O ) :   0.7924 B(  1-C ,  2-C ) :   0.9476 B(  1-C ,  6-H ) :   0.9331
B(  1-C ,  7-H ) :   0.9268 B(  2-C ,  3-C ) :   0.9532 B(  2-C ,  8-H ) :   0.9447
B(  2-C ,  9-H ) :   0.9439 B(  3-C ,  4-O ) :   0.8291 B(  3-C , 10-H ) :   0.9337
B(  3-C , 11-H ) :   0.9392 B( 12-C , 13-H ) :   0.9191 B( 12-C , 14-H ) :   0.9206
B( 12-C , 15-O ) :   0.7901 B( 12-C , 16-C ) :   0.8965 B( 16-C , 17-C ) :   0.9150
B( 16-C , 20-O ) :   0.8555 B( 16-C , 21-H ) :   0.9292 B( 17-C , 18-C ) :   0.9017
B( 17-C , 22-H ) :   0.9280 B( 17-C , 23-O ) :   0.9405 B( 18-C , 19-C ) :   0.9377
B( 18-C , 24-H ) :   0.9451 B( 18-C , 25-H ) :   0.9432 B( 19-C , 20-O ) :   0.8314
B( 19-C , 26-H ) :   0.9352 B( 19-C , 27-H ) :   0.9387 B( 23-O , 28-H ) :   0.7172

FINAL SINGLE POINT ENERGY      -652.861565974983

DIPOLE MOMENT
-------------
                                X             Y             Z
Electronic contribution:     -1.84279      -5.44857      -0.68352
Nuclear contribution   :      3.06185       6.69398       0.27363
                        -----------------------------------------
Total Dipole Moment    :      1.21906       1.24541      -0.40989
                        -----------------------------------------
Magnitude (a.u.)       :      1.79029
Magnitude (Debye)      :      4.55057

Rotational constants in cm-1:     0.052899     0.014092     0.013182
Rotational constants in MHz :  1585.858982   422.459900   395.196637

                             ****ORCA TERMINATED NORMALLY****
TOTAL RUN TIME: 0 days 0 hours 25 minutes 20 seconds 916 msec
