                         Program Version 4.2.0 -  RELEASE  -
|  1> # Test redundant internal optimization
|  2> #
|  3> ! RKS B3LYP  Opt TightSCF SmallPrint
|  4>
|  5> %basis
|  6>         Basis "6-31G"
|  7> end
|  8>
|  9> %geom
| 10> Constraints
| 11> { D 4  0  15  12  300.0   C } # D for Dihedral angle
| 12> { D 0  15  12  16  225.0   C } # D for Dihedral angle
| 13> { D 0  4  3  2   C } # D for Dihedral angle
| 14> { D 4  3  2  1   C } # D for Dihedral angle
| 15> { D 3  2  1  0   C } # D for Dihedral angle
| 16> { D 2  1  0  4   C } # D for Dihedral angle
| 17> { D 1  0  4  3   C } # D for Dihedral angle
| 18> { D 16  20  19  18   C } # D for Dihedral angle
| 19> { D 20  19  18  17   C } # D for Dihedral angle
| 20> { D 19  18  17  16   C } # D for Dihedral angle
| 21> { D 18  17  16  20   C } # D for Dihedral angle
| 22> { D 17  16  20  19   C } # D for Dihedral angle
| 23> { D 15  12  16  20   C } # D for Dihedral angle
| 24> end
| 25> end
| 26>
| 27>
| 28> #%pal
| 29> #nprocs 8
| 30> #end
| 31>
| 32> * xyz 0 1
| 33> C  -21.048   26.222   46.251
| 34> C  -20.361   27.558   45.944
| 35> C  -20.329   28.222   47.341
| 36> C  -20.110   27.022   48.296
| 37> O  -20.473   25.807   47.535
| 38> H  -20.833   25.428   45.533
| 39> H  -19.344   27.382   45.576
| 40> H  -20.898   28.157   45.201
| 41> H  -19.543   28.978   47.434
| 42> H  -21.289   28.710   47.548
| 43> H  -20.733   27.082   49.195
| 44> H  -19.064   26.913   48.597
| 45> C  -23.362   25.116   46.798
| 46> H  -22.707   24.242   46.687
| 47> H  -23.668   25.183   47.850
| 48> O  -22.586   26.394   46.375
| 49> C  -24.640   24.881   45.947
| 50> C  -25.440   23.680   46.465
| 51> C  -26.175   24.294   47.680
| 52> C  -26.468   25.743   47.218
| 53> O  -25.562   26.014   46.082
| 54> H  -24.362   24.818   44.893
| 55> O  -26.457   23.212   45.388
| 56> H  -24.808   22.828   46.737
| 57> H  -27.087   23.748   47.945
| 58> H  -25.518   24.294   48.557
| 59> H  -26.283   26.481   48.008
| 60> H  -27.491   25.866   46.851
| 61> H  -27.101   24.051   45.100
| 62> *
| 63>
| 64>                          ****END OF INPUT****
 Total Charge           Charge          ....    0
 Multiplicity           Mult            ....    1
 Number of Electrons    NEL             ....  102
FINAL SINGLE POINT ENERGY      -652.835723122183
FINAL SINGLE POINT ENERGY      -652.859917904738
FINAL SINGLE POINT ENERGY      -652.863975228271
FINAL SINGLE POINT ENERGY      -652.864732801833
FINAL SINGLE POINT ENERGY      -652.864825234641
FINAL SINGLE POINT ENERGY      -652.864836114590
                    ***********************HURRAY********************

CARTESIAN COORDINATES (ANGSTROEM)
---------------------------------
  C    -21.128815   26.131102   46.259471
  C    -20.550578   27.505652   45.923406
  C    -20.480185   28.166143   47.317529
  C    -20.129615   26.986500   48.251746
  O    -20.463447   25.752851   47.491109
  H    -20.914072   25.327129   45.547163
  H    -19.551003   27.379862   45.492166
  H    -21.179385   28.052913   45.218283
  H    -19.737021   28.968228   47.366489
  H    -21.458458   28.582801   47.573119
  H    -20.700726   26.992906   49.183781
  H    -19.061961   26.929408   48.484140
  C    -23.267510   25.106803   46.881275
  H    -22.636784   24.213411   46.773042
  H    -23.500081   25.227340   47.945437
  O    -22.550316   26.291485   46.426480
  C    -24.534237   24.940922   46.046551
  C    -25.402280   23.746146   46.469416
  C    -26.198817   24.340959   47.660781
  C    -26.418331   25.813651   47.232494
  O    -25.430462   26.094756   46.164812
  H    -24.256376   24.876401   44.989961
  O    -26.281391   23.335375   45.386333
  H    -24.833380   22.853314   46.733044
  H    -27.132739   23.794503   47.811186
  H    -25.608581   24.276634   48.581853
  H    -26.265661   26.520082   48.054289
  H    -27.412696   25.983660   46.807706
  H    -26.655091   24.135062   44.958939

 Multiplicity           Mult            ....    1
 Number of Electrons    NEL             ....  102
 Basis Dimension        Dim             ....  149

ORBITAL ENERGIES
----------------

  NO   OCC          E(Eh)            E(eV)
   0   2.0000     -19.141670      -520.8713
   1   2.0000     -19.139451      -520.8109
   2   2.0000     -19.139280      -520.8063
   3   2.0000     -19.138524      -520.7857
   4   2.0000     -10.276765      -279.6450
   5   2.0000     -10.242705      -278.7182
   6   2.0000     -10.232756      -278.4475
   7   2.0000     -10.229534      -278.3598
   8   2.0000     -10.229286      -278.3530
   9   2.0000     -10.224412      -278.2204
  10   2.0000     -10.189342      -277.2661
  11   2.0000     -10.182835      -277.0890
  12   2.0000     -10.182695      -277.0852
  13   2.0000      -1.053697       -28.6725
  14   2.0000      -1.035204       -28.1693
  15   2.0000      -1.005538       -27.3621
  16   2.0000      -0.991131       -26.9700
  17   2.0000      -0.789894       -21.4941
  18   2.0000      -0.780712       -21.2443
  19   2.0000      -0.765840       -20.8396
  20   2.0000      -0.729362       -19.8469
  21   2.0000      -0.672255       -18.2930
  22   2.0000      -0.604384       -16.4461
  23   2.0000      -0.598848       -16.2955
  24   2.0000      -0.591812       -16.1040
  25   2.0000      -0.578172       -15.7329
  26   2.0000      -0.527668       -14.3586
  27   2.0000      -0.508167       -13.8279
  28   2.0000      -0.494056       -13.4439
  29   2.0000      -0.489774       -13.3274
  30   2.0000      -0.473111       -12.8740
  31   2.0000      -0.456841       -12.4313
  32   2.0000      -0.450587       -12.2611
  33   2.0000      -0.440293       -11.9810
  34   2.0000      -0.419362       -11.4114
  35   2.0000      -0.410358       -11.1664
  36   2.0000      -0.400356       -10.8943
  37   2.0000      -0.393127       -10.6975
  38   2.0000      -0.372146       -10.1266
  39   2.0000      -0.366987        -9.9862
  40   2.0000      -0.358645        -9.7592
  41   2.0000      -0.354921        -9.6579
  42   2.0000      -0.345601        -9.4043
  43   2.0000      -0.336290        -9.1509
  44   2.0000      -0.324151        -8.8206
  45   2.0000      -0.307052        -8.3553
  46   2.0000      -0.296275        -8.0621
  47   2.0000      -0.271029        -7.3751
  48   2.0000      -0.269022        -7.3205
  49   2.0000      -0.254163        -6.9161
  50   2.0000      -0.239197        -6.5089
  51   0.0000       0.066913         1.8208
  52   0.0000       0.086534         2.3547
  53   0.0000       0.090368         2.4590
  54   0.0000       0.101193         2.7536
  55   0.0000       0.103868         2.8264

MULLIKEN ATOMIC CHARGES
-----------------------
   0 C :    0.278104
   1 C :   -0.261279
   2 C :   -0.299448
   3 C :   -0.005239
   4 O :   -0.515888
   5 H :    0.142551
   6 H :    0.143936
   7 H :    0.163562
   8 H :    0.140485
   9 H :    0.165920
  10 H :    0.143779
  11 H :    0.143239
  12 C :    0.004140
  13 H :    0.138775
  14 H :    0.142655
  15 O :   -0.509573
  16 C :    0.068966
  17 C :    0.077679
  18 C :   -0.297994
  19 C :   -0.027544
  20 O :   -0.510493
  21 H :    0.159063
  22 O :   -0.602336
  23 H :    0.151467
  24 H :    0.163235
  25 H :    0.143691
  26 H :    0.149568
  27 H :    0.143196
  28 H :    0.365782
Sum of atomic charges:   -0.0000000

LOEWDIN ATOMIC CHARGES
----------------------
   0 C :    0.170495
   1 C :   -0.214143
   2 C :   -0.216236
   3 C :   -0.028634
   4 O :   -0.334690
   5 H :    0.094476
   6 H :    0.113648
   7 H :    0.127536
   8 H :    0.113167
   9 H :    0.120980
  10 H :    0.103627
  11 H :    0.102804
  12 C :   -0.039540
  13 H :    0.105729
  14 H :    0.103555
  15 O :   -0.317880
  16 C :    0.013859
  17 C :    0.034600
  18 C :   -0.241229
  19 C :   -0.037909
  20 O :   -0.321662
  21 H :    0.116847
  22 O :   -0.414636
  23 H :    0.115240
  24 H :    0.126775
  25 H :    0.112628
  26 H :    0.105485
  27 H :    0.101333
  28 H :    0.283776

  Mayer bond orders larger than 0.100000
B(  0-C ,  1-C ) :   0.9515 B(  0-C ,  4-O ) :   0.8938 B(  0-C ,  5-H ) :   0.9181
B(  0-C , 15-O ) :   0.8734 B(  1-C ,  2-C ) :   0.9557 B(  1-C ,  6-H ) :   0.9401
B(  1-C ,  7-H ) :   0.9349 B(  2-C ,  3-C ) :   0.9559 B(  2-C ,  8-H ) :   0.9451
B(  2-C ,  9-H ) :   0.9437 B(  3-C ,  4-O ) :   0.8371 B(  3-C , 10-H ) :   0.9363
B(  3-C , 11-H ) :   0.9405 B( 12-C , 13-H ) :   0.9123 B( 12-C , 14-H ) :   0.9282
B( 12-C , 15-O ) :   0.8274 B( 12-C , 16-C ) :   0.8965 B( 16-C , 17-C ) :   0.8989
B( 16-C , 20-O ) :   0.8628 B( 16-C , 21-H ) :   0.9254 B( 17-C , 18-C ) :   0.9102
B( 17-C , 22-O ) :   0.8939 B( 17-C , 23-H ) :   0.9332 B( 18-C , 19-C ) :   0.9402
B( 18-C , 24-H ) :   0.9377 B( 18-C , 25-H ) :   0.9343 B( 19-C , 20-O ) :   0.8511
B( 19-C , 26-H ) :   0.9340 B( 19-C , 27-H ) :   0.9384 B( 22-O , 28-H ) :   0.7936

FINAL SINGLE POINT ENERGY      -652.864838401150

DIPOLE MOMENT
-------------
                                X             Y             Z
Electronic contribution:     -1.80024      -2.39146      -3.11986
Nuclear contribution   :      2.02875       2.79397       3.71454
                        -----------------------------------------
Total Dipole Moment    :      0.22851       0.40251       0.59468
                        -----------------------------------------
Magnitude (a.u.)       :      0.75358
Magnitude (Debye)      :      1.91545

Rotational constants in cm-1:     0.064209     0.011340     0.011137
Rotational constants in MHz :  1924.922682   339.958424   333.878739

                             ****ORCA TERMINATED NORMALLY****
TOTAL RUN TIME: 0 days 1 hours 42 minutes 39 seconds 826 msec
