                         Program Version 4.2.1 -  RELEASE  -
|  1> # Test redundant internal optimization
|  2> #
|  3> ! RKS B3LYP  Opt TightSCF SmallPrint
|  4>
|  5> %basis
|  6>         Basis "6-31G"
|  7> end
|  8>
|  9> %geom
| 10> Constraints
| 11> { D 4  0  19  14  210.0   C } # D for Dihedral angle
| 12> { D 0  19  14  12  135.0   C } # D for Dihedral angle
| 13> { D 0  4  3  2   C } # D for Dihedral angle
| 14> { D 4  3  2  1   C } # D for Dihedral angle
| 15> { D 3  2  1  0   C } # D for Dihedral angle
| 16> { D 2  1  0  4   C } # D for Dihedral angle
| 17> { D 1  0  4  3   C } # D for Dihedral angle
| 18> { D 14  15  16  17   C } # D for Dihedral angle
| 19> { D 15  16  17  12   C } # D for Dihedral angle
| 20> { D 16  17  12  14   C } # D for Dihedral angle
| 21> { D 17  12  14  15   C } # D for Dihedral angle
| 22> { D 12  14  15  16   C } # D for Dihedral angle
| 23> end
| 24> end
| 25>
| 26>
| 27> #%pal
| 28> #nprocs 8
| 29> #end
| 30>
| 31> * xyz 0 1
| 32> C  -21.048   26.222   46.251
| 33> C  -20.361   27.558   45.944
| 34> C  -20.329   28.222   47.341
| 35> C  -20.110   27.022   48.296
| 36> O  -20.473   25.807   47.535
| 37> H  -20.833   25.428   45.533
| 38> H  -19.344   27.382   45.576
| 39> H  -20.898   28.157   45.201
| 40> H  -19.543   28.978   47.434
| 41> H  -21.289   28.710   47.548
| 42> H  -20.733   27.082   49.195
| 43> H  -19.064   26.913   48.597
| 44> C  -24.425   25.247   45.458
| 45> H  -24.829   24.791   44.541
| 46> C  -23.197   26.114   45.155
| 47> C  -23.851   27.407   44.614
| 48> C  -25.148   27.524   45.453
| 49> O  -25.396   26.185   46.033
| 50> H  -24.256   24.467   46.201
| 51> O  -22.472   26.381   46.366
| 52> H  -22.512   25.652   44.436
| 53> H  -23.206   28.285   44.717
| 54> H  -24.090   27.292   43.549
| 55> H  -26.014   27.820   44.851
| 56> H  -25.043   28.222   46.290
| 57> *
| 58>
| 59>                          ****END OF INPUT****
 Total Charge           Charge          ....    0
 Multiplicity           Mult            ....    1
 Number of Electrons    NEL             ....   86
FINAL SINGLE POINT ENERGY      -538.427491797326
FINAL SINGLE POINT ENERGY      -538.429558628249
FINAL SINGLE POINT ENERGY      -538.429758582679
FINAL SINGLE POINT ENERGY      -538.429791794091
FINAL SINGLE POINT ENERGY      -538.429801518374
                    ***********************HURRAY********************

CARTESIAN COORDINATES (ANGSTROEM)
---------------------------------
  C    -20.989350   26.221277   46.216549
  C    -20.302826   27.559529   45.950598
  C    -20.347331   28.226951   47.346970
  C    -20.166895   27.029735   48.304491
  O    -20.487177   25.821730   47.499553
  H    -20.749891   25.423590   45.504557
  H    -19.266818   27.379829   45.638140
  H    -20.801334   28.147589   45.175695
  H    -19.571244   28.987176   47.475516
  H    -21.323957   28.696026   47.499108
  H    -20.838174   27.060786   49.165746
  H    -19.135457   26.911341   48.649277
  C    -24.425450   25.257541   45.481105
  H    -24.862873   24.791521   44.585074
  C    -23.212923   26.113424   45.110844
  C    -23.884908   27.401210   44.591757
  C    -25.137481   27.533534   45.490615
  O    -25.360398   26.202199   46.092443
  H    -24.189392   24.495867   46.224766
  O    -22.433076   26.375739   46.314540
  H    -22.581043   25.632851   44.351099
  H    -23.218354   28.264439   44.665359
  H    -24.165266   27.269990   43.539712
  H    -26.029358   27.829086   44.926624
  H    -24.983023   28.235041   46.314864

 Multiplicity           Mult            ....    1
 Number of Electrons    NEL             ....   86
 Basis Dimension        Dim             ....  127

ORBITAL ENERGIES
----------------

  NO   OCC          E(Eh)            E(eV)
   0   2.0000     -19.139830      -520.8212
   1   2.0000     -19.138741      -520.7916
   2   2.0000     -19.126401      -520.4558
   3   2.0000     -10.281238      -279.7667
   4   2.0000     -10.243165      -278.7307
   5   2.0000     -10.224186      -278.2142
   6   2.0000     -10.220092      -278.1028
   7   2.0000     -10.219421      -278.0846
   8   2.0000     -10.188212      -277.2353
   9   2.0000     -10.187388      -277.2129
  10   2.0000     -10.186522      -277.1894
  11   2.0000      -1.053441       -28.6656
  12   2.0000      -1.013947       -27.5909
  13   2.0000      -0.989784       -26.9334
  14   2.0000      -0.789162       -21.4742
  15   2.0000      -0.780134       -21.2285
  16   2.0000      -0.740651       -20.1541
  17   2.0000      -0.722103       -19.6494
  18   2.0000      -0.608046       -16.5458
  19   2.0000      -0.599994       -16.3267
  20   2.0000      -0.596562       -16.2333
  21   2.0000      -0.580537       -15.7972
  22   2.0000      -0.519914       -14.1476
  23   2.0000      -0.505381       -13.7521
  24   2.0000      -0.485074       -13.1995
  25   2.0000      -0.479512       -13.0482
  26   2.0000      -0.451126       -12.2758
  27   2.0000      -0.445201       -12.1145
  28   2.0000      -0.429794       -11.6953
  29   2.0000      -0.413617       -11.2551
  30   2.0000      -0.411040       -11.1850
  31   2.0000      -0.386252       -10.5104
  32   2.0000      -0.374379       -10.1874
  33   2.0000      -0.363515        -9.8918
  34   2.0000      -0.358588        -9.7577
  35   2.0000      -0.356270        -9.6946
  36   2.0000      -0.349656        -9.5146
  37   2.0000      -0.314702        -8.5635
  38   2.0000      -0.307808        -8.3759
  39   2.0000      -0.298740        -8.1291
  40   2.0000      -0.262345        -7.1388
  41   2.0000      -0.251329        -6.8390
  42   2.0000      -0.230029        -6.2594
  43   0.0000       0.072327         1.9681
  44   0.0000       0.081421         2.2156
  45   0.0000       0.097155         2.6437
  46   0.0000       0.112610         3.0643
  47   0.0000       0.122556         3.3349

MULLIKEN ATOMIC CHARGES
-----------------------
   0 C :    0.292388
   1 C :   -0.264492
   2 C :   -0.299770
   3 C :   -0.000718
   4 O :   -0.501648
   5 H :    0.136721
   6 H :    0.143089
   7 H :    0.141218
   8 H :    0.141772
   9 H :    0.161179
  10 H :    0.157268
  11 H :    0.141012
  12 C :    0.015527
  13 H :    0.119130
  14 C :    0.051255
  15 C :   -0.292128
  16 C :    0.008929
  17 O :   -0.518373
  18 H :    0.170731
  19 O :   -0.501936
  20 H :    0.123913
  21 H :    0.149959
  22 H :    0.140912
  23 H :    0.132131
  24 H :    0.151933
Sum of atomic charges:    0.0000000

LOEWDIN ATOMIC CHARGES
----------------------
   0 C :    0.179747
   1 C :   -0.228916
   2 C :   -0.216907
   3 C :   -0.024679
   4 O :   -0.305594
   5 H :    0.094747
   6 H :    0.112830
   7 H :    0.112596
   8 H :    0.114239
   9 H :    0.118562
  10 H :    0.110992
  11 H :    0.102026
  12 C :   -0.036417
  13 H :    0.089142
  14 C :    0.036489
  15 C :   -0.234015
  16 C :   -0.026978
  17 O :   -0.327597
  18 H :    0.124751
  19 O :   -0.326492
  20 H :    0.095999
  21 H :    0.118738
  22 H :    0.112146
  23 H :    0.097133
  24 H :    0.107461

  Mayer bond orders larger than 0.100000
B(  0-C ,  1-C ) :   0.9309 B(  0-C ,  4-O ) :   0.9384 B(  0-C ,  5-H ) :   0.9175
B(  0-C , 19-O ) :   0.8416 B(  1-C ,  2-C ) :   0.9552 B(  1-C ,  6-H ) :   0.9339
B(  1-C ,  7-H ) :   0.9357 B(  2-C ,  3-C ) :   0.9551 B(  2-C ,  8-H ) :   0.9450
B(  2-C ,  9-H ) :   0.9435 B(  3-C ,  4-O ) :   0.8353 B(  3-C , 10-H ) :   0.9339
B(  3-C , 11-H ) :   0.9397 B( 12-C , 13-H ) :   0.9127 B( 12-C , 14-C ) :   0.9306
B( 12-C , 17-O ) :   0.8734 B( 12-C , 18-H ) :   0.9302 B( 14-C , 15-C ) :   0.9406
B( 14-C , 19-O ) :   0.8363 B( 14-C , 20-H ) :   0.9168 B( 15-C , 16-C ) :   0.9457
B( 15-C , 21-H ) :   0.9384 B( 15-C , 22-H ) :   0.9374 B( 16-C , 17-O ) :   0.8598
B( 16-C , 23-H ) :   0.9335 B( 16-C , 24-H ) :   0.9362

FINAL SINGLE POINT ENERGY      -538.429802432679

DIPOLE MOMENT
-------------
                                X             Y             Z
Electronic contribution:     -1.47672      -4.16482       2.09762
Nuclear contribution   :      2.30022       5.04560      -3.24908
                        -----------------------------------------
Total Dipole Moment    :      0.82351       0.88078      -1.15146
                        -----------------------------------------
Magnitude (a.u.)       :      1.66727
Magnitude (Debye)      :      4.23787

Rotational constants in cm-1:     0.077843     0.020439     0.019434
Rotational constants in MHz :  2333.659747   612.754657   582.624154

                             ****ORCA TERMINATED NORMALLY****
TOTAL RUN TIME: 0 days 0 hours 5 minutes 39 seconds 507 msec
