                         Program Version 4.2.0 -  RELEASE  -
|  1> # Test redundant internal optimization
|  2> #
|  3> ! RKS B3LYP  Opt TightSCF SmallPrint
|  4>
|  5> %basis
|  6>         Basis "6-31G"
|  7> end
|  8>
|  9> %geom
| 10> Constraints
| 11> { D 4  0  15  12  30.0   C } # D for Dihedral angle
| 12> { D 0  15  12  16  210.0   C } # D for Dihedral angle
| 13> { D 0  4  3  2   C } # D for Dihedral angle
| 14> { D 4  3  2  1   C } # D for Dihedral angle
| 15> { D 3  2  1  0   C } # D for Dihedral angle
| 16> { D 2  1  0  4   C } # D for Dihedral angle
| 17> { D 1  0  4  3   C } # D for Dihedral angle
| 18> { D 16  20  19  18   C } # D for Dihedral angle
| 19> { D 20  19  18  17   C } # D for Dihedral angle
| 20> { D 19  18  17  16   C } # D for Dihedral angle
| 21> { D 18  17  16  20   C } # D for Dihedral angle
| 22> { D 17  16  20  19   C } # D for Dihedral angle
| 23> { D 15  12  16  20   C } # D for Dihedral angle
| 24> end
| 25> end
| 26>
| 27>
| 28> #%pal
| 29> #nprocs 8
| 30> #end
| 31>
| 32> * xyz 0 1
| 33> C  -21.048   26.222   46.251
| 34> C  -20.361   27.558   45.944
| 35> C  -20.329   28.222   47.341
| 36> C  -20.110   27.022   48.296
| 37> O  -20.473   25.807   47.535
| 38> H  -20.833   25.428   45.533
| 39> H  -19.344   27.382   45.576
| 40> H  -20.898   28.157   45.201
| 41> H  -19.543   28.978   47.434
| 42> H  -21.289   28.710   47.548
| 43> H  -20.733   27.082   49.195
| 44> H  -19.064   26.913   48.597
| 45> C  -23.091   26.824   47.779
| 46> H  -22.404   26.441   48.544
| 47> H  -23.118   27.918   47.860
| 48> O  -22.586   26.394   46.375
| 49> C  -24.517   26.292   48.093
| 50> C  -25.519   26.715   47.013
| 51> C  -25.219   25.693   45.890
| 52> C  -24.863   24.404   46.673
| 53> O  -24.538   24.827   48.053
| 54> H  -24.794   26.588   49.107
| 55> H  -26.544   26.592   47.382
| 56> O  -25.337   28.186   46.552
| 57> H  -26.064   25.548   45.210
| 58> H  -24.363   26.030   45.293
| 59> H  -24.003   23.877   46.247
| 60> H  -25.706   23.710   46.739
| 61> H  -24.317   28.331   46.178
| 62> *
| 63>
| 64>                          ****END OF INPUT****
 Total Charge           Charge          ....    0
 Multiplicity           Mult            ....    1
 Number of Electrons    NEL             ....  102
FINAL SINGLE POINT ENERGY      -652.826849023298
FINAL SINGLE POINT ENERGY      -652.851149275830
FINAL SINGLE POINT ENERGY      -652.857084095270
FINAL SINGLE POINT ENERGY      -652.859643549364
FINAL SINGLE POINT ENERGY      -652.859852292036
FINAL SINGLE POINT ENERGY      -652.859889750372
FINAL SINGLE POINT ENERGY      -652.859892078054
                    ***********************HURRAY********************

CARTESIAN COORDINATES (ANGSTROEM)
---------------------------------
  C    -21.111991   26.291406   46.422103
  C    -20.386250   27.571695   45.996746
  C    -20.140367   28.270397   47.360828
  C    -19.882166   27.080964   48.314270
  O    -20.421840   25.879574   47.618287
  H    -21.016146   25.472968   45.707233
  H    -19.436848   27.302002   45.520585
  H    -20.974765   28.172052   45.299043
  H    -19.293617   28.962880   47.331033
  H    -21.025019   28.839373   47.665173
  H    -20.379449   27.182243   49.282603
  H    -18.817135   26.892783   48.475580
  C    -23.124177   26.842150   47.850479
  H    -22.498342   26.446262   48.654834
  H    -23.184190   27.936109   47.933328
  O    -22.553156   26.448418   46.566942
  C    -24.525306   26.257852   48.014029
  C    -25.546636   26.691313   46.949078
  C    -25.280591   25.660635   45.808744
  C    -24.926092   24.377913   46.591129
  O    -24.568194   24.805406   47.968331
  H    -24.863037   26.544108   49.017907
  H    -26.560861   26.595532   47.342394
  O    -25.431076   28.077278   46.540564
  H    -26.152047   25.532997   45.159599
  H    -24.429318   26.000659   45.214219
  H    -24.076283   23.842019   46.159981
  H    -25.775958   23.693721   46.684638
  H    -24.627145   28.180293   45.989321

 Multiplicity           Mult            ....    1
 Number of Electrons    NEL             ....  102
 Basis Dimension        Dim             ....  149

ORBITAL ENERGIES
----------------

  NO   OCC          E(Eh)            E(eV)
   0   2.0000     -19.154468      -521.2196
   1   2.0000     -19.148175      -521.0483
   2   2.0000     -19.137169      -520.7488
   3   2.0000     -19.128845      -520.5223
   4   2.0000     -10.285620      -279.8859
   5   2.0000     -10.237239      -278.5694
   6   2.0000     -10.232588      -278.4429
   7   2.0000     -10.228221      -278.3240
   8   2.0000     -10.226317      -278.2722
   9   2.0000     -10.217477      -278.0317
  10   2.0000     -10.198522      -277.5159
  11   2.0000     -10.193676      -277.3840
  12   2.0000     -10.175493      -276.8892
  13   2.0000      -1.060226       -28.8502
  14   2.0000      -1.024283       -27.8722
  15   2.0000      -1.006526       -27.3890
  16   2.0000      -0.996897       -27.1270
  17   2.0000      -0.795777       -21.6542
  18   2.0000      -0.773778       -21.0556
  19   2.0000      -0.763392       -20.7730
  20   2.0000      -0.735718       -20.0199
  21   2.0000      -0.676690       -18.4137
  22   2.0000      -0.610236       -16.6054
  23   2.0000      -0.601896       -16.3784
  24   2.0000      -0.597576       -16.2609
  25   2.0000      -0.561536       -15.2802
  26   2.0000      -0.527035       -14.3413
  27   2.0000      -0.512501       -13.9459
  28   2.0000      -0.499629       -13.5956
  29   2.0000      -0.487681       -13.2705
  30   2.0000      -0.475211       -12.9311
  31   2.0000      -0.459881       -12.5140
  32   2.0000      -0.439662       -11.9638
  33   2.0000      -0.430402       -11.7118
  34   2.0000      -0.425021       -11.5654
  35   2.0000      -0.416474       -11.3328
  36   2.0000      -0.400168       -10.8891
  37   2.0000      -0.391476       -10.6526
  38   2.0000      -0.382332       -10.4038
  39   2.0000      -0.373314       -10.1584
  40   2.0000      -0.367040        -9.9877
  41   2.0000      -0.358471        -9.7545
  42   2.0000      -0.345543        -9.4027
  43   2.0000      -0.330114        -8.9828
  44   2.0000      -0.322388        -8.7726
  45   2.0000      -0.310773        -8.4566
  46   2.0000      -0.302644        -8.2354
  47   2.0000      -0.270893        -7.3714
  48   2.0000      -0.261587        -7.1181
  49   2.0000      -0.256586        -6.9821
  50   2.0000      -0.233777        -6.3614
  51   0.0000       0.061201         1.6654
  52   0.0000       0.083814         2.2807
  53   0.0000       0.092514         2.5174
  54   0.0000       0.094310         2.5663
  55   0.0000       0.101304         2.7566

MULLIKEN ATOMIC CHARGES
-----------------------
   0 C :    0.306289
   1 C :   -0.260888
   2 C :   -0.314094
   3 C :   -0.020435
   4 O :   -0.502994
   5 H :    0.163625
   6 H :    0.150786
   7 H :    0.149557
   8 H :    0.150974
   9 H :    0.152933
  10 H :    0.148532
  11 H :    0.154368
  12 C :   -0.030201
  13 H :    0.171339
  14 H :    0.130280
  15 O :   -0.548743
  16 C :    0.100936
  17 C :    0.087773
  18 C :   -0.312043
  19 C :   -0.005215
  20 O :   -0.518461
  21 H :    0.142786
  22 H :    0.157438
  23 O :   -0.610337
  24 H :    0.142072
  25 H :    0.164643
  26 H :    0.146827
  27 H :    0.140316
  28 H :    0.361940
Sum of atomic charges:   -0.0000000

LOEWDIN ATOMIC CHARGES
----------------------
   0 C :    0.181552
   1 C :   -0.225792
   2 C :   -0.222237
   3 C :   -0.033652
   4 O :   -0.311915
   5 H :    0.111582
   6 H :    0.117822
   7 H :    0.119516
   8 H :    0.119005
   9 H :    0.111963
  10 H :    0.103946
  11 H :    0.108662
  12 C :   -0.053660
  13 H :    0.118870
  14 H :    0.093820
  15 O :   -0.342889
  16 C :    0.020661
  17 C :    0.037494
  18 C :   -0.243601
  19 C :   -0.024891
  20 O :   -0.319999
  21 H :    0.111743
  22 H :    0.114499
  23 O :   -0.414047
  24 H :    0.113946
  25 H :    0.121555
  26 H :    0.105361
  27 H :    0.099974
  28 H :    0.280712

  Mayer bond orders larger than 0.100000
B(  0-C ,  1-C ) :   0.9198 B(  0-C ,  4-O ) :   0.9182 B(  0-C ,  5-H ) :   0.9348
B(  0-C , 15-O ) :   0.8529 B(  1-C ,  2-C ) :   0.9544 B(  1-C ,  6-H ) :   0.9341
B(  1-C ,  7-H ) :   0.9381 B(  2-C ,  3-C ) :   0.9490 B(  2-C ,  8-H ) :   0.9445
B(  2-C ,  9-H ) :   0.9427 B(  3-C ,  4-O ) :   0.8325 B(  3-C , 10-H ) :   0.9312
B(  3-C , 11-H ) :   0.9399 B( 12-C , 13-H ) :   0.9093 B( 12-C , 14-H ) :   0.9016
B( 12-C , 15-O ) :   0.8297 B( 12-C , 16-C ) :   0.9053 B( 16-C , 17-C ) :   0.8862
B( 16-C , 20-O ) :   0.8864 B( 16-C , 21-H ) :   0.9295 B( 17-C , 18-C ) :   0.9348
B( 17-C , 22-H ) :   0.9376 B( 17-C , 23-O ) :   0.8968 B( 18-C , 19-C ) :   0.9461
B( 18-C , 24-H ) :   0.9414 B( 18-C , 25-H ) :   0.9264 B( 19-C , 20-O ) :   0.8380
B( 19-C , 26-H ) :   0.9325 B( 19-C , 27-H ) :   0.9374 B( 23-O , 28-H ) :   0.7936

FINAL SINGLE POINT ENERGY      -652.859890292339

DIPOLE MOMENT
-------------
                                X             Y             Z
Electronic contribution:     -2.47282      -2.77908       1.14950
Nuclear contribution   :      3.42967       3.55943      -1.65685
                        -----------------------------------------
Total Dipole Moment    :      0.95685       0.78035      -0.50734
                        -----------------------------------------
Magnitude (a.u.)       :      1.33488
Magnitude (Debye)      :      3.39300

Rotational constants in cm-1:     0.049512     0.015754     0.014518
Rotational constants in MHz :  1484.327232   472.296679   435.234823

                             ****ORCA TERMINATED NORMALLY****
TOTAL RUN TIME: 0 days 0 hours 38 minutes 16 seconds 517 msec
