                         Program Version 4.2.0 -  RELEASE  -
|  1> # Test redundant internal optimization
|  2> #
|  3> ! RKS B3LYP  Opt TightSCF SmallPrint
|  4>
|  5> %basis
|  6>         Basis "6-31G"
|  7> end
|  8>
|  9> %geom
| 10> Constraints
| 11> { D 4  0  15  12  15.0   C } # D for Dihedral angle
| 12> { D 0  15  12  16  210.0   C } # D for Dihedral angle
| 13> { D 0  4  3  2   C } # D for Dihedral angle
| 14> { D 4  3  2  1   C } # D for Dihedral angle
| 15> { D 3  2  1  0   C } # D for Dihedral angle
| 16> { D 2  1  0  4   C } # D for Dihedral angle
| 17> { D 1  0  4  3   C } # D for Dihedral angle
| 18> { D 16  20  19  18   C } # D for Dihedral angle
| 19> { D 20  19  18  17   C } # D for Dihedral angle
| 20> { D 19  18  17  16   C } # D for Dihedral angle
| 21> { D 18  17  16  20   C } # D for Dihedral angle
| 22> { D 17  16  20  19   C } # D for Dihedral angle
| 23> { D 15  12  16  20   C } # D for Dihedral angle
| 24> end
| 25> end
| 26>
| 27>
| 28> #%pal
| 29> #nprocs 8
| 30> #end
| 31>
| 32> * xyz 0 1
| 33> C  -21.048   26.222   46.251
| 34> C  -20.361   27.558   45.944
| 35> C  -20.329   28.222   47.341
| 36> C  -20.110   27.022   48.296
| 37> O  -20.473   25.807   47.535
| 38> H  -20.833   25.428   45.533
| 39> H  -19.344   27.382   45.576
| 40> H  -20.898   28.157   45.201
| 41> H  -19.543   28.978   47.434
| 42> H  -21.289   28.710   47.548
| 43> H  -20.733   27.082   49.195
| 44> H  -19.064   26.913   48.597
| 45> C  -23.128   26.462   47.829
| 46> H  -22.472   25.879   48.488
| 47> H  -23.138   27.500   48.187
| 48> O  -22.586   26.394   46.375
| 49> C  -24.572   25.903   47.959
| 50> C  -24.618   24.404   47.640
| 51> C  -24.095   23.786   48.959
| 52> C  -24.662   24.739   50.042
| 53> O  -25.032   25.991   49.349
| 54> H  -25.248   26.514   47.359
| 55> H  -25.652   24.092   47.451
| 56> O  -23.756   24.015   46.408
| 57> H  -24.421   22.751   49.101
| 58> H  -22.999   23.797   48.969
| 59> H  -23.930   24.965   50.825
| 60> H  -25.569   24.347   50.508
| 61> H  -22.717   24.318   46.576
| 62> *
| 63>
| 64>                          ****END OF INPUT****
 Total Charge           Charge          ....    0
 Multiplicity           Mult            ....    1
 Number of Electrons    NEL             ....  102
FINAL SINGLE POINT ENERGY      -652.825480645266
FINAL SINGLE POINT ENERGY      -652.850268436595
FINAL SINGLE POINT ENERGY      -652.856900347306
FINAL SINGLE POINT ENERGY      -652.859378589327
FINAL SINGLE POINT ENERGY      -652.860711131598
FINAL SINGLE POINT ENERGY      -652.861807778838
FINAL SINGLE POINT ENERGY      -652.862481630478
FINAL SINGLE POINT ENERGY      -652.862741189338
FINAL SINGLE POINT ENERGY      -652.862817641813
FINAL SINGLE POINT ENERGY      -652.862826120062
                    ***********************HURRAY********************

CARTESIAN COORDINATES (ANGSTROEM)
---------------------------------
  C    -21.060259   26.219904   46.411984
  C    -20.429403   27.537096   45.959808
  C    -20.251995   28.282834   47.304557
  C    -19.915642   27.147096   48.294508
  O    -20.357938   25.887861   47.622308
  H    -20.919398   25.385607   45.723347
  H    -19.459673   27.328282   45.493668
  H    -21.060433   28.072310   45.247271
  H    -19.462846   29.039755   47.264189
  H    -21.183984   28.785801   47.582786
  H    -20.435258   27.232473   49.252161
  H    -18.842833   27.037287   48.472337
  C    -23.092071   26.455019   47.922048
  H    -22.444592   25.932781   48.630773
  H    -23.167842   27.509079   48.210048
  O    -22.519894   26.340781   46.569604
  C    -24.493842   25.833225   47.915220
  C    -24.552590   24.326350   47.613327
  C    -24.137336   23.714679   48.981949
  C    -24.753642   24.691107   50.004757
  O    -25.047491   25.953884   49.263232
  H    -25.147224   26.407759   47.252450
  H    -25.594364   24.058499   47.398412
  O    -23.740764   23.876688   46.511190
  H    -24.505299   22.691871   49.098875
  H    -23.043862   23.688408   49.036997
  H    -24.085331   24.922754   50.840164
  H    -25.708115   24.337721   50.404369
  H    -23.206078   24.641089   46.193661

 Multiplicity           Mult            ....    1
 Number of Electrons    NEL             ....  102
 Basis Dimension        Dim             ....  149

ORBITAL ENERGIES
----------------

  NO   OCC          E(Eh)            E(eV)
   0   2.0000     -19.163747      -521.4721
   1   2.0000     -19.160647      -521.3877
   2   2.0000     -19.138434      -520.7833
   3   2.0000     -19.111502      -520.0504
   4   2.0000     -10.293514      -280.1008
   5   2.0000     -10.242849      -278.7221
   6   2.0000     -10.233624      -278.4711
   7   2.0000     -10.231656      -278.4175
   8   2.0000     -10.227426      -278.3024
   9   2.0000     -10.224281      -278.2168
  10   2.0000     -10.201258      -277.5903
  11   2.0000     -10.196417      -277.4586
  12   2.0000     -10.175563      -276.8911
  13   2.0000      -1.068394       -29.0725
  14   2.0000      -1.024420       -27.8759
  15   2.0000      -1.006745       -27.3949
  16   2.0000      -0.990838       -26.9621
  17   2.0000      -0.801037       -21.7973
  18   2.0000      -0.775491       -21.1022
  19   2.0000      -0.765940       -20.8423
  20   2.0000      -0.738307       -20.0903
  21   2.0000      -0.677214       -18.4279
  22   2.0000      -0.614373       -16.7179
  23   2.0000      -0.601501       -16.3677
  24   2.0000      -0.593340       -16.1456
  25   2.0000      -0.574673       -15.6376
  26   2.0000      -0.526992       -14.3402
  27   2.0000      -0.519767       -14.1436
  28   2.0000      -0.507824       -13.8186
  29   2.0000      -0.487317       -13.2606
  30   2.0000      -0.474763       -12.9190
  31   2.0000      -0.462823       -12.5941
  32   2.0000      -0.443316       -12.0632
  33   2.0000      -0.432151       -11.7594
  34   2.0000      -0.426213       -11.5978
  35   2.0000      -0.417137       -11.3509
  36   2.0000      -0.409109       -11.1324
  37   2.0000      -0.386981       -10.5303
  38   2.0000      -0.384742       -10.4694
  39   2.0000      -0.371566       -10.1108
  40   2.0000      -0.367628       -10.0037
  41   2.0000      -0.359053        -9.7703
  42   2.0000      -0.352582        -9.5942
  43   2.0000      -0.338385        -9.2079
  44   2.0000      -0.333508        -9.0752
  45   2.0000      -0.320499        -8.7212
  46   2.0000      -0.291338        -7.9277
  47   2.0000      -0.278845        -7.5878
  48   2.0000      -0.266138        -7.2420
  49   2.0000      -0.243877        -6.6362
  50   2.0000      -0.241429        -6.5696
  51   0.0000       0.058077         1.5804
  52   0.0000       0.071513         1.9460
  53   0.0000       0.088353         2.4042
  54   0.0000       0.098522         2.6809
  55   0.0000       0.101103         2.7511

MULLIKEN ATOMIC CHARGES
-----------------------
   0 C :    0.294336
   1 C :   -0.255391
   2 C :   -0.315800
   3 C :   -0.021040
   4 O :   -0.505693
   5 H :    0.168486
   6 H :    0.151570
   7 H :    0.163341
   8 H :    0.153642
   9 H :    0.159808
  10 H :    0.150453
  11 H :    0.158280
  12 C :   -0.022758
  13 H :    0.170133
  14 H :    0.148727
  15 O :   -0.564766
  16 C :    0.041910
  17 C :    0.124733
  18 C :   -0.308110
  19 C :   -0.018111
  20 O :   -0.522690
  21 H :    0.160536
  22 H :    0.142195
  23 O :   -0.642644
  24 H :    0.149634
  25 H :    0.159224
  26 H :    0.139979
  27 H :    0.147508
  28 H :    0.392509
Sum of atomic charges:   -0.0000000

LOEWDIN ATOMIC CHARGES
----------------------
   0 C :    0.179746
   1 C :   -0.220194
   2 C :   -0.220385
   3 C :   -0.032371
   4 O :   -0.311899
   5 H :    0.112130
   6 H :    0.117815
   7 H :    0.126877
   8 H :    0.120686
   9 H :    0.115792
  10 H :    0.105865
  11 H :    0.111279
  12 C :   -0.050587
  13 H :    0.113706
  14 H :    0.103951
  15 O :   -0.349598
  16 C :    0.017611
  17 C :    0.043092
  18 C :   -0.237201
  19 C :   -0.031864
  20 O :   -0.324933
  21 H :    0.114529
  22 H :    0.101885
  23 O :   -0.435144
  24 H :    0.120577
  25 H :    0.117464
  26 H :    0.100708
  27 H :    0.105442
  28 H :    0.285022

  Mayer bond orders larger than 0.100000
B(  0-C ,  1-C ) :   0.9303 B(  0-C ,  4-O ) :   0.9277 B(  0-C ,  5-H ) :   0.9300
B(  0-C , 15-O ) :   0.8092 B(  1-C ,  2-C ) :   0.9526 B(  1-C ,  6-H ) :   0.9343
B(  1-C ,  7-H ) :   0.9355 B(  2-C ,  3-C ) :   0.9517 B(  2-C ,  8-H ) :   0.9439
B(  2-C ,  9-H ) :   0.9430 B(  3-C ,  4-O ) :   0.8225 B(  3-C , 10-H ) :   0.9325
B(  3-C , 11-H ) :   0.9399 B( 12-C , 13-H ) :   0.9065 B( 12-C , 14-H ) :   0.9219
B( 12-C , 15-O ) :   0.7865 B( 12-C , 16-C ) :   0.9062 B( 16-C , 17-C ) :   0.9177
B( 16-C , 20-O ) :   0.8577 B( 16-C , 21-H ) :   0.9288 B( 17-C , 18-C ) :   0.9049
B( 17-C , 22-H ) :   0.9287 B( 17-C , 23-O ) :   0.9300 B( 18-C , 19-C ) :   0.9397
B( 18-C , 24-H ) :   0.9448 B( 18-C , 25-H ) :   0.9403 B( 19-C , 20-O ) :   0.8310
B( 19-C , 26-H ) :   0.9346 B( 19-C , 27-H ) :   0.9391 B( 23-O , 28-H ) :   0.7225

FINAL SINGLE POINT ENERGY      -652.862829216143

DIPOLE MOMENT
-------------
                                X             Y             Z
Electronic contribution:     -2.71456      -2.10151      -2.14730
Nuclear contribution   :      3.77504       3.17675       2.47785
                        -----------------------------------------
Total Dipole Moment    :      1.06048       1.07524       0.33056
                        -----------------------------------------
Magnitude (a.u.)       :      1.54597
Magnitude (Debye)      :      3.92954

Rotational constants in cm-1:     0.050382     0.015314     0.014155
Rotational constants in MHz :  1510.425477   459.108178   424.363586

                             ****ORCA TERMINATED NORMALLY****
TOTAL RUN TIME: 0 days 0 hours 33 minutes 37 seconds 197 msec
