                         Program Version 4.2.0 -  RELEASE  -
|  1> # Test redundant internal optimization
|  2> #
|  3> ! RKS B3LYP  Opt TightSCF SmallPrint
|  4>
|  5> %basis
|  6>         Basis "6-31G"
|  7> end
|  8>
|  9> %geom
| 10> Constraints
| 11> { D 4  0  15  12  45.0   C } # D for Dihedral angle
| 12> { D 0  15  12  16  90.0   C } # D for Dihedral angle
| 13> { D 0  4  3  2   C } # D for Dihedral angle
| 14> { D 4  3  2  1   C } # D for Dihedral angle
| 15> { D 3  2  1  0   C } # D for Dihedral angle
| 16> { D 2  1  0  4   C } # D for Dihedral angle
| 17> { D 1  0  4  3   C } # D for Dihedral angle
| 18> { D 16  20  19  18   C } # D for Dihedral angle
| 19> { D 20  19  18  17   C } # D for Dihedral angle
| 20> { D 19  18  17  16   C } # D for Dihedral angle
| 21> { D 18  17  16  20   C } # D for Dihedral angle
| 22> { D 17  16  20  19   C } # D for Dihedral angle
| 23> { D 15  12  16  20   C } # D for Dihedral angle
| 24> end
| 25> end
| 26>
| 27>
| 28> #%pal
| 29> #nprocs 8
| 30> #end
| 31>
| 32> * xyz 0 1
| 33> C  -21.048   26.222   46.251
| 34> C  -20.361   27.558   45.944
| 35> C  -20.329   28.222   47.341
| 36> C  -20.110   27.022   48.296
| 37> O  -20.473   25.807   47.535
| 38> H  -20.833   25.428   45.533
| 39> H  -19.344   27.382   45.576
| 40> H  -20.898   28.157   45.201
| 41> H  -19.543   28.978   47.434
| 42> H  -21.289   28.710   47.548
| 43> H  -20.733   27.082   49.195
| 44> H  -19.064   26.913   48.597
| 45> C  -23.065   27.161   47.638
| 46> H  -24.054   26.789   47.934
| 47> H  -22.372   26.997   48.473
| 48> O  -22.586   26.394   46.375
| 49> C  -23.170   28.694   47.405
| 50> C  -24.247   29.027   46.366
| 51> C  -25.541   28.910   47.207
| 52> C  -25.103   29.429   48.600
| 53> O  -23.626   29.368   48.626
| 54> H  -22.180   29.089   47.172
| 55> O  -24.058   30.479   45.849
| 56> H  -24.238   28.351   45.504
| 57> H  -26.372   29.487   46.789
| 58> H  -25.857   27.862   47.267
| 59> H  -25.501   28.821   49.418
| 60> H  -25.385   30.472   48.764
| 61> H  -24.064   31.176   46.696
| 62> *
| 63>
| 64>                          ****END OF INPUT****
 Total Charge           Charge          ....    0
 Multiplicity           Mult            ....    1
 Number of Electrons    NEL             ....  102
FINAL SINGLE POINT ENERGY      -652.783747927525
FINAL SINGLE POINT ENERGY      -652.830253573778
FINAL SINGLE POINT ENERGY      -652.851187291871
FINAL SINGLE POINT ENERGY      -652.855569348766
FINAL SINGLE POINT ENERGY      -652.856119851364
FINAL SINGLE POINT ENERGY      -652.856237203951
FINAL SINGLE POINT ENERGY      -652.856254682782
FINAL SINGLE POINT ENERGY      -652.856257838772
FINAL SINGLE POINT ENERGY      -652.856257064906
                    ***********************HURRAY********************

CARTESIAN COORDINATES (ANGSTROEM)
---------------------------------
  C    -21.165338   26.330685   46.431260
  C    -20.299313   27.490684   45.916823
  C    -19.878138   28.197987   47.240869
  C    -19.726444   27.005339   48.219113
  O    -20.459923   25.872201   47.603187
  H    -21.167762   25.489731   45.734531
  H    -19.424896   27.067460   45.412014
  H    -20.831656   28.143652   45.220784
  H    -18.941232   28.753395   47.132901
  H    -20.635961   28.902402   47.582211
  H    -20.142567   27.202884   49.211285
  H    -18.686287   26.683971   48.325905
  C    -23.190941   27.219864   47.745342
  H    -24.168630   26.746057   47.863994
  H    -22.615027   27.032911   48.659020
  O    -22.589401   26.538643   46.608438
  C    -23.353592   28.731130   47.547052
  C    -24.303087   29.125366   46.406020
  C    -25.689818   28.935977   47.073310
  C    -25.437874   29.360450   48.542377
  O    -23.967091   29.313325   48.747691
  H    -22.391325   29.224727   47.419143
  O    -24.076439   30.502248   45.993618
  H    -24.164345   28.521304   45.510219
  H    -26.443721   29.551280   46.576245
  H    -26.004590   27.889351   47.007541
  H    -25.918522   28.697139   49.267484
  H    -25.757081   30.387498   48.744409
  H    -24.012999   31.069340   46.791213

 Multiplicity           Mult            ....    1
 Number of Electrons    NEL             ....  102
 Basis Dimension        Dim             ....  149

ORBITAL ENERGIES
----------------

  NO   OCC          E(Eh)            E(eV)
   0   2.0000     -19.147908      -521.0411
   1   2.0000     -19.146583      -521.0050
   2   2.0000     -19.143925      -520.9327
   3   2.0000     -19.139238      -520.8051
   4   2.0000     -10.280044      -279.7342
   5   2.0000     -10.238783      -278.6115
   6   2.0000     -10.234401      -278.4922
   7   2.0000     -10.233869      -278.4777
   8   2.0000     -10.231283      -278.4074
   9   2.0000     -10.231264      -278.4068
  10   2.0000     -10.193183      -277.3706
  11   2.0000     -10.190106      -277.2869
  12   2.0000     -10.190073      -277.2860
  13   2.0000      -1.052871       -28.6501
  14   2.0000      -1.038458       -28.2579
  15   2.0000      -1.007608       -27.4184
  16   2.0000      -0.996649       -27.1202
  17   2.0000      -0.789234       -21.4761
  18   2.0000      -0.783466       -21.3192
  19   2.0000      -0.771726       -20.9997
  20   2.0000      -0.735807       -20.0223
  21   2.0000      -0.678727       -18.4691
  22   2.0000      -0.608032       -16.5454
  23   2.0000      -0.605670       -16.4811
  24   2.0000      -0.603260       -16.4155
  25   2.0000      -0.574002       -15.6194
  26   2.0000      -0.529060       -14.3965
  27   2.0000      -0.505431       -13.7535
  28   2.0000      -0.501597       -13.6492
  29   2.0000      -0.494719       -13.4620
  30   2.0000      -0.474611       -12.9148
  31   2.0000      -0.461850       -12.5676
  32   2.0000      -0.452666       -12.3177
  33   2.0000      -0.435882       -11.8610
  34   2.0000      -0.429760       -11.6944
  35   2.0000      -0.417140       -11.3509
  36   2.0000      -0.407916       -11.1000
  37   2.0000      -0.394882       -10.7453
  38   2.0000      -0.383001       -10.4220
  39   2.0000      -0.369888       -10.0652
  40   2.0000      -0.361272        -9.8307
  41   2.0000      -0.356875        -9.7111
  42   2.0000      -0.349459        -9.5093
  43   2.0000      -0.335495        -9.1293
  44   2.0000      -0.320325        -8.7165
  45   2.0000      -0.313869        -8.5408
  46   2.0000      -0.303616        -8.2618
  47   2.0000      -0.277890        -7.5618
  48   2.0000      -0.266682        -7.2568
  49   2.0000      -0.260612        -7.0916
  50   2.0000      -0.240202        -6.5362
  51   0.0000       0.061827         1.6824
  52   0.0000       0.069248         1.8843
  53   0.0000       0.083805         2.2804
  54   0.0000       0.097710         2.6588
  55   0.0000       0.099099         2.6966

MULLIKEN ATOMIC CHARGES
-----------------------
   0 C :    0.308912
   1 C :   -0.274162
   2 C :   -0.322552
   3 C :   -0.015904
   4 O :   -0.509392
   5 H :    0.165899
   6 H :    0.154537
   7 H :    0.158110
   8 H :    0.148652
   9 H :    0.157213
  10 H :    0.148769
  11 H :    0.150190
  12 C :   -0.020952
  13 H :    0.152327
  14 H :    0.157808
  15 O :   -0.531372
  16 C :    0.040625
  17 C :    0.088375
  18 C :   -0.303290
  19 C :   -0.030539
  20 O :   -0.525723
  21 H :    0.162585
  22 O :   -0.603313
  23 H :    0.172670
  24 H :    0.163229
  25 H :    0.150807
  26 H :    0.150442
  27 H :    0.144999
  28 H :    0.361047
Sum of atomic charges:   -0.0000000

LOEWDIN ATOMIC CHARGES
----------------------
   0 C :    0.179534
   1 C :   -0.228993
   2 C :   -0.225359
   3 C :   -0.033509
   4 O :   -0.317901
   5 H :    0.111981
   6 H :    0.121714
   7 H :    0.123358
   8 H :    0.117931
   9 H :    0.111106
  10 H :    0.103695
  11 H :    0.105539
  12 C :   -0.040099
  13 H :    0.112439
  14 H :    0.111359
  15 O :   -0.329901
  16 C :    0.000972
  17 C :    0.036083
  18 C :   -0.241808
  19 C :   -0.037990
  20 O :   -0.331937
  21 H :    0.109306
  22 O :   -0.415731
  23 H :    0.125635
  24 H :    0.127128
  25 H :    0.116725
  26 H :    0.105777
  27 H :    0.102204
  28 H :    0.280742

  Mayer bond orders larger than 0.100000
B(  0-C ,  1-C ) :   0.9135 B(  0-C ,  4-O ) :   0.9054 B(  0-C ,  5-H ) :   0.9361
B(  0-C , 15-O ) :   0.8809 B(  1-C ,  2-C ) :   0.9570 B(  1-C ,  6-H ) :   0.9328
B(  1-C ,  7-H ) :   0.9347 B(  2-C ,  3-C ) :   0.9478 B(  2-C ,  8-H ) :   0.9444
B(  2-C ,  9-H ) :   0.9235 B(  3-C ,  4-O ) :   0.8372 B(  3-C , 10-H ) :   0.9324
B(  3-C , 11-H ) :   0.9394 B( 12-C , 13-H ) :   0.9387 B( 12-C , 14-H ) :   0.9167
B( 12-C , 15-O ) :   0.8380 B( 12-C , 16-C ) :   0.8760 B( 16-C , 17-C ) :   0.9077
B( 16-C , 20-O ) :   0.8425 B( 16-C , 21-H ) :   0.9018 B( 17-C , 18-C ) :   0.9137
B( 17-C , 22-O ) :   0.8887 B( 17-C , 23-H ) :   0.9248 B( 18-C , 19-C ) :   0.9422
B( 18-C , 24-H ) :   0.9376 B( 18-C , 25-H ) :   0.9336 B( 19-C , 20-O ) :   0.8409
B( 19-C , 26-H ) :   0.9349 B( 19-C , 27-H ) :   0.9385 B( 22-O , 28-H ) :   0.7974

FINAL SINGLE POINT ENERGY      -652.856255450932

DIPOLE MOMENT
-------------
                                X             Y             Z
Electronic contribution:     -0.76797      -1.72083      -0.33189
Nuclear contribution   :      0.78702       2.21484       0.57602
                        -----------------------------------------
Total Dipole Moment    :      0.01905       0.49401       0.24413
                        -----------------------------------------
Magnitude (a.u.)       :      0.55137
Magnitude (Debye)      :      1.40148

Rotational constants in cm-1:     0.050729     0.014719     0.014274
Rotational constants in MHz :  1520.817590   441.255378   427.930671

                             ****ORCA TERMINATED NORMALLY****
TOTAL RUN TIME: 0 days 1 hours 11 minutes 45 seconds 283 msec
