                         Program Version 4.2.0 -  RELEASE  -
|  1> # Test redundant internal optimization
|  2> #
|  3> ! RKS B3LYP  Opt TightSCF SmallPrint
|  4>
|  5> %basis
|  6>         Basis "6-31G"
|  7> end
|  8>
|  9> %geom
| 10> Constraints
| 11> { D 4  0  15  12  180.0   C } # D for Dihedral angle
| 12> { D 0  15  12  16  315.0   C } # D for Dihedral angle
| 13> { D 0  4  3  2   C } # D for Dihedral angle
| 14> { D 4  3  2  1   C } # D for Dihedral angle
| 15> { D 3  2  1  0   C } # D for Dihedral angle
| 16> { D 2  1  0  4   C } # D for Dihedral angle
| 17> { D 1  0  4  3   C } # D for Dihedral angle
| 18> { D 16  20  19  18   C } # D for Dihedral angle
| 19> { D 20  19  18  17   C } # D for Dihedral angle
| 20> { D 19  18  17  16   C } # D for Dihedral angle
| 21> { D 18  17  16  20   C } # D for Dihedral angle
| 22> { D 17  16  20  19   C } # D for Dihedral angle
| 23> { D 15  12  16  20   C } # D for Dihedral angle
| 24> end
| 25> end
| 26>
| 27>
| 28> #%pal
| 29> #nprocs 8
| 30> #end
| 31>
| 32> * xyz 0 1
| 33> C  -21.048   26.222   46.251
| 34> C  -20.361   27.558   45.944
| 35> C  -20.329   28.222   47.341
| 36> C  -20.110   27.022   48.296
| 37> O  -20.473   25.807   47.535
| 38> H  -20.833   25.428   45.533
| 39> H  -19.344   27.382   45.576
| 40> H  -20.898   28.157   45.201
| 41> H  -19.543   28.978   47.434
| 42> H  -21.289   28.710   47.548
| 43> H  -20.733   27.082   49.195
| 44> H  -19.064   26.913   48.597
| 45> C  -23.309   26.834   45.072
| 46> H  -23.378   25.977   44.390
| 47> H  -24.327   27.178   45.295
| 48> O  -22.586   26.394   46.375
| 49> C  -22.571   27.986   44.336
| 50> C  -23.369   28.472   43.121
| 51> C  -24.437   29.373   43.787
| 52> C  -23.669   30.009   44.973
| 53> O  -22.474   29.167   45.200
| 54> H  -21.550   27.671   44.109
| 55> H  -22.726   29.060   42.458
| 56> O  -23.991   27.311   42.297
| 57> H  -24.845   30.124   43.103
| 58> H  -25.271   28.762   44.151
| 59> H  -24.266   30.039   45.891
| 60> H  -23.314   31.019   44.747
| 61> H  -24.641   26.708   42.940
| 62> *
| 63>
| 64>                          ****END OF INPUT****
 Total Charge           Charge          ....    0
 Multiplicity           Mult            ....    1
 Number of Electrons    NEL             ....  102
FINAL SINGLE POINT ENERGY      -652.792599315976
FINAL SINGLE POINT ENERGY      -652.824318183143
FINAL SINGLE POINT ENERGY      -652.843359542969
FINAL SINGLE POINT ENERGY      -652.846933085579
FINAL SINGLE POINT ENERGY      -652.847538090506
FINAL SINGLE POINT ENERGY      -652.847660550172
FINAL SINGLE POINT ENERGY      -652.847667997025
FINAL SINGLE POINT ENERGY      -652.847668389477
                    ***********************HURRAY********************

CARTESIAN COORDINATES (ANGSTROEM)
---------------------------------
  C    -20.895684   26.229993   46.208275
  C    -20.059279   27.500535   46.049467
  C    -20.227094   28.177071   47.437814
  C    -20.284915   26.966594   48.390956
  O    -20.603945   25.794475   47.542158
  H    -20.637530   25.413683   45.524910
  H    -19.016253   27.196780   45.891752
  H    -20.351131   28.168236   45.243635
  H    -19.404031   28.858622   47.671952
  H    -21.164777   28.738264   47.445635
  H    -21.057032   27.057229   49.159743
  H    -19.322697   26.753810   48.867518
  C    -23.118427   26.890476   45.060359
  H    -23.265484   26.038641   44.374729
  H    -24.086714   27.138580   45.507386
  O    -22.344897   26.440821   46.205404
  C    -22.617403   28.054492   44.204427
  C    -23.602000   28.427714   43.080002
  C    -24.620971   29.342126   43.833841
  C    -23.719876   30.079330   44.850307
  O    -22.463572   29.294057   44.960118
  H    -21.637855   27.817971   43.784535
  H    -23.069875   29.005638   42.321159
  O    -24.182327   27.323215   42.351276
  H    -25.142425   30.022308   43.155566
  H    -25.372528   28.721489   44.337262
  H    -24.172603   30.160352   45.842754
  H    -23.440545   31.079293   44.506267
  H    -24.867133   26.873209   42.886794

 Multiplicity           Mult            ....    1
 Number of Electrons    NEL             ....  102
 Basis Dimension        Dim             ....  149

ORBITAL ENERGIES
----------------

  NO   OCC          E(Eh)            E(eV)
   0   2.0000     -19.156959      -521.2874
   1   2.0000     -19.149464      -521.0834
   2   2.0000     -19.130961      -520.5799
   3   2.0000     -19.130509      -520.5676
   4   2.0000     -10.273381      -279.5529
   5   2.0000     -10.253628      -279.0154
   6   2.0000     -10.239606      -278.6338
   7   2.0000     -10.239357      -278.6271
   8   2.0000     -10.232515      -278.4409
   9   2.0000     -10.214687      -277.9558
  10   2.0000     -10.202974      -277.6370
  11   2.0000     -10.174151      -276.8527
  12   2.0000     -10.172815      -276.8164
  13   2.0000      -1.045856       -28.4592
  14   2.0000      -1.040035       -28.3008
  15   2.0000      -1.025251       -27.8985
  16   2.0000      -0.981506       -26.7081
  17   2.0000      -0.790837       -21.5198
  18   2.0000      -0.773587       -21.0504
  19   2.0000      -0.772577       -21.0229
  20   2.0000      -0.731026       -19.8922
  21   2.0000      -0.682591       -18.5743
  22   2.0000      -0.620298       -16.8792
  23   2.0000      -0.602301       -16.3894
  24   2.0000      -0.589020       -16.0280
  25   2.0000      -0.568242       -15.4627
  26   2.0000      -0.531404       -14.4603
  27   2.0000      -0.515096       -14.0165
  28   2.0000      -0.491743       -13.3810
  29   2.0000      -0.487544       -13.2667
  30   2.0000      -0.466310       -12.6889
  31   2.0000      -0.452571       -12.3151
  32   2.0000      -0.447947       -12.1892
  33   2.0000      -0.437342       -11.9007
  34   2.0000      -0.434773       -11.8308
  35   2.0000      -0.419741       -11.4217
  36   2.0000      -0.410501       -11.1703
  37   2.0000      -0.401723       -10.9314
  38   2.0000      -0.384284       -10.4569
  39   2.0000      -0.367190        -9.9918
  40   2.0000      -0.362068        -9.8524
  41   2.0000      -0.344342        -9.3700
  42   2.0000      -0.340346        -9.2613
  43   2.0000      -0.336408        -9.1541
  44   2.0000      -0.324254        -8.8234
  45   2.0000      -0.303675        -8.2634
  46   2.0000      -0.288920        -7.8619
  47   2.0000      -0.279801        -7.6138
  48   2.0000      -0.260667        -7.0931
  49   2.0000      -0.248763        -6.7692
  50   2.0000      -0.237767        -6.4700
  51   0.0000       0.046923         1.2768
  52   0.0000       0.070559         1.9200
  53   0.0000       0.080317         2.1855
  54   0.0000       0.094123         2.5612
  55   0.0000       0.103555         2.8179

MULLIKEN ATOMIC CHARGES
-----------------------
   0 C :    0.299213
   1 C :   -0.279533
   2 C :   -0.299374
   3 C :   -0.000199
   4 O :   -0.500033
   5 H :    0.136066
   6 H :    0.137375
   7 H :    0.170693
   8 H :    0.134735
   9 H :    0.172844
  10 H :    0.149211
  11 H :    0.137242
  12 C :    0.000896
  13 H :    0.127383
  14 H :    0.142591
  15 O :   -0.517757
  16 C :    0.068561
  17 C :    0.084205
  18 C :   -0.320294
  19 C :   -0.009949
  20 O :   -0.519800
  21 H :    0.152285
  22 H :    0.168680
  23 O :   -0.596833
  24 H :    0.160834
  25 H :    0.136784
  26 H :    0.151796
  27 H :    0.152761
  28 H :    0.359616
Sum of atomic charges:   -0.0000000

LOEWDIN ATOMIC CHARGES
----------------------
   0 C :    0.186715
   1 C :   -0.233973
   2 C :   -0.215926
   3 C :   -0.026831
   4 O :   -0.302952
   5 H :    0.094344
   6 H :    0.111324
   7 H :    0.126611
   8 H :    0.111548
   9 H :    0.123669
  10 H :    0.106604
  11 H :    0.099678
  12 C :   -0.048561
  13 H :    0.094572
  14 H :    0.108346
  15 O :   -0.333862
  16 C :    0.000738
  17 C :    0.037982
  18 C :   -0.239973
  19 C :   -0.027954
  20 O :   -0.323852
  21 H :    0.110702
  22 H :    0.119399
  23 O :   -0.403872
  24 H :    0.124284
  25 H :    0.106294
  26 H :    0.106789
  27 H :    0.107858
  28 H :    0.280301

  Mayer bond orders larger than 0.100000
B(  0-C ,  1-C ) :   0.9300 B(  0-C ,  4-O ) :   0.9385 B(  0-C ,  5-H ) :   0.9212
B(  0-C , 15-O ) :   0.8294 B(  1-C ,  2-C ) :   0.9520 B(  1-C ,  6-H ) :   0.9323
B(  1-C ,  7-H ) :   0.9139 B(  2-C ,  3-C ) :   0.9548 B(  2-C ,  8-H ) :   0.9454
B(  2-C ,  9-H ) :   0.9360 B(  3-C ,  4-O ) :   0.8318 B(  3-C , 10-H ) :   0.9360
B(  3-C , 11-H ) :   0.9399 B( 12-C , 13-H ) :   0.9006 B( 12-C , 14-H ) :   0.9370
B( 12-C , 15-O ) :   0.8770 B( 12-C , 16-C ) :   0.8850 B( 16-C , 17-C ) :   0.8667
B( 16-C , 20-O ) :   0.8437 B( 16-C , 21-H ) :   0.9251 B( 17-C , 18-C ) :   0.9231
B( 17-C , 22-H ) :   0.9331 B( 17-C , 23-O ) :   0.9053 B( 18-C , 19-C ) :   0.9400
B( 18-C , 24-H ) :   0.9414 B( 18-C , 25-H ) :   0.9404 B( 19-C , 20-O ) :   0.8365
B( 19-C , 26-H ) :   0.9313 B( 19-C , 27-H ) :   0.9375 B( 23-O , 28-H ) :   0.7954

FINAL SINGLE POINT ENERGY      -652.847668292412

DIPOLE MOMENT
-------------
                                X             Y             Z
Electronic contribution:     -0.28210      -4.02904      -0.75014
Nuclear contribution   :     -0.31635       5.19940       0.29364
                        -----------------------------------------
Total Dipole Moment    :     -0.59846       1.17036      -0.45651
                        -----------------------------------------
Magnitude (a.u.)       :      1.39151
Magnitude (Debye)      :      3.53693

Rotational constants in cm-1:     0.054890     0.014639     0.012965
Rotational constants in MHz :  1645.546661   438.866509   388.680520

                             ****ORCA TERMINATED NORMALLY****
TOTAL RUN TIME: 0 days 1 hours 16 minutes 24 seconds 487 msec
