                         Program Version 4.2.0 -  RELEASE  -
|  1> # Test redundant internal optimization
|  2> #
|  3> ! RKS B3LYP  Opt TightSCF SmallPrint
|  4>
|  5> %basis
|  6>         Basis "6-31G"
|  7> end
|  8>
|  9> %geom
| 10> Constraints
| 11> { D 4  0  15  12  315.0   C } # D for Dihedral angle
| 12> { D 0  15  12  16  15.0   C } # D for Dihedral angle
| 13> { D 0  4  3  2   C } # D for Dihedral angle
| 14> { D 4  3  2  1   C } # D for Dihedral angle
| 15> { D 3  2  1  0   C } # D for Dihedral angle
| 16> { D 2  1  0  4   C } # D for Dihedral angle
| 17> { D 1  0  4  3   C } # D for Dihedral angle
| 18> { D 16  20  19  18   C } # D for Dihedral angle
| 19> { D 20  19  18  17   C } # D for Dihedral angle
| 20> { D 19  18  17  16   C } # D for Dihedral angle
| 21> { D 18  17  16  20   C } # D for Dihedral angle
| 22> { D 17  16  20  19   C } # D for Dihedral angle
| 23> { D 15  12  16  20   C } # D for Dihedral angle
| 24> end
| 25> end
| 26>
| 27>
| 28> #%pal
| 29> #nprocs 8
| 30> #end
| 31>
| 32> * xyz 0 1
| 33> C  -21.048   26.222   46.251
| 34> C  -20.361   27.558   45.944
| 35> C  -20.329   28.222   47.341
| 36> C  -20.110   27.022   48.296
| 37> O  -20.473   25.807   47.535
| 38> H  -20.833   25.428   45.533
| 39> H  -19.344   27.382   45.576
| 40> H  -20.898   28.157   45.201
| 41> H  -19.543   28.978   47.434
| 42> H  -21.289   28.710   47.548
| 43> H  -20.733   27.082   49.195
| 44> H  -19.064   26.913   48.597
| 45> C  -23.319   25.255   47.135
| 46> H  -24.044   25.693   47.832
| 47> H  -23.864   24.613   46.431
| 48> O  -22.586   26.394   46.375
| 49> C  -22.348   24.351   47.944
| 50> C  -23.088   23.172   48.585
| 51> C  -23.236   22.205   47.387
| 52> C  -21.926   22.429   46.591
| 53> O  -21.371   23.720   47.051
| 54> H  -21.786   24.969   48.648
| 55> H  -22.472   22.722   49.372
| 56> O  -24.454   23.575   49.206
| 57> H  -23.363   21.162   47.696
| 58> H  -24.107   22.484   46.783
| 59> H  -22.095   22.476   45.509
| 60> H  -21.174   21.662   46.799
| 61> H  -25.090   24.027   48.437
| 62> *
| 63>
| 64>                          ****END OF INPUT****
 Total Charge           Charge          ....    0
 Multiplicity           Mult            ....    1
 Number of Electrons    NEL             ....  102
FINAL SINGLE POINT ENERGY      -652.807246743967
FINAL SINGLE POINT ENERGY      -652.831490917476
FINAL SINGLE POINT ENERGY      -652.848008294879
FINAL SINGLE POINT ENERGY      -652.850337423922
FINAL SINGLE POINT ENERGY      -652.850830070506
FINAL SINGLE POINT ENERGY      -652.850924535140
FINAL SINGLE POINT ENERGY      -652.850937869437
FINAL SINGLE POINT ENERGY      -652.850942668429
                    ***********************HURRAY********************

CARTESIAN COORDINATES (ANGSTROEM)
---------------------------------
  C    -20.889803   26.295108   46.232422
  C    -20.490006   27.744487   45.954424
  C    -20.416560   28.330190   47.382803
  C    -19.883853   27.149678   48.222467
  O    -20.119174   25.928928   47.402172
  H    -20.614773   25.562669   45.470266
  H    -19.507600   27.755970   45.468408
  H    -21.212573   28.255845   45.315248
  H    -19.769042   29.210286   47.445306
  H    -21.420019   28.615716   47.711058
  H    -20.398398   27.038284   49.181575
  H    -18.805500   27.202271   48.399416
  C    -23.077515   25.243047   47.105735
  H    -23.792978   25.776070   47.742989
  H    -23.646708   24.715282   46.325033
  O    -22.325159   26.290517   46.426038
  C    -22.343837   24.216322   47.971186
  C    -23.282031   23.143464   48.556117
  C    -23.415064   22.148212   47.361402
  C    -22.012948   22.203640   46.716409
  O    -21.361279   23.446269   47.206918
  H    -21.774232   24.725928   48.747493
  H    -22.785786   22.660702   49.400392
  O    -24.535195   23.627753   49.096592
  H    -23.693116   21.143737   47.691449
  H    -24.191849   22.503083   46.671281
  H    -22.048378   22.225692   45.622139
  H    -21.380914   21.367539   47.030293
  H    -25.153713   23.863310   48.374969

 Multiplicity           Mult            ....    1
 Number of Electrons    NEL             ....  102
 Basis Dimension        Dim             ....  149

ORBITAL ENERGIES
----------------

  NO   OCC          E(Eh)            E(eV)
   0   2.0000     -19.149075      -521.0728
   1   2.0000     -19.133828      -520.6579
   2   2.0000     -19.132546      -520.6230
   3   2.0000     -19.132471      -520.6210
   4   2.0000     -10.269130      -279.4372
   5   2.0000     -10.243808      -278.7482
   6   2.0000     -10.228114      -278.3211
   7   2.0000     -10.227648      -278.3085
   8   2.0000     -10.225619      -278.2532
   9   2.0000     -10.219253      -278.0800
  10   2.0000     -10.193725      -277.3854
  11   2.0000     -10.179217      -276.9906
  12   2.0000     -10.177449      -276.9425
  13   2.0000      -1.042415       -28.3656
  14   2.0000      -1.030677       -28.0462
  15   2.0000      -1.011239       -27.5172
  16   2.0000      -0.982747       -26.7419
  17   2.0000      -0.784035       -21.3347
  18   2.0000      -0.779436       -21.2095
  19   2.0000      -0.761212       -20.7136
  20   2.0000      -0.727608       -19.7992
  21   2.0000      -0.676133       -18.3985
  22   2.0000      -0.609694       -16.5906
  23   2.0000      -0.596735       -16.2380
  24   2.0000      -0.590950       -16.0806
  25   2.0000      -0.561626       -15.2826
  26   2.0000      -0.522248       -14.2111
  27   2.0000      -0.508134       -13.8270
  28   2.0000      -0.494948       -13.4682
  29   2.0000      -0.477891       -13.0041
  30   2.0000      -0.459923       -12.5151
  31   2.0000      -0.455563       -12.3965
  32   2.0000      -0.442538       -12.0421
  33   2.0000      -0.426811       -11.6141
  34   2.0000      -0.423898       -11.5349
  35   2.0000      -0.409566       -11.1449
  36   2.0000      -0.405680       -11.0391
  37   2.0000      -0.392486       -10.6801
  38   2.0000      -0.379386       -10.3236
  39   2.0000      -0.363255        -9.8847
  40   2.0000      -0.354700        -9.6519
  41   2.0000      -0.350949        -9.5498
  42   2.0000      -0.339591        -9.2407
  43   2.0000      -0.330346        -8.9892
  44   2.0000      -0.320588        -8.7236
  45   2.0000      -0.310356        -8.4452
  46   2.0000      -0.286902        -7.8070
  47   2.0000      -0.269631        -7.3370
  48   2.0000      -0.255436        -6.9508
  49   2.0000      -0.244881        -6.6636
  50   2.0000      -0.233542        -6.3550
  51   0.0000       0.051878         1.4117
  52   0.0000       0.078476         2.1354
  53   0.0000       0.089618         2.4386
  54   0.0000       0.095980         2.6117
  55   0.0000       0.109010         2.9663

MULLIKEN ATOMIC CHARGES
-----------------------
   0 C :    0.314779
   1 C :   -0.261169
   2 C :   -0.297144
   3 C :   -0.016333
   4 O :   -0.495142
   5 H :    0.152304
   6 H :    0.143357
   7 H :    0.156355
   8 H :    0.138105
   9 H :    0.157020
  10 H :    0.138380
  11 H :    0.146142
  12 C :    0.016387
  13 H :    0.142710
  14 H :    0.117498
  15 O :   -0.555083
  16 C :    0.078468
  17 C :    0.080620
  18 C :   -0.319949
  19 C :   -0.019611
  20 O :   -0.498906
  21 H :    0.171900
  22 H :    0.168225
  23 O :   -0.599509
  24 H :    0.154268
  25 H :    0.133408
  26 H :    0.144395
  27 H :    0.151370
  28 H :    0.357155
Sum of atomic charges:    0.0000000

LOEWDIN ATOMIC CHARGES
----------------------
   0 C :    0.185407
   1 C :   -0.215582
   2 C :   -0.216997
   3 C :   -0.034751
   4 O :   -0.310762
   5 H :    0.101413
   6 H :    0.112946
   7 H :    0.123920
   8 H :    0.112201
   9 H :    0.116579
  10 H :    0.099428
  11 H :    0.104047
  12 C :   -0.040078
  13 H :    0.108591
  14 H :    0.088359
  15 O :   -0.340478
  16 C :    0.008243
  17 C :    0.036536
  18 C :   -0.241845
  19 C :   -0.035048
  20 O :   -0.310215
  21 H :    0.122967
  22 H :    0.119781
  23 O :   -0.407182
  24 H :    0.121105
  25 H :    0.103645
  26 H :    0.102251
  27 H :    0.106719
  28 H :    0.278799

  Mayer bond orders larger than 0.100000
B(  0-C ,  1-C ) :   0.9417 B(  0-C ,  4-O ) :   0.8996 B(  0-C ,  5-H ) :   0.9232
B(  0-C , 15-O ) :   0.8388 B(  1-C ,  2-C ) :   0.9559 B(  1-C ,  6-H ) :   0.9396
B(  1-C ,  7-H ) :   0.9365 B(  2-C ,  3-C ) :   0.9542 B(  2-C ,  8-H ) :   0.9454
B(  2-C ,  9-H ) :   0.9450 B(  3-C ,  4-O ) :   0.8442 B(  3-C , 10-H ) :   0.9339
B(  3-C , 11-H ) :   0.9400 B( 12-C , 13-H ) :   0.9160 B( 12-C , 14-H ) :   0.9268
B( 12-C , 15-O ) :   0.8480 B( 12-C , 16-C ) :   0.9045 B( 16-C , 17-C ) :   0.8646
B( 16-C , 20-O ) :   0.8479 B( 16-C , 21-H ) :   0.9213 B( 17-C , 18-C ) :   0.9226
B( 17-C , 22-H ) :   0.9339 B( 17-C , 23-O ) :   0.8988 B( 18-C , 19-C ) :   0.9380
B( 18-C , 24-H ) :   0.9426 B( 18-C , 25-H ) :   0.9389 B( 19-C , 20-O ) :   0.8540
B( 19-C , 26-H ) :   0.9311 B( 19-C , 27-H ) :   0.9370 B( 23-O , 28-H ) :   0.7979

FINAL SINGLE POINT ENERGY      -652.850943234031

DIPOLE MOMENT
-------------
                                X             Y             Z
Electronic contribution:     -0.26563      -1.75489       0.73901
Nuclear contribution   :     -0.12571       1.72558      -1.16403
                        -----------------------------------------
Total Dipole Moment    :     -0.39134      -0.02931      -0.42501
                        -----------------------------------------
Magnitude (a.u.)       :      0.57848
Magnitude (Debye)      :      1.47038

Rotational constants in cm-1:     0.054428     0.014837     0.013978
Rotational constants in MHz :  1631.723216   444.791644   419.041398

                             ****ORCA TERMINATED NORMALLY****
TOTAL RUN TIME: 0 days 1 hours 0 minutes 53 seconds 5 msec
