                         Program Version 4.2.0 -  RELEASE  -
|  1> # Test redundant internal optimization
|  2> #
|  3> ! RKS B3LYP  Opt TightSCF SmallPrint
|  4>
|  5> %basis
|  6>         Basis "6-31G"
|  7> end
|  8>
|  9> %geom
| 10> Constraints
| 11> { D 4  0  15  12  330.0   C } # D for Dihedral angle
| 12> { D 0  15  12  16  75.0   C } # D for Dihedral angle
| 13> { D 0  4  3  2   C } # D for Dihedral angle
| 14> { D 4  3  2  1   C } # D for Dihedral angle
| 15> { D 3  2  1  0   C } # D for Dihedral angle
| 16> { D 2  1  0  4   C } # D for Dihedral angle
| 17> { D 1  0  4  3   C } # D for Dihedral angle
| 18> { D 16  20  19  18   C } # D for Dihedral angle
| 19> { D 20  19  18  17   C } # D for Dihedral angle
| 20> { D 19  18  17  16   C } # D for Dihedral angle
| 21> { D 18  17  16  20   C } # D for Dihedral angle
| 22> { D 17  16  20  19   C } # D for Dihedral angle
| 23> { D 15  12  16  20   C } # D for Dihedral angle
| 24> end
| 25> end
| 26>
| 27>
| 28> #%pal
| 29> #nprocs 8
| 30> #end
| 31>
| 32> * xyz 0 1
| 33> C  -21.048   26.222   46.251
| 34> C  -20.361   27.558   45.944
| 35> C  -20.329   28.222   47.341
| 36> C  -20.110   27.022   48.296
| 37> O  -20.473   25.807   47.535
| 38> H  -20.833   25.428   45.533
| 39> H  -19.344   27.382   45.576
| 40> H  -20.898   28.157   45.201
| 41> H  -19.543   28.978   47.434
| 42> H  -21.289   28.710   47.548
| 43> H  -20.733   27.082   49.195
| 44> H  -19.064   26.913   48.597
| 45> C  -23.271   25.476   47.424
| 46> H  -24.353   25.467   47.246
| 47> H  -22.900   24.446   47.333
| 48> O  -22.586   26.394   46.375
| 49> C  -23.020   25.941   48.885
| 50> C  -23.610   24.951   49.894
| 51> C  -22.539   23.835   49.903
| 52> C  -21.215   24.618   49.717
| 53> O  -21.583   25.946   49.182
| 54> H  -23.374   26.968   48.999
| 55> H  -23.688   25.420   50.882
| 56> O  -25.017   24.432   49.488
| 57> H  -22.548   23.244   50.824
| 58> H  -22.703   23.149   49.063
| 59> H  -20.531   24.126   49.016
| 60> H  -20.692   24.785   50.663
| 61> H  -24.965   23.956   48.502
| 62> *
| 63>
| 64>                          ****END OF INPUT****
 Total Charge           Charge          ....    0
 Multiplicity           Mult            ....    1
 Number of Electrons    NEL             ....  102
FINAL SINGLE POINT ENERGY      -652.719013638120
FINAL SINGLE POINT ENERGY      -652.818950541768
FINAL SINGLE POINT ENERGY      -652.843666899595
FINAL SINGLE POINT ENERGY      -652.850469745442
FINAL SINGLE POINT ENERGY      -652.851489774797
FINAL SINGLE POINT ENERGY      -652.851720084892
FINAL SINGLE POINT ENERGY      -652.851754822764
FINAL SINGLE POINT ENERGY      -652.851760989875
FINAL SINGLE POINT ENERGY      -652.851761928211
                    ***********************HURRAY********************

CARTESIAN COORDINATES (ANGSTROEM)
---------------------------------
  C    -20.967662   26.300747   46.247094
  C    -20.538428   27.704602   45.827860
  C    -20.233717   28.363705   47.191989
  C    -19.648025   27.203119   48.024029
  O    -20.068297   25.956597   47.309454
  H    -20.810752   25.529020   45.484008
  H    -19.632090   27.630035   45.215370
  H    -21.314406   28.221161   45.259436
  H    -19.541285   29.207150   47.106846
  H    -21.164132   28.726224   47.640147
  H    -20.036077   27.149765   49.038016
  H    -18.552942   27.193238   48.024005
  C    -23.105476   25.522710   47.482955
  H    -24.156903   25.650859   47.208270
  H    -22.836352   24.463758   47.318532
  O    -22.403378   26.335118   46.512079
  C    -23.003355   25.837101   48.987996
  C    -23.803372   24.812621   49.810066
  C    -22.761799   23.663097   50.004530
  C    -21.433329   24.441733   50.135001
  O    -21.682281   25.798629   49.582951
  H    -23.364967   26.858672   49.148870
  H    -24.059329   25.250392   50.777419
  O    -25.074769   24.403353   49.251903
  H    -22.986958   23.051051   50.881673
  H    -22.758486   23.009322   49.122797
  H    -20.611976   23.991245   49.572268
  H    -21.130630   24.572918   51.177774
  H    -24.938829   23.787056   48.503663

 Multiplicity           Mult            ....    1
 Number of Electrons    NEL             ....  102
 Basis Dimension        Dim             ....  149

ORBITAL ENERGIES
----------------

  NO   OCC          E(Eh)            E(eV)
   0   2.0000     -19.150623      -521.1149
   1   2.0000     -19.139911      -520.8235
   2   2.0000     -19.134026      -520.6633
   3   2.0000     -19.133088      -520.6378
   4   2.0000     -10.270159      -279.4652
   5   2.0000     -10.245982      -278.8073
   6   2.0000     -10.231399      -278.4105
   7   2.0000     -10.230227      -278.3786
   8   2.0000     -10.229180      -278.3501
   9   2.0000     -10.207942      -277.7722
  10   2.0000     -10.195760      -277.4407
  11   2.0000     -10.175529      -276.8902
  12   2.0000     -10.175059      -276.8774
  13   2.0000      -1.041398       -28.3379
  14   2.0000      -1.033381       -28.1197
  15   2.0000      -1.017727       -27.6938
  16   2.0000      -0.985420       -26.8146
  17   2.0000      -0.784351       -21.3433
  18   2.0000      -0.778260       -21.1775
  19   2.0000      -0.763839       -20.7851
  20   2.0000      -0.726540       -19.7702
  21   2.0000      -0.676195       -18.4002
  22   2.0000      -0.612590       -16.6694
  23   2.0000      -0.593223       -16.1424
  24   2.0000      -0.587702       -15.9922
  25   2.0000      -0.563962       -15.3462
  26   2.0000      -0.525066       -14.2878
  27   2.0000      -0.512399       -13.9431
  28   2.0000      -0.491029       -13.3616
  29   2.0000      -0.479199       -13.0397
  30   2.0000      -0.464994       -12.6531
  31   2.0000      -0.451384       -12.2828
  32   2.0000      -0.442325       -12.0363
  33   2.0000      -0.429632       -11.6909
  34   2.0000      -0.423033       -11.5113
  35   2.0000      -0.414864       -11.2890
  36   2.0000      -0.399913       -10.8822
  37   2.0000      -0.394124       -10.7247
  38   2.0000      -0.380880       -10.3643
  39   2.0000      -0.365215        -9.9380
  40   2.0000      -0.350054        -9.5255
  41   2.0000      -0.347802        -9.4642
  42   2.0000      -0.337378        -9.1805
  43   2.0000      -0.329190        -8.9577
  44   2.0000      -0.319684        -8.6990
  45   2.0000      -0.313211        -8.5229
  46   2.0000      -0.291658        -7.9364
  47   2.0000      -0.274506        -7.4697
  48   2.0000      -0.262113        -7.1325
  49   2.0000      -0.246602        -6.7104
  50   2.0000      -0.228721        -6.2238
  51   0.0000       0.052712         1.4344
  52   0.0000       0.077186         2.1003
  53   0.0000       0.089721         2.4414
  54   0.0000       0.100771         2.7421
  55   0.0000       0.109831         2.9887

MULLIKEN ATOMIC CHARGES
-----------------------
   0 C :    0.316447
   1 C :   -0.263478
   2 C :   -0.307773
   3 C :   -0.017164
   4 O :   -0.512582
   5 H :    0.139931
   6 H :    0.141269
   7 H :    0.155641
   8 H :    0.137575
   9 H :    0.154891
  10 H :    0.183554
  11 H :    0.134852
  12 C :    0.003391
  13 H :    0.159560
  14 H :    0.105580
  15 O :   -0.549423
  16 C :    0.100624
  17 C :    0.076824
  18 C :   -0.322283
  19 C :   -0.006741
  20 O :   -0.512799
  21 H :    0.151702
  22 H :    0.167227
  23 O :   -0.598288
  24 H :    0.157886
  25 H :    0.138212
  26 H :    0.162480
  27 H :    0.145315
  28 H :    0.357573
Sum of atomic charges:   -0.0000000

LOEWDIN ATOMIC CHARGES
----------------------
   0 C :    0.181608
   1 C :   -0.216442
   2 C :   -0.217837
   3 C :   -0.038188
   4 O :   -0.318182
   5 H :    0.092677
   6 H :    0.111528
   7 H :    0.123107
   8 H :    0.112329
   9 H :    0.114469
  10 H :    0.123014
  11 H :    0.097878
  12 C :   -0.043933
  13 H :    0.120162
  14 H :    0.081167
  15 O :   -0.341604
  16 C :    0.010085
  17 C :    0.034584
  18 C :   -0.240735
  19 C :   -0.027740
  20 O :   -0.307289
  21 H :    0.111532
  22 H :    0.118883
  23 O :   -0.405924
  24 H :    0.122709
  25 H :    0.106087
  26 H :    0.112956
  27 H :    0.104288
  28 H :    0.278813

  Mayer bond orders larger than 0.100000
B(  0-C ,  1-C ) :   0.9394 B(  0-C ,  4-O ) :   0.9377 B(  0-C ,  5-H ) :   0.9290
B(  0-C , 15-O ) :   0.8268 B(  1-C ,  2-C ) :   0.9598 B(  1-C ,  6-H ) :   0.9389
B(  1-C ,  7-H ) :   0.9371 B(  2-C ,  3-C ) :   0.9621 B(  2-C ,  8-H ) :   0.9452
B(  2-C ,  9-H ) :   0.9443 B(  3-C ,  4-O ) :   0.8157 B(  3-C , 10-H ) :   0.9091
B(  3-C , 11-H ) :   0.9410 B( 12-C , 13-H ) :   0.9191 B( 12-C , 14-H ) :   0.9218
B( 12-C , 15-O ) :   0.8583 B( 12-C , 16-C ) :   0.8810 B( 16-C , 17-C ) :   0.8645
B( 16-C , 20-O ) :   0.8629 B( 16-C , 21-H ) :   0.9322 B( 17-C , 18-C ) :   0.9241
B( 17-C , 22-H ) :   0.9336 B( 17-C , 23-O ) :   0.9001 B( 18-C , 19-C ) :   0.9420
B( 18-C , 24-H ) :   0.9415 B( 18-C , 25-H ) :   0.9394 B( 19-C , 20-O ) :   0.8318
B( 19-C , 26-H ) :   0.9261 B( 19-C , 27-H ) :   0.9386 B( 23-O , 28-H ) :   0.7966

FINAL SINGLE POINT ENERGY      -652.851763961489

DIPOLE MOMENT
-------------
                                X             Y             Z
Electronic contribution:     -2.33402      -1.01627      -0.33448
Nuclear contribution   :      2.66594       0.58734       0.50624
                        -----------------------------------------
Total Dipole Moment    :      0.33192      -0.42893       0.17176
                        -----------------------------------------
Magnitude (a.u.)       :      0.56891
Magnitude (Debye)      :      1.44606

Rotational constants in cm-1:     0.051561     0.016905     0.014570
Rotational constants in MHz :  1545.771345   506.809090   436.810749

                             ****ORCA TERMINATED NORMALLY****
TOTAL RUN TIME: 0 days 0 hours 29 minutes 40 seconds 958 msec
