                         Program Version 4.2.0 -  RELEASE  -
|  1> # Test redundant internal optimization
|  2> #
|  3> ! RKS B3LYP  Opt TightSCF SmallPrint
|  4>
|  5> %basis
|  6>         Basis "6-31G"
|  7> end
|  8>
|  9> %geom
| 10> Constraints
| 11> { D 4  0  15  12  165.0   C } # D for Dihedral angle
| 12> { D 0  15  12  16  60.0   C } # D for Dihedral angle
| 13> { D 0  4  3  2   C } # D for Dihedral angle
| 14> { D 4  3  2  1   C } # D for Dihedral angle
| 15> { D 3  2  1  0   C } # D for Dihedral angle
| 16> { D 2  1  0  4   C } # D for Dihedral angle
| 17> { D 1  0  4  3   C } # D for Dihedral angle
| 18> { D 16  20  19  18   C } # D for Dihedral angle
| 19> { D 20  19  18  17   C } # D for Dihedral angle
| 20> { D 19  18  17  16   C } # D for Dihedral angle
| 21> { D 18  17  16  20   C } # D for Dihedral angle
| 22> { D 17  16  20  19   C } # D for Dihedral angle
| 23> { D 15  12  16  20   C } # D for Dihedral angle
| 24> end
| 25> end
| 26>
| 27>
| 28> #%pal
| 29> #nprocs 8
| 30> #end
| 31>
| 32> * xyz 0 1
| 33> C  -21.048   26.222   46.251
| 34> C  -20.361   27.558   45.944
| 35> C  -20.329   28.222   47.341
| 36> C  -20.110   27.022   48.296
| 37> O  -20.473   25.807   47.535
| 38> H  -20.833   25.428   45.533
| 39> H  -19.344   27.382   45.576
| 40> H  -20.898   28.157   45.201
| 41> H  -19.543   28.978   47.434
| 42> H  -21.289   28.710   47.548
| 43> H  -20.733   27.082   49.195
| 44> H  -19.064   26.913   48.597
| 45> C  -23.260   27.170   45.210
| 46> H  -24.338   27.242   45.400
| 47> H  -22.855   28.188   45.142
| 48> O  -22.586   26.394   46.375
| 49> C  -23.051   26.485   43.832
| 50> C  -23.627   27.335   42.694
| 51> C  -22.520   28.399   42.506
| 52> C  -21.219   27.607   42.788
| 53> O  -21.621   26.387   43.520
| 54> H  -23.440   25.465   43.876
| 55> O  -23.784   26.474   41.411
| 56> H  -24.602   27.774   42.937
| 57> H  -22.528   28.848   41.507
| 58> H  -22.647   29.207   43.237
| 59> H  -20.508   28.174   43.399
| 60> H  -20.720   27.284   41.870
| 61> H  -22.819   26.024   41.150
| 62> *
| 63>
| 64>                          ****END OF INPUT****
 Total Charge           Charge          ....    0
 Multiplicity           Mult            ....    1
 Number of Electrons    NEL             ....  102
FINAL SINGLE POINT ENERGY      -652.825647610386
FINAL SINGLE POINT ENERGY      -652.849363237968
FINAL SINGLE POINT ENERGY      -652.854547562571
FINAL SINGLE POINT ENERGY      -652.857120639975
FINAL SINGLE POINT ENERGY      -652.857426203236
FINAL SINGLE POINT ENERGY      -652.857479254302
FINAL SINGLE POINT ENERGY      -652.857484137326
                    ***********************HURRAY********************

CARTESIAN COORDINATES (ANGSTROEM)
---------------------------------
  C    -20.952822   26.235268   46.239910
  C    -20.175140   27.538398   46.057115
  C    -20.324569   28.204792   47.450338
  C    -20.301627   26.991197   48.404298
  O    -20.600283   25.809452   47.562607
  H    -20.700187   25.435758   45.546198
  H    -19.126873   27.292838   45.851232
  H    -20.537452   28.166137   45.242880
  H    -19.522775   28.918488   47.662916
  H    -21.281859   28.731643   47.515490
  H    -21.049246   27.054129   49.199476
  H    -19.315700   26.820074   48.847484
  C    -23.094135   27.163069   45.218112
  H    -24.149015   27.121390   45.507105
  H    -22.784132   28.220222   45.215881
  O    -22.408318   26.433934   46.264708
  C    -22.937838   26.561251   43.816429
  C    -23.656318   27.333327   42.698629
  C    -22.608359   28.420399   42.342701
  C    -21.258278   27.682927   42.529513
  O    -21.543036   26.488297   43.363771
  H    -23.289235   25.524642   43.852359
  O    -23.945235   26.469348   41.567009
  H    -24.620102   27.747150   42.997625
  H    -22.758593   28.782546   41.323061
  H    -22.696824   29.271242   43.027548
  H    -20.503539   28.298332   43.028727
  H    -20.841660   27.321068   41.584797
  H    -23.166849   25.900684   41.387082

 Multiplicity           Mult            ....    1
 Number of Electrons    NEL             ....  102
 Basis Dimension        Dim             ....  149

ORBITAL ENERGIES
----------------

  NO   OCC          E(Eh)            E(eV)
   0   2.0000     -19.156023      -521.2619
   1   2.0000     -19.145491      -520.9753
   2   2.0000     -19.133551      -520.6504
   3   2.0000     -19.132313      -520.6167
   4   2.0000     -10.269490      -279.4470
   5   2.0000     -10.250916      -278.9416
   6   2.0000     -10.241872      -278.6955
   7   2.0000     -10.240160      -278.6489
   8   2.0000     -10.236189      -278.5409
   9   2.0000     -10.219942      -278.0988
  10   2.0000     -10.198624      -277.5187
  11   2.0000     -10.184419      -277.1321
  12   2.0000     -10.182602      -277.0827
  13   2.0000      -1.050096       -28.5746
  14   2.0000      -1.041840       -28.3499
  15   2.0000      -1.015161       -27.6239
  16   2.0000      -0.985858       -26.8266
  17   2.0000      -0.792402       -21.5623
  18   2.0000      -0.781531       -21.2665
  19   2.0000      -0.772882       -21.0312
  20   2.0000      -0.730739       -19.8844
  21   2.0000      -0.680713       -18.5232
  22   2.0000      -0.613214       -16.6864
  23   2.0000      -0.606286       -16.4979
  24   2.0000      -0.594543       -16.1783
  25   2.0000      -0.569800       -15.5051
  26   2.0000      -0.532638       -14.4938
  27   2.0000      -0.513646       -13.9770
  28   2.0000      -0.499981       -13.6052
  29   2.0000      -0.487022       -13.2525
  30   2.0000      -0.478277       -13.0146
  31   2.0000      -0.460979       -12.5439
  32   2.0000      -0.452187       -12.3046
  33   2.0000      -0.443375       -12.0648
  34   2.0000      -0.430592       -11.7170
  35   2.0000      -0.407559       -11.0902
  36   2.0000      -0.406380       -11.0582
  37   2.0000      -0.400078       -10.8867
  38   2.0000      -0.381992       -10.3945
  39   2.0000      -0.373216       -10.1557
  40   2.0000      -0.365118        -9.9354
  41   2.0000      -0.353966        -9.6319
  42   2.0000      -0.350102        -9.5268
  43   2.0000      -0.339485        -9.2379
  44   2.0000      -0.320021        -8.7082
  45   2.0000      -0.306502        -8.3403
  46   2.0000      -0.294803        -8.0220
  47   2.0000      -0.280771        -7.6402
  48   2.0000      -0.266915        -7.2631
  49   2.0000      -0.250185        -6.8079
  50   2.0000      -0.240286        -6.5385
  51   0.0000       0.051203         1.3933
  52   0.0000       0.075663         2.0589
  53   0.0000       0.087957         2.3934
  54   0.0000       0.091982         2.5030
  55   0.0000       0.099673         2.7122

MULLIKEN ATOMIC CHARGES
-----------------------
   0 C :    0.318895
   1 C :   -0.284883
   2 C :   -0.303429
   3 C :    0.002753
   4 O :   -0.501931
   5 H :    0.167529
   6 H :    0.149216
   7 H :    0.138261
   8 H :    0.139369
   9 H :    0.151693
  10 H :    0.151170
  11 H :    0.139820
  12 C :   -0.011522
  13 H :    0.159677
  14 H :    0.115643
  15 O :   -0.517934
  16 C :    0.059713
  17 C :    0.078795
  18 C :   -0.289611
  19 C :   -0.035407
  20 O :   -0.526786
  21 H :    0.170485
  22 O :   -0.599237
  23 H :    0.154144
  24 H :    0.164954
  25 H :    0.144150
  26 H :    0.145760
  27 H :    0.152242
  28 H :    0.366473
Sum of atomic charges:    0.0000000

LOEWDIN ATOMIC CHARGES
----------------------
   0 C :    0.186494
   1 C :   -0.229157
   2 C :   -0.220145
   3 C :   -0.025648
   4 O :   -0.303524
   5 H :    0.111034
   6 H :    0.118370
   7 H :    0.109614
   8 H :    0.112672
   9 H :    0.112402
  10 H :    0.107477
  11 H :    0.101296
  12 C :   -0.043351
  13 H :    0.120683
  14 H :    0.084538
  15 O :   -0.332994
  16 C :    0.003286
  17 C :    0.037824
  18 C :   -0.239404
  19 C :   -0.039977
  20 O :   -0.329987
  21 H :    0.119888
  22 O :   -0.411757
  23 H :    0.117196
  24 H :    0.128562
  25 H :    0.113139
  26 H :    0.101500
  27 H :    0.105643
  28 H :    0.284326

  Mayer bond orders larger than 0.100000
B(  0-C ,  1-C ) :   0.9340 B(  0-C ,  4-O ) :   0.9226 B(  0-C ,  5-H ) :   0.9184
B(  0-C , 15-O ) :   0.8160 B(  1-C ,  2-C ) :   0.9457 B(  1-C ,  6-H ) :   0.9365
B(  1-C ,  7-H ) :   0.9250 B(  2-C ,  3-C ) :   0.9545 B(  2-C ,  8-H ) :   0.9453
B(  2-C ,  9-H ) :   0.9459 B(  3-C ,  4-O ) :   0.8397 B(  3-C , 10-H ) :   0.9350
B(  3-C , 11-H ) :   0.9401 B( 12-C , 13-H ) :   0.9276 B( 12-C , 14-H ) :   0.9137
B( 12-C , 15-O ) :   0.8763 B( 12-C , 16-C ) :   0.8841 B( 16-C , 17-C ) :   0.8960
B( 16-C , 20-O ) :   0.8446 B( 16-C , 21-H ) :   0.9226 B( 17-C , 18-C ) :   0.9105
B( 17-C , 22-O ) :   0.8953 B( 17-C , 23-H ) :   0.9342 B( 18-C , 19-C ) :   0.9419
B( 18-C , 24-H ) :   0.9370 B( 18-C , 25-H ) :   0.9334 B( 19-C , 20-O ) :   0.8403
B( 19-C , 26-H ) :   0.9260 B( 19-C , 27-H ) :   0.9376 B( 22-O , 28-H ) :   0.7939

FINAL SINGLE POINT ENERGY      -652.857482952988

DIPOLE MOMENT
-------------
                                X             Y             Z
Electronic contribution:     -2.38369      -6.32316      -0.46923
Nuclear contribution   :      2.89121       7.91306      -0.08904
                        -----------------------------------------
Total Dipole Moment    :      0.50753       1.58990      -0.55827
                        -----------------------------------------
Magnitude (a.u.)       :      1.75983
Magnitude (Debye)      :      4.47314

Rotational constants in cm-1:     0.064599     0.013733     0.012941
Rotational constants in MHz :  1936.630888   411.701447   387.955404

                             ****ORCA TERMINATED NORMALLY****
TOTAL RUN TIME: 0 days 1 hours 2 minutes 52 seconds 575 msec
