                         Program Version 4.2.0 -  RELEASE  -
|  1> # Test redundant internal optimization
|  2> #
|  3> ! RKS B3LYP  Opt TightSCF SmallPrint
|  4>
|  5> %basis
|  6>         Basis "6-31G"
|  7> end
|  8>
|  9> %geom
| 10> Constraints
| 11> { D 4  0  15  12  90.0   C } # D for Dihedral angle
| 12> { D 0  15  12  16  105.0   C } # D for Dihedral angle
| 13> { D 0  4  3  2   C } # D for Dihedral angle
| 14> { D 4  3  2  1   C } # D for Dihedral angle
| 15> { D 3  2  1  0   C } # D for Dihedral angle
| 16> { D 2  1  0  4   C } # D for Dihedral angle
| 17> { D 1  0  4  3   C } # D for Dihedral angle
| 18> { D 16  20  19  18   C } # D for Dihedral angle
| 19> { D 20  19  18  17   C } # D for Dihedral angle
| 20> { D 19  18  17  16   C } # D for Dihedral angle
| 21> { D 18  17  16  20   C } # D for Dihedral angle
| 22> { D 17  16  20  19   C } # D for Dihedral angle
| 23> { D 15  12  16  20   C } # D for Dihedral angle
| 24> end
| 25> end
| 26>
| 27>
| 28> #%pal
| 29> #nprocs 8
| 30> #end
| 31>
| 32> * xyz 0 1
| 33> C  -21.048   26.222   46.251
| 34> C  -20.361   27.558   45.944
| 35> C  -20.329   28.222   47.341
| 36> C  -20.110   27.022   48.296
| 37> O  -20.473   25.807   47.535
| 38> H  -20.833   25.428   45.533
| 39> H  -19.344   27.382   45.576
| 40> H  -20.898   28.157   45.201
| 41> H  -19.543   28.978   47.434
| 42> H  -21.289   28.710   47.548
| 43> H  -20.733   27.082   49.195
| 44> H  -19.064   26.913   48.597
| 45> C  -23.061   27.816   46.783
| 46> H  -23.826   27.731   47.565
| 47> H  -22.223   28.400   47.185
| 48> O  -22.586   26.394   46.375
| 49> C  -23.664   28.612   45.593
| 50> C  -22.679   28.694   44.421
| 51> C  -22.847   27.299   43.773
| 52> C  -24.353   26.995   43.977
| 53> O  -24.826   27.907   45.041
| 54> H  -24.019   29.579   45.953
| 55> O  -23.116   29.812   43.436
| 56> H  -21.650   28.894   44.737
| 57> H  -22.558   27.283   42.717
| 58> H  -22.230   26.561   44.300
| 59> H  -24.534   25.959   44.284
| 60> H  -24.946   27.208   43.083
| 61> H  -24.145   29.631   43.106
| 62> *
| 63>
| 64>                          ****END OF INPUT****
 Total Charge           Charge          ....    0
 Multiplicity           Mult            ....    1
 Number of Electrons    NEL             ....  102
FINAL SINGLE POINT ENERGY      -652.751837130674
FINAL SINGLE POINT ENERGY      -652.819802468903
FINAL SINGLE POINT ENERGY      -652.841214100727
FINAL SINGLE POINT ENERGY      -652.846658083305
FINAL SINGLE POINT ENERGY      -652.847828789251
FINAL SINGLE POINT ENERGY      -652.848076252695
FINAL SINGLE POINT ENERGY      -652.848128258241
FINAL SINGLE POINT ENERGY      -652.848133120656
FINAL SINGLE POINT ENERGY      -652.848130649457
                    ***********************HURRAY********************

CARTESIAN COORDINATES (ANGSTROEM)
---------------------------------
  C    -21.170202   26.255803   46.542639
  C    -20.178255   27.311911   46.028619
  C    -19.914705   28.168610   47.307567
  C    -19.970180   27.099464   48.429269
  O    -20.662738   25.927784   47.854593
  H    -21.127224   25.323519   45.977739
  H    -19.262364   26.792428   45.728483
  H    -20.534531   27.893660   45.180469
  H    -18.942872   28.670499   47.271710
  H    -20.676379   28.941605   47.439632
  H    -20.513786   27.436624   49.316830
  H    -18.972667   26.765717   48.729293
  C    -23.239100   27.807873   46.770665
  H    -24.080392   27.585164   47.433315
  H    -22.583672   28.518647   47.288255
  O    -22.595406   26.517568   46.558944
  C    -23.830722   28.480641   45.523148
  C    -22.917906   28.860020   44.346830
  C    -22.846772   27.524958   43.554013
  C    -24.266742   26.934181   43.755163
  O    -24.855912   27.633095   44.915443
  H    -24.344070   29.381154   45.885164
  O    -23.524556   29.923381   43.559790
  H    -21.947555   29.254796   44.644943
  H    -22.606717   27.712531   42.504028
  H    -22.093440   26.861029   43.980554
  H    -24.243186   25.862187   43.968135
  H    -24.923316   27.115583   42.897730
  H    -24.462633   29.695568   43.387037

 Multiplicity           Mult            ....    1
 Number of Electrons    NEL             ....  102
 Basis Dimension        Dim             ....  149

ORBITAL ENERGIES
----------------

  NO   OCC          E(Eh)            E(eV)
   0   2.0000     -19.145412      -520.9731
   1   2.0000     -19.142358      -520.8901
   2   2.0000     -19.141965      -520.8794
   3   2.0000     -19.140906      -520.8505
   4   2.0000     -10.285113      -279.8721
   5   2.0000     -10.245661      -278.7986
   6   2.0000     -10.237562      -278.5782
   7   2.0000     -10.236159      -278.5400
   8   2.0000     -10.231848      -278.4227
   9   2.0000     -10.227727      -278.3106
  10   2.0000     -10.200037      -277.5571
  11   2.0000     -10.199927      -277.5541
  12   2.0000     -10.187838      -277.2252
  13   2.0000      -1.053344       -28.6629
  14   2.0000      -1.038461       -28.2580
  15   2.0000      -1.008795       -27.4507
  16   2.0000      -0.995544       -27.0901
  17   2.0000      -0.794842       -21.6287
  18   2.0000      -0.782114       -21.2824
  19   2.0000      -0.773932       -21.0598
  20   2.0000      -0.740058       -20.1380
  21   2.0000      -0.682864       -18.5817
  22   2.0000      -0.614440       -16.7198
  23   2.0000      -0.609138       -16.5755
  24   2.0000      -0.604207       -16.4413
  25   2.0000      -0.569210       -15.4890
  26   2.0000      -0.521253       -14.1840
  27   2.0000      -0.520878       -14.1738
  28   2.0000      -0.509699       -13.8696
  29   2.0000      -0.494078       -13.4445
  30   2.0000      -0.472148       -12.8478
  31   2.0000      -0.458176       -12.4676
  32   2.0000      -0.451716       -12.2918
  33   2.0000      -0.443126       -12.0581
  34   2.0000      -0.431610       -11.7447
  35   2.0000      -0.425461       -11.5774
  36   2.0000      -0.407187       -11.0801
  37   2.0000      -0.394079       -10.7234
  38   2.0000      -0.387081       -10.5330
  39   2.0000      -0.372885       -10.1467
  40   2.0000      -0.370904       -10.0928
  41   2.0000      -0.362621        -9.8674
  42   2.0000      -0.353879        -9.6295
  43   2.0000      -0.333295        -9.0694
  44   2.0000      -0.316950        -8.6247
  45   2.0000      -0.308118        -8.3843
  46   2.0000      -0.297214        -8.0876
  47   2.0000      -0.276066        -7.5121
  48   2.0000      -0.271216        -7.3802
  49   2.0000      -0.258875        -7.0444
  50   2.0000      -0.239811        -6.5256
  51   0.0000       0.059363         1.6153
  52   0.0000       0.069264         1.8848
  53   0.0000       0.086779         2.3614
  54   0.0000       0.094733         2.5778
  55   0.0000       0.105247         2.8639

MULLIKEN ATOMIC CHARGES
-----------------------
   0 C :    0.315054
   1 C :   -0.304024
   2 C :   -0.314040
   3 C :   -0.006226
   4 O :   -0.500167
   5 H :    0.164436
   6 H :    0.161759
   7 H :    0.149555
   8 H :    0.148174
   9 H :    0.150263
  10 H :    0.146752
  11 H :    0.147905
  12 C :   -0.011794
  13 H :    0.176329
  14 H :    0.120660
  15 O :   -0.525373
  16 C :    0.071549
  17 C :    0.072942
  18 C :   -0.299116
  19 C :   -0.023209
  20 O :   -0.520167
  21 H :    0.152850
  22 O :   -0.605901
  23 H :    0.149894
  24 H :    0.155869
  25 H :    0.158527
  26 H :    0.162146
  27 H :    0.139614
  28 H :    0.365740
Sum of atomic charges:   -0.0000000

LOEWDIN ATOMIC CHARGES
----------------------
   0 C :    0.175756
   1 C :   -0.235179
   2 C :   -0.222587
   3 C :   -0.032185
   4 O :   -0.315494
   5 H :    0.111148
   6 H :    0.126018
   7 H :    0.115912
   8 H :    0.117356
   9 H :    0.106984
  10 H :    0.104297
  11 H :    0.105090
  12 C :   -0.039762
  13 H :    0.126380
  14 H :    0.094218
  15 O :   -0.323136
  16 C :    0.006641
  17 C :    0.034345
  18 C :   -0.242308
  19 C :   -0.033973
  20 O :   -0.326751
  21 H :    0.115696
  22 O :   -0.415082
  23 H :    0.110875
  24 H :    0.122314
  25 H :    0.119129
  26 H :    0.112764
  27 H :    0.097745
  28 H :    0.283789

  Mayer bond orders larger than 0.100000
B(  0-C ,  1-C ) :   0.9160 B(  0-C ,  4-O ) :   0.9028 B(  0-C ,  5-H ) :   0.9346
B(  0-C , 15-O ) :   0.8898 B(  1-C ,  2-C ) :   0.9541 B(  1-C ,  6-H ) :   0.9327
B(  1-C ,  7-H ) :   0.9178 B(  2-C ,  3-C ) :   0.9455 B(  2-C ,  8-H ) :   0.9446
B(  2-C ,  9-H ) :   0.9364 B(  3-C ,  4-O ) :   0.8488 B(  3-C , 10-H ) :   0.9341
B(  3-C , 11-H ) :   0.9383 B( 12-C , 13-H ) :   0.9274 B( 12-C , 14-H ) :   0.9000
B( 12-C , 15-O ) :   0.8587 B( 12-C , 16-C ) :   0.8912 B( 16-C , 17-C ) :   0.9087
B( 16-C , 20-O ) :   0.8693 B( 16-C , 21-H ) :   0.9153 B( 17-C , 18-C ) :   0.9209
B( 17-C , 22-O ) :   0.8829 B( 17-C , 23-H ) :   0.9238 B( 18-C , 19-C ) :   0.9414
B( 18-C , 24-H ) :   0.9373 B( 18-C , 25-H ) :   0.9198 B( 19-C , 20-O ) :   0.8414
B( 19-C , 26-H ) :   0.9319 B( 19-C , 27-H ) :   0.9360 B( 22-O , 28-H ) :   0.7934

FINAL SINGLE POINT ENERGY      -652.848128870989

DIPOLE MOMENT
-------------
                                X             Y             Z
Electronic contribution:     -4.58438      -1.79546       0.43228
Nuclear contribution   :      5.51636       2.35798      -0.66202
                        -----------------------------------------
Total Dipole Moment    :      0.93198       0.56252      -0.22974
                        -----------------------------------------
Magnitude (a.u.)       :      1.11257
Magnitude (Debye)      :      2.82792

Rotational constants in cm-1:     0.051798     0.015743     0.014663
Rotational constants in MHz :  1552.850404   471.974806   439.579645

                             ****ORCA TERMINATED NORMALLY****
TOTAL RUN TIME: 0 days 1 hours 0 minutes 58 seconds 101 msec
