                         Program Version 4.2.0 -  RELEASE  -
|  1> # Test redundant internal optimization
|  2> #
|  3> ! RKS B3LYP  Opt TightSCF SmallPrint
|  4>
|  5> %basis
|  6>         Basis "6-31G"
|  7> end
|  8>
|  9> %geom
| 10> Constraints
| 11> { D 4  0  15  12  315.0   C } # D for Dihedral angle
| 12> { D 0  15  12  16  60.0   C } # D for Dihedral angle
| 13> { D 0  4  3  2   C } # D for Dihedral angle
| 14> { D 4  3  2  1   C } # D for Dihedral angle
| 15> { D 3  2  1  0   C } # D for Dihedral angle
| 16> { D 2  1  0  4   C } # D for Dihedral angle
| 17> { D 1  0  4  3   C } # D for Dihedral angle
| 18> { D 16  20  19  18   C } # D for Dihedral angle
| 19> { D 20  19  18  17   C } # D for Dihedral angle
| 20> { D 19  18  17  16   C } # D for Dihedral angle
| 21> { D 18  17  16  20   C } # D for Dihedral angle
| 22> { D 17  16  20  19   C } # D for Dihedral angle
| 23> { D 15  12  16  20   C } # D for Dihedral angle
| 24> end
| 25> end
| 26>
| 27>
| 28> #%pal
| 29> #nprocs 8
| 30> #end
| 31>
| 32> * xyz 0 1
| 33> C  -21.048   26.222   46.251
| 34> C  -20.361   27.558   45.944
| 35> C  -20.329   28.222   47.341
| 36> C  -20.110   27.022   48.296
| 37> O  -20.473   25.807   47.535
| 38> H  -20.833   25.428   45.533
| 39> H  -19.344   27.382   45.576
| 40> H  -20.898   28.157   45.201
| 41> H  -19.543   28.978   47.434
| 42> H  -21.289   28.710   47.548
| 43> H  -20.733   27.082   49.195
| 44> H  -19.064   26.913   48.597
| 45> C  -23.319   25.255   47.135
| 46> H  -24.395   25.468   47.158
| 47> H  -23.171   24.295   46.624
| 48> O  -22.586   26.394   46.375
| 49> C  -22.822   25.092   48.598
| 50> C  -23.146   26.334   49.437
| 51> C  -24.643   26.114   49.758
| 52> C  -24.747   24.576   49.913
| 53> O  -23.546   24.006   49.268
| 54> H  -21.766   24.815   48.589
| 55> O  -22.299   26.332   50.739
| 56> H  -22.958   27.274   48.906
| 57> H  -24.967   26.648   50.657
| 58> H  -25.262   26.461   48.921
| 59> H  -25.641   24.166   49.433
| 60> H  -24.732   24.261   50.960
| 61> H  -22.472   25.400   51.289
| 62> *
| 63>
| 64>                          ****END OF INPUT****
 Total Charge           Charge          ....    0
 Multiplicity           Mult            ....    1
 Number of Electrons    NEL             ....  102
FINAL SINGLE POINT ENERGY      -652.836634787129
FINAL SINGLE POINT ENERGY      -652.858037243764
FINAL SINGLE POINT ENERGY      -652.863944495433
FINAL SINGLE POINT ENERGY      -652.866661561136
FINAL SINGLE POINT ENERGY      -652.867073024049
FINAL SINGLE POINT ENERGY      -652.867141752552
FINAL SINGLE POINT ENERGY      -652.867149998384
FINAL SINGLE POINT ENERGY      -652.867151365273
                    ***********************HURRAY********************

CARTESIAN COORDINATES (ANGSTROEM)
---------------------------------
  C    -21.018621   26.171067   46.329684
  C    -20.493761   27.555943   45.945920
  C    -20.385940   28.246265   47.326201
  C    -19.963879   27.095618   48.268461
  O    -20.297427   25.835502   47.534253
  H    -20.776800   25.368521   45.622669
  H    -19.508292   27.447352   45.479645
  H    -21.163506   28.071663   45.254959
  H    -19.661677   29.066724   47.330327
  H    -21.361046   28.650971   47.613858
  H    -20.481654   27.088546   49.229352
  H    -18.883664   27.067146   48.438948
  C    -23.207384   25.234477   47.177405
  H    -24.250061   25.542372   47.061925
  H    -23.085666   24.259662   46.682467
  O    -22.460414   26.259259   46.450048
  C    -22.844616   25.051888   48.657572
  C    -23.132423   26.279107   49.536240
  C    -24.661843   26.154362   49.759194
  C    -24.883303   24.622245   49.834578
  O    -23.682709   23.992736   49.231654
  H    -21.810717   24.724062   48.749611
  O    -22.380834   26.233310   50.781552
  H    -22.855165   27.219327   49.061374
  H    -24.964172   26.672873   50.672712
  H    -25.203062   26.599068   48.917601
  H    -25.772839   24.292271   49.289109
  H    -24.952407   24.260160   50.864913
  H    -22.353117   25.309505   51.108767

 Multiplicity           Mult            ....    1
 Number of Electrons    NEL             ....  102
 Basis Dimension        Dim             ....  149

ORBITAL ENERGIES
----------------

  NO   OCC          E(Eh)            E(eV)
   0   2.0000     -19.147325      -521.0252
   1   2.0000     -19.145322      -520.9707
   2   2.0000     -19.141823      -520.8755
   3   2.0000     -19.139712      -520.8180
   4   2.0000     -10.279742      -279.7260
   5   2.0000     -10.237037      -278.5639
   6   2.0000     -10.229169      -278.3498
   7   2.0000     -10.229072      -278.3472
   8   2.0000     -10.224553      -278.2242
   9   2.0000     -10.223696      -278.2009
  10   2.0000     -10.186959      -277.2012
  11   2.0000     -10.186834      -277.1978
  12   2.0000     -10.185861      -277.1714
  13   2.0000      -1.053442       -28.6656
  14   2.0000      -1.034046       -28.1378
  15   2.0000      -1.005702       -27.3665
  16   2.0000      -0.995176       -27.0801
  17   2.0000      -0.790670       -21.5152
  18   2.0000      -0.778198       -21.1758
  19   2.0000      -0.763438       -20.7742
  20   2.0000      -0.730391       -19.8749
  21   2.0000      -0.674021       -18.3411
  22   2.0000      -0.601552       -16.3691
  23   2.0000      -0.599539       -16.3143
  24   2.0000      -0.598853       -16.2956
  25   2.0000      -0.573860       -15.6155
  26   2.0000      -0.522346       -14.2138
  27   2.0000      -0.515543       -14.0286
  28   2.0000      -0.492112       -13.3911
  29   2.0000      -0.486403       -13.2357
  30   2.0000      -0.471389       -12.8271
  31   2.0000      -0.459517       -12.5041
  32   2.0000      -0.444951       -12.1077
  33   2.0000      -0.436395       -11.8749
  34   2.0000      -0.413689       -11.2570
  35   2.0000      -0.412806       -11.2330
  36   2.0000      -0.404800       -11.0152
  37   2.0000      -0.391400       -10.6505
  38   2.0000      -0.373287       -10.1577
  39   2.0000      -0.367974       -10.0131
  40   2.0000      -0.358028        -9.7424
  41   2.0000      -0.357635        -9.7317
  42   2.0000      -0.349074        -9.4988
  43   2.0000      -0.337060        -9.1719
  44   2.0000      -0.326880        -8.8949
  45   2.0000      -0.305634        -8.3167
  46   2.0000      -0.302972        -8.2443
  47   2.0000      -0.270897        -7.3715
  48   2.0000      -0.267509        -7.2793
  49   2.0000      -0.260043        -7.0761
  50   2.0000      -0.238889        -6.5005
  51   0.0000       0.065087         1.7711
  52   0.0000       0.078710         2.1418
  53   0.0000       0.095692         2.6039
  54   0.0000       0.098075         2.6688
  55   0.0000       0.101860         2.7718

MULLIKEN ATOMIC CHARGES
-----------------------
   0 C :    0.300287
   1 C :   -0.263988
   2 C :   -0.305166
   3 C :   -0.036871
   4 O :   -0.516977
   5 H :    0.146480
   6 H :    0.147480
   7 H :    0.161354
   8 H :    0.145260
   9 H :    0.158187
  10 H :    0.182435
  11 H :    0.147656
  12 C :   -0.012007
  13 H :    0.145931
  14 H :    0.144815
  15 O :   -0.532724
  16 C :    0.036456
  17 C :    0.091372
  18 C :   -0.302397
  19 C :   -0.023948
  20 O :   -0.528435
  21 H :    0.201238
  22 O :   -0.611347
  23 H :    0.159543
  24 H :    0.161053
  25 H :    0.148959
  26 H :    0.143261
  27 H :    0.144998
  28 H :    0.367094
Sum of atomic charges:   -0.0000000

LOEWDIN ATOMIC CHARGES
----------------------
   0 C :    0.175799
   1 C :   -0.214099
   2 C :   -0.216393
   3 C :   -0.038822
   4 O :   -0.324109
   5 H :    0.095673
   6 H :    0.115373
   7 H :    0.126269
   8 H :    0.115937
   9 H :    0.114133
  10 H :    0.119673
  11 H :    0.105698
  12 C :   -0.037568
  13 H :    0.110006
  14 H :    0.103557
  15 O :   -0.335290
  16 C :   -0.003697
  17 C :    0.033665
  18 C :   -0.239959
  19 C :   -0.037263
  20 O :   -0.329907
  21 H :    0.131789
  22 O :   -0.417258
  23 H :    0.115411
  24 H :    0.126388
  25 H :    0.115160
  26 H :    0.102602
  27 H :    0.102410
  28 H :    0.284824

  Mayer bond orders larger than 0.100000
B(  0-C ,  1-C ) :   0.9445 B(  0-C ,  4-O ) :   0.9022 B(  0-C ,  5-H ) :   0.9226
B(  0-C , 15-O ) :   0.8539 B(  1-C ,  2-C ) :   0.9553 B(  1-C ,  6-H ) :   0.9391
B(  1-C ,  7-H ) :   0.9361 B(  2-C ,  3-C ) :   0.9553 B(  2-C ,  8-H ) :   0.9444
B(  2-C ,  9-H ) :   0.9423 B(  3-C ,  4-O ) :   0.8168 B(  3-C , 10-H ) :   0.9107
B(  3-C , 11-H ) :   0.9407 B( 12-C , 13-H ) :   0.9419 B( 12-C , 14-H ) :   0.9199
B( 12-C , 15-O ) :   0.8386 B( 12-C , 16-C ) :   0.8829 B( 16-C , 17-C ) :   0.9111
B( 16-C , 20-O ) :   0.8212 B( 16-C , 21-H ) :   0.9025 B( 17-C , 18-C ) :   0.9154
B( 17-C , 22-O ) :   0.8649 B( 17-C , 23-H ) :   0.9245 B( 18-C , 19-C ) :   0.9414
B( 18-C , 24-H ) :   0.9377 B( 18-C , 25-H ) :   0.9346 B( 19-C , 20-O ) :   0.8475
B( 19-C , 26-H ) :   0.9357 B( 19-C , 27-H ) :   0.9389 B( 22-O , 28-H ) :   0.7941

FINAL SINGLE POINT ENERGY      -652.867151515298

DIPOLE MOMENT
-------------
                                X             Y             Z
Electronic contribution:      0.56651      -4.06703       0.25865
Nuclear contribution   :     -0.82686       4.64394      -0.43565
                        -----------------------------------------
Total Dipole Moment    :     -0.26035       0.57691      -0.17700
                        -----------------------------------------
Magnitude (a.u.)       :      0.65722
Magnitude (Debye)      :      1.67051

Rotational constants in cm-1:     0.049491     0.017430     0.015379
Rotational constants in MHz :  1483.695659   522.547289   461.064794

                             ****ORCA TERMINATED NORMALLY****
TOTAL RUN TIME: 0 days 0 hours 29 minutes 23 seconds 882 msec
