                         Program Version 4.2.0 -  RELEASE  -
|  1> # Test redundant internal optimization
|  2> #
|  3> ! RKS B3LYP  Opt TightSCF SmallPrint
|  4>
|  5> %basis
|  6>         Basis "6-31G"
|  7> end
|  8>
|  9> %geom
| 10> Constraints
| 11> { D 4  0  15  12  285.0   C } # D for Dihedral angle
| 12> { D 0  15  12  16  225.0   C } # D for Dihedral angle
| 13> { D 0  4  3  2   C } # D for Dihedral angle
| 14> { D 4  3  2  1   C } # D for Dihedral angle
| 15> { D 3  2  1  0   C } # D for Dihedral angle
| 16> { D 2  1  0  4   C } # D for Dihedral angle
| 17> { D 1  0  4  3   C } # D for Dihedral angle
| 18> { D 16  20  19  18   C } # D for Dihedral angle
| 19> { D 20  19  18  17   C } # D for Dihedral angle
| 20> { D 19  18  17  16   C } # D for Dihedral angle
| 21> { D 18  17  16  20   C } # D for Dihedral angle
| 22> { D 17  16  20  19   C } # D for Dihedral angle
| 23> { D 15  12  16  20   C } # D for Dihedral angle
| 24> end
| 25> end
| 26>
| 27>
| 28> #%pal
| 29> #nprocs 8
| 30> #end
| 31>
| 32> * xyz 0 1
| 33> C  -21.048   26.222   46.251
| 34> C  -20.361   27.558   45.944
| 35> C  -20.329   28.222   47.341
| 36> C  -20.110   27.022   48.296
| 37> O  -20.473   25.807   47.535
| 38> H  -20.833   25.428   45.533
| 39> H  -19.344   27.382   45.576
| 40> H  -20.898   28.157   45.201
| 41> H  -19.543   28.978   47.434
| 42> H  -21.289   28.710   47.548
| 43> H  -20.733   27.082   49.195
| 44> H  -19.064   26.913   48.597
| 45> C  -23.396   25.070   46.435
| 46> H  -22.753   24.238   46.121
| 47> H  -23.734   24.873   47.461
| 48> O  -22.586   26.394   46.375
| 49> C  -24.651   25.091   45.519
| 50> C  -24.259   25.193   44.041
| 51> C  -23.861   23.732   43.721
| 52> C  -24.844   22.903   44.585
| 53> O  -25.376   23.820   45.615
| 54> H  -25.330   25.874   45.862
| 55> H  -25.126   25.497   43.443
| 56> O  -23.107   26.202   43.782
| 57> H  -23.939   23.495   42.656
| 58> H  -22.825   23.549   44.031
| 59> H  -24.357   22.055   45.077
| 60> H  -25.697   22.534   44.009
| 61> H  -22.229   25.917   44.372
| 62> *
| 63>
| 64>                          ****END OF INPUT****
 Total Charge           Charge          ....    0
 Multiplicity           Mult            ....    1
 Number of Electrons    NEL             ....  102
FINAL SINGLE POINT ENERGY      -652.825328086777
FINAL SINGLE POINT ENERGY      -652.852494105685
FINAL SINGLE POINT ENERGY      -652.859468951683
FINAL SINGLE POINT ENERGY      -652.862311700290
FINAL SINGLE POINT ENERGY      -652.863538613328
FINAL SINGLE POINT ENERGY      -652.864678016123
FINAL SINGLE POINT ENERGY      -652.865862053634
FINAL SINGLE POINT ENERGY      -652.866783655865
FINAL SINGLE POINT ENERGY      -652.867395525843
FINAL SINGLE POINT ENERGY      -652.867665992245
FINAL SINGLE POINT ENERGY      -652.867724391965
FINAL SINGLE POINT ENERGY      -652.867753883703
                    ***********************HURRAY********************

CARTESIAN COORDINATES (ANGSTROEM)
---------------------------------
  C    -21.039959   26.104601   46.269906
  C    -20.409289   27.453200   45.926881
  C    -20.426874   28.170508   47.296883
  C    -20.171632   27.020645   48.294996
  O    -20.477700   25.768420   47.552848
  H    -20.814190   25.277828   45.591599
  H    -19.382834   27.284543   45.582739
  H    -20.951047   27.994487   45.148096
  H    -19.670478   28.958012   47.367934
  H    -21.410410   28.618550   47.465080
  H    -20.810099   27.068016   49.180415
  H    -19.125556   26.948596   48.605799
  C    -23.281552   25.066513   46.472470
  H    -22.651898   24.198665   46.244310
  H    -23.633077   24.972613   47.502900
  O    -22.480505   26.298638   46.348278
  C    -24.480567   25.131907   45.518517
  C    -24.138522   25.199120   44.021509
  C    -23.826416   23.708521   43.701433
  C    -24.814491   22.943951   44.607792
  O    -25.262442   23.905864   45.654195
  H    -25.135046   25.955458   45.820961
  H    -25.033780   25.515488   43.471034
  O    -23.037140   26.068325   43.672012
  H    -23.961100   23.480291   42.640751
  H    -22.782091   23.505829   43.959770
  H    -24.365866   22.074410   45.097553
  H    -25.714112   22.622363   44.075079
  H    -22.806325   26.602636   44.464260

 Multiplicity           Mult            ....    1
 Number of Electrons    NEL             ....  102
 Basis Dimension        Dim             ....  149

ORBITAL ENERGIES
----------------

  NO   OCC          E(Eh)            E(eV)
   0   2.0000     -19.162050      -521.4259
   1   2.0000     -19.147246      -521.0230
   2   2.0000     -19.142433      -520.8921
   3   2.0000     -19.124694      -520.4094
   4   2.0000     -10.288120      -279.9540
   5   2.0000     -10.235694      -278.5274
   6   2.0000     -10.235295      -278.5165
   7   2.0000     -10.234100      -278.4840
   8   2.0000     -10.230592      -278.3886
   9   2.0000     -10.228470      -278.3308
  10   2.0000     -10.192989      -277.3653
  11   2.0000     -10.190629      -277.3011
  12   2.0000     -10.183263      -277.1007
  13   2.0000      -1.063917       -28.9507
  14   2.0000      -1.028822       -27.9957
  15   2.0000      -1.007792       -27.4234
  16   2.0000      -0.998165       -27.1615
  17   2.0000      -0.795313       -21.6416
  18   2.0000      -0.775072       -21.0908
  19   2.0000      -0.768393       -20.9090
  20   2.0000      -0.734741       -19.9933
  21   2.0000      -0.678192       -18.4545
  22   2.0000      -0.606538       -16.5047
  23   2.0000      -0.600428       -16.3385
  24   2.0000      -0.594998       -16.1907
  25   2.0000      -0.581801       -15.8316
  26   2.0000      -0.526378       -14.3235
  27   2.0000      -0.521653       -14.1949
  28   2.0000      -0.498156       -13.5555
  29   2.0000      -0.492657       -13.4059
  30   2.0000      -0.470883       -12.8134
  31   2.0000      -0.458041       -12.4639
  32   2.0000      -0.440376       -11.9832
  33   2.0000      -0.439819       -11.9681
  34   2.0000      -0.430968       -11.7272
  35   2.0000      -0.418133       -11.3780
  36   2.0000      -0.407884       -11.0991
  37   2.0000      -0.389425       -10.5968
  38   2.0000      -0.379440       -10.3251
  39   2.0000      -0.368241       -10.0203
  40   2.0000      -0.363492        -9.8911
  41   2.0000      -0.354894        -9.6572
  42   2.0000      -0.353481        -9.6187
  43   2.0000      -0.340836        -9.2746
  44   2.0000      -0.333879        -9.0853
  45   2.0000      -0.310421        -8.4470
  46   2.0000      -0.296673        -8.0729
  47   2.0000      -0.280151        -7.6233
  48   2.0000      -0.265714        -7.2305
  49   2.0000      -0.254719        -6.9313
  50   2.0000      -0.243974        -6.6389
  51   0.0000       0.056608         1.5404
  52   0.0000       0.074962         2.0398
  53   0.0000       0.091651         2.4939
  54   0.0000       0.096156         2.6165
  55   0.0000       0.108798         2.9605

MULLIKEN ATOMIC CHARGES
-----------------------
   0 C :    0.279518
   1 C :   -0.271556
   2 C :   -0.299150
   3 C :   -0.003997
   4 O :   -0.510273
   5 H :    0.159997
   6 H :    0.154565
   7 H :    0.157963
   8 H :    0.145283
   9 H :    0.163996
  10 H :    0.151635
  11 H :    0.146205
  12 C :    0.003400
  13 H :    0.142681
  14 H :    0.169022
  15 O :   -0.550201
  16 C :    0.036648
  17 C :    0.116825
  18 C :   -0.299398
  19 C :   -0.017254
  20 O :   -0.518510
  21 H :    0.159725
  22 H :    0.143920
  23 O :   -0.644058
  24 H :    0.153414
  25 H :    0.148362
  26 H :    0.143983
  27 H :    0.148640
  28 H :    0.388616
Sum of atomic charges:   -0.0000000

LOEWDIN ATOMIC CHARGES
----------------------
   0 C :    0.169539
   1 C :   -0.215896
   2 C :   -0.215856
   3 C :   -0.026289
   4 O :   -0.322855
   5 H :    0.104089
   6 H :    0.119407
   7 H :    0.122130
   8 H :    0.115635
   9 H :    0.119910
  10 H :    0.108055
  11 H :    0.104862
  12 C :   -0.039042
  13 H :    0.104946
  14 H :    0.118688
  15 O :   -0.340367
  16 C :    0.011904
  17 C :    0.039425
  18 C :   -0.230930
  19 C :   -0.031055
  20 O :   -0.320901
  21 H :    0.114211
  22 H :    0.101215
  23 O :   -0.435807
  24 H :    0.121941
  25 H :    0.112383
  26 H :    0.103054
  27 H :    0.106008
  28 H :    0.281598

  Mayer bond orders larger than 0.100000
B(  0-C ,  1-C ) :   0.9489 B(  0-C ,  4-O ) :   0.9190 B(  0-C ,  5-H ) :   0.9133
B(  0-C , 15-O ) :   0.8127 B(  1-C ,  2-C ) :   0.9531 B(  1-C ,  6-H ) :   0.9386
B(  1-C ,  7-H ) :   0.9346 B(  2-C ,  3-C ) :   0.9550 B(  2-C ,  8-H ) :   0.9449
B(  2-C ,  9-H ) :   0.9441 B(  3-C ,  4-O ) :   0.8320 B(  3-C , 10-H ) :   0.9354
B(  3-C , 11-H ) :   0.9401 B( 12-C , 13-H ) :   0.9212 B( 12-C , 14-H ) :   0.9295
B( 12-C , 15-O ) :   0.7877 B( 12-C , 16-C ) :   0.9039 B( 16-C , 17-C ) :   0.9144
B( 16-C , 20-O ) :   0.8580 B( 16-C , 21-H ) :   0.9280 B( 17-C , 18-C ) :   0.9149
B( 17-C , 22-H ) :   0.9245 B( 17-C , 23-O ) :   0.9166 B( 18-C , 19-C ) :   0.9396
B( 18-C , 24-H ) :   0.9446 B( 18-C , 25-H ) :   0.9413 B( 19-C , 20-O ) :   0.8336
B( 19-C , 26-H ) :   0.9342 B( 19-C , 27-H ) :   0.9384 B( 23-O , 28-H ) :   0.7266

FINAL SINGLE POINT ENERGY      -652.867758380988

DIPOLE MOMENT
-------------
                                X             Y             Z
Electronic contribution:     -2.63223      -1.01821       0.57223
Nuclear contribution   :      3.18081       1.33774      -0.44724
                        -----------------------------------------
Total Dipole Moment    :      0.54858       0.31952       0.12499
                        -----------------------------------------
Magnitude (a.u.)       :      0.64704
Magnitude (Debye)      :      1.64464

Rotational constants in cm-1:     0.060706     0.013609     0.012479
Rotational constants in MHz :  1819.915877   408.002009   374.102432

                             ****ORCA TERMINATED NORMALLY****
TOTAL RUN TIME: 0 days 0 hours 45 minutes 45 seconds 564 msec
