                         Program Version 4.2.0 -  RELEASE  -
|  1> # Test redundant internal optimization
|  2> #
|  3> ! RKS B3LYP  Opt TightSCF SmallPrint
|  4>
|  5> %basis
|  6>         Basis "6-31G"
|  7> end
|  8>
|  9> %geom
| 10> Constraints
| 11> { D 4  0  15  12  300.0   C } # D for Dihedral angle
| 12> { D 0  15  12  16  210.0   C } # D for Dihedral angle
| 13> { D 0  4  3  2   C } # D for Dihedral angle
| 14> { D 4  3  2  1   C } # D for Dihedral angle
| 15> { D 3  2  1  0   C } # D for Dihedral angle
| 16> { D 2  1  0  4   C } # D for Dihedral angle
| 17> { D 1  0  4  3   C } # D for Dihedral angle
| 18> { D 16  20  19  18   C } # D for Dihedral angle
| 19> { D 20  19  18  17   C } # D for Dihedral angle
| 20> { D 19  18  17  16   C } # D for Dihedral angle
| 21> { D 18  17  16  20   C } # D for Dihedral angle
| 22> { D 17  16  20  19   C } # D for Dihedral angle
| 23> { D 15  12  16  20   C } # D for Dihedral angle
| 24> end
| 25> end
| 26>
| 27>
| 28> #%pal
| 29> #nprocs 8
| 30> #end
| 31>
| 32> * xyz 0 1
| 33> C  -21.048   26.222   46.251
| 34> C  -20.361   27.558   45.944
| 35> C  -20.329   28.222   47.341
| 36> C  -20.110   27.022   48.296
| 37> O  -20.473   25.807   47.535
| 38> H  -20.833   25.428   45.533
| 39> H  -19.344   27.382   45.576
| 40> H  -20.898   28.157   45.201
| 41> H  -19.543   28.978   47.434
| 42> H  -21.289   28.710   47.548
| 43> H  -20.733   27.082   49.195
| 44> H  -19.064   26.913   48.597
| 45> C  -23.362   25.116   46.798
| 46> H  -22.821   24.230   46.442
| 47> H  -23.436   25.056   47.891
| 48> O  -22.586   26.394   46.375
| 49> C  -24.805   25.072   46.223
| 50> C  -24.792   24.981   44.693
| 51> C  -24.491   23.479   44.471
| 52> C  -25.233   22.795   45.646
| 53> O  -25.489   23.848   46.652
| 54> H  -25.374   25.913   46.621
| 55> O  -26.189   25.351   44.126
| 56> H  -24.047   25.637   44.228
| 57> H  -24.832   23.118   43.495
| 58> H  -23.412   23.298   44.536
| 59> H  -24.643   21.995   46.106
| 60> H  -26.204   22.390   45.348
| 61> H  -26.953   24.705   44.577
| 62> *
| 63>
| 64>                          ****END OF INPUT****
 Total Charge           Charge          ....    0
 Multiplicity           Mult            ....    1
 Number of Electrons    NEL             ....  102
FINAL SINGLE POINT ENERGY      -652.840592945305
FINAL SINGLE POINT ENERGY      -652.864773346618
FINAL SINGLE POINT ENERGY      -652.868665170401
FINAL SINGLE POINT ENERGY      -652.869375316934
FINAL SINGLE POINT ENERGY      -652.869473502021
FINAL SINGLE POINT ENERGY      -652.869484974668
FINAL SINGLE POINT ENERGY      -652.869487604486
                    ***********************HURRAY********************

CARTESIAN COORDINATES (ANGSTROEM)
---------------------------------
  C    -21.102392   26.111060   46.271706
  C    -20.532602   27.484568   45.918221
  C    -20.518448   28.183413   47.295678
  C    -20.183056   27.034383   48.272241
  O    -20.474462   25.776446   47.532819
  H    -20.855325   25.291000   45.588333
  H    -19.517384   27.361795   45.524681
  H    -21.142569   28.005242   45.177050
  H    -19.788666   28.997322   47.347077
  H    -21.509982   28.593124   47.507936
  H    -20.785056   27.055134   49.184100
  H    -19.123127   26.998314   48.540403
  C    -23.245648   25.061110   46.847303
  H    -22.700043   24.154383   46.549265
  H    -23.319986   25.061447   47.938541
  O    -22.532260   26.249104   46.386300
  C    -24.640775   25.086429   46.225805
  C    -24.674819   25.008054   44.692689
  C    -24.476678   23.488901   44.452272
  C    -25.229063   22.842128   45.642180
  O    -25.390831   23.904228   46.666345
  H    -25.185893   25.966328   46.579223
  O    -25.955082   25.469732   44.179377
  H    -23.922199   25.634220   44.217647
  H    -24.883796   23.195242   43.481852
  H    -23.411315   23.234566   44.467844
  H    -24.684806   22.002444   46.084410
  H    -26.233044   22.502850   45.370063
  H    -26.674695   25.106034   44.737638

 Multiplicity           Mult            ....    1
 Number of Electrons    NEL             ....  102
 Basis Dimension        Dim             ....  149

ORBITAL ENERGIES
----------------

  NO   OCC          E(Eh)            E(eV)
   0   2.0000     -19.148915      -521.0685
   1   2.0000     -19.144345      -520.9441
   2   2.0000     -19.142952      -520.9062
   3   2.0000     -19.134808      -520.6846
   4   2.0000     -10.281856      -279.7835
   5   2.0000     -10.235367      -278.5185
   6   2.0000     -10.231599      -278.4160
   7   2.0000     -10.231204      -278.4052
   8   2.0000     -10.228539      -278.3327
   9   2.0000     -10.226963      -278.2898
  10   2.0000     -10.187782      -277.2236
  11   2.0000     -10.187208      -277.2080
  12   2.0000     -10.186315      -277.1837
  13   2.0000      -1.057852       -28.7856
  14   2.0000      -1.035358       -28.1735
  15   2.0000      -1.003801       -27.3148
  16   2.0000      -0.996604       -27.1190
  17   2.0000      -0.791885       -21.5483
  18   2.0000      -0.778124       -21.1738
  19   2.0000      -0.767021       -20.8717
  20   2.0000      -0.730518       -19.8784
  21   2.0000      -0.673439       -18.3252
  22   2.0000      -0.603283       -16.4162
  23   2.0000      -0.600824       -16.3493
  24   2.0000      -0.590219       -16.0607
  25   2.0000      -0.582980       -15.8637
  26   2.0000      -0.522041       -14.2055
  27   2.0000      -0.518595       -14.1117
  28   2.0000      -0.494875       -13.4662
  29   2.0000      -0.493523       -13.4294
  30   2.0000      -0.470304       -12.7976
  31   2.0000      -0.457331       -12.4446
  32   2.0000      -0.447218       -12.1694
  33   2.0000      -0.438256       -11.9256
  34   2.0000      -0.424983       -11.5644
  35   2.0000      -0.410266       -11.1639
  36   2.0000      -0.404449       -11.0056
  37   2.0000      -0.392298       -10.6750
  38   2.0000      -0.376826       -10.2540
  39   2.0000      -0.367592       -10.0027
  40   2.0000      -0.358824        -9.7641
  41   2.0000      -0.352710        -9.5977
  42   2.0000      -0.349605        -9.5132
  43   2.0000      -0.340262        -9.2590
  44   2.0000      -0.325526        -8.8580
  45   2.0000      -0.306813        -8.3488
  46   2.0000      -0.301037        -8.1916
  47   2.0000      -0.271727        -7.3941
  48   2.0000      -0.269352        -7.3294
  49   2.0000      -0.257457        -7.0058
  50   2.0000      -0.244872        -6.6633
  51   0.0000       0.066352         1.8055
  52   0.0000       0.072012         1.9595
  53   0.0000       0.095113         2.5882
  54   0.0000       0.100388         2.7317
  55   0.0000       0.106279         2.8920

MULLIKEN ATOMIC CHARGES
-----------------------
   0 C :    0.287545
   1 C :   -0.263162
   2 C :   -0.298834
   3 C :   -0.005756
   4 O :   -0.513884
   5 H :    0.141370
   6 H :    0.146033
   7 H :    0.159890
   8 H :    0.142334
   9 H :    0.163946
  10 H :    0.148155
  11 H :    0.144447
  12 C :    0.003483
  13 H :    0.129646
  14 H :    0.164007
  15 O :   -0.529724
  16 C :    0.056624
  17 C :    0.091183
  18 C :   -0.294339
  19 C :   -0.031451
  20 O :   -0.527266
  21 H :    0.165677
  22 O :   -0.604350
  23 H :    0.165605
  24 H :    0.159208
  25 H :    0.141387
  26 H :    0.147461
  27 H :    0.147531
  28 H :    0.363232
Sum of atomic charges:   -0.0000000

LOEWDIN ATOMIC CHARGES
----------------------
   0 C :    0.171793
   1 C :   -0.214690
   2 C :   -0.215862
   3 C :   -0.028165
   4 O :   -0.330778
   5 H :    0.093824
   6 H :    0.114810
   7 H :    0.125466
   8 H :    0.114217
   9 H :    0.119985
  10 H :    0.105929
  11 H :    0.103649
  12 C :   -0.036790
  13 H :    0.096953
  14 H :    0.114428
  15 O :   -0.330988
  16 C :    0.015536
  17 C :    0.037447
  18 C :   -0.240584
  19 C :   -0.038229
  20 O :   -0.330550
  21 H :    0.118310
  22 O :   -0.415121
  23 H :    0.122691
  24 H :    0.125729
  25 H :    0.111535
  26 H :    0.104520
  27 H :    0.103091
  28 H :    0.281846

  Mayer bond orders larger than 0.100000
B(  0-C ,  1-C ) :   0.9516 B(  0-C ,  4-O ) :   0.9018 B(  0-C ,  5-H ) :   0.9190
B(  0-C , 15-O ) :   0.8589 B(  1-C ,  2-C ) :   0.9559 B(  1-C ,  6-H ) :   0.9395
B(  1-C ,  7-H ) :   0.9355 B(  2-C ,  3-C ) :   0.9555 B(  2-C ,  8-H ) :   0.9449
B(  2-C ,  9-H ) :   0.9442 B(  3-C ,  4-O ) :   0.8353 B(  3-C , 10-H ) :   0.9357
B(  3-C , 11-H ) :   0.9404 B( 12-C , 13-H ) :   0.9198 B( 12-C , 14-H ) :   0.9222
B( 12-C , 15-O ) :   0.8102 B( 12-C , 16-C ) :   0.9038 B( 16-C , 17-C ) :   0.9103
B( 16-C , 20-O ) :   0.8436 B( 16-C , 21-H ) :   0.9247 B( 17-C , 18-C ) :   0.9119
B( 17-C , 22-O ) :   0.8896 B( 17-C , 23-H ) :   0.9255 B( 18-C , 19-C ) :   0.9415
B( 18-C , 24-H ) :   0.9388 B( 18-C , 25-H ) :   0.9357 B( 19-C , 20-O ) :   0.8436
B( 19-C , 26-H ) :   0.9352 B( 19-C , 27-H ) :   0.9379 B( 22-O , 28-H ) :   0.7954

FINAL SINGLE POINT ENERGY      -652.869488073028

DIPOLE MOMENT
-------------
                                X             Y             Z
Electronic contribution:     -3.61466      -1.05482       0.45598
Nuclear contribution   :      4.32884       0.98514      -0.55565
                        -----------------------------------------
Total Dipole Moment    :      0.71417      -0.06968      -0.09968
                        -----------------------------------------
Magnitude (a.u.)       :      0.72445
Magnitude (Debye)      :      1.84142

Rotational constants in cm-1:     0.060667     0.012163     0.011402
Rotational constants in MHz :  1818.751208   364.643478   341.821084

                             ****ORCA TERMINATED NORMALLY****
TOTAL RUN TIME: 0 days 0 hours 22 minutes 32 seconds 711 msec
