                         Program Version 4.2.0 -  RELEASE  -
|  1> # Test redundant internal optimization
|  2> #
|  3> ! RKS B3LYP  Opt TightSCF SmallPrint
|  4>
|  5> %basis
|  6>         Basis "6-31G"
|  7> end
|  8>
|  9> %geom
| 10> Constraints
| 11> { D 4  0  15  12  255.0   C } # D for Dihedral angle
| 12> { D 0  15  12  16  90.0   C } # D for Dihedral angle
| 13> { D 0  4  3  2   C } # D for Dihedral angle
| 14> { D 4  3  2  1   C } # D for Dihedral angle
| 15> { D 3  2  1  0   C } # D for Dihedral angle
| 16> { D 2  1  0  4   C } # D for Dihedral angle
| 17> { D 1  0  4  3   C } # D for Dihedral angle
| 18> { D 16  20  19  18   C } # D for Dihedral angle
| 19> { D 20  19  18  17   C } # D for Dihedral angle
| 20> { D 19  18  17  16   C } # D for Dihedral angle
| 21> { D 18  17  16  20   C } # D for Dihedral angle
| 22> { D 17  16  20  19   C } # D for Dihedral angle
| 23> { D 15  12  16  20   C } # D for Dihedral angle
| 24> end
| 25> end
| 26>
| 27>
| 28> #%pal
| 29> #nprocs 8
| 30> #end
| 31>
| 32> * xyz 0 1
| 33> C  -21.048   26.222   46.251
| 34> C  -20.361   27.558   45.944
| 35> C  -20.329   28.222   47.341
| 36> C  -20.110   27.022   48.296
| 37> O  -20.473   25.807   47.535
| 38> H  -20.833   25.428   45.533
| 39> H  -19.344   27.382   45.576
| 40> H  -20.898   28.157   45.201
| 41> H  -19.543   28.978   47.434
| 42> H  -21.289   28.710   47.548
| 43> H  -20.733   27.082   49.195
| 44> H  -19.064   26.913   48.597
| 45> C  -23.431   25.260   45.734
| 46> H  -24.384   25.673   45.381
| 47> H  -22.905   24.828   44.872
| 48> O  -22.586   26.394   46.375
| 49> C  -23.738   24.104   46.727
| 50> C  -24.622   24.585   47.883
| 51> C  -26.022   24.597   47.225
| 52> C  -25.967   23.386   46.260
| 53> O  -24.537   23.064   46.071
| 54> H  -22.800   23.640   47.036
| 55> H  -24.588   23.863   48.707
| 56> O  -24.202   25.975   48.435
| 57> H  -26.834   24.515   47.953
| 58> H  -26.166   25.530   46.666
| 59> H  -26.418   23.604   45.287
| 60> H  -26.445   22.497   46.680
| 61> H  -24.229   26.715   47.627
| 62> *
| 63>
| 64>                          ****END OF INPUT****
 Total Charge           Charge          ....    0
 Multiplicity           Mult            ....    1
 Number of Electrons    NEL             ....  102
FINAL SINGLE POINT ENERGY      -652.832964588413
FINAL SINGLE POINT ENERGY      -652.858063390271
FINAL SINGLE POINT ENERGY      -652.864330454353
FINAL SINGLE POINT ENERGY      -652.866616753957
FINAL SINGLE POINT ENERGY      -652.867894786306
FINAL SINGLE POINT ENERGY      -652.868681408367
FINAL SINGLE POINT ENERGY      -652.868968796972
FINAL SINGLE POINT ENERGY      -652.869029679769
FINAL SINGLE POINT ENERGY      -652.869036899062
                    ***********************HURRAY********************

CARTESIAN COORDINATES (ANGSTROEM)
---------------------------------
  C    -21.073737   26.142625   46.216822
  C    -20.442133   27.507730   45.946474
  C    -20.526920   28.179714   47.337766
  C    -20.303908   26.998901   48.308399
  O    -20.565313   25.769436   47.510370
  H    -20.814562   25.344299   45.517281
  H    -19.398361   27.367347   45.642546
  H    -20.968847   28.060144   45.165823
  H    -19.781918   28.970123   47.468107
  H    -21.519427   28.618663   47.478430
  H    -20.985633   27.004462   49.162257
  H    -19.272429   26.925746   48.663598
  C    -23.346039   25.250928   45.653293
  H    -24.240312   25.753129   45.277178
  H    -22.820002   24.792058   44.807725
  O    -22.521227   26.308294   46.255312
  C    -23.692023   24.180266   46.696942
  C    -24.546927   24.684111   47.872703
  C    -25.971019   24.699804   47.244630
  C    -25.949979   23.482644   46.297258
  O    -24.512279   23.142051   46.074520
  H    -22.772524   23.697397   47.039794
  H    -24.510023   23.940431   48.676828
  O    -24.157623   25.951935   48.439211
  H    -26.751345   24.631211   48.007241
  H    -26.111058   25.642909   46.705778
  H    -26.417793   23.677973   45.327238
  H    -26.413504   22.595764   46.739235
  H    -23.512134   26.390905   47.837238

 Multiplicity           Mult            ....    1
 Number of Electrons    NEL             ....  102
 Basis Dimension        Dim             ....  149

ORBITAL ENERGIES
----------------

  NO   OCC          E(Eh)            E(eV)
   0   2.0000     -19.164655      -521.4968
   1   2.0000     -19.148890      -521.0678
   2   2.0000     -19.138196      -520.7768
   3   2.0000     -19.112146      -520.0679
   4   2.0000     -10.291891      -280.0566
   5   2.0000     -10.239643      -278.6349
   6   2.0000     -10.230554      -278.3875
   7   2.0000     -10.230066      -278.3742
   8   2.0000     -10.228245      -278.3247
   9   2.0000     -10.224999      -278.2364
  10   2.0000     -10.193088      -277.3680
  11   2.0000     -10.191997      -277.3383
  12   2.0000     -10.177465      -276.9429
  13   2.0000      -1.065602       -28.9965
  14   2.0000      -1.023084       -27.8395
  15   2.0000      -1.006730       -27.3945
  16   2.0000      -0.990833       -26.9619
  17   2.0000      -0.795137       -21.6368
  18   2.0000      -0.770595       -20.9689
  19   2.0000      -0.765445       -20.8288
  20   2.0000      -0.736076       -20.0296
  21   2.0000      -0.678674       -18.4677
  22   2.0000      -0.606196       -16.4954
  23   2.0000      -0.601447       -16.3662
  24   2.0000      -0.594138       -16.1673
  25   2.0000      -0.580661       -15.8006
  26   2.0000      -0.526557       -14.3284
  27   2.0000      -0.522729       -14.2242
  28   2.0000      -0.495592       -13.4858
  29   2.0000      -0.487143       -13.2558
  30   2.0000      -0.470129       -12.7929
  31   2.0000      -0.455106       -12.3841
  32   2.0000      -0.448703       -12.2098
  33   2.0000      -0.436509       -11.8780
  34   2.0000      -0.424172       -11.5423
  35   2.0000      -0.410930       -11.1820
  36   2.0000      -0.407844       -11.0980
  37   2.0000      -0.386104       -10.5064
  38   2.0000      -0.381695       -10.3865
  39   2.0000      -0.364031        -9.9058
  40   2.0000      -0.363733        -9.8977
  41   2.0000      -0.358648        -9.7593
  42   2.0000      -0.347892        -9.4666
  43   2.0000      -0.340489        -9.2652
  44   2.0000      -0.331162        -9.0114
  45   2.0000      -0.318492        -8.6666
  46   2.0000      -0.291898        -7.9429
  47   2.0000      -0.278655        -7.5826
  48   2.0000      -0.263628        -7.1737
  49   2.0000      -0.244783        -6.6609
  50   2.0000      -0.238187        -6.4814
  51   0.0000       0.056385         1.5343
  52   0.0000       0.083237         2.2650
  53   0.0000       0.092240         2.5100
  54   0.0000       0.098060         2.6683
  55   0.0000       0.103673         2.8211

MULLIKEN ATOMIC CHARGES
-----------------------
   0 C :    0.284048
   1 C :   -0.252176
   2 C :   -0.305716
   3 C :   -0.012607
   4 O :   -0.503445
   5 H :    0.152577
   6 H :    0.149329
   7 H :    0.154004
   8 H :    0.147131
   9 H :    0.163844
  10 H :    0.165683
  11 H :    0.147225
  12 C :   -0.042233
  13 H :    0.159046
  14 H :    0.153374
  15 O :   -0.543254
  16 C :    0.053284
  17 C :    0.117732
  18 C :   -0.295972
  19 C :   -0.024626
  20 O :   -0.521385
  21 H :    0.170011
  22 H :    0.149389
  23 O :   -0.643899
  24 H :    0.152651
  25 H :    0.141466
  26 H :    0.142180
  27 H :    0.149213
  28 H :    0.393125
Sum of atomic charges:   -0.0000000

LOEWDIN ATOMIC CHARGES
----------------------
   0 C :    0.173787
   1 C :   -0.217029
   2 C :   -0.216921
   3 C :   -0.029047
   4 O :   -0.319077
   5 H :    0.105086
   6 H :    0.116152
   7 H :    0.122490
   8 H :    0.116960
   9 H :    0.119128
  10 H :    0.114046
  11 H :    0.105844
  12 C :   -0.044586
  13 H :    0.113830
  14 H :    0.109166
  15 O :   -0.335510
  16 C :    0.006365
  17 C :    0.042810
  18 C :   -0.236254
  19 C :   -0.033461
  20 O :   -0.326002
  21 H :    0.119417
  22 H :    0.106279
  23 O :   -0.436355
  24 H :    0.121620
  25 H :    0.109892
  26 H :    0.101506
  27 H :    0.105883
  28 H :    0.283977

  Mayer bond orders larger than 0.100000
B(  0-C ,  1-C ) :   0.9478 B(  0-C ,  4-O ) :   0.9360 B(  0-C ,  5-H ) :   0.9178
B(  0-C , 15-O ) :   0.8035 B(  1-C ,  2-C ) :   0.9543 B(  1-C ,  6-H ) :   0.9371
B(  1-C ,  7-H ) :   0.9370 B(  2-C ,  3-C ) :   0.9525 B(  2-C ,  8-H ) :   0.9449
B(  2-C ,  9-H ) :   0.9439 B(  3-C ,  4-O ) :   0.8266 B(  3-C , 10-H ) :   0.9314
B(  3-C , 11-H ) :   0.9398 B( 12-C , 13-H ) :   0.9370 B( 12-C , 14-H ) :   0.9267
B( 12-C , 15-O ) :   0.8042 B( 12-C , 16-C ) :   0.8863 B( 16-C , 17-C ) :   0.9164
B( 16-C , 20-O ) :   0.8490 B( 16-C , 21-H ) :   0.9259 B( 17-C , 18-C ) :   0.9026
B( 17-C , 22-H ) :   0.9302 B( 17-C , 23-O ) :   0.9319 B( 18-C , 19-C ) :   0.9391
B( 18-C , 24-H ) :   0.9445 B( 18-C , 25-H ) :   0.9436 B( 19-C , 20-O ) :   0.8318
B( 19-C , 26-H ) :   0.9341 B( 19-C , 27-H ) :   0.9387 B( 23-O , 28-H ) :   0.7208

FINAL SINGLE POINT ENERGY      -652.869038471619

DIPOLE MOMENT
-------------
                                X             Y             Z
Electronic contribution:      0.34052      -3.35536       0.31491
Nuclear contribution   :      0.05468       4.12551      -1.11244
                        -----------------------------------------
Total Dipole Moment    :      0.39520       0.77016      -0.79753
                        -----------------------------------------
Magnitude (a.u.)       :      1.17702
Magnitude (Debye)      :      2.99175

Rotational constants in cm-1:     0.060568     0.014204     0.013177
Rotational constants in MHz :  1815.775615   425.833530   395.023191

                             ****ORCA TERMINATED NORMALLY****
TOTAL RUN TIME: 0 days 0 hours 29 minutes 53 seconds 994 msec
