                         Program Version 4.2.0 -  RELEASE  -
|  1> # Test redundant internal optimization
|  2> #
|  3> ! RKS B3LYP  Opt TightSCF SmallPrint
|  4>
|  5> %basis
|  6>         Basis "6-31G"
|  7> end
|  8>
|  9> %geom
| 10> Constraints
| 11> { D 4  0  15  12  135.0   C } # D for Dihedral angle
| 12> { D 0  15  12  16  120.0   C } # D for Dihedral angle
| 13> { D 0  4  3  2   C } # D for Dihedral angle
| 14> { D 4  3  2  1   C } # D for Dihedral angle
| 15> { D 3  2  1  0   C } # D for Dihedral angle
| 16> { D 2  1  0  4   C } # D for Dihedral angle
| 17> { D 1  0  4  3   C } # D for Dihedral angle
| 18> { D 16  20  19  18   C } # D for Dihedral angle
| 19> { D 20  19  18  17   C } # D for Dihedral angle
| 20> { D 19  18  17  16   C } # D for Dihedral angle
| 21> { D 18  17  16  20   C } # D for Dihedral angle
| 22> { D 17  16  20  19   C } # D for Dihedral angle
| 23> { D 15  12  16  20   C } # D for Dihedral angle
| 24> end
| 25> end
| 26>
| 27>
| 28> #%pal
| 29> #nprocs 8
| 30> #end
| 31>
| 32> * xyz 0 1
| 33> C  -21.048   26.222   46.251
| 34> C  -20.361   27.558   45.944
| 35> C  -20.329   28.222   47.341
| 36> C  -20.110   27.022   48.296
| 37> O  -20.473   25.807   47.535
| 38> H  -20.833   25.428   45.533
| 39> H  -19.344   27.382   45.576
| 40> H  -20.898   28.157   45.201
| 41> H  -19.543   28.978   47.434
| 42> H  -21.289   28.710   47.548
| 43> H  -20.733   27.082   49.195
| 44> H  -19.064   26.913   48.597
| 45> C  -23.162   27.680   45.721
| 46> H  -23.653   28.289   46.490
| 47> H  -22.356   28.277   45.273
| 48> O  -22.586   26.394   46.375
| 49> C  -24.198   27.373   44.604
| 50> C  -23.607   26.448   43.534
| 51> C  -23.711   25.066   44.224
| 52> C  -25.026   25.175   45.035
| 53> O  -25.331   26.618   45.150
| 54> H  -24.597   28.313   44.218
| 55> H  -24.226   26.476   42.631
| 56> O  -22.151   26.818   43.144
| 57> H  -23.728   24.235   43.510
| 58> H  -22.856   24.914   44.893
| 59> H  -24.937   24.745   46.039
| 60> H  -25.872   24.707   44.524
| 61> H  -21.514   26.796   44.035
| 62> *
| 63>
| 64>                          ****END OF INPUT****
 Total Charge           Charge          ....    0
 Multiplicity           Mult            ....    1
 Number of Electrons    NEL             ....  102
FINAL SINGLE POINT ENERGY      -652.809146635724
FINAL SINGLE POINT ENERGY      -652.836501704008
FINAL SINGLE POINT ENERGY      -652.846768420034
FINAL SINGLE POINT ENERGY      -652.848938590587
FINAL SINGLE POINT ENERGY      -652.849576008745
FINAL SINGLE POINT ENERGY      -652.849748037165
FINAL SINGLE POINT ENERGY      -652.849804739626
FINAL SINGLE POINT ENERGY      -652.849823359166
FINAL SINGLE POINT ENERGY      -652.849816155130
FINAL SINGLE POINT ENERGY      -652.849812876111
                    ***********************HURRAY********************

CARTESIAN COORDINATES (ANGSTROEM)
---------------------------------
  C    -21.083716   26.318105   46.352127
  C    -20.204593   27.521230   46.006140
  C    -20.159373   28.287032   47.354614
  C    -20.163690   27.143276   48.392867
  O    -20.651675   25.942176   47.671152
  H    -20.916419   25.437134   45.724891
  H    -19.207674   27.142229   45.753240
  H    -20.549606   28.124447   45.163567
  H    -19.274406   28.924527   47.439089
  H    -21.045587   28.921195   47.464729
  H    -20.825174   27.335793   49.241242
  H    -19.162366   26.903022   48.761330
  C    -23.184725   27.694866   45.781793
  H    -23.711069   28.220777   46.585902
  H    -22.472459   28.386361   45.321063
  O    -22.523661   26.550417   46.400516
  C    -24.216481   27.300933   44.725579
  C    -23.691759   26.501705   43.522013
  C    -23.734525   25.040038   44.064156
  C    -24.990126   25.051727   44.964160
  O    -25.293002   26.474461   45.252294
  H    -24.685919   28.236987   44.396685
  H    -24.373750   26.624009   42.677171
  O    -22.395787   26.940392   43.033522
  H    -23.797715   24.301411   43.259689
  H    -22.839590   24.846010   44.660386
  H    -24.831075   24.528672   45.910372
  H    -25.867828   24.634660   44.460349
  H    -21.682250   26.471409   43.510364

 Multiplicity           Mult            ....    1
 Number of Electrons    NEL             ....  102
 Basis Dimension        Dim             ....  149

ORBITAL ENERGIES
----------------

  NO   OCC          E(Eh)            E(eV)
   0   2.0000     -19.148698      -521.0626
   1   2.0000     -19.143697      -520.9265
   2   2.0000     -19.143517      -520.9216
   3   2.0000     -19.132268      -520.6155
   4   2.0000     -10.289511      -279.9918
   5   2.0000     -10.241342      -278.6811
   6   2.0000     -10.230936      -278.3979
   7   2.0000     -10.230660      -278.3904
   8   2.0000     -10.229223      -278.3513
   9   2.0000     -10.221634      -278.1448
  10   2.0000     -10.200125      -277.5595
  11   2.0000     -10.197502      -277.4881
  12   2.0000     -10.186614      -277.1919
  13   2.0000      -1.055464       -28.7206
  14   2.0000      -1.030983       -28.0545
  15   2.0000      -1.012794       -27.5595
  16   2.0000      -0.993802       -27.0427
  17   2.0000      -0.796102       -21.6630
  18   2.0000      -0.776348       -21.1255
  19   2.0000      -0.769806       -20.9475
  20   2.0000      -0.738144       -20.0859
  21   2.0000      -0.683507       -18.5992
  22   2.0000      -0.610301       -16.6071
  23   2.0000      -0.608491       -16.5579
  24   2.0000      -0.602046       -16.3825
  25   2.0000      -0.561048       -15.2669
  26   2.0000      -0.526743       -14.3334
  27   2.0000      -0.515505       -14.0276
  28   2.0000      -0.508900       -13.8479
  29   2.0000      -0.497296       -13.5321
  30   2.0000      -0.471338       -12.8258
  31   2.0000      -0.458337       -12.4720
  32   2.0000      -0.441262       -12.0074
  33   2.0000      -0.434926       -11.8349
  34   2.0000      -0.429787       -11.6951
  35   2.0000      -0.416259       -11.3270
  36   2.0000      -0.412301       -11.2193
  37   2.0000      -0.400322       -10.8933
  38   2.0000      -0.387503       -10.5445
  39   2.0000      -0.369220       -10.0470
  40   2.0000      -0.366928        -9.9846
  41   2.0000      -0.363777        -9.8989
  42   2.0000      -0.350608        -9.5405
  43   2.0000      -0.322443        -8.7741
  44   2.0000      -0.318264        -8.6604
  45   2.0000      -0.315901        -8.5961
  46   2.0000      -0.297582        -8.0976
  47   2.0000      -0.272186        -7.4066
  48   2.0000      -0.266696        -7.2572
  49   2.0000      -0.259210        -7.0535
  50   2.0000      -0.233460        -6.3528
  51   0.0000       0.046486         1.2650
  52   0.0000       0.073602         2.0028
  53   0.0000       0.085008         2.3132
  54   0.0000       0.094354         2.5675
  55   0.0000       0.104869         2.8536

MULLIKEN ATOMIC CHARGES
-----------------------
   0 C :    0.313141
   1 C :   -0.317005
   2 C :   -0.301924
   3 C :   -0.002536
   4 O :   -0.496283
   5 H :    0.136887
   6 H :    0.157180
   7 H :    0.157407
   8 H :    0.148446
   9 H :    0.157111
  10 H :    0.155331
  11 H :    0.145411
  12 C :   -0.020853
  13 H :    0.160310
  14 H :    0.138009
  15 O :   -0.530412
  16 C :    0.099510
  17 C :    0.082428
  18 C :   -0.324089
  19 C :   -0.001242
  20 O :   -0.517266
  21 H :    0.143683
  22 H :    0.163297
  23 O :   -0.613015
  24 H :    0.148654
  25 H :    0.157282
  26 H :    0.161066
  27 H :    0.139833
  28 H :    0.359639
Sum of atomic charges:    0.0000000

LOEWDIN ATOMIC CHARGES
----------------------
   0 C :    0.174792
   1 C :   -0.239406
   2 C :   -0.216924
   3 C :   -0.026916
   4 O :   -0.307271
   5 H :    0.090626
   6 H :    0.122475
   7 H :    0.118384
   8 H :    0.117711
   9 H :    0.114058
  10 H :    0.109819
  11 H :    0.104490
  12 C :   -0.045405
  13 H :    0.114380
  14 H :    0.102766
  15 O :   -0.336394
  16 C :    0.014344
  17 C :    0.035990
  18 C :   -0.241001
  19 C :   -0.022952
  20 O :   -0.320264
  21 H :    0.112510
  22 H :    0.116095
  23 O :   -0.414554
  24 H :    0.116315
  25 H :    0.116876
  26 H :    0.112608
  27 H :    0.100273
  28 H :    0.276577

  Mayer bond orders larger than 0.100000
B(  0-C ,  1-C ) :   0.9297 B(  0-C ,  4-O ) :   0.9252 B(  0-C ,  5-H ) :   0.9189
B(  0-C , 15-O ) :   0.8588 B(  1-C ,  2-C ) :   0.9496 B(  1-C ,  6-H ) :   0.9320
B(  1-C ,  7-H ) :   0.9193 B(  2-C ,  3-C ) :   0.9517 B(  2-C ,  8-H ) :   0.9452
B(  2-C ,  9-H ) :   0.9438 B(  3-C ,  4-O ) :   0.8385 B(  3-C , 10-H ) :   0.9338
B(  3-C , 11-H ) :   0.9394 B( 12-C , 13-H ) :   0.9286 B( 12-C , 14-H ) :   0.8954
B( 12-C , 15-O ) :   0.8478 B( 12-C , 16-C ) :   0.9004 B( 16-C , 17-C ) :   0.8877
B( 16-C , 20-O ) :   0.8806 B( 16-C , 21-H ) :   0.9240 B( 17-C , 18-C ) :   0.9407
B( 17-C , 22-H ) :   0.9338 B( 17-C , 23-O ) :   0.8873 B( 18-C , 19-C ) :   0.9454
B( 18-C , 24-H ) :   0.9397 B( 18-C , 25-H ) :   0.9258 B( 19-C , 20-O ) :   0.8386
B( 19-C , 26-H ) :   0.9298 B( 19-C , 27-H ) :   0.9376 B( 23-O , 28-H ) :   0.7923

FINAL SINGLE POINT ENERGY      -652.849812725850

DIPOLE MOMENT
-------------
                                X             Y             Z
Electronic contribution:     -3.13460      -1.73866      -0.17629
Nuclear contribution   :      4.14327       2.16922      -0.05433
                        -----------------------------------------
Total Dipole Moment    :      1.00867       0.43056      -0.23061
                        -----------------------------------------
Magnitude (a.u.)       :      1.12070
Magnitude (Debye)      :      2.84859

Rotational constants in cm-1:     0.050450     0.015795     0.014745
Rotational constants in MHz :  1512.456134   473.531040   442.049492

                             ****ORCA TERMINATED NORMALLY****
TOTAL RUN TIME: 0 days 2 hours 3 minutes 17 seconds 488 msec
