                         Program Version 4.2.0 -  RELEASE  -
|  1> # Test redundant internal optimization
|  2> #
|  3> ! RKS B3LYP  Opt TightSCF SmallPrint
|  4>
|  5> %basis
|  6>         Basis "6-31G"
|  7> end
|  8>
|  9> %geom
| 10> Constraints
| 11> { D 4  0  15  12  330.0   C } # D for Dihedral angle
| 12> { D 0  15  12  16  255.0   C } # D for Dihedral angle
| 13> { D 0  4  3  2   C } # D for Dihedral angle
| 14> { D 4  3  2  1   C } # D for Dihedral angle
| 15> { D 3  2  1  0   C } # D for Dihedral angle
| 16> { D 2  1  0  4   C } # D for Dihedral angle
| 17> { D 1  0  4  3   C } # D for Dihedral angle
| 18> { D 16  20  19  18   C } # D for Dihedral angle
| 19> { D 20  19  18  17   C } # D for Dihedral angle
| 20> { D 19  18  17  16   C } # D for Dihedral angle
| 21> { D 18  17  16  20   C } # D for Dihedral angle
| 22> { D 17  16  20  19   C } # D for Dihedral angle
| 23> { D 15  12  16  20   C } # D for Dihedral angle
| 24> end
| 25> end
| 26>
| 27>
| 28> #%pal
| 29> #nprocs 8
| 30> #end
| 31>
| 32> * xyz 0 1
| 33> C  -21.048   26.222   46.251
| 34> C  -20.361   27.558   45.944
| 35> C  -20.329   28.222   47.341
| 36> C  -20.110   27.022   48.296
| 37> O  -20.473   25.807   47.535
| 38> H  -20.833   25.428   45.533
| 39> H  -19.344   27.382   45.576
| 40> H  -20.898   28.157   45.201
| 41> H  -19.543   28.978   47.434
| 42> H  -21.289   28.710   47.548
| 43> H  -20.733   27.082   49.195
| 44> H  -19.064   26.913   48.597
| 45> C  -23.271   25.476   47.424
| 46> H  -22.507   25.056   48.091
| 47> H  -23.980   26.051   48.033
| 48> O  -22.586   26.394   46.375
| 49> C  -24.051   24.300   46.774
| 50> C  -24.808   23.484   47.828
| 51> C  -26.050   24.372   48.081
| 52> C  -26.340   24.974   46.683
| 53> O  -25.104   24.810   45.889
| 54> H  -23.368   23.715   46.155
| 55> H  -25.104   22.514   47.413
| 56> O  -23.977   23.232   49.116
| 57> H  -26.901   23.809   48.478
| 58> H  -25.807   25.163   48.800
| 59> H  -26.597   26.039   46.731
| 60> H  -27.136   24.441   46.156
| 61> H  -23.669   24.189   49.551
| 62> *
| 63>
| 64>                          ****END OF INPUT****
 Total Charge           Charge          ....    0
 Multiplicity           Mult            ....    1
 Number of Electrons    NEL             ....  102
FINAL SINGLE POINT ENERGY      -652.829685879272
FINAL SINGLE POINT ENERGY      -652.852801586004
FINAL SINGLE POINT ENERGY      -652.857130595618
FINAL SINGLE POINT ENERGY      -652.857906139469
FINAL SINGLE POINT ENERGY      -652.858039430333
FINAL SINGLE POINT ENERGY      -652.858070410690
FINAL SINGLE POINT ENERGY      -652.858074109640
                    ***********************HURRAY********************

CARTESIAN COORDINATES (ANGSTROEM)
---------------------------------
  C    -21.078199   26.164688   46.305282
  C    -20.482445   27.525676   45.947058
  C    -20.379502   28.197787   47.333488
  C    -20.034578   27.023707   48.274706
  O    -20.402546   25.786475   47.527504
  H    -20.877749   25.358625   45.593703
  H    -19.492545   27.380644   45.499715
  H    -21.115709   28.075365   45.247840
  H    -19.622394   28.987552   47.363712
  H    -21.345655   28.636462   47.600034
  H    -20.590031   27.045449   49.216178
  H    -18.965130   26.946174   48.489663
  C    -23.193816   25.530953   47.467741
  H    -22.457597   25.124455   48.169683
  H    -23.861064   26.222776   47.994698
  O    -22.515798   26.334360   46.458281
  C    -23.989430   24.391914   46.828421
  C    -24.770934   23.539141   47.843149
  C    -26.060403   24.390396   48.052303
  C    -26.298479   24.992586   46.649652
  O    -25.017078   24.874160   45.909330
  H    -23.309589   23.783375   46.224313
  H    -25.022344   22.577241   47.391143
  O    -24.060444   23.190549   49.054878
  H    -26.900447   23.787202   48.407112
  H    -25.865851   25.171815   48.799252
  H    -26.595478   26.045519   46.681848
  H    -27.048336   24.433168   46.082538
  H    -23.927429   23.981785   49.615776

 Multiplicity           Mult            ....    1
 Number of Electrons    NEL             ....  102
 Basis Dimension        Dim             ....  149

ORBITAL ENERGIES
----------------

  NO   OCC          E(Eh)            E(eV)
   0   2.0000     -19.148531      -521.0580
   1   2.0000     -19.146231      -520.9954
   2   2.0000     -19.136449      -520.7293
   3   2.0000     -19.131913      -520.6058
   4   2.0000     -10.276515      -279.6382
   5   2.0000     -10.241285      -278.6795
   6   2.0000     -10.230784      -278.3938
   7   2.0000     -10.226390      -278.2742
   8   2.0000     -10.225139      -278.2402
   9   2.0000     -10.222529      -278.1692
  10   2.0000     -10.192272      -277.3458
  11   2.0000     -10.187632      -277.2196
  12   2.0000     -10.183847      -277.1166
  13   2.0000      -1.053344       -28.6630
  14   2.0000      -1.029901       -28.0250
  15   2.0000      -1.011420       -27.5221
  16   2.0000      -0.989103       -26.9148
  17   2.0000      -0.790155       -21.5012
  18   2.0000      -0.778367       -21.1805
  19   2.0000      -0.763241       -20.7688
  20   2.0000      -0.731930       -19.9168
  21   2.0000      -0.676070       -18.3968
  22   2.0000      -0.607324       -16.5261
  23   2.0000      -0.601962       -16.3802
  24   2.0000      -0.594965       -16.1898
  25   2.0000      -0.564738       -15.3673
  26   2.0000      -0.526877       -14.3370
  27   2.0000      -0.507396       -13.8070
  28   2.0000      -0.496972       -13.5233
  29   2.0000      -0.495785       -13.4910
  30   2.0000      -0.468542       -12.7497
  31   2.0000      -0.454468       -12.3667
  32   2.0000      -0.442565       -12.0428
  33   2.0000      -0.428006       -11.6466
  34   2.0000      -0.423202       -11.5159
  35   2.0000      -0.414937       -11.2910
  36   2.0000      -0.408341       -11.1115
  37   2.0000      -0.397303       -10.8112
  38   2.0000      -0.373627       -10.1669
  39   2.0000      -0.369635       -10.0583
  40   2.0000      -0.358758        -9.7623
  41   2.0000      -0.350524        -9.5382
  42   2.0000      -0.347709        -9.4616
  43   2.0000      -0.336613        -9.1597
  44   2.0000      -0.325999        -8.8709
  45   2.0000      -0.309906        -8.4330
  46   2.0000      -0.295025        -8.0280
  47   2.0000      -0.268149        -7.2967
  48   2.0000      -0.264107        -7.1867
  49   2.0000      -0.259543        -7.0625
  50   2.0000      -0.230454        -6.2710
  51   0.0000       0.054093         1.4719
  52   0.0000       0.079563         2.1650
  53   0.0000       0.089826         2.4443
  54   0.0000       0.094853         2.5811
  55   0.0000       0.109745         2.9863

MULLIKEN ATOMIC CHARGES
-----------------------
   0 C :    0.292137
   1 C :   -0.259127
   2 C :   -0.301724
   3 C :   -0.011864
   4 O :   -0.513107
   5 H :    0.152979
   6 H :    0.143784
   7 H :    0.165941
   8 H :    0.144396
   9 H :    0.158618
  10 H :    0.140563
  11 H :    0.150041
  12 C :   -0.038359
  13 H :    0.163007
  14 H :    0.129613
  15 O :   -0.518406
  16 C :    0.097741
  17 C :    0.083731
  18 C :   -0.322280
  19 C :   -0.010121
  20 O :   -0.506727
  21 H :    0.155542
  22 H :    0.167838
  23 O :   -0.598828
  24 H :    0.155504
  25 H :    0.132132
  26 H :    0.143898
  27 H :    0.148496
  28 H :    0.354582
Sum of atomic charges:    0.0000000

LOEWDIN ATOMIC CHARGES
----------------------
   0 C :    0.178320
   1 C :   -0.215072
   2 C :   -0.217538
   3 C :   -0.030621
   4 O :   -0.323330
   5 H :    0.099829
   6 H :    0.113372
   7 H :    0.128761
   8 H :    0.115520
   9 H :    0.117350
  10 H :    0.101441
  11 H :    0.106590
  12 C :   -0.060236
  13 H :    0.115010
  14 H :    0.098560
  15 O :   -0.325130
  16 C :    0.014068
  17 C :    0.033716
  18 C :   -0.241676
  19 C :   -0.030564
  20 O :   -0.316620
  21 H :    0.115054
  22 H :    0.119483
  23 O :   -0.405991
  24 H :    0.121717
  25 H :    0.103224
  26 H :    0.102800
  27 H :    0.105387
  28 H :    0.276574

  Mayer bond orders larger than 0.100000
B(  0-C ,  1-C ) :   0.9433 B(  0-C ,  4-O ) :   0.8977 B(  0-C ,  5-H ) :   0.9222
B(  0-C , 15-O ) :   0.8555 B(  1-C ,  2-C ) :   0.9537 B(  1-C ,  6-H ) :   0.9379
B(  1-C ,  7-H ) :   0.9345 B(  2-C ,  3-C ) :   0.9557 B(  2-C ,  8-H ) :   0.9448
B(  2-C ,  9-H ) :   0.9449 B(  3-C ,  4-O ) :   0.8305 B(  3-C , 10-H ) :   0.9361
B(  3-C , 11-H ) :   0.9405 B( 12-C , 13-H ) :   0.8898 B( 12-C , 14-H ) :   0.9365
B( 12-C , 15-O ) :   0.8525 B( 12-C , 16-C ) :   0.8932 B( 16-C , 17-C ) :   0.8731
B( 16-C , 20-O ) :   0.8670 B( 16-C , 21-H ) :   0.9332 B( 17-C , 18-C ) :   0.9212
B( 17-C , 22-H ) :   0.9327 B( 17-C , 23-O ) :   0.8966 B( 18-C , 19-C ) :   0.9392
B( 18-C , 24-H ) :   0.9427 B( 18-C , 25-H ) :   0.9422 B( 19-C , 20-O ) :   0.8523
B( 19-C , 26-H ) :   0.9312 B( 19-C , 27-H ) :   0.9376 B( 23-O , 28-H ) :   0.7978

FINAL SINGLE POINT ENERGY      -652.858075116010

DIPOLE MOMENT
-------------
                                X             Y             Z
Electronic contribution:     -0.23486      -3.94420      -1.87346
Nuclear contribution   :      0.16961       4.89258       2.62888
                        -----------------------------------------
Total Dipole Moment    :     -0.06525       0.94838       0.75542
                        -----------------------------------------
Magnitude (a.u.)       :      1.21422
Magnitude (Debye)      :      3.08631

Rotational constants in cm-1:     0.054199     0.013254     0.011815
Rotational constants in MHz :  1624.848238   397.343357   354.194574

                             ****ORCA TERMINATED NORMALLY****
TOTAL RUN TIME: 0 days 1 hours 5 minutes 13 seconds 415 msec
