                         Program Version 4.2.0 -  RELEASE  -
|  1> # Test redundant internal optimization
|  2> #
|  3> ! RKS B3LYP  Opt TightSCF SmallPrint
|  4>
|  5> %basis
|  6>         Basis "6-31G"
|  7> end
|  8>
|  9> %geom
| 10> Constraints
| 11> { D 4  0  15  12  30.0   C } # D for Dihedral angle
| 12> { D 0  15  12  16  120.0   C } # D for Dihedral angle
| 13> { D 0  4  3  2   C } # D for Dihedral angle
| 14> { D 4  3  2  1   C } # D for Dihedral angle
| 15> { D 3  2  1  0   C } # D for Dihedral angle
| 16> { D 2  1  0  4   C } # D for Dihedral angle
| 17> { D 1  0  4  3   C } # D for Dihedral angle
| 18> { D 16  20  19  18   C } # D for Dihedral angle
| 19> { D 20  19  18  17   C } # D for Dihedral angle
| 20> { D 19  18  17  16   C } # D for Dihedral angle
| 21> { D 18  17  16  20   C } # D for Dihedral angle
| 22> { D 17  16  20  19   C } # D for Dihedral angle
| 23> { D 15  12  16  20   C } # D for Dihedral angle
| 24> end
| 25> end
| 26>
| 27>
| 28> #%pal
| 29> #nprocs 8
| 30> #end
| 31>
| 32> * xyz 0 1
| 33> C  -21.048   26.222   46.251
| 34> C  -20.361   27.558   45.944
| 35> C  -20.329   28.222   47.341
| 36> C  -20.110   27.022   48.296
| 37> O  -20.473   25.807   47.535
| 38> H  -20.833   25.428   45.533
| 39> H  -19.344   27.382   45.576
| 40> H  -20.898   28.157   45.201
| 41> H  -19.543   28.978   47.434
| 42> H  -21.289   28.710   47.548
| 43> H  -20.733   27.082   49.195
| 44> H  -19.064   26.913   48.597
| 45> C  -23.091   26.824   47.779
| 46> H  -23.767   26.054   48.172
| 47> H  -22.249   26.928   48.475
| 48> O  -22.586   26.394   46.375
| 49> C  -23.854   28.177   47.755
| 50> C  -24.237   28.627   49.169
| 51> C  -22.900   29.213   49.684
| 52> C  -22.285   29.852   48.414
| 53> O  -22.983   29.248   47.259
| 54> H  -24.695   28.102   47.062
| 55> H  -25.007   29.404   49.123
| 56> O  -24.766   27.466   50.056
| 57> H  -23.038   29.940   50.491
| 58> H  -22.257   28.410   50.062
| 59> H  -21.210   29.657   48.325
| 60> H  -22.454   30.931   48.365
| 61> H  -24.010   26.675   50.119
| 62> *
| 63>
| 64>                          ****END OF INPUT****
 Total Charge           Charge          ....    0
 Multiplicity           Mult            ....    1
 Number of Electrons    NEL             ....  102
FINAL SINGLE POINT ENERGY      -652.766399516841
FINAL SINGLE POINT ENERGY      -652.819481405712
FINAL SINGLE POINT ENERGY      -652.842870074212
FINAL SINGLE POINT ENERGY      -652.849606772833
FINAL SINGLE POINT ENERGY      -652.850353953428
FINAL SINGLE POINT ENERGY      -652.850577240949
FINAL SINGLE POINT ENERGY      -652.850629327957
FINAL SINGLE POINT ENERGY      -652.850642579810
FINAL SINGLE POINT ENERGY      -652.850645916354
FINAL SINGLE POINT ENERGY      -652.850645678844
                    ***********************HURRAY********************

CARTESIAN COORDINATES (ANGSTROEM)
---------------------------------
  C    -21.103977   26.251591   46.300900
  C    -20.304043   27.465963   45.822820
  C    -19.845692   28.092404   47.162632
  C    -19.606458   26.856755   48.061370
  O    -20.332980   25.734083   47.409962
  H    -21.133247   25.452209   45.556883
  H    -19.452043   27.113450   45.230630
  H    -20.910514   28.146966   45.222676
  H    -18.946379   28.707694   47.061615
  H    -20.653778   28.715784   47.542540
  H    -19.982177   26.979560   49.082783
  H    -18.553101   26.563360   48.105681
  C    -23.055797   26.819059   47.867866
  H    -23.795512   26.051196   48.121611
  H    -22.268937   26.794544   48.634866
  O    -22.508650   26.471571   46.571836
  C    -23.785584   28.164788   47.824848
  C    -24.455274   28.598059   49.141127
  C    -23.297373   29.364813   49.847574
  C    -22.562797   30.042828   48.673068
  O    -22.981611   29.322556   47.434644
  H    -24.529767   28.076036   47.025241
  H    -25.281596   29.276181   48.920390
  O    -25.055311   27.538223   49.921714
  H    -23.662186   30.078037   50.591400
  H    -22.646418   28.643128   50.360099
  H    -21.473851   30.002475   48.770554
  H    -22.863261   31.086377   48.541516
  H    -24.365686   26.973311   50.327155

 Multiplicity           Mult            ....    1
 Number of Electrons    NEL             ....  102
 Basis Dimension        Dim             ....  149

ORBITAL ENERGIES
----------------

  NO   OCC          E(Eh)            E(eV)
   0   2.0000     -19.153494      -521.1931
   1   2.0000     -19.148931      -521.0689
   2   2.0000     -19.145486      -520.9751
   3   2.0000     -19.134524      -520.6769
   4   2.0000     -10.275165      -279.6014
   5   2.0000     -10.249676      -278.9079
   6   2.0000     -10.238491      -278.6035
   7   2.0000     -10.233008      -278.4543
   8   2.0000     -10.232387      -278.4374
   9   2.0000     -10.230373      -278.3826
  10   2.0000     -10.201211      -277.5891
  11   2.0000     -10.183531      -277.1080
  12   2.0000     -10.178673      -276.9758
  13   2.0000      -1.049700       -28.5638
  14   2.0000      -1.037853       -28.2414
  15   2.0000      -1.021206       -27.7884
  16   2.0000      -0.990960       -26.9654
  17   2.0000      -0.789078       -21.4719
  18   2.0000      -0.784555       -21.3488
  19   2.0000      -0.772556       -21.0223
  20   2.0000      -0.734587       -19.9891
  21   2.0000      -0.683563       -18.6007
  22   2.0000      -0.617481       -16.8025
  23   2.0000      -0.601832       -16.3767
  24   2.0000      -0.595797       -16.2125
  25   2.0000      -0.571195       -15.5430
  26   2.0000      -0.528993       -14.3946
  27   2.0000      -0.515816       -14.0361
  28   2.0000      -0.502031       -13.6609
  29   2.0000      -0.490068       -13.3354
  30   2.0000      -0.469501       -12.7758
  31   2.0000      -0.462753       -12.5921
  32   2.0000      -0.447146       -12.1675
  33   2.0000      -0.440797       -11.9947
  34   2.0000      -0.432770       -11.7763
  35   2.0000      -0.416460       -11.3325
  36   2.0000      -0.409219       -11.1354
  37   2.0000      -0.398475       -10.8430
  38   2.0000      -0.386246       -10.5103
  39   2.0000      -0.369572       -10.0566
  40   2.0000      -0.359821        -9.7912
  41   2.0000      -0.354292        -9.6408
  42   2.0000      -0.339909        -9.2494
  43   2.0000      -0.339640        -9.2421
  44   2.0000      -0.322794        -8.7837
  45   2.0000      -0.317762        -8.6467
  46   2.0000      -0.303388        -8.2556
  47   2.0000      -0.275189        -7.4883
  48   2.0000      -0.264154        -7.1880
  49   2.0000      -0.259904        -7.0724
  50   2.0000      -0.235943        -6.4203
  51   0.0000       0.044063         1.1990
  52   0.0000       0.058043         1.5794
  53   0.0000       0.084718         2.3053
  54   0.0000       0.089523         2.4360
  55   0.0000       0.099289         2.7018

MULLIKEN ATOMIC CHARGES
-----------------------
   0 C :    0.305454
   1 C :   -0.256466
   2 C :   -0.337188
   3 C :   -0.017018
   4 O :   -0.512314
   5 H :    0.162019
   6 H :    0.142578
   7 H :    0.168470
   8 H :    0.140012
   9 H :    0.184171
  10 H :    0.129824
  11 H :    0.149003
  12 C :   -0.022445
  13 H :    0.155550
  14 H :    0.125563
  15 O :   -0.531899
  16 C :    0.097010
  17 C :    0.082276
  18 C :   -0.317585
  19 C :   -0.024773
  20 O :   -0.509806
  21 H :    0.169474
  22 H :    0.172295
  23 O :   -0.596402
  24 H :    0.160941
  25 H :    0.131173
  26 H :    0.136214
  27 H :    0.156699
  28 H :    0.357171
Sum of atomic charges:   -0.0000000

LOEWDIN ATOMIC CHARGES
----------------------
   0 C :    0.185589
   1 C :   -0.223278
   2 C :   -0.230520
   3 C :   -0.035095
   4 O :   -0.321611
   5 H :    0.109137
   6 H :    0.113627
   7 H :    0.130354
   8 H :    0.114782
   9 H :    0.124136
  10 H :    0.093001
  11 H :    0.104813
  12 C :   -0.045385
  13 H :    0.113274
  14 H :    0.093554
  15 O :   -0.327921
  16 C :    0.010201
  17 C :    0.035701
  18 C :   -0.240537
  19 C :   -0.036234
  20 O :   -0.318804
  21 H :    0.120474
  22 H :    0.121313
  23 O :   -0.403872
  24 H :    0.124539
  25 H :    0.103453
  26 H :    0.097342
  27 H :    0.109036
  28 H :    0.278931

  Mayer bond orders larger than 0.100000
B(  0-C ,  1-C ) :   0.9172 B(  0-C ,  4-O ) :   0.9063 B(  0-C ,  5-H ) :   0.9350
B(  0-C , 15-O ) :   0.8706 B(  1-C ,  2-C ) :   0.9572 B(  1-C ,  6-H ) :   0.9347
B(  1-C ,  7-H ) :   0.9329 B(  2-C ,  3-C ) :   0.9524 B(  2-C ,  8-H ) :   0.9459
B(  2-C ,  9-H ) :   0.9089 B(  3-C ,  4-O ) :   0.8370 B(  3-C , 10-H ) :   0.9321
B(  3-C , 11-H ) :   0.9394 B( 12-C , 13-H ) :   0.9146 B( 12-C , 14-H ) :   0.9172
B( 12-C , 15-O ) :   0.8481 B( 12-C , 16-C ) :   0.8973 B( 16-C , 17-C ) :   0.8688
B( 16-C , 20-O ) :   0.8597 B( 16-C , 21-H ) :   0.9275 B( 17-C , 18-C ) :   0.9214
B( 17-C , 22-H ) :   0.9322 B( 17-C , 23-O ) :   0.9014 B( 18-C , 19-C ) :   0.9441
B( 18-C , 24-H ) :   0.9409 B( 18-C , 25-H ) :   0.9416 B( 19-C , 20-O ) :   0.8437
B( 19-C , 26-H ) :   0.9190 B( 19-C , 27-H ) :   0.9388 B( 23-O , 28-H ) :   0.7976

FINAL SINGLE POINT ENERGY      -652.850644464237

DIPOLE MOMENT
-------------
                                X             Y             Z
Electronic contribution:     -4.06883      -3.70767      -2.13041
Nuclear contribution   :      4.93144       4.61113       3.02551
                        -----------------------------------------
Total Dipole Moment    :      0.86261       0.90346       0.89510
                        -----------------------------------------
Magnitude (a.u.)       :      1.53673
Magnitude (Debye)      :      3.90605

Rotational constants in cm-1:     0.044650     0.017256     0.015598
Rotational constants in MHz :  1338.584253   517.311053   467.611098

                             ****ORCA TERMINATED NORMALLY****
TOTAL RUN TIME: 0 days 2 hours 33 minutes 2 seconds 424 msec
