                         Program Version 4.2.0 -  RELEASE  -
|  1> # Test redundant internal optimization
|  2> #
|  3> ! RKS B3LYP  Opt TightSCF SmallPrint
|  4>
|  5> %basis
|  6>         Basis "6-31G"
|  7> end
|  8>
|  9> %geom
| 10> Constraints
| 11> { D 4  0  15  12  150.0   C } # D for Dihedral angle
| 12> { D 0  15  12  16  210.0   C } # D for Dihedral angle
| 13> { D 0  4  3  2   C } # D for Dihedral angle
| 14> { D 4  3  2  1   C } # D for Dihedral angle
| 15> { D 3  2  1  0   C } # D for Dihedral angle
| 16> { D 2  1  0  4   C } # D for Dihedral angle
| 17> { D 1  0  4  3   C } # D for Dihedral angle
| 18> { D 16  20  19  18   C } # D for Dihedral angle
| 19> { D 20  19  18  17   C } # D for Dihedral angle
| 20> { D 19  18  17  16   C } # D for Dihedral angle
| 21> { D 18  17  16  20   C } # D for Dihedral angle
| 22> { D 17  16  20  19   C } # D for Dihedral angle
| 23> { D 15  12  16  20   C } # D for Dihedral angle
| 24> end
| 25> end
| 26>
| 27>
| 28> #%pal
| 29> #nprocs 8
| 30> #end
| 31>
| 32> * xyz 0 1
| 33> C  -21.048   26.222   46.251
| 34> C  -20.361   27.558   45.944
| 35> C  -20.329   28.222   47.341
| 36> C  -20.110   27.022   48.296
| 37> O  -20.473   25.807   47.535
| 38> H  -20.833   25.428   45.533
| 39> H  -19.344   27.382   45.576
| 40> H  -20.898   28.157   45.201
| 41> H  -19.543   28.978   47.434
| 42> H  -21.289   28.710   47.548
| 43> H  -20.733   27.082   49.195
| 44> H  -19.064   26.913   48.597
| 45> C  -23.210   27.459   45.431
| 46> H  -22.470   28.244   45.232
| 47> H  -23.493   27.004   44.474
| 48> O  -22.586   26.394   46.375
| 49> C  -24.478   28.124   46.033
| 50> C  -25.132   29.082   45.031
| 51> C  -25.895   28.101   44.110
| 52> C  -26.353   26.988   45.086
| 53> O  -25.511   27.116   46.294
| 54> H  -24.224   28.579   46.992
| 55> H  -25.831   29.750   45.548
| 56> O  -24.103   29.954   44.260
| 57> H  -26.736   28.572   43.591
| 58> H  -25.218   27.694   43.350
| 59> H  -26.226   25.984   44.665
| 60> H  -27.393   27.111   45.402
| 61> H  -23.393   29.308   43.733
| 62> *
| 63>
| 64>                          ****END OF INPUT****
 Total Charge           Charge          ....    0
 Multiplicity           Mult            ....    1
 Number of Electrons    NEL             ....  102
FINAL SINGLE POINT ENERGY      -652.814327670491
FINAL SINGLE POINT ENERGY      -652.838529119330
FINAL SINGLE POINT ENERGY      -652.844331621150
FINAL SINGLE POINT ENERGY      -652.846667902914
FINAL SINGLE POINT ENERGY      -652.847064001028
FINAL SINGLE POINT ENERGY      -652.847195262229
FINAL SINGLE POINT ENERGY      -652.847207500836
FINAL SINGLE POINT ENERGY      -652.847210763480
                    ***********************HURRAY********************

CARTESIAN COORDINATES (ANGSTROEM)
---------------------------------
  C    -21.056143   26.266283   46.220953
  C    -20.176626   27.491323   45.968271
  C    -20.264550   28.239494   47.324924
  C    -20.334337   27.080668   48.342367
  O    -20.731995   25.882349   47.565293
  H    -20.837206   25.404784   45.584379
  H    -19.153617   27.139240   45.792637
  H    -20.462627   28.105297   45.111537
  H    -19.405023   28.894772   47.494855
  H    -21.171978   28.851090   47.365271
  H    -21.070721   27.246117   49.132757
  H    -19.363201   26.854433   48.792747
  C    -23.093465   27.468152   45.287609
  H    -22.427403   28.314632   45.082547
  H    -23.331581   26.976465   44.331094
  O    -22.498454   26.507346   46.192186
  C    -24.351133   28.029175   45.951230
  C    -25.108090   29.043280   45.077310
  C    -25.973596   28.110169   44.178213
  C    -26.323085   26.948713   45.134879
  O    -25.351786   27.013201   46.255357
  H    -24.056937   28.451749   46.916199
  H    -25.745956   29.662565   45.711325
  O    -24.272739   29.986928   44.358766
  H    -26.856844   28.617670   43.782197
  H    -25.373307   27.760907   43.327384
  H    -26.252445   25.966632   44.657219
  H    -27.321265   27.057427   45.569986
  H    -23.910892   29.574139   43.548509

 Multiplicity           Mult            ....    1
 Number of Electrons    NEL             ....  102
 Basis Dimension        Dim             ....  149

ORBITAL ENERGIES
----------------

  NO   OCC          E(Eh)            E(eV)
   0   2.0000     -19.152957      -521.1785
   1   2.0000     -19.135696      -520.7088
   2   2.0000     -19.134695      -520.6815
   3   2.0000     -19.133925      -520.6606
   4   2.0000     -10.277860      -279.6748
   5   2.0000     -10.246524      -278.8221
   6   2.0000     -10.231155      -278.4039
   7   2.0000     -10.230021      -278.3730
   8   2.0000     -10.229483      -278.3584
   9   2.0000     -10.223110      -278.1850
  10   2.0000     -10.197438      -277.4864
  11   2.0000     -10.191185      -277.3162
  12   2.0000     -10.189525      -277.2711
  13   2.0000      -1.048614       -28.5342
  14   2.0000      -1.035003       -28.1639
  15   2.0000      -1.015527       -27.6339
  16   2.0000      -0.987932       -26.8830
  17   2.0000      -0.787587       -21.4313
  18   2.0000      -0.783865       -21.3300
  19   2.0000      -0.769199       -20.9310
  20   2.0000      -0.731442       -19.9035
  21   2.0000      -0.683219       -18.5913
  22   2.0000      -0.613018       -16.6811
  23   2.0000      -0.602933       -16.4066
  24   2.0000      -0.590736       -16.0747
  25   2.0000      -0.571486       -15.5509
  26   2.0000      -0.525386       -14.2965
  27   2.0000      -0.513710       -13.9788
  28   2.0000      -0.501596       -13.6491
  29   2.0000      -0.497638       -13.5414
  30   2.0000      -0.465923       -12.6784
  31   2.0000      -0.456571       -12.4239
  32   2.0000      -0.448621       -12.2076
  33   2.0000      -0.433894       -11.8069
  34   2.0000      -0.430551       -11.7159
  35   2.0000      -0.419816       -11.4238
  36   2.0000      -0.409067       -11.1313
  37   2.0000      -0.396788       -10.7972
  38   2.0000      -0.378472       -10.2987
  39   2.0000      -0.375370       -10.2143
  40   2.0000      -0.359344        -9.7783
  41   2.0000      -0.356605        -9.7037
  42   2.0000      -0.352437        -9.5903
  43   2.0000      -0.330801        -9.0015
  44   2.0000      -0.317810        -8.6481
  45   2.0000      -0.308669        -8.3993
  46   2.0000      -0.290304        -7.8996
  47   2.0000      -0.273042        -7.4298
  48   2.0000      -0.261810        -7.1242
  49   2.0000      -0.247224        -6.7273
  50   2.0000      -0.237109        -6.4521
  51   0.0000       0.046989         1.2786
  52   0.0000       0.073850         2.0096
  53   0.0000       0.083985         2.2853
  54   0.0000       0.089320         2.4305
  55   0.0000       0.104605         2.8464

MULLIKEN ATOMIC CHARGES
-----------------------
   0 C :    0.317884
   1 C :   -0.300800
   2 C :   -0.301171
   3 C :    0.000036
   4 O :   -0.493905
   5 H :    0.146281
   6 H :    0.153096
   7 H :    0.141373
   8 H :    0.144527
   9 H :    0.156011
  10 H :    0.155431
  11 H :    0.142516
  12 C :   -0.016564
  13 H :    0.129605
  14 H :    0.117094
  15 O :   -0.509873
  16 C :    0.104910
  17 C :    0.081738
  18 C :   -0.325514
  19 C :   -0.007336
  20 O :   -0.499473
  21 H :    0.158034
  22 H :    0.168097
  23 O :   -0.602326
  24 H :    0.156807
  25 H :    0.132331
  26 H :    0.147121
  27 H :    0.148713
  28 H :    0.355358
Sum of atomic charges:   -0.0000000

LOEWDIN ATOMIC CHARGES
----------------------
   0 C :    0.185101
   1 C :   -0.235191
   2 C :   -0.217512
   3 C :   -0.026652
   4 O :   -0.302982
   5 H :    0.099528
   6 H :    0.120161
   7 H :    0.112079
   8 H :    0.115531
   9 H :    0.113237
  10 H :    0.109933
  11 H :    0.102803
  12 C :   -0.052155
  13 H :    0.096509
  14 H :    0.086207
  15 O :   -0.322734
  16 C :    0.022713
  17 C :    0.033200
  18 C :   -0.241486
  19 C :   -0.028698
  20 O :   -0.308474
  21 H :    0.116586
  22 H :    0.119694
  23 O :   -0.410325
  24 H :    0.122079
  25 H :    0.103113
  26 H :    0.104653
  27 H :    0.105724
  28 H :    0.277358

  Mayer bond orders larger than 0.100000
B(  0-C ,  1-C ) :   0.9295 B(  0-C ,  4-O ) :   0.9326 B(  0-C ,  5-H ) :   0.9255
B(  0-C , 15-O ) :   0.8465 B(  1-C ,  2-C ) :   0.9498 B(  1-C ,  6-H ) :   0.9334
B(  1-C ,  7-H ) :   0.9266 B(  2-C ,  3-C ) :   0.9532 B(  2-C ,  8-H ) :   0.9454
B(  2-C ,  9-H ) :   0.9440 B(  3-C ,  4-O ) :   0.8388 B(  3-C , 10-H ) :   0.9338
B(  3-C , 11-H ) :   0.9395 B( 12-C , 13-H ) :   0.8881 B( 12-C , 14-H ) :   0.9201
B( 12-C , 15-O ) :   0.8548 B( 12-C , 16-C ) :   0.9030 B( 16-C , 17-C ) :   0.8709
B( 16-C , 20-O ) :   0.8765 B( 16-C , 21-H ) :   0.9295 B( 17-C , 18-C ) :   0.9278
B( 17-C , 22-H ) :   0.9330 B( 17-C , 23-O ) :   0.8897 B( 18-C , 19-C ) :   0.9393
B( 18-C , 24-H ) :   0.9413 B( 18-C , 25-H ) :   0.9399 B( 19-C , 20-O ) :   0.8519
B( 19-C , 26-H ) :   0.9313 B( 19-C , 27-H ) :   0.9375 B( 23-O , 28-H ) :   0.7994

FINAL SINGLE POINT ENERGY      -652.847210900774

DIPOLE MOMENT
-------------
                                X             Y             Z
Electronic contribution:     -1.56151      -2.95389       1.88382
Nuclear contribution   :      1.85535       3.82314      -3.23382
                        -----------------------------------------
Total Dipole Moment    :      0.29384       0.86925      -1.35000
                        -----------------------------------------
Magnitude (a.u.)       :      1.63231
Magnitude (Debye)      :      4.14900

Rotational constants in cm-1:     0.052923     0.013440     0.012048
Rotational constants in MHz :  1586.588902   402.916359   361.187787

                             ****ORCA TERMINATED NORMALLY****
TOTAL RUN TIME: 0 days 1 hours 3 minutes 27 seconds 576 msec
