                         Program Version 4.2.1 -  RELEASE  -
|  1> # Test redundant internal optimization
|  2> #
|  3> ! RKS B3LYP  Opt TightSCF SmallPrint
|  4>
|  5> %basis
|  6>         Basis "6-31G"
|  7> end
|  8>
|  9> %geom
| 10> Constraints
| 11> { D 4  0  19  14  210.0   C } # D for Dihedral angle
| 12> { D 0  19  14  12  45.0   C } # D for Dihedral angle
| 13> { D 0  4  3  2   C } # D for Dihedral angle
| 14> { D 4  3  2  1   C } # D for Dihedral angle
| 15> { D 3  2  1  0   C } # D for Dihedral angle
| 16> { D 2  1  0  4   C } # D for Dihedral angle
| 17> { D 1  0  4  3   C } # D for Dihedral angle
| 18> { D 14  15  16  17   C } # D for Dihedral angle
| 19> { D 15  16  17  12   C } # D for Dihedral angle
| 20> { D 16  17  12  14   C } # D for Dihedral angle
| 21> { D 17  12  14  15   C } # D for Dihedral angle
| 22> { D 12  14  15  16   C } # D for Dihedral angle
| 23> end
| 24> end
| 25>
| 26>
| 27> #%pal
| 28> #nprocs 8
| 29> #end
| 30>
| 31> * xyz 0 1
| 32> C  -21.048   26.222   46.251
| 33> C  -20.361   27.558   45.944
| 34> C  -20.329   28.222   47.341
| 35> C  -20.110   27.022   48.296
| 36> O  -20.473   25.807   47.535
| 37> H  -20.833   25.428   45.533
| 38> H  -19.344   27.382   45.576
| 39> H  -20.898   28.157   45.201
| 40> H  -19.543   28.978   47.434
| 41> H  -21.289   28.710   47.548
| 42> H  -20.733   27.082   49.195
| 43> H  -19.064   26.913   48.597
| 44> C  -22.676   24.829   44.502
| 45> H  -22.997   24.754   43.451
| 46> C  -23.197   26.114   45.155
| 47> C  -24.663   25.735   45.468
| 48> C  -24.569   24.232   45.831
| 49> O  -23.275   23.751   45.298
| 50> H  -21.594   24.701   44.555
| 51> O  -22.472   26.381   46.366
| 52> H  -23.116   26.991   44.503
| 53> H  -25.094   26.333   46.278
| 54> H  -25.289   25.878   44.578
| 55> H  -25.379   23.641   45.391
| 56> H  -24.553   24.063   46.912
| 57> *
| 58>
| 59>                          ****END OF INPUT****
 Total Charge           Charge          ....    0
 Multiplicity           Mult            ....    1
 Number of Electrons    NEL             ....   86
FINAL SINGLE POINT ENERGY      -538.414423900075
FINAL SINGLE POINT ENERGY      -538.426392227882
FINAL SINGLE POINT ENERGY      -538.427931603562
FINAL SINGLE POINT ENERGY      -538.428250249170
FINAL SINGLE POINT ENERGY      -538.428295232779
FINAL SINGLE POINT ENERGY      -538.428306128884
FINAL SINGLE POINT ENERGY      -538.428307418695
                    ***********************HURRAY********************

CARTESIAN COORDINATES (ANGSTROEM)
---------------------------------
  C    -20.919546   26.197705   46.236801
  C    -20.239009   27.541567   45.980364
  C    -20.391929   28.244684   47.350983
  C    -20.257876   27.078113   48.352833
  O    -20.499901   25.841100   47.565662
  H    -20.611953   25.383609   45.580226
  H    -19.181440   27.377357   45.740954
  H    -20.699088   28.099483   45.159495
  H    -19.640196   29.023230   47.511516
  H    -21.384384   28.699390   47.420944
  H    -20.986524   27.122980   49.166414
  H    -19.250834   26.990304   48.771782
  C    -22.817169   24.783575   44.305421
  H    -23.319921   24.794891   43.326232
  C    -23.164303   26.068432   45.055367
  C    -24.574996   25.748857   45.582618
  C    -24.507699   24.236388   45.896918
  O    -23.335508   23.712893   45.157011
  H    -21.756473   24.586839   44.145510
  O    -22.363507   26.348994   46.246438
  H    -23.148151   26.944399   44.390944
  H    -24.798005   26.359300   46.460113
  H    -25.319428   25.962059   44.806382
  H    -25.404098   23.697569   45.571646
  H    -24.327061   24.040281   46.956425

 Multiplicity           Mult            ....    1
 Number of Electrons    NEL             ....   86
 Basis Dimension        Dim             ....  127

ORBITAL ENERGIES
----------------

  NO   OCC          E(Eh)            E(eV)
   0   2.0000     -19.137626      -520.7613
   1   2.0000     -19.135360      -520.6996
   2   2.0000     -19.129189      -520.5317
   3   2.0000     -10.276033      -279.6251
   4   2.0000     -10.243419      -278.7376
   5   2.0000     -10.227591      -278.3069
   6   2.0000     -10.221438      -278.1395
   7   2.0000     -10.218321      -278.0547
   8   2.0000     -10.184446      -277.1329
   9   2.0000     -10.184401      -277.1316
  10   2.0000     -10.183831      -277.1161
  11   2.0000      -1.049500       -28.5584
  12   2.0000      -1.014316       -27.6010
  13   2.0000      -0.986290       -26.8383
  14   2.0000      -0.789142       -21.4736
  15   2.0000      -0.777697       -21.1622
  16   2.0000      -0.737602       -20.0712
  17   2.0000      -0.724415       -19.7123
  18   2.0000      -0.618624       -16.8336
  19   2.0000      -0.598402       -16.2834
  20   2.0000      -0.591875       -16.1057
  21   2.0000      -0.565499       -15.3880
  22   2.0000      -0.527756       -14.3610
  23   2.0000      -0.497855       -13.5473
  24   2.0000      -0.488706       -13.2984
  25   2.0000      -0.477701       -12.9989
  26   2.0000      -0.450366       -12.2551
  27   2.0000      -0.448242       -12.1973
  28   2.0000      -0.428045       -11.6477
  29   2.0000      -0.416999       -11.3471
  30   2.0000      -0.399426       -10.8689
  31   2.0000      -0.375974       -10.2308
  32   2.0000      -0.372894       -10.1470
  33   2.0000      -0.364476        -9.9179
  34   2.0000      -0.363050        -9.8791
  35   2.0000      -0.354376        -9.6431
  36   2.0000      -0.348044        -9.4708
  37   2.0000      -0.312791        -8.5115
  38   2.0000      -0.308263        -8.3883
  39   2.0000      -0.295252        -8.0342
  40   2.0000      -0.258212        -7.0263
  41   2.0000      -0.246092        -6.6965
  42   2.0000      -0.236441        -6.4339
  43   0.0000       0.076495         2.0815
  44   0.0000       0.097840         2.6623
  45   0.0000       0.103332         2.8118
  46   0.0000       0.108614         2.9555
  47   0.0000       0.114717         3.1216

MULLIKEN ATOMIC CHARGES
-----------------------
   0 C :    0.293298
   1 C :   -0.261675
   2 C :   -0.297530
   3 C :   -0.001549
   4 O :   -0.498802
   5 H :    0.146361
   6 H :    0.143141
   7 H :    0.138711
   8 H :    0.140086
   9 H :    0.159435
  10 H :    0.151780
  11 H :    0.140468
  12 C :   -0.023381
  13 H :    0.129512
  14 C :    0.083638
  15 C :   -0.291901
  16 C :    0.003156
  17 O :   -0.517726
  18 H :    0.155787
  19 O :   -0.520875
  20 H :    0.125163
  21 H :    0.169403
  22 H :    0.137090
  23 H :    0.134118
  24 H :    0.162292
Sum of atomic charges:   -0.0000000

LOEWDIN ATOMIC CHARGES
----------------------
   0 C :    0.178871
   1 C :   -0.227805
   2 C :   -0.216676
   3 C :   -0.026411
   4 O :   -0.305747
   5 H :    0.100443
   6 H :    0.112526
   7 H :    0.112833
   8 H :    0.113283
   9 H :    0.117750
  10 H :    0.107848
  11 H :    0.101607
  12 C :   -0.050952
  13 H :    0.095694
  14 C :    0.040569
  15 C :   -0.222997
  16 C :   -0.026529
  17 O :   -0.329143
  18 H :    0.111899
  19 O :   -0.330809
  20 H :    0.092045
  21 H :    0.131174
  22 H :    0.109314
  23 H :    0.098119
  24 H :    0.113096

  Mayer bond orders larger than 0.100000
B(  0-C ,  1-C ) :   0.9316 B(  0-C ,  4-O ) :   0.9338 B(  0-C ,  5-H ) :   0.9134
B(  0-C , 19-O ) :   0.8326 B(  1-C ,  2-C ) :   0.9546 B(  1-C ,  6-H ) :   0.9352
B(  1-C ,  7-H ) :   0.9391 B(  2-C ,  3-C ) :   0.9544 B(  2-C ,  8-H ) :   0.9453
B(  2-C ,  9-H ) :   0.9444 B(  3-C ,  4-O ) :   0.8396 B(  3-C , 10-H ) :   0.9346
B(  3-C , 11-H ) :   0.9397 B( 12-C , 13-H ) :   0.9080 B( 12-C , 14-C ) :   0.9130
B( 12-C , 17-O ) :   0.8767 B( 12-C , 18-H ) :   0.9247 B( 14-C , 15-C ) :   0.9527
B( 14-C , 19-O ) :   0.8429 B( 14-C , 20-H ) :   0.9199 B( 15-C , 16-C ) :   0.9463
B( 15-C , 21-H ) :   0.9348 B( 15-C , 22-H ) :   0.9414 B( 16-C , 17-O ) :   0.8498
B( 16-C , 23-H ) :   0.9338 B( 16-C , 24-H ) :   0.9355

FINAL SINGLE POINT ENERGY      -538.428307552530

DIPOLE MOMENT
-------------
                                X             Y             Z
Electronic contribution:      0.32095      -3.85281       0.54599
Nuclear contribution   :     -0.42588       5.20428      -1.17754
                        -----------------------------------------
Total Dipole Moment    :     -0.10493       1.35147      -0.63155
                        -----------------------------------------
Magnitude (a.u.)       :      1.49544
Magnitude (Debye)      :      3.80110

Rotational constants in cm-1:     0.081856     0.020402     0.020044
Rotational constants in MHz :  2453.975305   611.626445   600.902852

                             ****ORCA TERMINATED NORMALLY****
TOTAL RUN TIME: 0 days 0 hours 9 minutes 20 seconds 39 msec
