                         Program Version 4.2.0 -  RELEASE  -
|  1> # Test redundant internal optimization
|  2> #
|  3> ! RKS B3LYP  Opt TightSCF SmallPrint
|  4>
|  5> %basis
|  6>         Basis "6-31G"
|  7> end
|  8>
|  9> %geom
| 10> Constraints
| 11> { D 4  0  15  12  45.0   C } # D for Dihedral angle
| 12> { D 0  15  12  16  225.0   C } # D for Dihedral angle
| 13> { D 0  4  3  2   C } # D for Dihedral angle
| 14> { D 4  3  2  1   C } # D for Dihedral angle
| 15> { D 3  2  1  0   C } # D for Dihedral angle
| 16> { D 2  1  0  4   C } # D for Dihedral angle
| 17> { D 1  0  4  3   C } # D for Dihedral angle
| 18> { D 16  20  19  18   C } # D for Dihedral angle
| 19> { D 20  19  18  17   C } # D for Dihedral angle
| 20> { D 19  18  17  16   C } # D for Dihedral angle
| 21> { D 18  17  16  20   C } # D for Dihedral angle
| 22> { D 17  16  20  19   C } # D for Dihedral angle
| 23> { D 15  12  16  20   C } # D for Dihedral angle
| 24> end
| 25> end
| 26>
| 27>
| 28> #%pal
| 29> #nprocs 8
| 30> #end
| 31>
| 32> * xyz 0 1
| 33> C  -21.048   26.222   46.251
| 34> C  -20.361   27.558   45.944
| 35> C  -20.329   28.222   47.341
| 36> C  -20.110   27.022   48.296
| 37> O  -20.473   25.807   47.535
| 38> H  -20.833   25.428   45.533
| 39> H  -19.344   27.382   45.576
| 40> H  -20.898   28.157   45.201
| 41> H  -19.543   28.978   47.434
| 42> H  -21.289   28.710   47.548
| 43> H  -20.733   27.082   49.195
| 44> H  -19.064   26.913   48.597
| 45> C  -23.065   27.161   47.638
| 46> H  -22.239   27.227   48.357
| 47> H  -23.371   28.182   47.374
| 48> O  -22.586   26.394   46.375
| 49> C  -24.269   26.473   48.338
| 50> C  -25.435   26.266   47.364
| 51> C  -24.973   25.011   46.585
| 52> C  -24.227   24.183   47.662
| 53> O  -23.908   25.117   48.764
| 54> H  -24.527   27.033   49.239
| 55> H  -26.356   26.058   47.920
| 56> O  -25.685   27.489   46.441
| 57> H  -25.806   24.458   46.138
| 58> H  -24.290   25.299   45.778
| 59> H  -23.298   23.743   47.283
| 60> H  -24.849   23.389   48.083
| 61> H  -24.775   27.715   45.875
| 62> *
| 63>
| 64>                          ****END OF INPUT****
 Total Charge           Charge          ....    0
 Multiplicity           Mult            ....    1
 Number of Electrons    NEL             ....  102
FINAL SINGLE POINT ENERGY      -652.819006249739
FINAL SINGLE POINT ENERGY      -652.845003497197
FINAL SINGLE POINT ENERGY      -652.855415835873
FINAL SINGLE POINT ENERGY      -652.857630073465
FINAL SINGLE POINT ENERGY      -652.857980078631
FINAL SINGLE POINT ENERGY      -652.858036632740
FINAL SINGLE POINT ENERGY      -652.858040360841
                    ***********************HURRAY********************

CARTESIAN COORDINATES (ANGSTROEM)
---------------------------------
  C    -21.126678   26.352192   46.423691
  C    -20.354417   27.600960   45.981912
  C    -20.056901   28.295885   47.340204
  C    -19.833324   27.096036   48.292812
  O    -20.433431   25.918616   47.610159
  H    -21.060738   25.530373   45.709093
  H    -19.424348   27.287842   45.494999
  H    -20.924925   28.223581   45.288354
  H    -19.179914   28.948494   47.292517
  H    -20.908605   28.906571   47.656290
  H    -20.306000   27.217614   49.271600
  H    -18.773156   26.867552   48.435716
  C    -23.143934   27.202944   47.716242
  H    -22.410269   27.274097   48.522934
  H    -23.465364   28.211330   47.426609
  O    -22.559739   26.520859   46.565691
  C    -24.342148   26.426722   48.266083
  C    -25.496745   26.216208   47.271633
  C    -25.038166   24.933234   46.511567
  C    -24.326802   24.124347   47.617413
  O    -24.015473   25.082805   48.710051
  H    -24.684810   26.972814   49.153943
  H    -26.429507   26.045012   47.813653
  O    -25.763292   27.356130   46.416491
  H    -25.881435   24.395089   46.069270
  H    -24.334419   25.220151   45.727171
  H    -23.392770   23.670274   47.277534
  H    -24.968797   23.350962   48.050892
  H    -25.047894   27.430307   45.750477

 Multiplicity           Mult            ....    1
 Number of Electrons    NEL             ....  102
 Basis Dimension        Dim             ....  149

ORBITAL ENERGIES
----------------

  NO   OCC          E(Eh)            E(eV)
   0   2.0000     -19.149603      -521.0872
   1   2.0000     -19.148398      -521.0544
   2   2.0000     -19.136057      -520.7186
   3   2.0000     -19.128092      -520.5018
   4   2.0000     -10.284538      -279.8565
   5   2.0000     -10.234782      -278.5026
   6   2.0000     -10.232188      -278.4320
   7   2.0000     -10.230668      -278.3906
   8   2.0000     -10.226217      -278.2695
   9   2.0000     -10.216043      -277.9927
  10   2.0000     -10.197239      -277.4810
  11   2.0000     -10.192936      -277.3639
  12   2.0000     -10.174530      -276.8630
  13   2.0000      -1.057719       -28.7820
  14   2.0000      -1.023370       -27.8473
  15   2.0000      -1.005799       -27.3692
  16   2.0000      -0.996940       -27.1281
  17   2.0000      -0.793295       -21.5867
  18   2.0000      -0.774021       -21.0622
  19   2.0000      -0.762809       -20.7571
  20   2.0000      -0.734331       -19.9822
  21   2.0000      -0.677740       -18.4422
  22   2.0000      -0.608361       -16.5543
  23   2.0000      -0.602743       -16.4015
  24   2.0000      -0.596842       -16.2409
  25   2.0000      -0.561484       -15.2788
  26   2.0000      -0.527049       -14.3417
  27   2.0000      -0.509491       -13.8640
  28   2.0000      -0.497928       -13.5493
  29   2.0000      -0.487099       -13.2546
  30   2.0000      -0.475105       -12.9283
  31   2.0000      -0.459319       -12.4987
  32   2.0000      -0.436580       -11.8799
  33   2.0000      -0.430950       -11.7267
  34   2.0000      -0.424438       -11.5495
  35   2.0000      -0.415062       -11.2944
  36   2.0000      -0.401135       -10.9154
  37   2.0000      -0.391949       -10.6655
  38   2.0000      -0.384042       -10.4503
  39   2.0000      -0.370235       -10.0746
  40   2.0000      -0.364942        -9.9306
  41   2.0000      -0.356918        -9.7122
  42   2.0000      -0.343944        -9.3592
  43   2.0000      -0.324970        -8.8429
  44   2.0000      -0.321288        -8.7427
  45   2.0000      -0.310936        -8.4610
  46   2.0000      -0.301701        -8.2097
  47   2.0000      -0.269247        -7.3266
  48   2.0000      -0.260894        -7.0993
  49   2.0000      -0.256592        -6.9822
  50   2.0000      -0.232034        -6.3140
  51   0.0000       0.063547         1.7292
  52   0.0000       0.086050         2.3415
  53   0.0000       0.091728         2.4961
  54   0.0000       0.094727         2.5777
  55   0.0000       0.105101         2.8600

MULLIKEN ATOMIC CHARGES
-----------------------
   0 C :    0.303924
   1 C :   -0.266347
   2 C :   -0.314752
   3 C :   -0.020597
   4 O :   -0.498755
   5 H :    0.161640
   6 H :    0.152377
   7 H :    0.150004
   8 H :    0.149631
   9 H :    0.150816
  10 H :    0.152633
  11 H :    0.151596
  12 C :   -0.034356
  13 H :    0.159597
  14 H :    0.138919
  15 O :   -0.542892
  16 C :    0.100860
  17 C :    0.083118
  18 C :   -0.310180
  19 C :   -0.002706
  20 O :   -0.517262
  21 H :    0.144667
  22 H :    0.158486
  23 O :   -0.607791
  24 H :    0.140550
  25 H :    0.164979
  26 H :    0.150288
  27 H :    0.139029
  28 H :    0.362524
Sum of atomic charges:   -0.0000000

LOEWDIN ATOMIC CHARGES
----------------------
   0 C :    0.178692
   1 C :   -0.227511
   2 C :   -0.224003
   3 C :   -0.034884
   4 O :   -0.311802
   5 H :    0.110973
   6 H :    0.119000
   7 H :    0.119529
   8 H :    0.118241
   9 H :    0.111239
  10 H :    0.104661
  11 H :    0.107141
  12 C :   -0.052517
  13 H :    0.113285
  14 H :    0.100797
  15 O :   -0.337590
  16 C :    0.017950
  17 C :    0.036313
  18 C :   -0.243025
  19 C :   -0.024068
  20 O :   -0.319242
  21 H :    0.111958
  22 H :    0.114698
  23 O :   -0.413334
  24 H :    0.113485
  25 H :    0.121729
  26 H :    0.107339
  27 H :    0.099539
  28 H :    0.281409

  Mayer bond orders larger than 0.100000
B(  0-C ,  1-C ) :   0.9177 B(  0-C ,  4-O ) :   0.9186 B(  0-C ,  5-H ) :   0.9360
B(  0-C , 15-O ) :   0.8692 B(  1-C ,  2-C ) :   0.9549 B(  1-C ,  6-H ) :   0.9348
B(  1-C ,  7-H ) :   0.9379 B(  2-C ,  3-C ) :   0.9486 B(  2-C ,  8-H ) :   0.9447
B(  2-C ,  9-H ) :   0.9426 B(  3-C ,  4-O ) :   0.8362 B(  3-C , 10-H ) :   0.9286
B(  3-C , 11-H ) :   0.9385 B( 12-C , 13-H ) :   0.9132 B( 12-C , 14-H ) :   0.9102
B( 12-C , 15-O ) :   0.8295 B( 12-C , 16-C ) :   0.8986 B( 16-C , 17-C ) :   0.8886
B( 16-C , 20-O ) :   0.8854 B( 16-C , 21-H ) :   0.9268 B( 17-C , 18-C ) :   0.9341
B( 17-C , 22-H ) :   0.9370 B( 17-C , 23-O ) :   0.8995 B( 18-C , 19-C ) :   0.9470
B( 18-C , 24-H ) :   0.9410 B( 18-C , 25-H ) :   0.9262 B( 19-C , 20-O ) :   0.8367
B( 19-C , 26-H ) :   0.9320 B( 19-C , 27-H ) :   0.9376 B( 23-O , 28-H ) :   0.7935

FINAL SINGLE POINT ENERGY      -652.858039047584

DIPOLE MOMENT
-------------
                                X             Y             Z
Electronic contribution:     -2.73565      -2.28707       0.92377
Nuclear contribution   :      3.65916       2.99279      -1.45587
                        -----------------------------------------
Total Dipole Moment    :      0.92351       0.70572      -0.53210
                        -----------------------------------------
Magnitude (a.u.)       :      1.27830
Magnitude (Debye)      :      3.24918

Rotational constants in cm-1:     0.049759     0.016188     0.014787
Rotational constants in MHz :  1491.724063   485.308989   443.311797

                             ****ORCA TERMINATED NORMALLY****
TOTAL RUN TIME: 0 days 0 hours 30 minutes 22 seconds 237 msec
