                         Program Version 4.2.0 -  RELEASE  -
|  1> # Test redundant internal optimization
|  2> #
|  3> ! RKS B3LYP  Opt TightSCF SmallPrint
|  4>
|  5> %basis
|  6>         Basis "6-31G"
|  7> end
|  8>
|  9> %geom
| 10> Constraints
| 11> { D 4  0  15  12  30.0   C } # D for Dihedral angle
| 12> { D 0  15  12  16  210.0   C } # D for Dihedral angle
| 13> { D 0  4  3  2   C } # D for Dihedral angle
| 14> { D 4  3  2  1   C } # D for Dihedral angle
| 15> { D 3  2  1  0   C } # D for Dihedral angle
| 16> { D 2  1  0  4   C } # D for Dihedral angle
| 17> { D 1  0  4  3   C } # D for Dihedral angle
| 18> { D 16  20  19  18   C } # D for Dihedral angle
| 19> { D 20  19  18  17   C } # D for Dihedral angle
| 20> { D 19  18  17  16   C } # D for Dihedral angle
| 21> { D 18  17  16  20   C } # D for Dihedral angle
| 22> { D 17  16  20  19   C } # D for Dihedral angle
| 23> { D 15  12  16  20   C } # D for Dihedral angle
| 24> end
| 25> end
| 26>
| 27>
| 28> #%pal
| 29> #nprocs 8
| 30> #end
| 31>
| 32> * xyz 0 1
| 33> C  -21.048   26.222   46.251
| 34> C  -20.361   27.558   45.944
| 35> C  -20.329   28.222   47.341
| 36> C  -20.110   27.022   48.296
| 37> O  -20.473   25.807   47.535
| 38> H  -20.833   25.428   45.533
| 39> H  -19.344   27.382   45.576
| 40> H  -20.898   28.157   45.201
| 41> H  -19.543   28.978   47.434
| 42> H  -21.289   28.710   47.548
| 43> H  -20.733   27.082   49.195
| 44> H  -19.064   26.913   48.597
| 45> C  -23.091   26.824   47.779
| 46> H  -22.404   26.441   48.544
| 47> H  -23.118   27.918   47.860
| 48> O  -22.586   26.394   46.375
| 49> C  -24.517   26.292   48.093
| 50> C  -25.029   26.830   49.434
| 51> C  -25.480   28.259   49.048
| 52> C  -26.028   28.078   47.610
| 53> O  -25.481   26.798   47.110
| 54> H  -24.519   25.203   48.013
| 55> O  -26.239   25.986   49.920
| 56> H  -24.265   26.823   50.220
| 57> H  -26.230   28.667   49.732
| 58> H  -24.619   28.939   49.051
| 59> H  -25.718   28.887   46.939
| 60> H  -27.118   27.995   47.586
| 61> H  -27.017   25.979   49.149
| 62> *
| 63>
| 64>                          ****END OF INPUT****
 Total Charge           Charge          ....    0
 Multiplicity           Mult            ....    1
 Number of Electrons    NEL             ....  102
FINAL SINGLE POINT ENERGY      -652.824468245128
FINAL SINGLE POINT ENERGY      -652.848729183059
FINAL SINGLE POINT ENERGY      -652.853683850208
FINAL SINGLE POINT ENERGY      -652.856387364716
FINAL SINGLE POINT ENERGY      -652.856611328269
FINAL SINGLE POINT ENERGY      -652.856651727773
FINAL SINGLE POINT ENERGY      -652.856656238424
                    ***********************HURRAY********************

CARTESIAN COORDINATES (ANGSTROEM)
---------------------------------
  C    -21.190340   26.276064   46.418297
  C    -20.413426   27.506127   45.935844
  C    -20.062289   28.208851   47.274671
  C    -19.826856   27.019676   48.235952
  O    -20.465429   25.840791   47.591418
  H    -21.170245   25.444036   45.712839
  H    -19.505327   27.175385   45.419207
  H    -21.004255   28.126540   45.258543
  H    -19.179678   28.850755   47.194676
  H    -20.898439   28.831836   47.609065
  H    -20.267992   27.167471   49.226182
  H    -18.766826   26.775573   48.350770
  C    -23.092125   26.946176   47.922394
  H    -22.462789   26.530845   48.718059
  H    -23.078645   28.043797   47.986123
  O    -22.607667   26.509990   46.625448
  C    -24.510092   26.406341   48.091602
  C    -25.182880   26.819416   49.408881
  C    -25.720013   28.233442   49.060943
  C    -26.121635   28.095177   47.570869
  O    -25.424128   26.893884   47.055442
  H    -24.476673   25.318382   47.982981
  O    -26.262070   25.905466   49.746205
  H    -24.515482   26.810688   50.272410
  H    -26.559993   28.495379   49.709178
  H    -24.932551   28.983762   49.195309
  H    -25.829741   28.962376   46.970389
  H    -27.195703   27.927193   47.440613
  H    -26.760709   25.688584   48.929688

 Multiplicity           Mult            ....    1
 Number of Electrons    NEL             ....  102
 Basis Dimension        Dim             ....  149

ORBITAL ENERGIES
----------------

  NO   OCC          E(Eh)            E(eV)
   0   2.0000     -19.150604      -521.1144
   1   2.0000     -19.138477      -520.7844
   2   2.0000     -19.138027      -520.7722
   3   2.0000     -19.137269      -520.7516
   4   2.0000     -10.278461      -279.6912
   5   2.0000     -10.242265      -278.7062
   6   2.0000     -10.235202      -278.5140
   7   2.0000     -10.231420      -278.4111
   8   2.0000     -10.231250      -278.4065
   9   2.0000     -10.228810      -278.3401
  10   2.0000     -10.195391      -277.4307
  11   2.0000     -10.189566      -277.2722
  12   2.0000     -10.187431      -277.2141
  13   2.0000      -1.055510       -28.7219
  14   2.0000      -1.034639       -28.1540
  15   2.0000      -1.005106       -27.3503
  16   2.0000      -0.993268       -27.0282
  17   2.0000      -0.792130       -21.5550
  18   2.0000      -0.783770       -21.3275
  19   2.0000      -0.769539       -20.9402
  20   2.0000      -0.734689       -19.9919
  21   2.0000      -0.674991       -18.3674
  22   2.0000      -0.606477       -16.5031
  23   2.0000      -0.604233       -16.4420
  24   2.0000      -0.596965       -16.2442
  25   2.0000      -0.576171       -15.6784
  26   2.0000      -0.524997       -14.2859
  27   2.0000      -0.509081       -13.8528
  28   2.0000      -0.501530       -13.6473
  29   2.0000      -0.492421       -13.3995
  30   2.0000      -0.477624       -12.9968
  31   2.0000      -0.462816       -12.5939
  32   2.0000      -0.453180       -12.3316
  33   2.0000      -0.436413       -11.8754
  34   2.0000      -0.423541       -11.5251
  35   2.0000      -0.418174       -11.3791
  36   2.0000      -0.399121       -10.8606
  37   2.0000      -0.392332       -10.6759
  38   2.0000      -0.379885       -10.3372
  39   2.0000      -0.370784       -10.0895
  40   2.0000      -0.362893        -9.8748
  41   2.0000      -0.358420        -9.7531
  42   2.0000      -0.351581        -9.5670
  43   2.0000      -0.332254        -9.0411
  44   2.0000      -0.326513        -8.8849
  45   2.0000      -0.311504        -8.4764
  46   2.0000      -0.301506        -8.2044
  47   2.0000      -0.270366        -7.3570
  48   2.0000      -0.265465        -7.2237
  49   2.0000      -0.254696        -6.9306
  50   2.0000      -0.237949        -6.4749
  51   0.0000       0.064819         1.7638
  52   0.0000       0.074673         2.0320
  53   0.0000       0.085216         2.3188
  54   0.0000       0.097844         2.6625
  55   0.0000       0.101595         2.7646

MULLIKEN ATOMIC CHARGES
-----------------------
   0 C :    0.294075
   1 C :   -0.259213
   2 C :   -0.313259
   3 C :   -0.018824
   4 O :   -0.509517
   5 H :    0.166301
   6 H :    0.147717
   7 H :    0.159380
   8 H :    0.148275
   9 H :    0.149531
  10 H :    0.140474
  11 H :    0.153190
  12 C :   -0.006928
  13 H :    0.150570
  14 H :    0.121738
  15 O :   -0.514764
  16 C :    0.066463
  17 C :    0.072467
  18 C :   -0.297991
  19 C :   -0.029183
  20 O :   -0.507568
  21 H :    0.173184
  22 O :   -0.600661
  23 H :    0.150172
  24 H :    0.163752
  25 H :    0.140889
  26 H :    0.146882
  27 H :    0.146287
  28 H :    0.366562
Sum of atomic charges:    0.0000000

LOEWDIN ATOMIC CHARGES
----------------------
   0 C :    0.179121
   1 C :   -0.225691
   2 C :   -0.222205
   3 C :   -0.034921
   4 O :   -0.319614
   5 H :    0.112876
   6 H :    0.116388
   7 H :    0.124620
   8 H :    0.117581
   9 H :    0.110024
  10 H :    0.099447
  11 H :    0.107665
  12 C :   -0.045901
  13 H :    0.109305
  14 H :    0.088063
  15 O :   -0.319168
  16 C :    0.017215
  17 C :    0.034584
  18 C :   -0.242889
  19 C :   -0.038906
  20 O :   -0.319480
  21 H :    0.122974
  22 O :   -0.413793
  23 H :    0.114115
  24 H :    0.126826
  25 H :    0.110707
  26 H :    0.104477
  27 H :    0.102329
  28 H :    0.284250

  Mayer bond orders larger than 0.100000
B(  0-C ,  1-C ) :   0.9161 B(  0-C ,  4-O ) :   0.9023 B(  0-C ,  5-H ) :   0.9336
B(  0-C , 15-O ) :   0.8780 B(  1-C ,  2-C ) :   0.9552 B(  1-C ,  6-H ) :   0.9346
B(  1-C ,  7-H ) :   0.9367 B(  2-C ,  3-C ) :   0.9492 B(  2-C ,  8-H ) :   0.9448
B(  2-C ,  9-H ) :   0.9433 B(  3-C ,  4-O ) :   0.8367 B(  3-C , 10-H ) :   0.9320
B(  3-C , 11-H ) :   0.9401 B( 12-C , 13-H ) :   0.9003 B( 12-C , 14-H ) :   0.9138
B( 12-C , 15-O ) :   0.8441 B( 12-C , 16-C ) :   0.8998 B( 16-C , 17-C ) :   0.8980
B( 16-C , 20-O ) :   0.8651 B( 16-C , 21-H ) :   0.9227 B( 17-C , 18-C ) :   0.9106
B( 17-C , 22-O ) :   0.8966 B( 17-C , 23-H ) :   0.9334 B( 18-C , 19-C ) :   0.9403
B( 18-C , 24-H ) :   0.9368 B( 18-C , 25-H ) :   0.9345 B( 19-C , 20-O ) :   0.8541
B( 19-C , 26-H ) :   0.9340 B( 19-C , 27-H ) :   0.9377 B( 22-O , 28-H ) :   0.7924

FINAL SINGLE POINT ENERGY      -652.856644901340

DIPOLE MOMENT
-------------
                                X             Y             Z
Electronic contribution:     -3.10632      -5.86230      -1.31081
Nuclear contribution   :      3.84326       7.30943       1.50799
                        -----------------------------------------
Total Dipole Moment    :      0.73694       1.44713       0.19718
                        -----------------------------------------
Magnitude (a.u.)       :      1.63589
Magnitude (Debye)      :      4.15811

Rotational constants in cm-1:     0.056349     0.012620     0.012179
Rotational constants in MHz :  1689.309867   378.352675   365.104341

                             ****ORCA TERMINATED NORMALLY****
TOTAL RUN TIME: 0 days 0 hours 24 minutes 3 seconds 741 msec
