                         Program Version 4.2.1 -  RELEASE  -
|  1> # Test redundant internal optimization
|  2> #
|  3> ! RKS B3LYP  Opt TightSCF SmallPrint
|  4>
|  5> %basis
|  6>         Basis "6-31G"
|  7> end
|  8>
|  9> %geom
| 10> Constraints
| 11> { D 4  0  19  14  180.0   C } # D for Dihedral angle
| 12> { D 0  19  14  12  195.0   C } # D for Dihedral angle
| 13> { D 0  4  3  2   C } # D for Dihedral angle
| 14> { D 4  3  2  1   C } # D for Dihedral angle
| 15> { D 3  2  1  0   C } # D for Dihedral angle
| 16> { D 2  1  0  4   C } # D for Dihedral angle
| 17> { D 1  0  4  3   C } # D for Dihedral angle
| 18> { D 14  15  16  17   C } # D for Dihedral angle
| 19> { D 15  16  17  12   C } # D for Dihedral angle
| 20> { D 16  17  12  14   C } # D for Dihedral angle
| 21> { D 17  12  14  15   C } # D for Dihedral angle
| 22> { D 12  14  15  16   C } # D for Dihedral angle
| 23> end
| 24> end
| 25>
| 26>
| 27> #%pal
| 28> #nprocs 8
| 29> #end
| 30>
| 31> * xyz 0 1
| 32> C  -21.048   26.222   46.251
| 33> C  -20.361   27.558   45.944
| 34> C  -20.329   28.222   47.341
| 35> C  -20.110   27.022   48.296
| 36> O  -20.473   25.807   47.535
| 37> H  -20.833   25.428   45.533
| 38> H  -19.344   27.382   45.576
| 39> H  -20.898   28.157   45.201
| 40> H  -19.543   28.978   47.434
| 41> H  -21.289   28.710   47.548
| 42> H  -20.733   27.082   49.195
| 43> H  -19.064   26.913   48.597
| 44> C  -24.541   27.285   45.456
| 45> H  -25.155   27.326   44.543
| 46> C  -23.122   26.788   45.152
| 47> C  -22.460   28.061   44.577
| 48> C  -23.115   29.200   45.397
| 49> O  -24.342   28.633   46.000
| 50> H  -25.069   26.708   46.217
| 51> O  -22.472   26.381   46.366
| 52> H  -23.104   25.946   44.451
| 53> H  -21.369   28.053   44.671
| 54> H  -22.702   28.165   43.511
| 55> H  -23.385   30.063   44.779
| 56> H  -22.480   29.541   46.221
| 57> *
| 58>
| 59>                          ****END OF INPUT****
 Total Charge           Charge          ....    0
 Multiplicity           Mult            ....    1
 Number of Electrons    NEL             ....   86
FINAL SINGLE POINT ENERGY      -538.283174072015
FINAL SINGLE POINT ENERGY      -538.341806032202
FINAL SINGLE POINT ENERGY      -538.373989677070
FINAL SINGLE POINT ENERGY      -538.392703568811
FINAL SINGLE POINT ENERGY      -538.403589403246
FINAL SINGLE POINT ENERGY      -538.409815679839
FINAL SINGLE POINT ENERGY      -538.413206260633
FINAL SINGLE POINT ENERGY      -538.414710321603
FINAL SINGLE POINT ENERGY      -538.415198733079
FINAL SINGLE POINT ENERGY      -538.415529395164
FINAL SINGLE POINT ENERGY      -538.417138504815
FINAL SINGLE POINT ENERGY      -538.417289044775
FINAL SINGLE POINT ENERGY      -538.417535228186
FINAL SINGLE POINT ENERGY      -538.417945017372
FINAL SINGLE POINT ENERGY      -538.418530742581
FINAL SINGLE POINT ENERGY      -538.419132749420
FINAL SINGLE POINT ENERGY      -538.419495797590
FINAL SINGLE POINT ENERGY      -538.419557523429
FINAL SINGLE POINT ENERGY      -538.419568392059
                    ***********************HURRAY********************

CARTESIAN COORDINATES (ANGSTROEM)
---------------------------------
  C    -20.859759   26.230284   46.207163
  C    -20.031186   27.510096   46.074746
  C    -20.222004   28.172338   47.469354
  C    -20.282058   26.946975   48.405669
  O    -20.580283   25.785325   47.539683
  H    -20.578633   25.426004   45.519017
  H    -18.982747   27.217500   45.934734
  H    -20.306073   28.166823   45.252872
  H    -19.407730   28.857322   47.722182
  H    -21.167747   28.720509   47.496872
  H    -21.064978   27.025014   49.164265
  H    -19.324154   26.737371   48.891893
  C    -24.451619   27.268114   45.663326
  H    -25.263563   27.199736   44.924860
  C    -23.108719   26.879324   45.043077
  C    -22.733492   28.164868   44.287753
  C    -23.278347   29.292278   45.197877
  O    -24.265476   28.658888   46.100718
  H    -24.685037   26.669176   46.542590
  O    -22.306832   26.426099   46.181413
  H    -23.207471   26.037723   44.340759
  H    -21.678048   28.266258   44.042051
  H    -23.282046   28.145681   43.338414
  H    -23.771327   30.086824   44.626033
  H    -22.501669   29.740473   45.824680

 Multiplicity           Mult            ....    1
 Number of Electrons    NEL             ....   86
 Basis Dimension        Dim             ....  127

ORBITAL ENERGIES
----------------

  NO   OCC          E(Eh)            E(eV)
   0   2.0000     -19.137660      -520.7622
   1   2.0000     -19.134669      -520.6808
   2   2.0000     -19.131023      -520.5816
   3   2.0000     -10.281417      -279.7716
   4   2.0000     -10.243864      -278.7497
   5   2.0000     -10.226635      -278.2809
   6   2.0000     -10.222419      -278.1662
   7   2.0000     -10.220447      -278.1125
   8   2.0000     -10.193891      -277.3899
   9   2.0000     -10.188765      -277.2504
  10   2.0000     -10.186131      -277.1787
  11   2.0000      -1.050708       -28.5912
  12   2.0000      -1.014802       -27.6142
  13   2.0000      -0.983155       -26.7530
  14   2.0000      -0.788673       -21.4609
  15   2.0000      -0.785100       -21.3636
  16   2.0000      -0.747427       -20.3385
  17   2.0000      -0.720833       -19.6149
  18   2.0000      -0.614992       -16.7348
  19   2.0000      -0.606273       -16.4975
  20   2.0000      -0.594926       -16.1888
  21   2.0000      -0.571963       -15.5639
  22   2.0000      -0.513575       -13.9751
  23   2.0000      -0.505723       -13.7614
  24   2.0000      -0.491090       -13.3632
  25   2.0000      -0.487690       -13.2707
  26   2.0000      -0.454446       -12.3661
  27   2.0000      -0.447042       -12.1646
  28   2.0000      -0.418362       -11.3842
  29   2.0000      -0.417334       -11.3562
  30   2.0000      -0.410909       -11.1814
  31   2.0000      -0.391126       -10.6431
  32   2.0000      -0.381075       -10.3696
  33   2.0000      -0.369055       -10.0425
  34   2.0000      -0.365162        -9.9366
  35   2.0000      -0.351511        -9.5651
  36   2.0000      -0.345403        -9.3989
  37   2.0000      -0.312110        -8.4930
  38   2.0000      -0.305793        -8.3211
  39   2.0000      -0.290076        -7.8934
  40   2.0000      -0.256753        -6.9866
  41   2.0000      -0.252109        -6.8602
  42   2.0000      -0.236583        -6.4377
  43   0.0000       0.071061         1.9337
  44   0.0000       0.082893         2.2556
  45   0.0000       0.098991         2.6937
  46   0.0000       0.112652         3.0654
  47   0.0000       0.115095         3.1319

MULLIKEN ATOMIC CHARGES
-----------------------
   0 C :    0.313482
   1 C :   -0.282579
   2 C :   -0.311396
   3 C :    0.001744
   4 O :   -0.496712
   5 H :    0.137593
   6 H :    0.147395
   7 H :    0.137486
   8 H :    0.140957
   9 H :    0.176483
  10 H :    0.158182
  11 H :    0.140837
  12 C :   -0.004039
  13 H :    0.123963
  14 C :    0.089482
  15 C :   -0.320596
  16 C :    0.004427
  17 O :   -0.520110
  18 H :    0.180617
  19 O :   -0.523037
  20 H :    0.130131
  21 H :    0.148758
  22 H :    0.148705
  23 H :    0.136499
  24 H :    0.141732
Sum of atomic charges:   -0.0000000

LOEWDIN ATOMIC CHARGES
----------------------
   0 C :    0.188853
   1 C :   -0.233903
   2 C :   -0.219025
   3 C :   -0.024971
   4 O :   -0.300556
   5 H :    0.095326
   6 H :    0.116199
   7 H :    0.111117
   8 H :    0.114049
   9 H :    0.121599
  10 H :    0.111204
  11 H :    0.101449
  12 C :   -0.032489
  13 H :    0.090308
  14 C :    0.041911
  15 C :   -0.242234
  16 C :   -0.029490
  17 O :   -0.329737
  18 H :    0.129355
  19 O :   -0.337458
  20 H :    0.094645
  21 H :    0.116604
  22 H :    0.118932
  23 H :    0.098773
  24 H :    0.099539

  Mayer bond orders larger than 0.100000
B(  0-C ,  1-C ) :   0.9268 B(  0-C ,  4-O ) :   0.9387 B(  0-C ,  5-H ) :   0.9219
B(  0-C , 19-O ) :   0.8353 B(  1-C ,  2-C ) :   0.9522 B(  1-C ,  6-H ) :   0.9324
B(  1-C ,  7-H ) :   0.9217 B(  2-C ,  3-C ) :   0.9534 B(  2-C ,  8-H ) :   0.9444
B(  2-C ,  9-H ) :   0.9348 B(  3-C ,  4-O ) :   0.8320 B(  3-C , 10-H ) :   0.9342
B(  3-C , 11-H ) :   0.9397 B( 12-C , 13-H ) :   0.9169 B( 12-C , 14-C ) :   0.9286
B( 12-C , 17-O ) :   0.8649 B( 12-C , 18-H ) :   0.9279 B( 14-C , 15-C ) :   0.9253
B( 14-C , 19-O ) :   0.8504 B( 14-C , 20-H ) :   0.9229 B( 15-C , 16-C ) :   0.9440
B( 15-C , 21-H ) :   0.9257 B( 15-C , 22-H ) :   0.9322 B( 16-C , 17-O ) :   0.8670
B( 16-C , 23-H ) :   0.9329 B( 16-C , 24-H ) :   0.9304

FINAL SINGLE POINT ENERGY      -538.419573030081

DIPOLE MOMENT
-------------
                                X             Y             Z
Electronic contribution:     -2.12045      -3.90134       1.91738
Nuclear contribution   :      2.85936       4.49924      -3.07394
                        -----------------------------------------
Total Dipole Moment    :      0.73891       0.59789      -1.15656
                        -----------------------------------------
Magnitude (a.u.)       :      1.49702
Magnitude (Debye)      :      3.80513

Rotational constants in cm-1:     0.067273     0.024510     0.023287
Rotational constants in MHz :  2016.797868   734.804746   698.133247

                             ****ORCA TERMINATED NORMALLY****
TOTAL RUN TIME: 0 days 0 hours 29 minutes 50 seconds 306 msec
