                         Program Version 4.2.1 -  RELEASE  -
|  1> # Test redundant internal optimization
|  2> #
|  3> ! RKS B3LYP  Opt TightSCF SmallPrint
|  4>
|  5> %basis
|  6>         Basis "6-31G"
|  7> end
|  8>
|  9> %geom
| 10> Constraints
| 11> { D 4  0  19  14  285.0   C } # D for Dihedral angle
| 12> { D 0  19  14  12  75.0   C } # D for Dihedral angle
| 13> { D 0  4  3  2   C } # D for Dihedral angle
| 14> { D 4  3  2  1   C } # D for Dihedral angle
| 15> { D 3  2  1  0   C } # D for Dihedral angle
| 16> { D 2  1  0  4   C } # D for Dihedral angle
| 17> { D 1  0  4  3   C } # D for Dihedral angle
| 18> { D 14  15  16  17   C } # D for Dihedral angle
| 19> { D 15  16  17  12   C } # D for Dihedral angle
| 20> { D 16  17  12  14   C } # D for Dihedral angle
| 21> { D 17  12  14  15   C } # D for Dihedral angle
| 22> { D 12  14  15  16   C } # D for Dihedral angle
| 23> end
| 24> end
| 25>
| 26>
| 27> #%pal
| 28> #nprocs 8
| 29> #end
| 30>
| 31> * xyz 0 1
| 32> C  -21.048   26.222   46.251
| 33> C  -20.361   27.558   45.944
| 34> C  -20.329   28.222   47.341
| 35> C  -20.110   27.022   48.296
| 36> O  -20.473   25.807   47.535
| 37> H  -20.833   25.428   45.533
| 38> H  -19.344   27.382   45.576
| 39> H  -20.898   28.157   45.201
| 40> H  -19.543   28.978   47.434
| 41> H  -21.289   28.710   47.548
| 42> H  -20.733   27.082   49.195
| 43> H  -19.064   26.913   48.597
| 44> C  -23.040   24.498   47.800
| 45> H  -23.335   23.438   47.783
| 46> C  -23.203   25.146   46.420
| 47> C  -24.726   25.410   46.375
| 48> C  -25.066   25.763   47.845
| 49> O  -23.941   25.266   48.668
| 50> H  -22.039   24.584   48.225
| 51> O  -22.472   26.381   46.366
| 52> H  -22.859   24.504   45.602
| 53> H  -24.999   26.210   45.680
| 54> H  -25.258   24.502   46.064
| 55> H  -25.995   25.293   48.187
| 56> H  -25.134   26.842   48.011
| 57> *
| 58>
| 59>                          ****END OF INPUT****
 Total Charge           Charge          ....    0
 Multiplicity           Mult            ....    1
 Number of Electrons    NEL             ....   86
FINAL SINGLE POINT ENERGY      -538.435372213786
FINAL SINGLE POINT ENERGY      -538.439335145266
FINAL SINGLE POINT ENERGY      -538.439802460231
FINAL SINGLE POINT ENERGY      -538.439887155171
FINAL SINGLE POINT ENERGY      -538.439899646886
FINAL SINGLE POINT ENERGY      -538.439902032182
                    ***********************HURRAY********************

CARTESIAN COORDINATES (ANGSTROEM)
---------------------------------
  C    -20.976281   26.176202   46.256746
  C    -20.425709   27.569772   45.948545
  C    -20.434034   28.229211   47.347359
  C    -20.087462   27.055349   48.291320
  O    -20.351903   25.815949   47.514011
  H    -20.712039   25.384008   45.547365
  H    -19.404486   27.478132   45.561414
  H    -21.040205   28.097821   45.216936
  H    -19.718005   29.052629   47.429309
  H    -21.434368   28.613590   47.564925
  H    -20.702317   27.036785   49.193836
  H    -19.029463   27.029055   48.568295
  C    -23.099028   24.398828   47.813476
  H    -23.498865   23.374490   47.754126
  C    -23.181517   25.068330   46.441556
  C    -24.666965   25.471639   46.380140
  C    -24.995861   25.843245   47.846755
  O    -23.934413   25.237336   48.676925
  H    -22.094446   24.388654   48.232642
  O    -22.408532   26.304834   46.354299
  H    -22.881547   24.394484   45.625924
  H    -24.818592   26.300249   45.684199
  H    -25.263588   24.616330   46.043099
  H    -25.969908   25.457817   48.167452
  H    -24.962467   26.923261   48.016345

 Multiplicity           Mult            ....    1
 Number of Electrons    NEL             ....   86
 Basis Dimension        Dim             ....  127

ORBITAL ENERGIES
----------------

  NO   OCC          E(Eh)            E(eV)
   0   2.0000     -19.143375      -520.9177
   1   2.0000     -19.139462      -520.8112
   2   2.0000     -19.122227      -520.3423
   3   2.0000     -10.278352      -279.6882
   4   2.0000     -10.237789      -278.5844
   5   2.0000     -10.221738      -278.1476
   6   2.0000     -10.215873      -277.9880
   7   2.0000     -10.210667      -277.8464
   8   2.0000     -10.183812      -277.1156
   9   2.0000     -10.182926      -277.0915
  10   2.0000     -10.182396      -277.0771
  11   2.0000      -1.053779       -28.6748
  12   2.0000      -1.008674       -27.4474
  13   2.0000      -0.988987       -26.9117
  14   2.0000      -0.791280       -21.5318
  15   2.0000      -0.773675       -21.0528
  16   2.0000      -0.732910       -19.9435
  17   2.0000      -0.718563       -19.5531
  18   2.0000      -0.607195       -16.5226
  19   2.0000      -0.597801       -16.2670
  20   2.0000      -0.589212       -16.0333
  21   2.0000      -0.574338       -15.6285
  22   2.0000      -0.516883       -14.0651
  23   2.0000      -0.501498       -13.6465
  24   2.0000      -0.479596       -13.0505
  25   2.0000      -0.474519       -12.9123
  26   2.0000      -0.447144       -12.1674
  27   2.0000      -0.444985       -12.1086
  28   2.0000      -0.427221       -11.6253
  29   2.0000      -0.406628       -11.0649
  30   2.0000      -0.401865       -10.9353
  31   2.0000      -0.384505       -10.4629
  32   2.0000      -0.364971        -9.9314
  33   2.0000      -0.362142        -9.8544
  34   2.0000      -0.354443        -9.6449
  35   2.0000      -0.352391        -9.5891
  36   2.0000      -0.339992        -9.2516
  37   2.0000      -0.325135        -8.8474
  38   2.0000      -0.300096        -8.1660
  39   2.0000      -0.298808        -8.1310
  40   2.0000      -0.268725        -7.3124
  41   2.0000      -0.248923        -6.7735
  42   2.0000      -0.228985        -6.2310
  43   0.0000       0.082433         2.2431
  44   0.0000       0.097580         2.6553
  45   0.0000       0.102262         2.7827
  46   0.0000       0.117145         3.1877
  47   0.0000       0.127838         3.4786

MULLIKEN ATOMIC CHARGES
-----------------------
   0 C :    0.290517
   1 C :   -0.260767
   2 C :   -0.298132
   3 C :   -0.005219
   4 O :   -0.512582
   5 H :    0.137697
   6 H :    0.143883
   7 H :    0.155540
   8 H :    0.139837
   9 H :    0.165465
  10 H :    0.160974
  11 H :    0.141129
  12 C :   -0.014887
  13 H :    0.117055
  14 C :    0.069846
  15 C :   -0.298639
  16 C :    0.008721
  17 O :   -0.523087
  18 H :    0.194614
  19 O :   -0.516802
  20 H :    0.123154
  21 H :    0.161062
  22 H :    0.142096
  23 H :    0.129506
  24 H :    0.149019
Sum of atomic charges:   -0.0000000

LOEWDIN ATOMIC CHARGES
----------------------
   0 C :    0.172221
   1 C :   -0.214604
   2 C :   -0.215300
   3 C :   -0.027784
   4 O :   -0.329258
   5 H :    0.094282
   6 H :    0.113404
   7 H :    0.123456
   8 H :    0.112960
   9 H :    0.120766
  10 H :    0.112456
  11 H :    0.102109
  12 C :   -0.053177
  13 H :    0.088407
  14 C :    0.038172
  15 C :   -0.225861
  16 C :   -0.027511
  17 O :   -0.331774
  18 H :    0.132791
  19 O :   -0.320336
  20 H :    0.094069
  21 H :    0.126658
  22 H :    0.112722
  23 H :    0.095652
  24 H :    0.105480

  Mayer bond orders larger than 0.100000
B(  0-C ,  1-C ) :   0.9493 B(  0-C ,  4-O ) :   0.9013 B(  0-C ,  5-H ) :   0.9192
B(  0-C , 19-O ) :   0.8650 B(  1-C ,  2-C ) :   0.9577 B(  1-C ,  6-H ) :   0.9404
B(  1-C ,  7-H ) :   0.9367 B(  2-C ,  3-C ) :   0.9558 B(  2-C ,  8-H ) :   0.9452
B(  2-C ,  9-H ) :   0.9436 B(  3-C ,  4-O ) :   0.8292 B(  3-C , 10-H ) :   0.9330
B(  3-C , 11-H ) :   0.9405 B( 12-C , 13-H ) :   0.9097 B( 12-C , 14-C ) :   0.9157
B( 12-C , 17-O ) :   0.8663 B( 12-C , 18-H ) :   0.9104 B( 14-C , 15-C ) :   0.9609
B( 14-C , 19-O ) :   0.8316 B( 14-C , 20-H ) :   0.9196 B( 15-C , 16-C ) :   0.9467
B( 15-C , 21-H ) :   0.9366 B( 15-C , 22-H ) :   0.9421 B( 16-C , 17-O ) :   0.8604
B( 16-C , 23-H ) :   0.9335 B( 16-C , 24-H ) :   0.9371

FINAL SINGLE POINT ENERGY      -538.439902341485

DIPOLE MOMENT
-------------
                                X             Y             Z
Electronic contribution:      0.32966      -2.27970       0.91252
Nuclear contribution   :     -0.23179       2.57501      -1.84522
                        -----------------------------------------
Total Dipole Moment    :      0.09787       0.29531      -0.93270
                        -----------------------------------------
Magnitude (a.u.)       :      0.98322
Magnitude (Debye)      :      2.49915

Rotational constants in cm-1:     0.071336     0.023794     0.022367
Rotational constants in MHz :  2138.597816   713.318529   670.541268

                             ****ORCA TERMINATED NORMALLY****
TOTAL RUN TIME: 0 days 0 hours 14 minutes 57 seconds 155 msec
