                         Program Version 4.2.0 -  RELEASE  -
|  1> # Test redundant internal optimization
|  2> #
|  3> ! RKS B3LYP  Opt TightSCF SmallPrint
|  4>
|  5> %basis
|  6>         Basis "6-31G"
|  7> end
|  8>
|  9> %geom
| 10> Constraints
| 11> { D 4  0  15  12  75.0   C } # D for Dihedral angle
| 12> { D 0  15  12  16  90.0   C } # D for Dihedral angle
| 13> { D 0  4  3  2   C } # D for Dihedral angle
| 14> { D 4  3  2  1   C } # D for Dihedral angle
| 15> { D 3  2  1  0   C } # D for Dihedral angle
| 16> { D 2  1  0  4   C } # D for Dihedral angle
| 17> { D 1  0  4  3   C } # D for Dihedral angle
| 18> { D 16  20  19  18   C } # D for Dihedral angle
| 19> { D 20  19  18  17   C } # D for Dihedral angle
| 20> { D 19  18  17  16   C } # D for Dihedral angle
| 21> { D 18  17  16  20   C } # D for Dihedral angle
| 22> { D 17  16  20  19   C } # D for Dihedral angle
| 23> { D 15  12  16  20   C } # D for Dihedral angle
| 24> end
| 25> end
| 26>
| 27>
| 28> #%pal
| 29> #nprocs 8
| 30> #end
| 31>
| 32> * xyz 0 1
| 33> C  -21.048   26.222   46.251
| 34> C  -20.361   27.558   45.944
| 35> C  -20.329   28.222   47.341
| 36> C  -20.110   27.022   48.296
| 37> O  -20.473   25.807   47.535
| 38> H  -20.833   25.428   45.533
| 39> H  -19.344   27.382   45.576
| 40> H  -20.898   28.157   45.201
| 41> H  -19.543   28.978   47.434
| 42> H  -21.289   28.710   47.548
| 43> H  -20.733   27.082   49.195
| 44> H  -19.064   26.913   48.597
| 45> C  -23.049   27.675   47.122
| 46> H  -24.002   27.474   47.628
| 47> H  -22.311   27.964   47.881
| 48> O  -22.586   26.394   46.375
| 49> C  -23.248   28.886   46.170
| 50> C  -24.387   28.632   45.176
| 51> C  -25.634   28.916   46.048
| 52> C  -25.162   30.068   46.970
| 53> O  -23.685   30.065   46.925
| 54> H  -22.292   29.139   45.707
| 55> O  -24.301   29.641   43.998
| 56> H  -24.380   27.618   44.762
| 57> H  -26.513   29.187   45.456
| 58> H  -25.889   28.028   46.639
| 59> H  -25.490   29.937   48.006
| 60> H  -25.494   31.048   46.616
| 61> H  -24.308   30.665   44.388
| 62> *
| 63>
| 64>                          ****END OF INPUT****
 Total Charge           Charge          ....    0
 Multiplicity           Mult            ....    1
 Number of Electrons    NEL             ....  102
FINAL SINGLE POINT ENERGY      -652.802178869171
FINAL SINGLE POINT ENERGY      -652.836558382177
FINAL SINGLE POINT ENERGY      -652.854182827666
FINAL SINGLE POINT ENERGY      -652.857013828786
FINAL SINGLE POINT ENERGY      -652.857421199074
FINAL SINGLE POINT ENERGY      -652.857507605877
FINAL SINGLE POINT ENERGY      -652.857518928720
FINAL SINGLE POINT ENERGY      -652.857521099016
                    ***********************HURRAY********************

CARTESIAN COORDINATES (ANGSTROEM)
---------------------------------
  C    -21.195118   26.355826   46.390114
  C    -20.274880   27.498102   45.934628
  C    -19.928562   28.196028   47.283344
  C    -19.864457   27.001975   48.269540
  O    -20.576879   25.882132   47.607951
  H    -21.184505   25.506880   45.705054
  H    -19.375534   27.053552   45.495727
  H    -20.730313   28.156328   45.192208
  H    -18.976915   28.734470   47.236254
  H    -20.698605   28.917704   47.568555
  H    -20.342275   27.210035   49.231622
  H    -18.838842   26.665703   48.447245
  C    -23.179641   27.742482   47.212090
  H    -24.139673   27.387123   47.597473
  H    -22.574783   28.043165   48.073352
  O    -22.615633   26.591587   46.516584
  C    -23.393172   28.944268   46.287914
  C    -24.399940   28.715209   45.151785
  C    -25.749934   28.896783   45.889959
  C    -25.441600   30.001373   46.931611
  O    -23.962200   30.055964   47.060962
  H    -22.440761   29.302821   45.889794
  O    -24.218812   29.697146   44.093785
  H    -24.289467   27.742258   44.674762
  H    -26.537100   29.181812   45.187544
  H    -26.047560   27.961320   46.374556
  H    -25.876030   29.795053   47.914346
  H    -25.771658   30.992557   46.605463
  H    -24.131149   30.588347   44.493778

 Multiplicity           Mult            ....    1
 Number of Electrons    NEL             ....  102
 Basis Dimension        Dim             ....  149

ORBITAL ENERGIES
----------------

  NO   OCC          E(Eh)            E(eV)
   0   2.0000     -19.149319      -521.0795
   1   2.0000     -19.146675      -521.0075
   2   2.0000     -19.141280      -520.8607
   3   2.0000     -19.139752      -520.8191
   4   2.0000     -10.279761      -279.7265
   5   2.0000     -10.239778      -278.6385
   6   2.0000     -10.236130      -278.5393
   7   2.0000     -10.235363      -278.5184
   8   2.0000     -10.233325      -278.4629
   9   2.0000     -10.229701      -278.3643
  10   2.0000     -10.194098      -277.3955
  11   2.0000     -10.192916      -277.3633
  12   2.0000     -10.190697      -277.3030
  13   2.0000      -1.052212       -28.6321
  14   2.0000      -1.039446       -28.2848
  15   2.0000      -1.008429       -27.4407
  16   2.0000      -0.996893       -27.1268
  17   2.0000      -0.789775       -21.4909
  18   2.0000      -0.784710       -21.3530
  19   2.0000      -0.772781       -21.0284
  20   2.0000      -0.736327       -20.0365
  21   2.0000      -0.681054       -18.5324
  22   2.0000      -0.608393       -16.5552
  23   2.0000      -0.604710       -16.4550
  24   2.0000      -0.603849       -16.4316
  25   2.0000      -0.575976       -15.6731
  26   2.0000      -0.531335       -14.4583
  27   2.0000      -0.508682       -13.8419
  28   2.0000      -0.501372       -13.6430
  29   2.0000      -0.495034       -13.4706
  30   2.0000      -0.474099       -12.9009
  31   2.0000      -0.461901       -12.5690
  32   2.0000      -0.447995       -12.1906
  33   2.0000      -0.439077       -11.9479
  34   2.0000      -0.430521       -11.7151
  35   2.0000      -0.415467       -11.3054
  36   2.0000      -0.412702       -11.2302
  37   2.0000      -0.396666       -10.7938
  38   2.0000      -0.385482       -10.4895
  39   2.0000      -0.370749       -10.0886
  40   2.0000      -0.364982        -9.9317
  41   2.0000      -0.359896        -9.7933
  42   2.0000      -0.348078        -9.4717
  43   2.0000      -0.334953        -9.1145
  44   2.0000      -0.315628        -8.5887
  45   2.0000      -0.314386        -8.5549
  46   2.0000      -0.301492        -8.2040
  47   2.0000      -0.281751        -7.6668
  48   2.0000      -0.268592        -7.3088
  49   2.0000      -0.258442        -7.0326
  50   2.0000      -0.243048        -6.6137
  51   0.0000       0.060803         1.6545
  52   0.0000       0.067552         1.8382
  53   0.0000       0.083936         2.2840
  54   0.0000       0.095369         2.5951
  55   0.0000       0.100544         2.7359

MULLIKEN ATOMIC CHARGES
-----------------------
   0 C :    0.302767
   1 C :   -0.287320
   2 C :   -0.324290
   3 C :   -0.011127
   4 O :   -0.501528
   5 H :    0.167642
   6 H :    0.157467
   7 H :    0.155698
   8 H :    0.147936
   9 H :    0.160680
  10 H :    0.146706
  11 H :    0.147779
  12 C :   -0.026318
  13 H :    0.152787
  14 H :    0.149146
  15 O :   -0.518883
  16 C :    0.051011
  17 C :    0.091719
  18 C :   -0.303448
  19 C :   -0.027421
  20 O :   -0.530590
  21 H :    0.158796
  22 O :   -0.604899
  23 H :    0.174737
  24 H :    0.164186
  25 H :    0.151192
  26 H :    0.148859
  27 H :    0.145103
  28 H :    0.361614
Sum of atomic charges:   -0.0000000

LOEWDIN ATOMIC CHARGES
----------------------
   0 C :    0.175391
   1 C :   -0.231374
   2 C :   -0.225771
   3 C :   -0.033509
   4 O :   -0.319188
   5 H :    0.114206
   6 H :    0.123417
   7 H :    0.118829
   8 H :    0.117192
   9 H :    0.113070
  10 H :    0.103038
  11 H :    0.104880
  12 C :   -0.043041
  13 H :    0.112348
  14 H :    0.105661
  15 O :   -0.319879
  16 C :    0.002971
  17 C :    0.038019
  18 C :   -0.241181
  19 C :   -0.037150
  20 O :   -0.332835
  21 H :    0.110285
  22 O :   -0.415712
  23 H :    0.127070
  24 H :    0.127613
  25 H :    0.117023
  26 H :    0.105261
  27 H :    0.102258
  28 H :    0.281107

  Mayer bond orders larger than 0.100000
B(  0-C ,  1-C ) :   0.9186 B(  0-C ,  4-O ) :   0.9061 B(  0-C ,  5-H ) :   0.9357
B(  0-C , 15-O ) :   0.8949 B(  1-C ,  2-C ) :   0.9538 B(  1-C ,  6-H ) :   0.9329
B(  1-C ,  7-H ) :   0.9284 B(  2-C ,  3-C ) :   0.9447 B(  2-C ,  8-H ) :   0.9452
B(  2-C ,  9-H ) :   0.9370 B(  3-C ,  4-O ) :   0.8464 B(  3-C , 10-H ) :   0.9333
B(  3-C , 11-H ) :   0.9385 B( 12-C , 13-H ) :   0.9386 B( 12-C , 14-H ) :   0.9142
B( 12-C , 15-O ) :   0.8410 B( 12-C , 16-C ) :   0.8753 B( 16-C , 17-C ) :   0.9087
B( 16-C , 20-O ) :   0.8390 B( 16-C , 21-H ) :   0.9191 B( 17-C , 18-C ) :   0.9144
B( 17-C , 22-O ) :   0.8882 B( 17-C , 23-H ) :   0.9243 B( 18-C , 19-C ) :   0.9413
B( 18-C , 24-H ) :   0.9373 B( 18-C , 25-H ) :   0.9332 B( 19-C , 20-O ) :   0.8391
B( 19-C , 26-H ) :   0.9355 B( 19-C , 27-H ) :   0.9385 B( 22-O , 28-H ) :   0.7971

FINAL SINGLE POINT ENERGY      -652.857520598624

DIPOLE MOMENT
-------------
                                X             Y             Z
Electronic contribution:     -0.90530      -2.10655      -1.21792
Nuclear contribution   :      0.95435       2.90500       1.54137
                        -----------------------------------------
Total Dipole Moment    :      0.04905       0.79845       0.32346
                        -----------------------------------------
Magnitude (a.u.)       :      0.86288
Magnitude (Debye)      :      2.19326

Rotational constants in cm-1:     0.054207     0.013925     0.013633
Rotational constants in MHz :  1625.077503   417.467600   408.708252

                             ****ORCA TERMINATED NORMALLY****
TOTAL RUN TIME: 0 days 0 hours 34 minutes 37 seconds 203 msec
