                         Program Version 4.2.0 -  RELEASE  -
|  1> # Test redundant internal optimization
|  2> #
|  3> ! RKS B3LYP  Opt TightSCF SmallPrint
|  4>
|  5> %basis
|  6>         Basis "6-31G"
|  7> end
|  8>
|  9> %geom
| 10> Constraints
| 11> { D 4  0  15  12  300.0   C } # D for Dihedral angle
| 12> { D 0  15  12  16  255.0   C } # D for Dihedral angle
| 13> { D 0  4  3  2   C } # D for Dihedral angle
| 14> { D 4  3  2  1   C } # D for Dihedral angle
| 15> { D 3  2  1  0   C } # D for Dihedral angle
| 16> { D 2  1  0  4   C } # D for Dihedral angle
| 17> { D 1  0  4  3   C } # D for Dihedral angle
| 18> { D 16  20  19  18   C } # D for Dihedral angle
| 19> { D 20  19  18  17   C } # D for Dihedral angle
| 20> { D 19  18  17  16   C } # D for Dihedral angle
| 21> { D 18  17  16  20   C } # D for Dihedral angle
| 22> { D 17  16  20  19   C } # D for Dihedral angle
| 23> { D 15  12  16  20   C } # D for Dihedral angle
| 24> end
| 25> end
| 26>
| 27>
| 28> #%pal
| 29> #nprocs 8
| 30> #end
| 31>
| 32> * xyz 0 1
| 33> C  -21.048   26.222   46.251
| 34> C  -20.361   27.558   45.944
| 35> C  -20.329   28.222   47.341
| 36> C  -20.110   27.022   48.296
| 37> O  -20.473   25.807   47.535
| 38> H  -20.833   25.428   45.533
| 39> H  -19.344   27.382   45.576
| 40> H  -20.898   28.157   45.201
| 41> H  -19.543   28.978   47.434
| 42> H  -21.289   28.710   47.548
| 43> H  -20.733   27.082   49.195
| 44> H  -19.064   26.913   48.597
| 45> C  -23.362   25.116   46.798
| 46> H  -22.655   24.381   47.202
| 47> H  -24.095   25.353   47.580
| 48> O  -22.586   26.394   46.375
| 49> C  -24.127   24.460   45.616
| 50> C  -24.972   23.272   46.090
| 51> C  -26.204   23.986   46.694
| 52> C  -26.387   25.215   45.769
| 53> O  -25.106   25.397   45.055
| 54> H  -23.419   24.221   44.819
| 55> H  -25.264   22.652   45.236
| 56> O  -24.234   22.371   47.119
| 57> H  -27.094   23.348   46.721
| 58> H  -25.990   24.304   47.721
| 59> H  -26.619   26.129   46.327
| 60> H  -27.159   25.056   45.011
| 61> H  -23.932   22.970   47.985
| 62> *
| 63>
| 64>                          ****END OF INPUT****
 Total Charge           Charge          ....    0
 Multiplicity           Mult            ....    1
 Number of Electrons    NEL             ....  102
FINAL SINGLE POINT ENERGY      -652.831207994835
FINAL SINGLE POINT ENERGY      -652.855680677841
FINAL SINGLE POINT ENERGY      -652.860263160208
FINAL SINGLE POINT ENERGY      -652.861118642344
FINAL SINGLE POINT ENERGY      -652.861267863402
FINAL SINGLE POINT ENERGY      -652.861288909587
FINAL SINGLE POINT ENERGY      -652.861292987373
                    ***********************HURRAY********************

CARTESIAN COORDINATES (ANGSTROEM)
---------------------------------
  C    -21.093058   26.149226   46.259846
  C    -20.481852   27.509835   45.925595
  C    -20.427416   28.179525   47.315916
  C    -20.118770   27.001093   48.265899
  O    -20.460473   25.767787   47.507769
  H    -20.878474   25.338340   45.556666
  H    -19.476422   27.362850   45.515494
  H    -21.086855   28.062083   45.203811
  H    -19.669848   28.967407   47.374485
  H    -21.402302   28.617157   47.548492
  H    -20.707984   27.025534   49.186271
  H    -19.057321   26.924820   48.519687
  C    -23.262074   25.175636   46.860133
  H    -22.577743   24.447316   47.310486
  H    -23.942610   25.542926   47.636918
  O    -22.516191   26.345170   46.403949
  C    -24.041269   24.540654   45.709871
  C    -24.892510   23.329088   46.130112
  C    -26.176304   24.018145   46.684402
  C    -26.326412   25.247824   45.763264
  O    -25.007667   25.459630   45.114348
  H    -23.341279   24.285651   44.907895
  H    -25.132953   22.732264   45.247577
  O    -24.253042   22.395776   47.032903
  H    -27.045182   23.354721   46.658066
  H    -26.009842   24.315226   47.728601
  H    -26.607156   26.156293   46.305581
  H    -27.052593   25.078376   44.962434
  H    -24.184400   22.775649   47.932529

 Multiplicity           Mult            ....    1
 Number of Electrons    NEL             ....  102
 Basis Dimension        Dim             ....  149

ORBITAL ENERGIES
----------------

  NO   OCC          E(Eh)            E(eV)
   0   2.0000     -19.148778      -521.0647
   1   2.0000     -19.139758      -520.8193
   2   2.0000     -19.139745      -520.8190
   3   2.0000     -19.134789      -520.6841
   4   2.0000     -10.274869      -279.5934
   5   2.0000     -10.244147      -278.7574
   6   2.0000     -10.228633      -278.3353
   7   2.0000     -10.228390      -278.3286
   8   2.0000     -10.224821      -278.2315
   9   2.0000     -10.224344      -278.2185
  10   2.0000     -10.194570      -277.4083
  11   2.0000     -10.182516      -277.0803
  12   2.0000     -10.181517      -277.0532
  13   2.0000      -1.051819       -28.6215
  14   2.0000      -1.031988       -28.0818
  15   2.0000      -1.013693       -27.5840
  16   2.0000      -0.989359       -26.9218
  17   2.0000      -0.787014       -21.4158
  18   2.0000      -0.780355       -21.2345
  19   2.0000      -0.763463       -20.7749
  20   2.0000      -0.729298       -19.8452
  21   2.0000      -0.677234       -18.4285
  22   2.0000      -0.610052       -16.6004
  23   2.0000      -0.598374       -16.2826
  24   2.0000      -0.592680       -16.1276
  25   2.0000      -0.568186       -15.4611
  26   2.0000      -0.529654       -14.4126
  27   2.0000      -0.508149       -13.8274
  28   2.0000      -0.496186       -13.5019
  29   2.0000      -0.491344       -13.3701
  30   2.0000      -0.466936       -12.7060
  31   2.0000      -0.450103       -12.2479
  32   2.0000      -0.445162       -12.1135
  33   2.0000      -0.430224       -11.7070
  34   2.0000      -0.426260       -11.5991
  35   2.0000      -0.416815       -11.3421
  36   2.0000      -0.404866       -11.0170
  37   2.0000      -0.399521       -10.8715
  38   2.0000      -0.376093       -10.2340
  39   2.0000      -0.365567        -9.9476
  40   2.0000      -0.354292        -9.6408
  41   2.0000      -0.352461        -9.5910
  42   2.0000      -0.343460        -9.3460
  43   2.0000      -0.335891        -9.1401
  44   2.0000      -0.324162        -8.8209
  45   2.0000      -0.312627        -8.5070
  46   2.0000      -0.293712        -7.9923
  47   2.0000      -0.270888        -7.3712
  48   2.0000      -0.268798        -7.3144
  49   2.0000      -0.253417        -6.8958
  50   2.0000      -0.234507        -6.3813
  51   0.0000       0.053067         1.4440
  52   0.0000       0.079250         2.1565
  53   0.0000       0.090899         2.4735
  54   0.0000       0.094506         2.5716
  55   0.0000       0.106913         2.9092

MULLIKEN ATOMIC CHARGES
-----------------------
   0 C :    0.278157
   1 C :   -0.260571
   2 C :   -0.299397
   3 C :   -0.004470
   4 O :   -0.515218
   5 H :    0.145428
   6 H :    0.143842
   7 H :    0.164915
   8 H :    0.140597
   9 H :    0.163649
  10 H :    0.143009
  11 H :    0.143442
  12 C :   -0.034376
  13 H :    0.158021
  14 H :    0.135339
  15 O :   -0.505465
  16 C :    0.095273
  17 C :    0.082233
  18 C :   -0.327213
  19 C :   -0.005973
  20 O :   -0.505549
  21 H :    0.153261
  22 H :    0.169248
  23 O :   -0.600258
  24 H :    0.157884
  25 H :    0.134477
  26 H :    0.143461
  27 H :    0.148681
  28 H :    0.357573
Sum of atomic charges:   -0.0000000

LOEWDIN ATOMIC CHARGES
----------------------
   0 C :    0.170564
   1 C :   -0.213431
   2 C :   -0.216325
   3 C :   -0.028429
   4 O :   -0.333067
   5 H :    0.096048
   6 H :    0.113624
   7 H :    0.128222
   8 H :    0.113207
   9 H :    0.119860
  10 H :    0.103288
  11 H :    0.103047
  12 C :   -0.056800
  13 H :    0.113751
  14 H :    0.102526
  15 O :   -0.315622
  16 C :    0.013373
  17 C :    0.033463
  18 C :   -0.242319
  19 C :   -0.029359
  20 O :   -0.315806
  21 H :    0.113464
  22 H :    0.119952
  23 O :   -0.407287
  24 H :    0.122538
  25 H :    0.104212
  26 H :    0.103033
  27 H :    0.105618
  28 H :    0.278655

  Mayer bond orders larger than 0.100000
B(  0-C ,  1-C ) :   0.9502 B(  0-C ,  4-O ) :   0.8939 B(  0-C ,  5-H ) :   0.9186
B(  0-C , 15-O ) :   0.8717 B(  1-C ,  2-C ) :   0.9554 B(  1-C ,  6-H ) :   0.9405
B(  1-C ,  7-H ) :   0.9346 B(  2-C ,  3-C ) :   0.9561 B(  2-C ,  8-H ) :   0.9452
B(  2-C ,  9-H ) :   0.9441 B(  3-C ,  4-O ) :   0.8360 B(  3-C , 10-H ) :   0.9365
B(  3-C , 11-H ) :   0.9406 B( 12-C , 13-H ) :   0.8997 B( 12-C , 14-H ) :   0.9381
B( 12-C , 15-O ) :   0.8463 B( 12-C , 16-C ) :   0.8929 B( 16-C , 17-C ) :   0.8727
B( 16-C , 20-O ) :   0.8697 B( 16-C , 21-H ) :   0.9324 B( 17-C , 18-C ) :   0.9231
B( 17-C , 22-H ) :   0.9318 B( 17-C , 23-O ) :   0.8981 B( 18-C , 19-C ) :   0.9368
B( 18-C , 24-H ) :   0.9422 B( 18-C , 25-H ) :   0.9414 B( 19-C , 20-O ) :   0.8510
B( 19-C , 26-H ) :   0.9321 B( 19-C , 27-H ) :   0.9378 B( 23-O , 28-H ) :   0.7969

FINAL SINGLE POINT ENERGY      -652.861293444273

DIPOLE MOMENT
-------------
                                X             Y             Z
Electronic contribution:     -0.24951      -3.10518      -1.92740
Nuclear contribution   :     -0.02118       3.54560       2.60882
                        -----------------------------------------
Total Dipole Moment    :     -0.27069       0.44042       0.68142
                        -----------------------------------------
Magnitude (a.u.)       :      0.85532
Magnitude (Debye)      :      2.17405

Rotational constants in cm-1:     0.056324     0.012582     0.011345
Rotational constants in MHz :  1688.550505   377.213102   340.124379

                             ****ORCA TERMINATED NORMALLY****
TOTAL RUN TIME: 0 days 0 hours 17 minutes 0 seconds 648 msec
