                         Program Version 4.2.1 -  RELEASE  -
|  1> # Test redundant internal optimization
|  2> #
|  3> ! RKS B3LYP  Opt TightSCF SmallPrint
|  4>
|  5> %basis
|  6>         Basis "6-31G"
|  7> end
|  8>
|  9> %geom
| 10> Constraints
| 11> { D 4  0  19  14  180.0   C } # D for Dihedral angle
| 12> { D 0  19  14  12  165.0   C } # D for Dihedral angle
| 13> { D 0  4  3  2   C } # D for Dihedral angle
| 14> { D 4  3  2  1   C } # D for Dihedral angle
| 15> { D 3  2  1  0   C } # D for Dihedral angle
| 16> { D 2  1  0  4   C } # D for Dihedral angle
| 17> { D 1  0  4  3   C } # D for Dihedral angle
| 18> { D 14  15  16  17   C } # D for Dihedral angle
| 19> { D 15  16  17  12   C } # D for Dihedral angle
| 20> { D 16  17  12  14   C } # D for Dihedral angle
| 21> { D 17  12  14  15   C } # D for Dihedral angle
| 22> { D 12  14  15  16   C } # D for Dihedral angle
| 23> end
| 24> end
| 25>
| 26>
| 27> #%pal
| 28> #nprocs 8
| 29> #end
| 30>
| 31> * xyz 0 1
| 32> C  -21.048   26.222   46.251
| 33> C  -20.361   27.558   45.944
| 34> C  -20.329   28.222   47.341
| 35> C  -20.110   27.022   48.296
| 36> O  -20.473   25.807   47.535
| 37> H  -20.833   25.428   45.533
| 38> H  -19.344   27.382   45.576
| 39> H  -20.898   28.157   45.201
| 40> H  -19.543   28.978   47.434
| 41> H  -21.289   28.710   47.548
| 42> H  -20.733   27.082   49.195
| 43> H  -19.064   26.913   48.597
| 44> C  -24.636   26.570   45.267
| 45> H  -25.121   26.593   44.279
| 46> C  -23.122   26.788   45.152
| 47> C  -23.039   28.322   44.974
| 48> C  -24.199   28.843   45.858
| 49> O  -25.100   27.692   46.091
| 50> H  -24.923   25.653   45.785
| 51> O  -22.472   26.381   46.366
| 52> H  -22.672   26.238   44.318
| 53> H  -22.069   28.732   45.273
| 54> H  -23.205   28.590   43.923
| 55> H  -24.764   29.649   45.379
| 56> H  -23.856   29.186   46.839
| 57> *
| 58>
| 59>                          ****END OF INPUT****
 Total Charge           Charge          ....    0
 Multiplicity           Mult            ....    1
 Number of Electrons    NEL             ....   86
FINAL SINGLE POINT ENERGY      -538.404894024456
FINAL SINGLE POINT ENERGY      -538.422388530488
FINAL SINGLE POINT ENERGY      -538.424219648949
FINAL SINGLE POINT ENERGY      -538.424643739112
FINAL SINGLE POINT ENERGY      -538.424697024344
FINAL SINGLE POINT ENERGY      -538.424710954673
FINAL SINGLE POINT ENERGY      -538.424712680953
                    ***********************HURRAY********************

CARTESIAN COORDINATES (ANGSTROEM)
---------------------------------
  C    -20.958729   26.257358   46.192535
  C    -20.144355   27.533455   45.982129
  C    -20.231426   28.208569   47.376370
  C    -20.220800   26.998678   48.334323
  O    -20.582780   25.824201   47.505076
  H    -20.715597   25.450179   45.491620
  H    -19.109632   27.237025   45.769893
  H    -20.481307   28.164633   45.160143
  H    -19.401489   28.896929   47.561043
  H    -21.169673   28.764991   47.467354
  H    -20.945401   27.086864   49.147425
  H    -19.229252   26.796096   48.749961
  C    -24.621664   26.546918   45.368989
  H    -25.218182   26.506746   44.445989
  C    -23.155561   26.859128   45.062063
  C    -23.201062   28.384658   44.851997
  C    -24.272957   28.854002   45.863559
  O    -25.057825   27.654203   46.226966
  H    -24.736013   25.623250   45.935708
  O    -22.409933   26.421099   46.238125
  H    -22.791350   26.328029   44.170064
  H    -22.246572   28.886963   45.000473
  H    -23.525103   28.582408   43.822563
  H    -24.943511   29.611992   45.442942
  H    -23.832827   29.239624   46.787690

 Multiplicity           Mult            ....    1
 Number of Electrons    NEL             ....   86
 Basis Dimension        Dim             ....  127

ORBITAL ENERGIES
----------------

  NO   OCC          E(Eh)            E(eV)
   0   2.0000     -19.139834      -520.8214
   1   2.0000     -19.137687      -520.7629
   2   2.0000     -19.127602      -520.4885
   3   2.0000     -10.281536      -279.7748
   4   2.0000     -10.243361      -278.7360
   5   2.0000     -10.225360      -278.2462
   6   2.0000     -10.222403      -278.1657
   7   2.0000     -10.220110      -278.1033
   8   2.0000     -10.191427      -277.3228
   9   2.0000     -10.190392      -277.2947
  10   2.0000     -10.189940      -277.2824
  11   2.0000      -1.053126       -28.6570
  12   2.0000      -1.013791       -27.5866
  13   2.0000      -0.986740       -26.8506
  14   2.0000      -0.789428       -21.4814
  15   2.0000      -0.784674       -21.3521
  16   2.0000      -0.744967       -20.2716
  17   2.0000      -0.722712       -19.6660
  18   2.0000      -0.613261       -16.6877
  19   2.0000      -0.603959       -16.4346
  20   2.0000      -0.596648       -16.2356
  21   2.0000      -0.574931       -15.6447
  22   2.0000      -0.514892       -14.0109
  23   2.0000      -0.508737       -13.8434
  24   2.0000      -0.491187       -13.3659
  25   2.0000      -0.484578       -13.1860
  26   2.0000      -0.454286       -12.3617
  27   2.0000      -0.446713       -12.1557
  28   2.0000      -0.422496       -11.4967
  29   2.0000      -0.415948       -11.3185
  30   2.0000      -0.413078       -11.2404
  31   2.0000      -0.391065       -10.6414
  32   2.0000      -0.377047       -10.2600
  33   2.0000      -0.366171        -9.9640
  34   2.0000      -0.365121        -9.9354
  35   2.0000      -0.357272        -9.7219
  36   2.0000      -0.350138        -9.5277
  37   2.0000      -0.313572        -8.5327
  38   2.0000      -0.303859        -8.2684
  39   2.0000      -0.293437        -7.9848
  40   2.0000      -0.258970        -7.0469
  41   2.0000      -0.256325        -6.9750
  42   2.0000      -0.231786        -6.3072
  43   0.0000       0.068305         1.8587
  44   0.0000       0.083707         2.2778
  45   0.0000       0.096168         2.6169
  46   0.0000       0.109616         2.9828
  47   0.0000       0.113176         3.0797

MULLIKEN ATOMIC CHARGES
-----------------------
   0 C :    0.314449
   1 C :   -0.286957
   2 C :   -0.303708
   3 C :    0.000947
   4 O :   -0.498216
   5 H :    0.138817
   6 H :    0.149386
   7 H :    0.139880
   8 H :    0.143278
   9 H :    0.158548
  10 H :    0.158728
  11 H :    0.141999
  12 C :    0.006165
  13 H :    0.123969
  14 C :    0.068673
  15 C :   -0.298832
  16 C :    0.001849
  17 O :   -0.517568
  18 H :    0.174040
  19 O :   -0.509310
  20 H :    0.121309
  21 H :    0.148841
  22 H :    0.139505
  23 H :    0.135761
  24 H :    0.148447
Sum of atomic charges:   -0.0000000

LOEWDIN ATOMIC CHARGES
----------------------
   0 C :    0.185006
   1 C :   -0.234593
   2 C :   -0.217700
   3 C :   -0.024357
   4 O :   -0.300119
   5 H :    0.094731
   6 H :    0.117567
   7 H :    0.111410
   8 H :    0.114868
   9 H :    0.114345
  10 H :    0.111707
  11 H :    0.102345
  12 C :   -0.031969
  13 H :    0.090658
  14 C :    0.037662
  15 C :   -0.238634
  16 C :   -0.028103
  17 O :   -0.327575
  18 H :    0.126911
  19 O :   -0.329214
  20 H :    0.092919
  21 H :    0.117091
  22 H :    0.113115
  23 H :    0.098321
  24 H :    0.103607

  Mayer bond orders larger than 0.100000
B(  0-C ,  1-C ) :   0.9236 B(  0-C ,  4-O ) :   0.9379 B(  0-C ,  5-H ) :   0.9211
B(  0-C , 19-O ) :   0.8437 B(  1-C ,  2-C ) :   0.9525 B(  1-C ,  6-H ) :   0.9318
B(  1-C ,  7-H ) :   0.9249 B(  2-C ,  3-C ) :   0.9539 B(  2-C ,  8-H ) :   0.9447
B(  2-C ,  9-H ) :   0.9411 B(  3-C ,  4-O ) :   0.8353 B(  3-C , 10-H ) :   0.9336
B(  3-C , 11-H ) :   0.9396 B( 12-C , 13-H ) :   0.9160 B( 12-C , 14-C ) :   0.9341
B( 12-C , 17-O ) :   0.8694 B( 12-C , 18-H ) :   0.9293 B( 14-C , 15-C ) :   0.9261
B( 14-C , 19-O ) :   0.8437 B( 14-C , 20-H ) :   0.9200 B( 15-C , 16-C ) :   0.9426
B( 15-C , 21-H ) :   0.9287 B( 15-C , 22-H ) :   0.9369 B( 16-C , 17-O ) :   0.8635
B( 16-C , 23-H ) :   0.9323 B( 16-C , 24-H ) :   0.9344

FINAL SINGLE POINT ENERGY      -538.424713013283

DIPOLE MOMENT
-------------
                                X             Y             Z
Electronic contribution:     -2.23628      -4.66258       1.69408
Nuclear contribution   :      3.21423       5.64350      -2.81538
                        -----------------------------------------
Total Dipole Moment    :      0.97795       0.98092      -1.12130
                        -----------------------------------------
Magnitude (a.u.)       :      1.78210
Magnitude (Debye)      :      4.52975

Rotational constants in cm-1:     0.071218     0.022865     0.021662
Rotational constants in MHz :  2135.048228   685.483103   649.400315

                             ****ORCA TERMINATED NORMALLY****
TOTAL RUN TIME: 0 days 0 hours 17 minutes 40 seconds 546 msec
