                         Program Version 4.2.0 -  RELEASE  -
|  1> # Test redundant internal optimization
|  2> #
|  3> ! RKS B3LYP  Opt TightSCF SmallPrint
|  4>
|  5> %basis
|  6>         Basis "6-31G"
|  7> end
|  8>
|  9> %geom
| 10> Constraints
| 11> { D 4  0  15  12  45.0   C } # D for Dihedral angle
| 12> { D 0  15  12  16  225.0   C } # D for Dihedral angle
| 13> { D 0  4  3  2   C } # D for Dihedral angle
| 14> { D 4  3  2  1   C } # D for Dihedral angle
| 15> { D 3  2  1  0   C } # D for Dihedral angle
| 16> { D 2  1  0  4   C } # D for Dihedral angle
| 17> { D 1  0  4  3   C } # D for Dihedral angle
| 18> { D 16  20  19  18   C } # D for Dihedral angle
| 19> { D 20  19  18  17   C } # D for Dihedral angle
| 20> { D 19  18  17  16   C } # D for Dihedral angle
| 21> { D 18  17  16  20   C } # D for Dihedral angle
| 22> { D 17  16  20  19   C } # D for Dihedral angle
| 23> { D 15  12  16  20   C } # D for Dihedral angle
| 24> end
| 25> end
| 26>
| 27>
| 28> #%pal
| 29> #nprocs 8
| 30> #end
| 31>
| 32> * xyz 0 1
| 33> C  -21.048   26.222   46.251
| 34> C  -20.361   27.558   45.944
| 35> C  -20.329   28.222   47.341
| 36> C  -20.110   27.022   48.296
| 37> O  -20.473   25.807   47.535
| 38> H  -20.833   25.428   45.533
| 39> H  -19.344   27.382   45.576
| 40> H  -20.898   28.157   45.201
| 41> H  -19.543   28.978   47.434
| 42> H  -21.289   28.710   47.548
| 43> H  -20.733   27.082   49.195
| 44> H  -19.064   26.913   48.597
| 45> C  -23.065   27.161   47.638
| 46> H  -22.239   27.227   48.357
| 47> H  -23.371   28.182   47.374
| 48> O  -22.586   26.394   46.375
| 49> C  -24.269   26.473   48.338
| 50> C  -24.788   27.315   49.509
| 51> C  -25.629   28.387   48.775
| 52> C  -26.231   27.605   47.581
| 53> O  -25.412   26.384   47.423
| 54> H  -23.992   25.451   48.604
| 55> O  -25.688   26.449   50.431
| 56> H  -23.986   27.748   50.116
| 57> H  -26.400   28.832   49.413
| 58> H  -24.980   29.197   48.420
| 59> H  -26.203   28.179   46.647
| 60> H  -27.259   27.283   47.768
| 61> H  -26.500   26.006   49.843
| 62> *
| 63>
| 64>                          ****END OF INPUT****
 Total Charge           Charge          ....    0
 Multiplicity           Mult            ....    1
 Number of Electrons    NEL             ....  102
FINAL SINGLE POINT ENERGY      -652.816564659429
FINAL SINGLE POINT ENERGY      -652.842432574641
FINAL SINGLE POINT ENERGY      -652.852345147950
FINAL SINGLE POINT ENERGY      -652.854515693013
FINAL SINGLE POINT ENERGY      -652.854887547363
FINAL SINGLE POINT ENERGY      -652.854943805026
FINAL SINGLE POINT ENERGY      -652.854949404947
                    ***********************HURRAY********************

CARTESIAN COORDINATES (ANGSTROEM)
---------------------------------
  C    -21.198121   26.312191   46.438660
  C    -20.356199   27.491219   45.932118
  C    -19.979270   28.212365   47.257086
  C    -19.810777   27.034080   48.248775
  O    -20.501772   25.874111   47.629184
  H    -21.198434   25.463118   45.753879
  H    -19.461547   27.100815   45.435071
  H    -20.905582   28.123156   45.230338
  H    -19.063013   28.803805   47.167644
  H    -20.781558   28.888641   47.569322
  H    -20.246660   27.226924   49.234173
  H    -18.763428   26.744911   48.376942
  C    -23.105327   27.315727   47.751590
  H    -22.352450   27.370023   48.545317
  H    -23.364005   28.333344   47.431808
  O    -22.609294   26.567098   46.608798
  C    -24.322885   26.580958   48.312962
  C    -24.981556   27.290207   49.505146
  C    -25.882515   28.334774   48.793408
  C    -26.342883   27.584376   47.518187
  O    -25.402855   26.455580   47.331450
  H    -24.017547   25.562537   48.568272
  O    -25.765342   26.355929   50.296380
  H    -24.273464   27.736965   50.204905
  H    -26.712716   28.631562   49.439224
  H    -25.302831   29.230438   48.543852
  H    -26.324747   28.216378   46.624697
  H    -27.345671   27.157707   47.621999
  H    -26.250552   25.755064   49.691813

 Multiplicity           Mult            ....    1
 Number of Electrons    NEL             ....  102
 Basis Dimension        Dim             ....  149

ORBITAL ENERGIES
----------------

  NO   OCC          E(Eh)            E(eV)
   0   2.0000     -19.147341      -521.0256
   1   2.0000     -19.139924      -520.8238
   2   2.0000     -19.137838      -520.7671
   3   2.0000     -19.137791      -520.7658
   4   2.0000     -10.278095      -279.6812
   5   2.0000     -10.242387      -278.7095
   6   2.0000     -10.234391      -278.4919
   7   2.0000     -10.233638      -278.4714
   8   2.0000     -10.230955      -278.3984
   9   2.0000     -10.228634      -278.3353
  10   2.0000     -10.196002      -277.4473
  11   2.0000     -10.189438      -277.2687
  12   2.0000     -10.189011      -277.2571
  13   2.0000      -1.054238       -28.6873
  14   2.0000      -1.034720       -28.1562
  15   2.0000      -1.005394       -27.3582
  16   2.0000      -0.994276       -27.0556
  17   2.0000      -0.791353       -21.5338
  18   2.0000      -0.784752       -21.3542
  19   2.0000      -0.769965       -20.9518
  20   2.0000      -0.734500       -19.9868
  21   2.0000      -0.676981       -18.4216
  22   2.0000      -0.606208       -16.4958
  23   2.0000      -0.605064       -16.4646
  24   2.0000      -0.598673       -16.2907
  25   2.0000      -0.576119       -15.6770
  26   2.0000      -0.523494       -14.2450
  27   2.0000      -0.513609       -13.9760
  28   2.0000      -0.502041       -13.6612
  29   2.0000      -0.490157       -13.3379
  30   2.0000      -0.476847       -12.9757
  31   2.0000      -0.463350       -12.6084
  32   2.0000      -0.450939       -12.2707
  33   2.0000      -0.437666       -11.9095
  34   2.0000      -0.424876       -11.5615
  35   2.0000      -0.419143       -11.4055
  36   2.0000      -0.400579       -10.9003
  37   2.0000      -0.392283       -10.6746
  38   2.0000      -0.381138       -10.3713
  39   2.0000      -0.371377       -10.1057
  40   2.0000      -0.363243        -9.8844
  41   2.0000      -0.358826        -9.7642
  42   2.0000      -0.351976        -9.5778
  43   2.0000      -0.329282        -8.9602
  44   2.0000      -0.323924        -8.8144
  45   2.0000      -0.312421        -8.5014
  46   2.0000      -0.300604        -8.1798
  47   2.0000      -0.269878        -7.3438
  48   2.0000      -0.266279        -7.2458
  49   2.0000      -0.256320        -6.9748
  50   2.0000      -0.237167        -6.4536
  51   0.0000       0.063936         1.7398
  52   0.0000       0.074880         2.0376
  53   0.0000       0.083354         2.2682
  54   0.0000       0.099462         2.7065
  55   0.0000       0.101351         2.7579

MULLIKEN ATOMIC CHARGES
-----------------------
   0 C :    0.291069
   1 C :   -0.264644
   2 C :   -0.313377
   3 C :   -0.019587
   4 O :   -0.506811
   5 H :    0.168699
   6 H :    0.151084
   7 H :    0.154339
   8 H :    0.147892
   9 H :    0.146650
  10 H :    0.143167
  11 H :    0.151314
  12 C :   -0.014753
  13 H :    0.139895
  14 H :    0.130408
  15 O :   -0.505717
  16 C :    0.077229
  17 C :    0.077395
  18 C :   -0.299237
  19 C :   -0.027137
  20 O :   -0.508313
  21 H :    0.171300
  22 O :   -0.601884
  23 H :    0.146464
  24 H :    0.163439
  25 H :    0.141259
  26 H :    0.147637
  27 H :    0.145102
  28 H :    0.367119
Sum of atomic charges:   -0.0000000

LOEWDIN ATOMIC CHARGES
----------------------
   0 C :    0.176245
   1 C :   -0.227804
   2 C :   -0.224072
   3 C :   -0.036723
   4 O :   -0.320989
   5 H :    0.114740
   6 H :    0.118571
   7 H :    0.121806
   8 H :    0.117325
   9 H :    0.108935
  10 H :    0.099096
  11 H :    0.106646
  12 C :   -0.045492
  13 H :    0.104800
  14 H :    0.095423
  15 O :   -0.311542
  16 C :    0.016896
  17 C :    0.034706
  18 C :   -0.242594
  19 C :   -0.038070
  20 O :   -0.318833
  21 H :    0.123470
  22 O :   -0.414211
  23 H :    0.112521
  24 H :    0.126661
  25 H :    0.110876
  26 H :    0.104733
  27 H :    0.102141
  28 H :    0.284737

  Mayer bond orders larger than 0.100000
B(  0-C ,  1-C ) :   0.9130 B(  0-C ,  4-O ) :   0.8984 B(  0-C ,  5-H ) :   0.9345
B(  0-C , 15-O ) :   0.8984 B(  1-C ,  2-C ) :   0.9553 B(  1-C ,  6-H ) :   0.9350
B(  1-C ,  7-H ) :   0.9377 B(  2-C ,  3-C ) :   0.9483 B(  2-C ,  8-H ) :   0.9449
B(  2-C ,  9-H ) :   0.9436 B(  3-C ,  4-O ) :   0.8411 B(  3-C , 10-H ) :   0.9292
B(  3-C , 11-H ) :   0.9387 B( 12-C , 13-H ) :   0.9029 B( 12-C , 14-H ) :   0.9237
B( 12-C , 15-O ) :   0.8419 B( 12-C , 16-C ) :   0.8936 B( 16-C , 17-C ) :   0.8981
B( 16-C , 20-O ) :   0.8654 B( 16-C , 21-H ) :   0.9233 B( 17-C , 18-C ) :   0.9084
B( 17-C , 22-O ) :   0.8952 B( 17-C , 23-H ) :   0.9340 B( 18-C , 19-C ) :   0.9415
B( 18-C , 24-H ) :   0.9371 B( 18-C , 25-H ) :   0.9346 B( 19-C , 20-O ) :   0.8512
B( 19-C , 26-H ) :   0.9343 B( 19-C , 27-H ) :   0.9375 B( 22-O , 28-H ) :   0.7926

FINAL SINGLE POINT ENERGY      -652.854949203729

DIPOLE MOMENT
-------------
                                X             Y             Z
Electronic contribution:     -2.71810      -6.05059      -0.23182
Nuclear contribution   :      3.30723       7.59956       0.13023
                        -----------------------------------------
Total Dipole Moment    :      0.58913       1.54896      -0.10159
                        -----------------------------------------
Magnitude (a.u.)       :      1.66033
Magnitude (Debye)      :      4.22022

Rotational constants in cm-1:     0.055697     0.012842     0.012174
Rotational constants in MHz :  1669.754398   385.006219   364.969295

                             ****ORCA TERMINATED NORMALLY****
TOTAL RUN TIME: 0 days 2 hours 0 minutes 19 seconds 481 msec
