                         Program Version 4.2.0 -  RELEASE  -
|  1> # Test redundant internal optimization
|  2> #
|  3> ! RKS B3LYP  Opt TightSCF SmallPrint
|  4>
|  5> %basis
|  6>         Basis "6-31G"
|  7> end
|  8>
|  9> %geom
| 10> Constraints
| 11> { D 4  0  15  12  195.0   C } # D for Dihedral angle
| 12> { D 0  15  12  16  45.0   C } # D for Dihedral angle
| 13> { D 0  4  3  2   C } # D for Dihedral angle
| 14> { D 4  3  2  1   C } # D for Dihedral angle
| 15> { D 3  2  1  0   C } # D for Dihedral angle
| 16> { D 2  1  0  4   C } # D for Dihedral angle
| 17> { D 1  0  4  3   C } # D for Dihedral angle
| 18> { D 16  20  19  18   C } # D for Dihedral angle
| 19> { D 20  19  18  17   C } # D for Dihedral angle
| 20> { D 19  18  17  16   C } # D for Dihedral angle
| 21> { D 18  17  16  20   C } # D for Dihedral angle
| 22> { D 17  16  20  19   C } # D for Dihedral angle
| 23> { D 15  12  16  20   C } # D for Dihedral angle
| 24> end
| 25> end
| 26>
| 27>
| 28> #%pal
| 29> #nprocs 8
| 30> #end
| 31>
| 32> * xyz 0 1
| 33> C  -21.048   26.222   46.251
| 34> C  -20.361   27.558   45.944
| 35> C  -20.329   28.222   47.341
| 36> C  -20.110   27.022   48.296
| 37> O  -20.473   25.807   47.535
| 38> H  -20.833   25.428   45.533
| 39> H  -19.344   27.382   45.576
| 40> H  -20.898   28.157   45.201
| 41> H  -19.543   28.978   47.434
| 42> H  -21.289   28.710   47.548
| 43> H  -20.733   27.082   49.195
| 44> H  -19.064   26.913   48.597
| 45> C  -23.353   26.472   45.026
| 46> H  -24.425   26.332   45.211
| 47> H  -23.211   27.456   44.560
| 48> O  -22.586   26.394   46.375
| 49> C  -22.887   25.395   44.008
| 50> C  -23.580   25.574   42.653
| 51> C  -22.764   26.734   42.034
| 52> C  -21.328   26.469   42.552
| 53> O  -21.461   25.556   43.707
| 54> H  -23.011   24.405   44.452
| 55> O  -23.430   24.283   41.802
| 56> H  -24.647   25.807   42.743
| 57> H  -22.816   26.754   40.940
| 58> H  -23.137   27.697   42.404
| 59> H  -20.823   27.386   42.875
| 60> H  -20.704   25.963   41.810
| 61> H  -22.369   24.032   41.698
| 62> *
| 63>
| 64>                          ****END OF INPUT****
 Total Charge           Charge          ....    0
 Multiplicity           Mult            ....    1
 Number of Electrons    NEL             ....  102
FINAL SINGLE POINT ENERGY      -652.827612553444
FINAL SINGLE POINT ENERGY      -652.849920034792
FINAL SINGLE POINT ENERGY      -652.855274374402
FINAL SINGLE POINT ENERGY      -652.857741217280
FINAL SINGLE POINT ENERGY      -652.858056580072
FINAL SINGLE POINT ENERGY      -652.858108354671
                    ***********************HURRAY********************

CARTESIAN COORDINATES (ANGSTROEM)
---------------------------------
  C    -20.893297   26.226372   46.248528
  C    -20.216167   27.581163   46.051875
  C    -20.406655   28.240050   47.439546
  C    -20.288887   27.042287   48.406275
  O    -20.503971   25.831663   47.572750
  H    -20.589543   25.443312   45.559478
  H    -19.153644   27.426785   45.829741
  H    -20.655609   28.165006   45.237524
  H    -19.663406   29.016719   47.643881
  H    -21.402928   28.687433   47.501854
  H    -21.036696   27.056969   49.203613
  H    -19.291245   26.947042   48.846137
  C    -23.124073   26.442286   45.045664
  H    -24.156969   26.270869   45.365820
  H    -23.062859   27.464427   44.634398
  O    -22.351834   26.368307   46.270469
  C    -22.775636   25.437314   43.943426
  C    -23.616452   25.600984   42.667430
  C    -22.845343   26.725289   41.924484
  C    -21.365427   26.433806   42.284038
  O    -21.387625   25.551005   43.477595
  H    -22.873361   24.421905   44.342959
  O    -23.646630   24.368597   41.898973
  H    -24.662037   25.847861   42.855857
  H    -23.039349   26.682706   40.850086
  H    -23.157819   27.707799   42.294395
  H    -20.800069   27.339853   42.521653
  H    -20.838992   25.890705   41.493210
  H    -22.750477   23.971485   41.889343

 Multiplicity           Mult            ....    1
 Number of Electrons    NEL             ....  102
 Basis Dimension        Dim             ....  149

ORBITAL ENERGIES
----------------

  NO   OCC          E(Eh)            E(eV)
   0   2.0000     -19.156619      -521.2781
   1   2.0000     -19.146252      -520.9960
   2   2.0000     -19.132244      -520.6148
   3   2.0000     -19.130028      -520.5545
   4   2.0000     -10.264480      -279.3107
   5   2.0000     -10.252000      -278.9711
   6   2.0000     -10.242700      -278.7180
   7   2.0000     -10.242194      -278.7043
   8   2.0000     -10.236066      -278.5375
   9   2.0000     -10.216895      -278.0159
  10   2.0000     -10.198790      -277.5232
  11   2.0000     -10.179454      -276.9970
  12   2.0000     -10.178630      -276.9746
  13   2.0000      -1.049943       -28.5704
  14   2.0000      -1.039709       -28.2919
  15   2.0000      -1.015837       -27.6423
  16   2.0000      -0.983951       -26.7747
  17   2.0000      -0.793522       -21.5928
  18   2.0000      -0.778863       -21.1939
  19   2.0000      -0.771743       -21.0002
  20   2.0000      -0.728750       -19.8303
  21   2.0000      -0.677868       -18.4457
  22   2.0000      -0.613907       -16.7053
  23   2.0000      -0.606287       -16.4979
  24   2.0000      -0.590645       -16.0723
  25   2.0000      -0.569432       -15.4950
  26   2.0000      -0.534271       -14.5382
  27   2.0000      -0.510186       -13.8829
  28   2.0000      -0.495981       -13.4963
  29   2.0000      -0.486291       -13.2327
  30   2.0000      -0.478159       -13.0114
  31   2.0000      -0.459081       -12.4922
  32   2.0000      -0.449209       -12.2236
  33   2.0000      -0.443194       -12.0599
  34   2.0000      -0.428973       -11.6730
  35   2.0000      -0.407921       -11.1001
  36   2.0000      -0.403655       -10.9840
  37   2.0000      -0.397954       -10.8289
  38   2.0000      -0.382828       -10.4173
  39   2.0000      -0.371227       -10.1016
  40   2.0000      -0.364119        -9.9082
  41   2.0000      -0.350364        -9.5339
  42   2.0000      -0.348254        -9.4765
  43   2.0000      -0.337212        -9.1760
  44   2.0000      -0.323046        -8.7905
  45   2.0000      -0.303442        -8.2571
  46   2.0000      -0.299417        -8.1476
  47   2.0000      -0.280961        -7.6453
  48   2.0000      -0.262239        -7.1359
  49   2.0000      -0.250292        -6.8108
  50   2.0000      -0.236483        -6.4350
  51   0.0000       0.051674         1.4061
  52   0.0000       0.076328         2.0770
  53   0.0000       0.086907         2.3649
  54   0.0000       0.092404         2.5144
  55   0.0000       0.100804         2.7430

MULLIKEN ATOMIC CHARGES
-----------------------
   0 C :    0.289719
   1 C :   -0.266983
   2 C :   -0.298742
   3 C :    0.000114
   4 O :   -0.504229
   5 H :    0.183613
   6 H :    0.144365
   7 H :    0.132053
   8 H :    0.136888
   9 H :    0.156199
  10 H :    0.150684
  11 H :    0.138130
  12 C :    0.008346
  13 H :    0.156166
  14 H :    0.115616
  15 O :   -0.523248
  16 C :    0.042034
  17 C :    0.080119
  18 C :   -0.290013
  19 C :   -0.037422
  20 O :   -0.527656
  21 H :    0.173101
  22 O :   -0.599501
  23 H :    0.157812
  24 H :    0.167819
  25 H :    0.142121
  26 H :    0.152099
  27 H :    0.154062
  28 H :    0.366732
Sum of atomic charges:   -0.0000000

LOEWDIN ATOMIC CHARGES
----------------------
   0 C :    0.176914
   1 C :   -0.226502
   2 C :   -0.218311
   3 C :   -0.026158
   4 O :   -0.305703
   5 H :    0.116918
   6 H :    0.114074
   7 H :    0.108327
   8 H :    0.111511
   9 H :    0.115990
  10 H :    0.107214
  11 H :    0.100312
  12 C :   -0.039823
  13 H :    0.119388
  14 H :    0.083915
  15 O :   -0.335444
  16 C :    0.001846
  17 C :    0.039210
  18 C :   -0.239162
  19 C :   -0.039608
  20 O :   -0.330987
  21 H :    0.120425
  22 O :   -0.411586
  23 H :    0.118689
  24 H :    0.129243
  25 H :    0.112812
  26 H :    0.105688
  27 H :    0.106192
  28 H :    0.284617

  Mayer bond orders larger than 0.100000
B(  0-C ,  1-C ) :   0.9333 B(  0-C ,  4-O ) :   0.9209 B(  0-C ,  5-H ) :   0.9034
B(  0-C , 15-O ) :   0.8125 B(  1-C ,  2-C ) :   0.9510 B(  1-C ,  6-H ) :   0.9363
B(  1-C ,  7-H ) :   0.9382 B(  2-C ,  3-C ) :   0.9554 B(  2-C ,  8-H ) :   0.9457
B(  2-C ,  9-H ) :   0.9451 B(  3-C ,  4-O ) :   0.8411 B(  3-C , 10-H ) :   0.9349
B(  3-C , 11-H ) :   0.9401 B( 12-C , 13-H ) :   0.9269 B( 12-C , 14-H ) :   0.9158
B( 12-C , 15-O ) :   0.8730 B( 12-C , 16-C ) :   0.8892 B( 16-C , 17-C ) :   0.8988
B( 16-C , 20-O ) :   0.8361 B( 16-C , 21-H ) :   0.9212 B( 17-C , 18-C ) :   0.9095
B( 17-C , 22-O ) :   0.8959 B( 17-C , 23-H ) :   0.9330 B( 18-C , 19-C ) :   0.9429
B( 18-C , 24-H ) :   0.9363 B( 18-C , 25-H ) :   0.9331 B( 19-C , 20-O ) :   0.8371
B( 19-C , 26-H ) :   0.9320 B( 19-C , 27-H ) :   0.9368 B( 22-O , 28-H ) :   0.7937

FINAL SINGLE POINT ENERGY      -652.858113041325

DIPOLE MOMENT
-------------
                                X             Y             Z
Electronic contribution:     -1.42481      -6.12149       0.54449
Nuclear contribution   :      1.65897       7.45303      -1.43121
                        -----------------------------------------
Total Dipole Moment    :      0.23416       1.33153      -0.88672
                        -----------------------------------------
Magnitude (a.u.)       :      1.61681
Magnitude (Debye)      :      4.10961

Rotational constants in cm-1:     0.066202     0.013027     0.012395
Rotational constants in MHz :  1984.690606   390.531042   371.606296

                             ****ORCA TERMINATED NORMALLY****
TOTAL RUN TIME: 0 days 0 hours 21 minutes 5 seconds 743 msec
