                         Program Version 4.2.0 -  RELEASE  -
|  1> # Test redundant internal optimization
|  2> #
|  3> ! RKS B3LYP  Opt TightSCF SmallPrint
|  4>
|  5> %basis
|  6>         Basis "6-31G"
|  7> end
|  8>
|  9> %geom
| 10> Constraints
| 11> { D 4  0  15  12  135.0   C } # D for Dihedral angle
| 12> { D 0  15  12  16  180.0   C } # D for Dihedral angle
| 13> { D 0  4  3  2   C } # D for Dihedral angle
| 14> { D 4  3  2  1   C } # D for Dihedral angle
| 15> { D 3  2  1  0   C } # D for Dihedral angle
| 16> { D 2  1  0  4   C } # D for Dihedral angle
| 17> { D 1  0  4  3   C } # D for Dihedral angle
| 18> { D 16  20  19  18   C } # D for Dihedral angle
| 19> { D 20  19  18  17   C } # D for Dihedral angle
| 20> { D 19  18  17  16   C } # D for Dihedral angle
| 21> { D 18  17  16  20   C } # D for Dihedral angle
| 22> { D 17  16  20  19   C } # D for Dihedral angle
| 23> { D 15  12  16  20   C } # D for Dihedral angle
| 24> end
| 25> end
| 26>
| 27>
| 28> #%pal
| 29> #nprocs 8
| 30> #end
| 31>
| 32> * xyz 0 1
| 33> C  -21.048   26.222   46.251
| 34> C  -20.361   27.558   45.944
| 35> C  -20.329   28.222   47.341
| 36> C  -20.110   27.022   48.296
| 37> O  -20.473   25.807   47.535
| 38> H  -20.833   25.428   45.533
| 39> H  -19.344   27.382   45.576
| 40> H  -20.898   28.157   45.201
| 41> H  -19.543   28.978   47.434
| 42> H  -21.289   28.710   47.548
| 43> H  -20.733   27.082   49.195
| 44> H  -19.064   26.913   48.597
| 45> C  -23.162   27.680   45.721
| 46> H  -22.701   28.560   46.186
| 47> H  -22.933   27.700   44.647
| 48> O  -22.586   26.394   46.375
| 49> C  -24.703   27.795   45.878
| 50> C  -25.413   26.552   45.328
| 51> C  -25.217   25.543   46.485
| 52> C  -25.296   26.435   47.748
| 53> O  -25.073   27.826   47.296
| 54> H  -25.038   28.737   45.439
| 55> O  -26.922   26.852   45.114
| 56> H  -24.993   26.199   44.381
| 57> H  -25.969   24.747   46.487
| 58> H  -24.230   25.069   46.408
| 59> H  -24.539   26.174   48.495
| 60> H  -26.283   26.404   48.220
| 61> H  -27.364   27.207   46.051
| 62> *
| 63>
| 64>                          ****END OF INPUT****
 Total Charge           Charge          ....    0
 Multiplicity           Mult            ....    1
 Number of Electrons    NEL             ....  102
FINAL SINGLE POINT ENERGY      -652.828378502671
FINAL SINGLE POINT ENERGY      -652.851269774289
FINAL SINGLE POINT ENERGY      -652.855922818325
FINAL SINGLE POINT ENERGY      -652.857404632593
FINAL SINGLE POINT ENERGY      -652.857548532314
FINAL SINGLE POINT ENERGY      -652.857575262564
                    ***********************HURRAY********************

CARTESIAN COORDINATES (ANGSTROEM)
---------------------------------
  C    -21.136589   26.327964   46.253796
  C    -20.268983   27.547721   45.935407
  C    -20.209617   28.271090   47.307997
  C    -20.193118   27.093198   48.307866
  O    -20.684059   25.913748   47.553205
  H    -20.985802   25.473093   45.590569
  H    -19.274182   27.193510   45.644701
  H    -20.651021   28.176661   45.127344
  H    -19.325323   28.908460   47.402489
  H    -21.095222   28.896764   47.456646
  H    -20.843166   27.253868   49.171395
  H    -19.185262   26.846084   48.653115
  C    -23.174400   27.747350   45.709434
  H    -22.785922   28.663879   46.169011
  H    -22.974314   27.787696   44.627511
  O    -22.574943   26.570129   46.311765
  C    -24.685857   27.718137   45.935481
  C    -25.455268   26.519270   45.360726
  C    -25.267427   25.458162   46.477900
  C    -25.282868   26.307734   47.772213
  O    -25.019236   27.708321   47.358052
  H    -25.091475   28.649856   45.522310
  O    -26.853375   26.867297   45.150800
  H    -25.093768   26.190812   44.385899
  H    -26.071312   24.716552   46.444938
  H    -24.302573   24.965315   46.357254
  H    -24.504235   26.001404   48.474714
  H    -26.253860   26.301586   48.278909
  H    -27.203821   27.279338   45.968552

 Multiplicity           Mult            ....    1
 Number of Electrons    NEL             ....  102
 Basis Dimension        Dim             ....  149

ORBITAL ENERGIES
----------------

  NO   OCC          E(Eh)            E(eV)
   0   2.0000     -19.145218      -520.9679
   1   2.0000     -19.142993      -520.9073
   2   2.0000     -19.134428      -520.6743
   3   2.0000     -19.131785      -520.6023
   4   2.0000     -10.285186      -279.8741
   5   2.0000     -10.237130      -278.5665
   6   2.0000     -10.233239      -278.4606
   7   2.0000     -10.232740      -278.4470
   8   2.0000     -10.229198      -278.3506
   9   2.0000     -10.217153      -278.0229
  10   2.0000     -10.197471      -277.4873
  11   2.0000     -10.195274      -277.4275
  12   2.0000     -10.170299      -276.7479
  13   2.0000      -1.055782       -28.7293
  14   2.0000      -1.029518       -28.0146
  15   2.0000      -1.002200       -27.2713
  16   2.0000      -0.993279       -27.0285
  17   2.0000      -0.793520       -21.5928
  18   2.0000      -0.777751       -21.1637
  19   2.0000      -0.760888       -20.7048
  20   2.0000      -0.735131       -20.0039
  21   2.0000      -0.677337       -18.4313
  22   2.0000      -0.608716       -16.5640
  23   2.0000      -0.599563       -16.3149
  24   2.0000      -0.592544       -16.1239
  25   2.0000      -0.568526       -15.4704
  26   2.0000      -0.527265       -14.3476
  27   2.0000      -0.508196       -13.8287
  28   2.0000      -0.503750       -13.7077
  29   2.0000      -0.483629       -13.1602
  30   2.0000      -0.475103       -12.9282
  31   2.0000      -0.457621       -12.4525
  32   2.0000      -0.448667       -12.2089
  33   2.0000      -0.436170       -11.8688
  34   2.0000      -0.425849       -11.5880
  35   2.0000      -0.411276       -11.1914
  36   2.0000      -0.404860       -11.0168
  37   2.0000      -0.386951       -10.5295
  38   2.0000      -0.382497       -10.4083
  39   2.0000      -0.364664        -9.9230
  40   2.0000      -0.361895        -9.8477
  41   2.0000      -0.357956        -9.7405
  42   2.0000      -0.353191        -9.6108
  43   2.0000      -0.326481        -8.8840
  44   2.0000      -0.315395        -8.5823
  45   2.0000      -0.302256        -8.2248
  46   2.0000      -0.295573        -8.0430
  47   2.0000      -0.271528        -7.3887
  48   2.0000      -0.261606        -7.1187
  49   2.0000      -0.255059        -6.9405
  50   2.0000      -0.239023        -6.5042
  51   0.0000       0.069257         1.8846
  52   0.0000       0.077872         2.1190
  53   0.0000       0.092824         2.5259
  54   0.0000       0.104425         2.8416
  55   0.0000       0.109227         2.9722

MULLIKEN ATOMIC CHARGES
-----------------------
   0 C :    0.322851
   1 C :   -0.301378
   2 C :   -0.307875
   3 C :   -0.002561
   4 O :   -0.497295
   5 H :    0.153168
   6 H :    0.156102
   7 H :    0.146801
   8 H :    0.147061
   9 H :    0.162847
  10 H :    0.156204
  11 H :    0.144720
  12 C :    0.008529
  13 H :    0.136185
  14 H :    0.124066
  15 O :   -0.534069
  16 C :    0.068139
  17 C :    0.080551
  18 C :   -0.286913
  19 C :   -0.021543
  20 O :   -0.529838
  21 H :    0.151977
  22 O :   -0.604653
  23 H :    0.145259
  24 H :    0.146034
  25 H :    0.180654
  26 H :    0.161155
  27 H :    0.132004
  28 H :    0.361820
Sum of atomic charges:   -0.0000000

LOEWDIN ATOMIC CHARGES
----------------------
   0 C :    0.183746
   1 C :   -0.232420
   2 C :   -0.218908
   3 C :   -0.027426
   4 O :   -0.309199
   5 H :    0.103481
   6 H :    0.122364
   7 H :    0.115737
   8 H :    0.116913
   9 H :    0.115058
  10 H :    0.110081
  11 H :    0.104114
  12 C :   -0.036931
  13 H :    0.098325
  14 H :    0.091156
  15 O :   -0.335413
  16 C :    0.016388
  17 C :    0.040512
  18 C :   -0.241520
  19 C :   -0.033365
  20 O :   -0.331466
  21 H :    0.113960
  22 O :   -0.418025
  23 H :    0.113418
  24 H :    0.116993
  25 H :    0.133598
  26 H :    0.113048
  27 H :    0.094406
  28 H :    0.281373

  Mayer bond orders larger than 0.100000
B(  0-C ,  1-C ) :   0.9339 B(  0-C ,  4-O ) :   0.9321 B(  0-C ,  5-H ) :   0.9284
B(  0-C , 15-O ) :   0.8403 B(  1-C ,  2-C ) :   0.9509 B(  1-C ,  6-H ) :   0.9339
B(  1-C ,  7-H ) :   0.9284 B(  2-C ,  3-C ) :   0.9518 B(  2-C ,  8-H ) :   0.9451
B(  2-C ,  9-H ) :   0.9375 B(  3-C ,  4-O ) :   0.8375 B(  3-C , 10-H ) :   0.9337
B(  3-C , 11-H ) :   0.9396 B( 12-C , 13-H ) :   0.9037 B( 12-C , 14-H ) :   0.9084
B( 12-C , 15-O ) :   0.8471 B( 12-C , 16-C ) :   0.9022 B( 16-C , 17-C ) :   0.9088
B( 16-C , 20-O ) :   0.8778 B( 16-C , 21-H ) :   0.9232 B( 17-C , 18-C ) :   0.9254
B( 17-C , 22-O ) :   0.8883 B( 17-C , 23-H ) :   0.9371 B( 18-C , 19-C ) :   0.9469
B( 18-C , 24-H ) :   0.9374 B( 18-C , 25-H ) :   0.9171 B( 19-C , 20-O ) :   0.8341
B( 19-C , 26-H ) :   0.9324 B( 19-C , 27-H ) :   0.9372 B( 22-O , 28-H ) :   0.7967

FINAL SINGLE POINT ENERGY      -652.857575364325

DIPOLE MOMENT
-------------
                                X             Y             Z
Electronic contribution:     -3.59513      -1.67216      -0.28021
Nuclear contribution   :      4.71265       2.31874       0.08095
                        -----------------------------------------
Total Dipole Moment    :      1.11752       0.64658      -0.19926
                        -----------------------------------------
Magnitude (a.u.)       :      1.30638
Magnitude (Debye)      :      3.32054

Rotational constants in cm-1:     0.059280     0.013949     0.013422
Rotational constants in MHz :  1777.172719   418.188639   402.383883

                             ****ORCA TERMINATED NORMALLY****
TOTAL RUN TIME: 0 days 0 hours 51 minutes 12 seconds 64 msec
