                         Program Version 4.2.0 -  RELEASE  -
|  1> # Test redundant internal optimization
|  2> #
|  3> ! RKS B3LYP  Opt TightSCF SmallPrint
|  4>
|  5> %basis
|  6>         Basis "6-31G"
|  7> end
|  8>
|  9> %geom
| 10> Constraints
| 11> { D 4  0  15  12  315.0   C } # D for Dihedral angle
| 12> { D 0  15  12  16  225.0   C } # D for Dihedral angle
| 13> { D 0  4  3  2   C } # D for Dihedral angle
| 14> { D 4  3  2  1   C } # D for Dihedral angle
| 15> { D 3  2  1  0   C } # D for Dihedral angle
| 16> { D 2  1  0  4   C } # D for Dihedral angle
| 17> { D 1  0  4  3   C } # D for Dihedral angle
| 18> { D 16  20  19  18   C } # D for Dihedral angle
| 19> { D 20  19  18  17   C } # D for Dihedral angle
| 20> { D 19  18  17  16   C } # D for Dihedral angle
| 21> { D 18  17  16  20   C } # D for Dihedral angle
| 22> { D 17  16  20  19   C } # D for Dihedral angle
| 23> { D 15  12  16  20   C } # D for Dihedral angle
| 24> end
| 25> end
| 26>
| 27>
| 28> #%pal
| 29> #nprocs 8
| 30> #end
| 31>
| 32> * xyz 0 1
| 33> C  -21.048   26.222   46.251
| 34> C  -20.361   27.558   45.944
| 35> C  -20.329   28.222   47.341
| 36> C  -20.110   27.022   48.296
| 37> O  -20.473   25.807   47.535
| 38> H  -20.833   25.428   45.533
| 39> H  -19.344   27.382   45.576
| 40> H  -20.898   28.157   45.201
| 41> H  -19.543   28.978   47.434
| 42> H  -21.289   28.710   47.548
| 43> H  -20.733   27.082   49.195
| 44> H  -19.064   26.913   48.597
| 45> C  -23.319   25.255   47.135
| 46> H  -22.647   24.393   47.231
| 47> H  -23.600   25.584   48.144
| 48> O  -22.586   26.394   46.375
| 49> C  -24.613   24.787   46.413
| 50> C  -25.566   25.961   46.163
| 51> C  -24.928   26.623   44.918
| 52> C  -24.375   25.415   44.122
| 53> O  -24.299   24.284   45.072
| 54> H  -25.054   23.958   46.971
| 55> H  -26.569   25.588   45.930
| 56> O  -25.673   26.930   47.372
| 57> H  -25.643   27.214   44.337
| 58> H  -24.112   27.290   45.223
| 59> H  -23.378   25.605   43.709
| 60> H  -25.041   25.109   43.310
| 61> H  -24.679   27.316   47.623
| 62> *
| 63>
| 64>                          ****END OF INPUT****
 Total Charge           Charge          ....    0
 Multiplicity           Mult            ....    1
 Number of Electrons    NEL             ....  102
FINAL SINGLE POINT ENERGY      -652.837910329151
FINAL SINGLE POINT ENERGY      -652.861518093819
FINAL SINGLE POINT ENERGY      -652.865926933745
FINAL SINGLE POINT ENERGY      -652.867274314600
FINAL SINGLE POINT ENERGY      -652.867393261887
FINAL SINGLE POINT ENERGY      -652.867415466091
FINAL SINGLE POINT ENERGY      -652.867416640766
                    ***********************HURRAY********************

CARTESIAN COORDINATES (ANGSTROEM)
---------------------------------
  C    -21.051681   26.160793   46.300004
  C    -20.428810   27.520070   45.984579
  C    -20.380081   28.175924   47.382085
  C    -20.086763   26.986209   48.322414
  O    -20.433034   25.763445   47.545088
  H    -20.842591   25.353346   45.592524
  H    -19.421168   27.367096   45.582480
  H    -21.016897   28.088767   45.260886
  H    -19.618083   28.958104   47.453618
  H    -21.352434   28.621013   47.613634
  H    -20.681998   27.002018   49.238896
  H    -19.027985   26.898590   48.581768
  C    -23.204513   25.293454   47.147430
  H    -22.556508   24.420362   47.269272
  H    -23.462748   25.665842   48.145672
  O    -22.485614   26.340134   46.415327
  C    -24.473452   24.877940   46.410856
  C    -25.507068   25.993917   46.179256
  C    -24.982428   26.650668   44.865057
  C    -24.417104   25.443519   44.086635
  O    -24.220417   24.351748   45.075665
  H    -24.913971   24.054026   46.986220
  H    -26.499420   25.560510   46.038236
  O    -25.653411   26.913083   47.289437
  H    -25.775791   27.170917   44.320507
  H    -24.188882   27.357486   45.118218
  H    -23.458226   25.661557   43.607792
  H    -25.116240   25.065208   43.334076
  H    -24.849683   27.471253   47.351370

 Multiplicity           Mult            ....    1
 Number of Electrons    NEL             ....  102
 Basis Dimension        Dim             ....  149

ORBITAL ENERGIES
----------------

  NO   OCC          E(Eh)            E(eV)
   0   2.0000     -19.149183      -521.0758
   1   2.0000     -19.149042      -521.0719
   2   2.0000     -19.138075      -520.7735
   3   2.0000     -19.131889      -520.6052
   4   2.0000     -10.283325      -279.8235
   5   2.0000     -10.234213      -278.4871
   6   2.0000     -10.232421      -278.4383
   7   2.0000     -10.226644      -278.2811
   8   2.0000     -10.225257      -278.2434
   9   2.0000     -10.221097      -278.1302
  10   2.0000     -10.192718      -277.3579
  11   2.0000     -10.191850      -277.3343
  12   2.0000     -10.177795      -276.9519
  13   2.0000      -1.059649       -28.8345
  14   2.0000      -1.025102       -27.8945
  15   2.0000      -1.007646       -27.4195
  16   2.0000      -0.995178       -27.0802
  17   2.0000      -0.795383       -21.6435
  18   2.0000      -0.770484       -20.9659
  19   2.0000      -0.763995       -20.7894
  20   2.0000      -0.733750       -19.9664
  21   2.0000      -0.675238       -18.3742
  22   2.0000      -0.606313       -16.4986
  23   2.0000      -0.599758       -16.3202
  24   2.0000      -0.596494       -16.2314
  25   2.0000      -0.566074       -15.4037
  26   2.0000      -0.526981       -14.3399
  27   2.0000      -0.510545       -13.8926
  28   2.0000      -0.495661       -13.4876
  29   2.0000      -0.492282       -13.3957
  30   2.0000      -0.465273       -12.6607
  31   2.0000      -0.459263       -12.4972
  32   2.0000      -0.446086       -12.1386
  33   2.0000      -0.426930       -11.6174
  34   2.0000      -0.421192       -11.4612
  35   2.0000      -0.414170       -11.2702
  36   2.0000      -0.401092       -10.9143
  37   2.0000      -0.397060       -10.8045
  38   2.0000      -0.382986       -10.4216
  39   2.0000      -0.365565        -9.9475
  40   2.0000      -0.362197        -9.8559
  41   2.0000      -0.355646        -9.6776
  42   2.0000      -0.350371        -9.5341
  43   2.0000      -0.334885        -9.1127
  44   2.0000      -0.321938        -8.7604
  45   2.0000      -0.306744        -8.3469
  46   2.0000      -0.301221        -8.1966
  47   2.0000      -0.273615        -7.4454
  48   2.0000      -0.263539        -7.1713
  49   2.0000      -0.257988        -7.0202
  50   2.0000      -0.235986        -6.4215
  51   0.0000       0.062071         1.6890
  52   0.0000       0.082158         2.2356
  53   0.0000       0.093394         2.5414
  54   0.0000       0.100275         2.7286
  55   0.0000       0.107055         2.9131

MULLIKEN ATOMIC CHARGES
-----------------------
   0 C :    0.293577
   1 C :   -0.264521
   2 C :   -0.299064
   3 C :   -0.009080
   4 O :   -0.511389
   5 H :    0.160909
   6 H :    0.149450
   7 H :    0.155462
   8 H :    0.146080
   9 H :    0.152992
  10 H :    0.147738
  11 H :    0.148743
  12 C :   -0.025776
  13 H :    0.171086
  14 H :    0.140757
  15 O :   -0.548231
  16 C :    0.095088
  17 C :    0.086266
  18 C :   -0.314056
  19 C :   -0.004553
  20 O :   -0.523967
  21 H :    0.148441
  22 H :    0.159735
  23 O :   -0.606645
  24 H :    0.142630
  25 H :    0.164397
  26 H :    0.139528
  27 H :    0.142018
  28 H :    0.362384
Sum of atomic charges:    0.0000000

LOEWDIN ATOMIC CHARGES
----------------------
   0 C :    0.176407
   1 C :   -0.215122
   2 C :   -0.216401
   3 C :   -0.029251
   4 O :   -0.325306
   5 H :    0.104206
   6 H :    0.116630
   7 H :    0.122831
   8 H :    0.116041
   9 H :    0.114406
  10 H :    0.105446
  11 H :    0.106053
  12 C :   -0.048285
  13 H :    0.120814
  14 H :    0.104306
  15 O :   -0.345881
  16 C :    0.015588
  17 C :    0.037241
  18 C :   -0.244459
  19 C :   -0.025673
  20 O :   -0.325339
  21 H :    0.113785
  22 H :    0.115374
  23 O :   -0.411771
  24 H :    0.114416
  25 H :    0.120753
  26 H :    0.101253
  27 H :    0.100664
  28 H :    0.281274

  Mayer bond orders larger than 0.100000
B(  0-C ,  1-C ) :   0.9490 B(  0-C ,  4-O ) :   0.9018 B(  0-C ,  5-H ) :   0.9199
B(  0-C , 15-O ) :   0.8425 B(  1-C ,  2-C ) :   0.9532 B(  1-C ,  6-H ) :   0.9382
B(  1-C ,  7-H ) :   0.9365 B(  2-C ,  3-C ) :   0.9558 B(  2-C ,  8-H ) :   0.9447
B(  2-C ,  9-H ) :   0.9461 B(  3-C ,  4-O ) :   0.8334 B(  3-C , 10-H ) :   0.9353
B(  3-C , 11-H ) :   0.9402 B( 12-C , 13-H ) :   0.9191 B( 12-C , 14-H ) :   0.9146
B( 12-C , 15-O ) :   0.8178 B( 12-C , 16-C ) :   0.9066 B( 16-C , 17-C ) :   0.8857
B( 16-C , 20-O ) :   0.8716 B( 16-C , 21-H ) :   0.9272 B( 17-C , 18-C ) :   0.9329
B( 17-C , 22-H ) :   0.9366 B( 17-C , 23-O ) :   0.9015 B( 18-C , 19-C ) :   0.9463
B( 18-C , 24-H ) :   0.9413 B( 18-C , 25-H ) :   0.9262 B( 19-C , 20-O ) :   0.8405
B( 19-C , 26-H ) :   0.9332 B( 19-C , 27-H ) :   0.9375 B( 23-O , 28-H ) :   0.7933

FINAL SINGLE POINT ENERGY      -652.867415074604

DIPOLE MOMENT
-------------
                                X             Y             Z
Electronic contribution:     -2.30837      -4.24637       0.63849
Nuclear contribution   :      3.10369       5.28997      -0.80815
                        -----------------------------------------
Total Dipole Moment    :      0.79532       1.04360      -0.16966
                        -----------------------------------------
Magnitude (a.u.)       :      1.32304
Magnitude (Debye)      :      3.36289

Rotational constants in cm-1:     0.048338     0.015302     0.014657
Rotational constants in MHz :  1449.145738   458.735154   439.412871

                             ****ORCA TERMINATED NORMALLY****
TOTAL RUN TIME: 0 days 0 hours 34 minutes 6 seconds 405 msec
