                         Program Version 4.2.0 -  RELEASE  -
|  1> # Test redundant internal optimization
|  2> #
|  3> ! RKS B3LYP  Opt TightSCF SmallPrint
|  4>
|  5> %basis
|  6>         Basis "6-31G"
|  7> end
|  8>
|  9> %geom
| 10> Constraints
| 11> { D 4  0  15  12  195.0   C } # D for Dihedral angle
| 12> { D 0  15  12  16  330.0   C } # D for Dihedral angle
| 13> { D 0  4  3  2   C } # D for Dihedral angle
| 14> { D 4  3  2  1   C } # D for Dihedral angle
| 15> { D 3  2  1  0   C } # D for Dihedral angle
| 16> { D 2  1  0  4   C } # D for Dihedral angle
| 17> { D 1  0  4  3   C } # D for Dihedral angle
| 18> { D 16  20  19  18   C } # D for Dihedral angle
| 19> { D 20  19  18  17   C } # D for Dihedral angle
| 20> { D 19  18  17  16   C } # D for Dihedral angle
| 21> { D 18  17  16  20   C } # D for Dihedral angle
| 22> { D 17  16  20  19   C } # D for Dihedral angle
| 23> { D 15  12  16  20   C } # D for Dihedral angle
| 24> end
| 25> end
| 26>
| 27>
| 28> #%pal
| 29> #nprocs 8
| 30> #end
| 31>
| 32> * xyz 0 1
| 33> C  -21.048   26.222   46.251
| 34> C  -20.361   27.558   45.944
| 35> C  -20.329   28.222   47.341
| 36> C  -20.110   27.022   48.296
| 37> O  -20.473   25.807   47.535
| 38> H  -20.833   25.428   45.533
| 39> H  -19.344   27.382   45.576
| 40> H  -20.898   28.157   45.201
| 41> H  -19.543   28.978   47.434
| 42> H  -21.289   28.710   47.548
| 43> H  -20.733   27.082   49.195
| 44> H  -19.064   26.913   48.597
| 45> C  -23.353   26.472   45.026
| 46> H  -23.654   25.462   44.722
| 47> H  -24.259   27.082   45.134
| 48> O  -22.586   26.394   46.375
| 49> C  -22.499   27.092   43.885
| 50> C  -23.322   27.260   42.603
| 51> C  -24.124   28.547   42.912
| 52> C  -23.126   29.392   43.743
| 53> O  -22.091   28.457   44.234
| 54> H  -21.586   26.506   43.763
| 55> H  -22.657   27.415   41.746
| 56> O  -24.235   26.040   42.300
| 57> H  -24.458   29.066   42.007
| 58> H  -25.013   28.303   43.506
| 59> H  -23.604   29.880   44.600
| 60> H  -22.618   30.150   43.141
| 61> H  -24.911   25.866   43.144
| 62> *
| 63>
| 64>                          ****END OF INPUT****
 Total Charge           Charge          ....    0
 Multiplicity           Mult            ....    1
 Number of Electrons    NEL             ....  102
FINAL SINGLE POINT ENERGY      -652.806595099535
FINAL SINGLE POINT ENERGY      -652.830517468438
FINAL SINGLE POINT ENERGY      -652.846636444994
FINAL SINGLE POINT ENERGY      -652.849451167413
FINAL SINGLE POINT ENERGY      -652.850049805155
FINAL SINGLE POINT ENERGY      -652.850128915794
FINAL SINGLE POINT ENERGY      -652.850137696940
FINAL SINGLE POINT ENERGY      -652.850139445440
                    ***********************HURRAY********************

CARTESIAN COORDINATES (ANGSTROEM)
---------------------------------
  C    -20.888961   26.227258   46.227634
  C    -20.127449   27.540429   46.058000
  C    -20.296006   28.192730   47.452348
  C    -20.264751   26.977431   48.401987
  O    -20.541734   25.793648   47.551837
  H    -20.604765   25.426452   45.535967
  H    -19.072103   27.302134   45.871424
  H    -20.504871   28.167040   45.251650
  H    -19.508071   28.918771   47.674033
  H    -21.263506   28.701039   47.503689
  H    -21.020755   27.022872   49.190618
  H    -19.280363   26.815228   48.852502
  C    -23.135217   26.511236   45.026281
  H    -23.468293   25.502879   44.734534
  H    -24.014949   27.081020   45.346590
  O    -22.343876   26.391041   46.241921
  C    -22.527425   27.141078   43.767752
  C    -23.528541   27.226464   42.599903
  C    -24.296083   28.546226   42.930908
  C    -23.192437   29.432186   43.551506
  O    -22.088735   28.521268   43.956690
  H    -21.632470   26.583299   43.473588
  H    -22.973140   27.339675   41.666071
  O    -24.357877   26.063593   42.386512
  H    -24.747743   28.991542   42.041310
  H    -25.097087   28.336870   43.651016
  H    -23.532828   29.986629   44.431212
  H    -22.772083   30.137877   42.829034
  H    -25.038881   25.987084   43.085482

 Multiplicity           Mult            ....    1
 Number of Electrons    NEL             ....  102
 Basis Dimension        Dim             ....  149

ORBITAL ENERGIES
----------------

  NO   OCC          E(Eh)            E(eV)
   0   2.0000     -19.158123      -521.3190
   1   2.0000     -19.153029      -521.1804
   2   2.0000     -19.130818      -520.5760
   3   2.0000     -19.128552      -520.5144
   4   2.0000     -10.270024      -279.4616
   5   2.0000     -10.256042      -279.0811
   6   2.0000     -10.243397      -278.7370
   7   2.0000     -10.242170      -278.7036
   8   2.0000     -10.232969      -278.4532
   9   2.0000     -10.213693      -277.9287
  10   2.0000     -10.204413      -277.6762
  11   2.0000     -10.172899      -276.8187
  12   2.0000     -10.163936      -276.5748
  13   2.0000      -1.046693       -28.4820
  14   2.0000      -1.039051       -28.2740
  15   2.0000      -1.027501       -27.9597
  16   2.0000      -0.980989       -26.6941
  17   2.0000      -0.792994       -21.5785
  18   2.0000      -0.774172       -21.0663
  19   2.0000      -0.769783       -20.9469
  20   2.0000      -0.729011       -19.8374
  21   2.0000      -0.682436       -18.5700
  22   2.0000      -0.622068       -16.9273
  23   2.0000      -0.604548       -16.4506
  24   2.0000      -0.586545       -15.9607
  25   2.0000      -0.562346       -15.3022
  26   2.0000      -0.535339       -14.5673
  27   2.0000      -0.517169       -14.0729
  28   2.0000      -0.491484       -13.3740
  29   2.0000      -0.483706       -13.1623
  30   2.0000      -0.467150       -12.7118
  31   2.0000      -0.452793       -12.3211
  32   2.0000      -0.447420       -12.1749
  33   2.0000      -0.436900       -11.8887
  34   2.0000      -0.436763       -11.8849
  35   2.0000      -0.418195       -11.3797
  36   2.0000      -0.412675       -11.2295
  37   2.0000      -0.394413       -10.7325
  38   2.0000      -0.388139       -10.5618
  39   2.0000      -0.365880        -9.9561
  40   2.0000      -0.359051        -9.7703
  41   2.0000      -0.354129        -9.6364
  42   2.0000      -0.339995        -9.2517
  43   2.0000      -0.333258        -9.0684
  44   2.0000      -0.320747        -8.7280
  45   2.0000      -0.304407        -8.2833
  46   2.0000      -0.293554        -7.9880
  47   2.0000      -0.282373        -7.6838
  48   2.0000      -0.258157        -7.0248
  49   2.0000      -0.247194        -6.7265
  50   2.0000      -0.237021        -6.4497
  51   0.0000       0.045859         1.2479
  52   0.0000       0.068938         1.8759
  53   0.0000       0.080503         2.1906
  54   0.0000       0.094942         2.5835
  55   0.0000       0.100863         2.7446

MULLIKEN ATOMIC CHARGES
-----------------------
   0 C :    0.294823
   1 C :   -0.297638
   2 C :   -0.298063
   3 C :    0.000494
   4 O :   -0.504194
   5 H :    0.134363
   6 H :    0.131354
   7 H :    0.208823
   8 H :    0.135450
   9 H :    0.154264
  10 H :    0.148464
  11 H :    0.136612
  12 C :    0.008066
  13 H :    0.132843
  14 H :    0.135593
  15 O :   -0.521736
  16 C :    0.058226
  17 C :    0.088028
  18 C :   -0.322932
  19 C :   -0.007821
  20 O :   -0.520967
  21 H :    0.161387
  22 H :    0.170170
  23 O :   -0.593505
  24 H :    0.161126
  25 H :    0.140283
  26 H :    0.151322
  27 H :    0.155523
  28 H :    0.359643
Sum of atomic charges:    0.0000000

LOEWDIN ATOMIC CHARGES
----------------------
   0 C :    0.183675
   1 C :   -0.244205
   2 C :   -0.215767
   3 C :   -0.026804
   4 O :   -0.305708
   5 H :    0.092443
   6 H :    0.107973
   7 H :    0.142381
   8 H :    0.111308
   9 H :    0.114998
  10 H :    0.105942
  11 H :    0.099496
  12 C :   -0.047970
  13 H :    0.099024
  14 H :    0.104129
  15 O :   -0.335158
  16 C :    0.002342
  17 C :    0.039378
  18 C :   -0.240324
  19 C :   -0.028301
  20 O :   -0.320558
  21 H :    0.114106
  22 H :    0.120416
  23 O :   -0.401420
  24 H :    0.124876
  25 H :    0.107431
  26 H :    0.106866
  27 H :    0.108841
  28 H :    0.280589

  Mayer bond orders larger than 0.100000
B(  0-C ,  1-C ) :   0.9330 B(  0-C ,  4-O ) :   0.9344 B(  0-C ,  5-H ) :   0.9218
B(  0-C , 15-O ) :   0.8197 B(  1-C ,  2-C ) :   0.9536 B(  1-C ,  6-H ) :   0.9327
B(  1-C ,  7-H ) :   0.8908 B(  2-C ,  3-C ) :   0.9555 B(  2-C ,  8-H ) :   0.9457
B(  2-C ,  9-H ) :   0.9450 B(  3-C ,  4-O ) :   0.8361 B(  3-C , 10-H ) :   0.9358
B(  3-C , 11-H ) :   0.9401 B( 12-C , 13-H ) :   0.9006 B( 12-C , 14-H ) :   0.9346
B( 12-C , 15-O ) :   0.8729 B( 12-C , 16-C ) :   0.8940 B( 16-C , 17-C ) :   0.8691
B( 16-C , 20-O ) :   0.8346 B( 16-C , 21-H ) :   0.9283 B( 17-C , 18-C ) :   0.9213
B( 17-C , 22-H ) :   0.9328 B( 17-C , 23-O ) :   0.9110 B( 18-C , 19-C ) :   0.9397
B( 18-C , 24-H ) :   0.9410 B( 18-C , 25-H ) :   0.9398 B( 19-C , 20-O ) :   0.8309
B( 19-C , 26-H ) :   0.9322 B( 19-C , 27-H ) :   0.9382 B( 23-O , 28-H ) :   0.7948

FINAL SINGLE POINT ENERGY      -652.850139331444

DIPOLE MOMENT
-------------
                                X             Y             Z
Electronic contribution:     -0.38703      -4.49858      -0.49432
Nuclear contribution   :     -0.23721       5.77909      -0.17434
                        -----------------------------------------
Total Dipole Moment    :     -0.62424       1.28051      -0.66866
                        -----------------------------------------
Magnitude (a.u.)       :      1.57368
Magnitude (Debye)      :      3.99998

Rotational constants in cm-1:     0.057012     0.014163     0.012430
Rotational constants in MHz :  1709.181660   424.605641   372.638014

                             ****ORCA TERMINATED NORMALLY****
TOTAL RUN TIME: 0 days 1 hours 53 minutes 17 seconds 777 msec
