                         Program Version 4.2.0 -  RELEASE  -
|  1> # Test redundant internal optimization
|  2> #
|  3> ! RKS B3LYP  Opt TightSCF SmallPrint
|  4>
|  5> %basis
|  6>         Basis "6-31G"
|  7> end
|  8>
|  9> %geom
| 10> Constraints
| 11> { D 4  0  15  12  105.0   C } # D for Dihedral angle
| 12> { D 0  15  12  16  225.0   C } # D for Dihedral angle
| 13> { D 0  4  3  2   C } # D for Dihedral angle
| 14> { D 4  3  2  1   C } # D for Dihedral angle
| 15> { D 3  2  1  0   C } # D for Dihedral angle
| 16> { D 2  1  0  4   C } # D for Dihedral angle
| 17> { D 1  0  4  3   C } # D for Dihedral angle
| 18> { D 16  20  19  18   C } # D for Dihedral angle
| 19> { D 20  19  18  17   C } # D for Dihedral angle
| 20> { D 19  18  17  16   C } # D for Dihedral angle
| 21> { D 18  17  16  20   C } # D for Dihedral angle
| 22> { D 17  16  20  19   C } # D for Dihedral angle
| 23> { D 15  12  16  20   C } # D for Dihedral angle
| 24> end
| 25> end
| 26>
| 27>
| 28> #%pal
| 29> #nprocs 8
| 30> #end
| 31>
| 32> * xyz 0 1
| 33> C  -21.048   26.222   46.251
| 34> C  -20.361   27.558   45.944
| 35> C  -20.329   28.222   47.341
| 36> C  -20.110   27.022   48.296
| 37> O  -20.473   25.807   47.535
| 38> H  -20.833   25.428   45.533
| 39> H  -19.344   27.382   45.576
| 40> H  -20.898   28.157   45.201
| 41> H  -19.543   28.978   47.434
| 42> H  -21.289   28.710   47.548
| 43> H  -20.733   27.082   49.195
| 44> H  -19.064   26.913   48.597
| 45> C  -23.085   27.864   46.420
| 46> H  -22.234   28.529   46.615
| 47> H  -23.529   28.149   45.458
| 48> O  -22.586   26.394   46.375
| 49> C  -24.153   28.103   47.523
| 50> C  -24.705   29.531   47.464
| 51> C  -25.713   29.429   46.294
| 52> C  -26.279   27.995   46.442
| 53> O  -25.325   27.252   47.294
| 54> H  -23.736   27.819   48.492
| 55> H  -25.222   29.775   48.399
| 56> O  -23.606   30.601   47.220
| 57> H  -26.495   30.194   46.340
| 58> H  -25.190   29.541   45.336
| 59> H  -26.375   27.481   45.479
| 60> H  -27.247   27.978   46.951
| 61> H  -23.075   30.379   46.288
| 62> *
| 63>
| 64>                          ****END OF INPUT****
 Total Charge           Charge          ....    0
 Multiplicity           Mult            ....    1
 Number of Electrons    NEL             ....  102
FINAL SINGLE POINT ENERGY      -652.799020427499
FINAL SINGLE POINT ENERGY      -652.827539642153
FINAL SINGLE POINT ENERGY      -652.841765832799
FINAL SINGLE POINT ENERGY      -652.844499867289
FINAL SINGLE POINT ENERGY      -652.845069001763
FINAL SINGLE POINT ENERGY      -652.845194518639
FINAL SINGLE POINT ENERGY      -652.845218135725
FINAL SINGLE POINT ENERGY      -652.845212604846
FINAL SINGLE POINT ENERGY      -652.845209363149
                    ***********************HURRAY********************

CARTESIAN COORDINATES (ANGSTROEM)
---------------------------------
  C    -21.157030   26.330023   46.369701
  C    -20.149752   27.413770   45.957081
  C    -19.891025   28.152562   47.306298
  C    -19.968708   26.993939   48.333950
  O    -20.668488   25.882599   47.653520
  H    -21.122948   25.442370   45.735819
  H    -19.235331   26.921278   45.612423
  H    -20.509991   28.069692   45.159304
  H    -18.913494   28.644987   47.322553
  H    -20.645826   28.917004   47.507434
  H    -20.518277   27.263468   49.240707
  H    -18.979289   26.621774   48.615171
  C    -23.084192   28.016992   46.368549
  H    -22.326482   28.767581   46.605854
  H    -23.464753   28.219745   45.356932
  O    -22.563303   26.662418   46.381308
  C    -24.204338   28.125068   47.403063
  C    -24.864698   29.511781   47.455692
  C    -25.905190   29.415143   46.299482
  C    -26.352386   27.937613   46.369567
  O    -25.314819   27.215357   47.146469
  H    -23.795026   27.824393   48.372106
  H    -25.369551   29.637967   48.415798
  O    -23.948021   30.633464   47.364003
  H    -26.733456   30.117353   46.425181
  H    -25.412515   29.639463   45.343562
  H    -26.448122   27.474302   45.383174
  H    -27.297056   27.818174   46.908485
  H    -23.735935   30.824719   46.427815

 Multiplicity           Mult            ....    1
 Number of Electrons    NEL             ....  102
 Basis Dimension        Dim             ....  149

ORBITAL ENERGIES
----------------

  NO   OCC          E(Eh)            E(eV)
   0   2.0000     -19.153526      -521.1939
   1   2.0000     -19.135748      -520.7102
   2   2.0000     -19.134764      -520.6834
   3   2.0000     -19.134407      -520.6737
   4   2.0000     -10.275741      -279.6171
   5   2.0000     -10.246501      -278.8215
   6   2.0000     -10.230984      -278.3992
   7   2.0000     -10.229608      -278.3618
   8   2.0000     -10.228590      -278.3341
   9   2.0000     -10.224672      -278.2275
  10   2.0000     -10.198282      -277.5094
  11   2.0000     -10.193618      -277.3824
  12   2.0000     -10.192788      -277.3599
  13   2.0000      -1.045989       -28.4628
  14   2.0000      -1.035029       -28.1646
  15   2.0000      -1.015559       -27.6348
  16   2.0000      -0.990629       -26.9564
  17   2.0000      -0.787480       -21.4284
  18   2.0000      -0.784459       -21.3462
  19   2.0000      -0.770987       -20.9796
  20   2.0000      -0.731336       -19.9007
  21   2.0000      -0.684490       -18.6259
  22   2.0000      -0.613599       -16.6969
  23   2.0000      -0.604771       -16.4567
  24   2.0000      -0.594989       -16.1905
  25   2.0000      -0.568605       -15.4725
  26   2.0000      -0.523751       -14.2520
  27   2.0000      -0.515755       -14.0344
  28   2.0000      -0.502512       -13.6740
  29   2.0000      -0.496022       -13.4974
  30   2.0000      -0.466373       -12.6907
  31   2.0000      -0.456932       -12.4338
  32   2.0000      -0.441599       -12.0165
  33   2.0000      -0.434137       -11.8135
  34   2.0000      -0.430844       -11.7239
  35   2.0000      -0.420354       -11.4384
  36   2.0000      -0.414600       -11.2818
  37   2.0000      -0.399382       -10.8677
  38   2.0000      -0.381381       -10.3779
  39   2.0000      -0.378291       -10.2938
  40   2.0000      -0.361779        -9.8445
  41   2.0000      -0.356767        -9.7081
  42   2.0000      -0.347492        -9.4557
  43   2.0000      -0.329419        -8.9639
  44   2.0000      -0.318958        -8.6793
  45   2.0000      -0.309753        -8.4288
  46   2.0000      -0.285797        -7.7769
  47   2.0000      -0.273520        -7.4429
  48   2.0000      -0.266604        -7.2547
  49   2.0000      -0.248651        -6.7661
  50   2.0000      -0.236072        -6.4238
  51   0.0000       0.045401         1.2354
  52   0.0000       0.073550         2.0014
  53   0.0000       0.084108         2.2887
  54   0.0000       0.088967         2.4209
  55   0.0000       0.101884         2.7724

MULLIKEN ATOMIC CHARGES
-----------------------
   0 C :    0.311481
   1 C :   -0.299978
   2 C :   -0.318646
   3 C :   -0.005520
   4 O :   -0.495298
   5 H :    0.162979
   6 H :    0.158838
   7 H :    0.143180
   8 H :    0.144968
   9 H :    0.162313
  10 H :    0.147551
  11 H :    0.145179
  12 C :   -0.015437
  13 H :    0.129151
  14 H :    0.123338
  15 O :   -0.513128
  16 C :    0.110142
  17 C :    0.084077
  18 C :   -0.328952
  19 C :   -0.006953
  20 O :   -0.500742
  21 H :    0.159582
  22 H :    0.166630
  23 O :   -0.604320
  24 H :    0.159819
  25 H :    0.129354
  26 H :    0.147421
  27 H :    0.147924
  28 H :    0.355047
Sum of atomic charges:    0.0000000

LOEWDIN ATOMIC CHARGES
----------------------
   0 C :    0.178594
   1 C :   -0.232824
   2 C :   -0.224839
   3 C :   -0.031993
   4 O :   -0.316226
   5 H :    0.109715
   6 H :    0.124461
   7 H :    0.113805
   8 H :    0.115626
   9 H :    0.111734
  10 H :    0.104434
  11 H :    0.103670
  12 C :   -0.049638
  13 H :    0.099846
  14 H :    0.091145
  15 O :   -0.312331
  16 C :    0.022174
  17 C :    0.033723
  18 C :   -0.241618
  19 C :   -0.028720
  20 O :   -0.308895
  21 H :    0.118646
  22 H :    0.119089
  23 O :   -0.411659
  24 H :    0.122776
  25 H :    0.101899
  26 H :    0.104613
  27 H :    0.105573
  28 H :    0.277218

  Mayer bond orders larger than 0.100000
B(  0-C ,  1-C ) :   0.9259 B(  0-C ,  4-O ) :   0.9050 B(  0-C ,  5-H ) :   0.9344
B(  0-C , 15-O ) :   0.8982 B(  1-C ,  2-C ) :   0.9511 B(  1-C ,  6-H ) :   0.9347
B(  1-C ,  7-H ) :   0.9342 B(  2-C ,  3-C ) :   0.9455 B(  2-C ,  8-H ) :   0.9455
B(  2-C ,  9-H ) :   0.9341 B(  3-C ,  4-O ) :   0.8508 B(  3-C , 10-H ) :   0.9336
B(  3-C , 11-H ) :   0.9392 B( 12-C , 13-H ) :   0.8873 B( 12-C , 14-H ) :   0.9281
B( 12-C , 15-O ) :   0.8494 B( 12-C , 16-C ) :   0.8996 B( 16-C , 17-C ) :   0.8677
B( 16-C , 20-O ) :   0.8737 B( 16-C , 21-H ) :   0.9313 B( 17-C , 18-C ) :   0.9278
B( 17-C , 22-H ) :   0.9333 B( 17-C , 23-O ) :   0.8870 B( 18-C , 19-C ) :   0.9395
B( 18-C , 24-H ) :   0.9410 B( 18-C , 25-H ) :   0.9403 B( 19-C , 20-O ) :   0.8542
B( 19-C , 26-H ) :   0.9308 B( 19-C , 27-H ) :   0.9376 B( 23-O , 28-H ) :   0.8000

FINAL SINGLE POINT ENERGY      -652.845209290578

DIPOLE MOMENT
-------------
                                X             Y             Z
Electronic contribution:     -1.96817      -4.15282       1.62818
Nuclear contribution   :      2.25240       5.73786      -2.65659
                        -----------------------------------------
Total Dipole Moment    :      0.28424       1.58504      -1.02841
                        -----------------------------------------
Magnitude (a.u.)       :      1.91070
Magnitude (Debye)      :      4.85661

Rotational constants in cm-1:     0.050530     0.014151     0.012615
Rotational constants in MHz :  1514.847887   424.237050   378.173464

                             ****ORCA TERMINATED NORMALLY****
TOTAL RUN TIME: 0 days 0 hours 51 minutes 41 seconds 839 msec
