                         Program Version 4.2.0 -  RELEASE  -
|  1> # Test redundant internal optimization
|  2> #
|  3> ! RKS B3LYP  Opt TightSCF SmallPrint
|  4>
|  5> %basis
|  6>         Basis "6-31G"
|  7> end
|  8>
|  9> %geom
| 10> Constraints
| 11> { D 4  0  15  12  225.0   C } # D for Dihedral angle
| 12> { D 0  15  12  16  285.0   C } # D for Dihedral angle
| 13> { D 0  4  3  2   C } # D for Dihedral angle
| 14> { D 4  3  2  1   C } # D for Dihedral angle
| 15> { D 3  2  1  0   C } # D for Dihedral angle
| 16> { D 2  1  0  4   C } # D for Dihedral angle
| 17> { D 1  0  4  3   C } # D for Dihedral angle
| 18> { D 16  20  19  18   C } # D for Dihedral angle
| 19> { D 20  19  18  17   C } # D for Dihedral angle
| 20> { D 19  18  17  16   C } # D for Dihedral angle
| 21> { D 18  17  16  20   C } # D for Dihedral angle
| 22> { D 17  16  20  19   C } # D for Dihedral angle
| 23> { D 15  12  16  20   C } # D for Dihedral angle
| 24> end
| 25> end
| 26>
| 27>
| 28> #%pal
| 29> #nprocs 8
| 30> #end
| 31>
| 32> * xyz 0 1
| 33> C  -21.048   26.222   46.251
| 34> C  -20.361   27.558   45.944
| 35> C  -20.329   28.222   47.341
| 36> C  -20.110   27.022   48.296
| 37> O  -20.473   25.807   47.535
| 38> H  -20.833   25.428   45.533
| 39> H  -19.344   27.382   45.576
| 40> H  -20.898   28.157   45.201
| 41> H  -19.543   28.978   47.434
| 42> H  -21.289   28.710   47.548
| 43> H  -20.733   27.082   49.195
| 44> H  -19.064   26.913   48.597
| 45> C  -23.415   25.773   45.218
| 46> H  -23.038   24.766   45.002
| 47> H  -24.472   25.689   45.505
| 48> O  -22.586   26.394   46.375
| 49> C  -23.346   26.611   43.912
| 50> C  -24.265   26.034   42.830
| 51> C  -25.648   26.563   43.278
| 52> C  -25.318   27.958   43.865
| 53> O  -23.865   27.964   44.142
| 54> H  -22.302   26.717   43.609
| 55> H  -23.995   26.441   41.849
| 56> O  -24.211   24.484   42.747
| 57> H  -26.370   26.616   42.456
| 58> H  -26.069   25.909   44.051
| 59> H  -25.861   28.161   44.795
| 60> H  -25.514   28.767   43.156
| 61> H  -24.479   24.053   43.718
| 62> *
| 63>
| 64>                          ****END OF INPUT****
 Total Charge           Charge          ....    0
 Multiplicity           Mult            ....    1
 Number of Electrons    NEL             ....  102
FINAL SINGLE POINT ENERGY      -652.827005383643
FINAL SINGLE POINT ENERGY      -652.850486394923
FINAL SINGLE POINT ENERGY      -652.855002083565
FINAL SINGLE POINT ENERGY      -652.855861864534
FINAL SINGLE POINT ENERGY      -652.856020218886
FINAL SINGLE POINT ENERGY      -652.856045010756
FINAL SINGLE POINT ENERGY      -652.856049809582
                    ***********************HURRAY********************

CARTESIAN COORDINATES (ANGSTROEM)
---------------------------------
  C    -21.051920   26.204963   46.195578
  C    -20.407836   27.560307   45.908177
  C    -20.417300   28.221380   47.307069
  C    -20.173087   27.027917   48.255203
  O    -20.492253   25.811689   47.462144
  H    -20.823952   25.407048   45.480422
  H    -19.380514   27.410011   45.553818
  H    -20.963528   28.137327   45.166108
  H    -19.656460   29.000889   47.410034
  H    -21.399895   28.665536   47.491195
  H    -20.812322   27.043272   49.141249
  H    -19.127138   26.934626   48.562877
  C    -23.317648   25.777243   45.295451
  H    -22.987672   24.748657   45.079969
  H    -24.320524   25.742165   45.731963
  O    -22.491159   26.355939   46.335583
  C    -23.315430   26.580389   43.989958
  C    -24.239311   25.997655   42.906556
  C    -25.627446   26.571984   43.324962
  C    -25.263056   27.967278   43.879326
  O    -23.807784   27.942196   44.175354
  H    -22.288119   26.677929   43.625986
  H    -23.945169   26.392023   41.931506
  O    -24.187432   24.559864   42.745787
  H    -26.324905   26.616840   42.484336
  H    -26.071812   25.933893   44.100061
  H    -25.807374   28.219675   44.794396
  H    -25.424631   28.759860   43.142657
  H    -24.653322   24.112445   43.481276

 Multiplicity           Mult            ....    1
 Number of Electrons    NEL             ....  102
 Basis Dimension        Dim             ....  149

ORBITAL ENERGIES
----------------

  NO   OCC          E(Eh)            E(eV)
   0   2.0000     -19.153812      -521.2017
   1   2.0000     -19.142209      -520.8860
   2   2.0000     -19.136318      -520.7257
   3   2.0000     -19.132877      -520.6321
   4   2.0000     -10.273658      -279.5605
   5   2.0000     -10.249680      -278.9080
   6   2.0000     -10.234870      -278.5050
   7   2.0000     -10.234736      -278.5013
   8   2.0000     -10.232651      -278.4446
   9   2.0000     -10.217776      -278.0398
  10   2.0000     -10.199865      -277.5524
  11   2.0000     -10.177324      -276.9391
  12   2.0000     -10.176381      -276.9134
  13   2.0000      -1.047924       -28.5155
  14   2.0000      -1.037173       -28.2229
  15   2.0000      -1.019862       -27.7519
  16   2.0000      -0.989394       -26.9228
  17   2.0000      -0.786975       -21.4147
  18   2.0000      -0.778453       -21.1828
  19   2.0000      -0.767344       -20.8805
  20   2.0000      -0.729631       -19.8543
  21   2.0000      -0.680786       -18.5251
  22   2.0000      -0.615917       -16.7600
  23   2.0000      -0.599388       -16.3102
  24   2.0000      -0.590840       -16.0776
  25   2.0000      -0.571303       -15.5460
  26   2.0000      -0.531426       -14.4608
  27   2.0000      -0.514199       -13.9921
  28   2.0000      -0.494369       -13.4525
  29   2.0000      -0.488356       -13.2888
  30   2.0000      -0.465836       -12.6760
  31   2.0000      -0.451234       -12.2787
  32   2.0000      -0.445966       -12.1353
  33   2.0000      -0.438472       -11.9314
  34   2.0000      -0.431103       -11.7309
  35   2.0000      -0.419310       -11.4100
  36   2.0000      -0.410575       -11.1723
  37   2.0000      -0.396034       -10.7766
  38   2.0000      -0.381950       -10.3934
  39   2.0000      -0.363666        -9.8959
  40   2.0000      -0.359972        -9.7953
  41   2.0000      -0.348797        -9.4913
  42   2.0000      -0.344702        -9.3798
  43   2.0000      -0.334161        -9.0930
  44   2.0000      -0.320562        -8.7229
  45   2.0000      -0.307665        -8.3720
  46   2.0000      -0.301175        -8.1954
  47   2.0000      -0.275998        -7.5103
  48   2.0000      -0.265016        -7.2114
  49   2.0000      -0.249981        -6.8023
  50   2.0000      -0.234322        -6.3762
  51   0.0000       0.048385         1.3166
  52   0.0000       0.075683         2.0594
  53   0.0000       0.084251         2.2926
  54   0.0000       0.091426         2.4878
  55   0.0000       0.100640         2.7386

MULLIKEN ATOMIC CHARGES
-----------------------
   0 C :    0.278016
   1 C :   -0.261321
   2 C :   -0.301465
   3 C :   -0.000870
   4 O :   -0.505138
   5 H :    0.138419
   6 H :    0.136990
   7 H :    0.168723
   8 H :    0.138626
   9 H :    0.168078
  10 H :    0.150320
  11 H :    0.138285
  12 C :   -0.024482
  13 H :    0.129782
  14 H :    0.145303
  15 O :   -0.497903
  16 C :    0.084572
  17 C :    0.088449
  18 C :   -0.331683
  19 C :   -0.009820
  20 O :   -0.511471
  21 H :    0.152263
  22 H :    0.166447
  23 O :   -0.598741
  24 H :    0.162532
  25 H :    0.137436
  26 H :    0.149641
  27 H :    0.151430
  28 H :    0.357583
Sum of atomic charges:   -0.0000000

LOEWDIN ATOMIC CHARGES
----------------------
   0 C :    0.174513
   1 C :   -0.226038
   2 C :   -0.216267
   3 C :   -0.026152
   4 O :   -0.312714
   5 H :    0.096299
   6 H :    0.109731
   7 H :    0.126379
   8 H :    0.112856
   9 H :    0.122250
  10 H :    0.107239
  11 H :    0.100517
  12 C :   -0.049274
  13 H :    0.096354
  14 H :    0.109156
  15 O :   -0.319123
  16 C :    0.004718
  17 C :    0.036006
  18 C :   -0.243258
  19 C :   -0.028647
  20 O :   -0.319535
  21 H :    0.110595
  22 H :    0.118929
  23 O :   -0.406574
  24 H :    0.124496
  25 H :    0.105988
  26 H :    0.105805
  27 H :    0.106943
  28 H :    0.278806

  Mayer bond orders larger than 0.100000
B(  0-C ,  1-C ) :   0.9362 B(  0-C ,  4-O ) :   0.9315 B(  0-C ,  5-H ) :   0.9167
B(  0-C , 15-O ) :   0.8375 B(  1-C ,  2-C ) :   0.9554 B(  1-C ,  6-H ) :   0.9359
B(  1-C ,  7-H ) :   0.9292 B(  2-C ,  3-C ) :   0.9551 B(  2-C ,  8-H ) :   0.9454
B(  2-C ,  9-H ) :   0.9424 B(  3-C ,  4-O ) :   0.8371 B(  3-C , 10-H ) :   0.9352
B(  3-C , 11-H ) :   0.9399 B( 12-C , 13-H ) :   0.9019 B( 12-C , 14-H ) :   0.9397
B( 12-C , 15-O ) :   0.8793 B( 12-C , 16-C ) :   0.8805 B( 16-C , 17-C ) :   0.8699
B( 16-C , 20-O ) :   0.8623 B( 16-C , 21-H ) :   0.9300 B( 17-C , 18-C ) :   0.9236
B( 17-C , 22-H ) :   0.9332 B( 17-C , 23-O ) :   0.9001 B( 18-C , 19-C ) :   0.9402
B( 18-C , 24-H ) :   0.9408 B( 18-C , 25-H ) :   0.9402 B( 19-C , 20-O ) :   0.8449
B( 19-C , 26-H ) :   0.9312 B( 19-C , 27-H ) :   0.9375 B( 23-O , 28-H ) :   0.7970

FINAL SINGLE POINT ENERGY      -652.856050566205

DIPOLE MOMENT
-------------
                                X             Y             Z
Electronic contribution:      0.19834      -3.00196      -0.22547
Nuclear contribution   :     -0.91724       3.38121      -0.16849
                        -----------------------------------------
Total Dipole Moment    :     -0.71890       0.37926      -0.39396
                        -----------------------------------------
Magnitude (a.u.)       :      0.90325
Magnitude (Debye)      :      2.29587

Rotational constants in cm-1:     0.058136     0.012961     0.011717
Rotational constants in MHz :  1742.875881   388.556270   351.281632

                             ****ORCA TERMINATED NORMALLY****
TOTAL RUN TIME: 0 days 0 hours 22 minutes 51 seconds 393 msec
