                         Program Version 4.2.0 -  RELEASE  -
|  1> # Test redundant internal optimization
|  2> #
|  3> ! RKS B3LYP  Opt TightSCF SmallPrint
|  4>
|  5> %basis
|  6>         Basis "6-31G"
|  7> end
|  8>
|  9> %geom
| 10> Constraints
| 11> { D 4  0  15  12  165.0   C } # D for Dihedral angle
| 12> { D 0  15  12  16  75.0   C } # D for Dihedral angle
| 13> { D 0  4  3  2   C } # D for Dihedral angle
| 14> { D 4  3  2  1   C } # D for Dihedral angle
| 15> { D 3  2  1  0   C } # D for Dihedral angle
| 16> { D 2  1  0  4   C } # D for Dihedral angle
| 17> { D 1  0  4  3   C } # D for Dihedral angle
| 18> { D 16  20  19  18   C } # D for Dihedral angle
| 19> { D 20  19  18  17   C } # D for Dihedral angle
| 20> { D 19  18  17  16   C } # D for Dihedral angle
| 21> { D 18  17  16  20   C } # D for Dihedral angle
| 22> { D 17  16  20  19   C } # D for Dihedral angle
| 23> { D 15  12  16  20   C } # D for Dihedral angle
| 24> end
| 25> end
| 26>
| 27>
| 28> #%pal
| 29> #nprocs 8
| 30> #end
| 31>
| 32> * xyz 0 1
| 33> C  -21.048   26.222   46.251
| 34> C  -20.361   27.558   45.944
| 35> C  -20.329   28.222   47.341
| 36> C  -20.110   27.022   48.296
| 37> O  -20.473   25.807   47.535
| 38> H  -20.833   25.428   45.533
| 39> H  -19.344   27.382   45.576
| 40> H  -20.898   28.157   45.201
| 41> H  -19.543   28.978   47.434
| 42> H  -21.289   28.710   47.548
| 43> H  -20.733   27.082   49.195
| 44> H  -19.064   26.913   48.597
| 45> C  -23.260   27.170   45.210
| 46> H  -24.268   27.477   45.515
| 47> H  -22.685   28.074   44.968
| 48> O  -22.586   26.394   46.375
| 49> C  -23.378   26.323   43.913
| 50> C  -24.309   25.122   44.116
| 51> C  -25.703   25.782   43.995
| 52> C  -25.480   26.883   42.928
| 53> O  -24.020   27.102   42.849
| 54> H  -22.377   26.065   43.562
| 55> O  -24.094   24.084   42.980
| 56> H  -24.159   24.617   45.076
| 57> H  -26.485   25.073   43.706
| 58> H  -25.992   26.227   44.955
| 59> H  -25.970   27.827   43.190
| 60> H  -25.814   26.575   41.934
| 61> H  -24.240   24.567   42.007
| 62> *
| 63>
| 64>                          ****END OF INPUT****
 Total Charge           Charge          ....    0
 Multiplicity           Mult            ....    1
 Number of Electrons    NEL             ....  102
FINAL SINGLE POINT ENERGY      -652.832087650270
FINAL SINGLE POINT ENERGY      -652.854526538955
FINAL SINGLE POINT ENERGY      -652.858478371128
FINAL SINGLE POINT ENERGY      -652.859146107245
FINAL SINGLE POINT ENERGY      -652.859246038237
FINAL SINGLE POINT ENERGY      -652.859259400254
                    ***********************HURRAY********************

CARTESIAN COORDINATES (ANGSTROEM)
---------------------------------
  C    -21.085673   26.248282   46.170460
  C    -20.274948   27.516174   45.906559
  C    -20.311925   28.216932   47.288609
  C    -20.272426   27.028854   48.271672
  O    -20.667256   25.836863   47.478193
  H    -20.885954   25.415691   45.491026
  H    -19.251170   27.221161   45.649080
  H    -20.652457   28.142932   45.095054
  H    -19.472451   28.904306   47.429610
  H    -21.242308   28.782575   47.399053
  H    -20.967652   27.136664   49.107709
  H    -19.268323   26.828490   48.656458
  C    -23.214036   27.209618   45.203809
  H    -24.183435   27.472328   45.636430
  H    -22.700393   28.142809   44.944830
  O    -22.532046   26.475922   46.258580
  C    -23.395269   26.373668   43.933172
  C    -24.269654   25.122688   44.098565
  C    -25.693969   25.726379   44.027663
  C    -25.542274   26.881576   43.006919
  O    -24.088120   27.171184   42.912897
  H    -22.420207   26.108230   43.510395
  O    -24.025285   24.174251   43.022749
  H    -24.070120   24.581145   45.022509
  H    -26.418635   24.971350   43.712738
  H    -25.995897   26.100027   45.011573
  H    -26.066556   27.792396   43.311800
  H    -25.879512   26.604918   42.003080
  H    -23.997050   24.655587   42.168806

 Multiplicity           Mult            ....    1
 Number of Electrons    NEL             ....  102
 Basis Dimension        Dim             ....  149

ORBITAL ENERGIES
----------------

  NO   OCC          E(Eh)            E(eV)
   0   2.0000     -19.147594      -521.0325
   1   2.0000     -19.143493      -520.9209
   2   2.0000     -19.141011      -520.8534
   3   2.0000     -19.137248      -520.7510
   4   2.0000     -10.281733      -279.7802
   5   2.0000     -10.237462      -278.5755
   6   2.0000     -10.235093      -278.5110
   7   2.0000     -10.233988      -278.4810
   8   2.0000     -10.232821      -278.4492
   9   2.0000     -10.226310      -278.2721
  10   2.0000     -10.191881      -277.3352
  11   2.0000     -10.190476      -277.2970
  12   2.0000     -10.188890      -277.2538
  13   2.0000      -1.053935       -28.6790
  14   2.0000      -1.037814       -28.2404
  15   2.0000      -1.006228       -27.3809
  16   2.0000      -0.994427       -27.0597
  17   2.0000      -0.789680       -21.4883
  18   2.0000      -0.781207       -21.2577
  19   2.0000      -0.768564       -20.9137
  20   2.0000      -0.735795       -20.0220
  21   2.0000      -0.679577       -18.4922
  22   2.0000      -0.606088       -16.4925
  23   2.0000      -0.604405       -16.4467
  24   2.0000      -0.602067       -16.3831
  25   2.0000      -0.571570       -15.5532
  26   2.0000      -0.527003       -14.3405
  27   2.0000      -0.514611       -14.0033
  28   2.0000      -0.498379       -13.5616
  29   2.0000      -0.494215       -13.4483
  30   2.0000      -0.473946       -12.8967
  31   2.0000      -0.461519       -12.5586
  32   2.0000      -0.453683       -12.3453
  33   2.0000      -0.439612       -11.9624
  34   2.0000      -0.424959       -11.5637
  35   2.0000      -0.412270       -11.2184
  36   2.0000      -0.406679       -11.0663
  37   2.0000      -0.394018       -10.7218
  38   2.0000      -0.379950       -10.3390
  39   2.0000      -0.369099       -10.0437
  40   2.0000      -0.363978        -9.9043
  41   2.0000      -0.358831        -9.7643
  42   2.0000      -0.356940        -9.7128
  43   2.0000      -0.332947        -9.0599
  44   2.0000      -0.316453        -8.6111
  45   2.0000      -0.308779        -8.4023
  46   2.0000      -0.302304        -8.2261
  47   2.0000      -0.274650        -7.4736
  48   2.0000      -0.265975        -7.2375
  49   2.0000      -0.258841        -7.0434
  50   2.0000      -0.240885        -6.5548
  51   0.0000       0.062720         1.7067
  52   0.0000       0.071335         1.9411
  53   0.0000       0.092215         2.5093
  54   0.0000       0.096075         2.6143
  55   0.0000       0.102140         2.7794

MULLIKEN ATOMIC CHARGES
-----------------------
   0 C :    0.306076
   1 C :   -0.295451
   2 C :   -0.297280
   3 C :   -0.000263
   4 O :   -0.498820
   5 H :    0.152971
   6 H :    0.153712
   7 H :    0.148056
   8 H :    0.144432
   9 H :    0.156876
  10 H :    0.154360
  11 H :    0.143443
  12 C :   -0.029101
  13 H :    0.151775
  14 H :    0.141596
  15 O :   -0.512159
  16 C :    0.050209
  17 C :    0.092018
  18 C :   -0.302424
  19 C :   -0.030279
  20 O :   -0.528409
  21 H :    0.153746
  22 O :   -0.604155
  23 H :    0.179355
  24 H :    0.164851
  25 H :    0.149127
  26 H :    0.147631
  27 H :    0.146370
  28 H :    0.361735
Sum of atomic charges:   -0.0000000

LOEWDIN ATOMIC CHARGES
----------------------
   0 C :    0.180319
   1 C :   -0.234114
   2 C :   -0.216513
   3 C :   -0.025191
   4 O :   -0.301687
   5 H :    0.101391
   6 H :    0.119874
   7 H :    0.115524
   8 H :    0.115466
   9 H :    0.115332
  10 H :    0.109629
  11 H :    0.103487
  12 C :   -0.046485
  13 H :    0.112102
  14 H :    0.100239
  15 O :   -0.332868
  16 C :    0.001974
  17 C :    0.037663
  18 C :   -0.240944
  19 C :   -0.037916
  20 O :   -0.332647
  21 H :    0.109490
  22 O :   -0.415286
  23 H :    0.129051
  24 H :    0.127899
  25 H :    0.115945
  26 H :    0.104490
  27 H :    0.102676
  28 H :    0.281098

  Mayer bond orders larger than 0.100000
B(  0-C ,  1-C ) :   0.9293 B(  0-C ,  4-O ) :   0.9370 B(  0-C ,  5-H ) :   0.9213
B(  0-C , 15-O ) :   0.8292 B(  1-C ,  2-C ) :   0.9496 B(  1-C ,  6-H ) :   0.9335
B(  1-C ,  7-H ) :   0.9272 B(  2-C ,  3-C ) :   0.9554 B(  2-C ,  8-H ) :   0.9451
B(  2-C ,  9-H ) :   0.9455 B(  3-C ,  4-O ) :   0.8353 B(  3-C , 10-H ) :   0.9345
B(  3-C , 11-H ) :   0.9397 B( 12-C , 13-H ) :   0.9384 B( 12-C , 14-H ) :   0.9090
B( 12-C , 15-O ) :   0.8549 B( 12-C , 16-C ) :   0.8737 B( 16-C , 17-C ) :   0.9111
B( 16-C , 20-O ) :   0.8413 B( 16-C , 21-H ) :   0.9274 B( 17-C , 18-C ) :   0.9141
B( 17-C , 22-O ) :   0.8887 B( 17-C , 23-H ) :   0.9228 B( 18-C , 19-C ) :   0.9413
B( 18-C , 24-H ) :   0.9372 B( 18-C , 25-H ) :   0.9338 B( 19-C , 20-O ) :   0.8399
B( 19-C , 26-H ) :   0.9356 B( 19-C , 27-H ) :   0.9380 B( 22-O , 28-H ) :   0.7970

FINAL SINGLE POINT ENERGY      -652.859262479878

DIPOLE MOMENT
-------------
                                X             Y             Z
Electronic contribution:     -0.24238      -4.09121      -1.33526
Nuclear contribution   :      0.18521       5.37868       1.17747
                        -----------------------------------------
Total Dipole Moment    :     -0.05717       1.28747      -0.15779
                        -----------------------------------------
Magnitude (a.u.)       :      1.29836
Magnitude (Debye)      :      3.30018

Rotational constants in cm-1:     0.062185     0.012301     0.011584
Rotational constants in MHz :  1864.270082   368.785670   347.293073

                             ****ORCA TERMINATED NORMALLY****
TOTAL RUN TIME: 0 days 0 hours 47 minutes 55 seconds 706 msec
