                         Program Version 4.2.1 -  RELEASE  -
|  1> # Test redundant internal optimization
|  2> #
|  3> ! RKS B3LYP  Opt TightSCF SmallPrint
|  4>
|  5> %basis
|  6>         Basis "6-31G"
|  7> end
|  8>
|  9> %geom
| 10> Constraints
| 11> { D 4  0  19  14  255.0   C } # D for Dihedral angle
| 12> { D 0  19  14  12  0.0   C } # D for Dihedral angle
| 13> { D 0  4  3  2   C } # D for Dihedral angle
| 14> { D 4  3  2  1   C } # D for Dihedral angle
| 15> { D 3  2  1  0   C } # D for Dihedral angle
| 16> { D 2  1  0  4   C } # D for Dihedral angle
| 17> { D 1  0  4  3   C } # D for Dihedral angle
| 18> { D 14  15  16  17   C } # D for Dihedral angle
| 19> { D 15  16  17  12   C } # D for Dihedral angle
| 20> { D 16  17  12  14   C } # D for Dihedral angle
| 21> { D 17  12  14  15   C } # D for Dihedral angle
| 22> { D 12  14  15  16   C } # D for Dihedral angle
| 23> end
| 24> end
| 25>
| 26>
| 27> #%pal
| 28> #nprocs 8
| 29> #end
| 30>
| 31> * xyz 0 1
| 32> C  -21.048   26.222   46.251
| 33> C  -20.361   27.558   45.944
| 34> C  -20.329   28.222   47.341
| 35> C  -20.110   27.022   48.296
| 36> O  -20.473   25.807   47.535
| 37> H  -20.833   25.428   45.533
| 38> H  -19.344   27.382   45.576
| 39> H  -20.898   28.157   45.201
| 40> H  -19.543   28.978   47.434
| 41> H  -21.289   28.710   47.548
| 42> H  -20.733   27.082   49.195
| 43> H  -19.064   26.913   48.597
| 44> C  -22.297   24.280   45.150
| 45> H  -22.833   23.624   44.446
| 46> C  -23.236   25.322   45.767
| 47> C  -23.960   24.490   46.851
| 48> C  -22.859   23.518   47.343
| 49> O  -21.811   23.507   46.298
| 50> H  -21.421   24.698   44.653
| 51> O  -22.472   26.381   46.366
| 52> H  -23.926   25.764   45.039
| 53> H  -24.365   25.106   47.660
| 54> H  -24.795   23.934   46.405
| 55> H  -23.231   22.498   47.487
| 56> H  -22.386   23.857   48.270
| 57> *
| 58>
| 59>                          ****END OF INPUT****
 Total Charge           Charge          ....    0
 Multiplicity           Mult            ....    1
 Number of Electrons    NEL             ....   86
FINAL SINGLE POINT ENERGY      -538.400967969364
FINAL SINGLE POINT ENERGY      -538.427928215933
FINAL SINGLE POINT ENERGY      -538.429641282427
FINAL SINGLE POINT ENERGY      -538.429901791230
FINAL SINGLE POINT ENERGY      -538.429948154293
FINAL SINGLE POINT ENERGY      -538.429956733254
                    ***********************HURRAY********************

CARTESIAN COORDINATES (ANGSTROEM)
---------------------------------
  C    -20.825013   26.223513   46.236436
  C    -20.302226   27.641214   45.993786
  C    -20.443181   28.277128   47.398477
  C    -20.128694   27.096351   48.345233
  O    -20.286683   25.865947   47.533721
  H    -20.467503   25.465364   45.542354
  H    -19.249553   27.593225   45.691199
  H    -20.872462   28.163759   45.223104
  H    -19.767065   29.123999   47.548667
  H    -21.471301   28.622468   47.541296
  H    -20.805337   27.045521   49.202720
  H    -19.094781   27.106389   48.704154
  C    -22.477629   24.068248   45.041050
  H    -23.224021   23.528761   44.437641
  C    -23.153784   25.259987   45.716424
  C    -23.869402   24.581808   46.899512
  C    -22.899511   23.449123   47.307820
  O    -21.994289   23.246640   46.147337
  H    -21.626557   24.305262   44.399997
  O    -22.265133   26.284960   46.283981
  H    -23.838365   25.790727   45.047472
  H    -24.046943   25.304404   47.698047
  H    -24.834863   24.176361   46.572245
  H    -23.412570   22.507277   47.526488
  H    -22.260133   23.731565   48.146840

 Multiplicity           Mult            ....    1
 Number of Electrons    NEL             ....   86
 Basis Dimension        Dim             ....  127

ORBITAL ENERGIES
----------------

  NO   OCC          E(Eh)            E(eV)
   0   2.0000     -19.135833      -520.7125
   1   2.0000     -19.130222      -520.5598
   2   2.0000     -19.130050      -520.5551
   3   2.0000     -10.272800      -279.5371
   4   2.0000     -10.241931      -278.6971
   5   2.0000     -10.228740      -278.3382
   6   2.0000     -10.217938      -278.0442
   7   2.0000     -10.215734      -277.9842
   8   2.0000     -10.180180      -277.0168
   9   2.0000     -10.179712      -277.0040
  10   2.0000     -10.179592      -277.0008
  11   2.0000      -1.045208       -28.4415
  12   2.0000      -1.012850       -27.5610
  13   2.0000      -0.982796       -26.7432
  14   2.0000      -0.788694       -21.4615
  15   2.0000      -0.772281       -21.0148
  16   2.0000      -0.736941       -20.0532
  17   2.0000      -0.720204       -19.5977
  18   2.0000      -0.617725       -16.8092
  19   2.0000      -0.594079       -16.1657
  20   2.0000      -0.591423       -16.0934
  21   2.0000      -0.562544       -15.3076
  22   2.0000      -0.524375       -14.2690
  23   2.0000      -0.499244       -13.5851
  24   2.0000      -0.481078       -13.0908
  25   2.0000      -0.473871       -12.8947
  26   2.0000      -0.447931       -12.1888
  27   2.0000      -0.444909       -12.1066
  28   2.0000      -0.423294       -11.5184
  29   2.0000      -0.412414       -11.2224
  30   2.0000      -0.396440       -10.7877
  31   2.0000      -0.379381       -10.3235
  32   2.0000      -0.371657       -10.1133
  33   2.0000      -0.362837        -9.8733
  34   2.0000      -0.357470        -9.7272
  35   2.0000      -0.350246        -9.5307
  36   2.0000      -0.341216        -9.2850
  37   2.0000      -0.315823        -8.5940
  38   2.0000      -0.306132        -8.3303
  39   2.0000      -0.289979        -7.8907
  40   2.0000      -0.261170        -7.1068
  41   2.0000      -0.240253        -6.5376
  42   2.0000      -0.235593        -6.4108
  43   0.0000       0.081048         2.2054
  44   0.0000       0.101062         2.7500
  45   0.0000       0.105015         2.8576
  46   0.0000       0.109139         2.9698
  47   0.0000       0.115381         3.1397

MULLIKEN ATOMIC CHARGES
-----------------------
   0 C :    0.288463
   1 C :   -0.250407
   2 C :   -0.296646
   3 C :   -0.001840
   4 O :   -0.500056
   5 H :    0.156077
   6 H :    0.141643
   7 H :    0.145189
   8 H :    0.136990
   9 H :    0.159823
  10 H :    0.143399
  11 H :    0.139105
  12 C :   -0.041495
  13 H :    0.133956
  14 C :    0.098693
  15 C :   -0.285432
  16 C :   -0.005379
  17 O :   -0.518963
  18 H :    0.154841
  19 O :   -0.540761
  20 H :    0.139141
  21 H :    0.166061
  22 H :    0.132632
  23 H :    0.133551
  24 H :    0.171417
Sum of atomic charges:   -0.0000000

LOEWDIN ATOMIC CHARGES
----------------------
   0 C :    0.174951
   1 C :   -0.218162
   2 C :   -0.216146
   3 C :   -0.029248
   4 O :   -0.320406
   5 H :    0.105845
   6 H :    0.111617
   7 H :    0.118154
   8 H :    0.111541
   9 H :    0.117861
  10 H :    0.103144
  11 H :    0.100638
  12 C :   -0.053046
  13 H :    0.098669
  14 C :    0.047021
  15 C :   -0.228943
  16 C :   -0.029792
  17 O :   -0.329910
  18 H :    0.110989
  19 O :   -0.332825
  20 H :    0.105721
  21 H :    0.129049
  22 H :    0.107157
  23 H :    0.098585
  24 H :    0.117539

  Mayer bond orders larger than 0.100000
B(  0-C ,  1-C ) :   0.9405 B(  0-C ,  4-O ) :   0.9124 B(  0-C ,  5-H ) :   0.9096
B(  0-C , 19-O ) :   0.8467 B(  1-C ,  2-C ) :   0.9580 B(  1-C ,  6-H ) :   0.9391
B(  1-C ,  7-H ) :   0.9389 B(  2-C ,  3-C ) :   0.9533 B(  2-C ,  8-H ) :   0.9460
B(  2-C ,  9-H ) :   0.9443 B(  3-C ,  4-O ) :   0.8450 B(  3-C , 10-H ) :   0.9356
B(  3-C , 11-H ) :   0.9399 B( 12-C , 13-H ) :   0.9105 B( 12-C , 14-C ) :   0.9282
B( 12-C , 17-O ) :   0.8685 B( 12-C , 18-H ) :   0.9236 B( 14-C , 15-C ) :   0.9380
B( 14-C , 19-O ) :   0.8429 B( 14-C , 20-H ) :   0.9301 B( 15-C , 16-C ) :   0.9489
B( 15-C , 21-H ) :   0.9361 B( 15-C , 22-H ) :   0.9380 B( 16-C , 17-O ) :   0.8396
B( 16-C , 23-H ) :   0.9348 B( 16-C , 24-H ) :   0.9291

FINAL SINGLE POINT ENERGY      -538.429958031374

DIPOLE MOMENT
-------------
                                X             Y             Z
Electronic contribution:      0.67215      -2.73584      -0.75571
Nuclear contribution   :     -1.23097       3.52244       0.39725
                        -----------------------------------------
Total Dipole Moment    :     -0.55882       0.78661      -0.35846
                        -----------------------------------------
Magnitude (a.u.)       :      1.02933
Magnitude (Debye)      :      2.61636

Rotational constants in cm-1:     0.074547     0.023812     0.022587
Rotational constants in MHz :  2234.868283   713.859407   677.142555

                             ****ORCA TERMINATED NORMALLY****
TOTAL RUN TIME: 0 days 0 hours 7 minutes 27 seconds 527 msec
