                         Program Version 4.2.0 -  RELEASE  -
|  1> # Test redundant internal optimization
|  2> #
|  3> ! RKS B3LYP  Opt TightSCF SmallPrint
|  4>
|  5> %basis
|  6>         Basis "6-31G"
|  7> end
|  8>
|  9> %geom
| 10> Constraints
| 11> { D 4  0  15  12  60.0   C } # D for Dihedral angle
| 12> { D 0  15  12  16  165.0   C } # D for Dihedral angle
| 13> { D 0  4  3  2   C } # D for Dihedral angle
| 14> { D 4  3  2  1   C } # D for Dihedral angle
| 15> { D 3  2  1  0   C } # D for Dihedral angle
| 16> { D 2  1  0  4   C } # D for Dihedral angle
| 17> { D 1  0  4  3   C } # D for Dihedral angle
| 18> { D 16  20  19  18   C } # D for Dihedral angle
| 19> { D 20  19  18  17   C } # D for Dihedral angle
| 20> { D 19  18  17  16   C } # D for Dihedral angle
| 21> { D 18  17  16  20   C } # D for Dihedral angle
| 22> { D 17  16  20  19   C } # D for Dihedral angle
| 23> { D 15  12  16  20   C } # D for Dihedral angle
| 24> end
| 25> end
| 26>
| 27>
| 28> #%pal
| 29> #nprocs 8
| 30> #end
| 31>
| 32> * xyz 0 1
| 33> C  -21.048   26.222   46.251
| 34> C  -20.361   27.558   45.944
| 35> C  -20.329   28.222   47.341
| 36> C  -20.110   27.022   48.296
| 37> O  -20.473   25.807   47.535
| 38> H  -20.833   25.428   45.533
| 39> H  -19.344   27.382   45.576
| 40> H  -20.898   28.157   45.201
| 41> H  -19.543   28.978   47.434
| 42> H  -21.289   28.710   47.548
| 43> H  -20.733   27.082   49.195
| 44> H  -19.064   26.913   48.597
| 45> C  -23.051   27.452   47.413
| 46> H  -22.917   27.049   48.425
| 47> H  -22.449   28.366   47.326
| 48> O  -22.586   26.394   46.375
| 49> C  -24.543   27.849   47.239
| 50> C  -24.935   28.975   48.202
| 51> C  -24.360   30.218   47.482
| 52> C  -24.561   29.880   45.984
| 53> O  -24.770   28.418   45.907
| 54> H  -25.163   26.953   47.315
| 55> O  -26.481   29.070   48.310
| 56> H  -24.526   28.841   49.210
| 57> H  -24.863   31.147   47.771
| 58> H  -23.294   30.328   47.714
| 59> H  -23.692   30.151   45.373
| 60> H  -25.452   30.356   45.564
| 61> H  -26.912   29.205   47.312
| 62> *
| 63>
| 64>                          ****END OF INPUT****
 Total Charge           Charge          ....    0
 Multiplicity           Mult            ....    1
 Number of Electrons    NEL             ....  102
FINAL SINGLE POINT ENERGY      -652.800712057816
FINAL SINGLE POINT ENERGY      -652.832529190743
FINAL SINGLE POINT ENERGY      -652.850492065640
FINAL SINGLE POINT ENERGY      -652.853740438640
FINAL SINGLE POINT ENERGY      -652.854237247624
FINAL SINGLE POINT ENERGY      -652.854320815396
FINAL SINGLE POINT ENERGY      -652.854329773651
FINAL SINGLE POINT ENERGY      -652.854329977459
                    ***********************HURRAY********************

CARTESIAN COORDINATES (ANGSTROEM)
---------------------------------
  C    -21.227570   26.352586   46.411118
  C    -20.290994   27.478206   45.943301
  C    -19.848293   28.117457   47.294272
  C    -19.775918   26.887126   48.236099
  O    -20.561521   25.815482   47.580140
  H    -21.279236   25.530089   45.695949
  H    -19.434649   27.029684   45.429568
  H    -20.785719   28.179009   45.266114
  H    -18.878013   28.618869   47.216211
  H    -20.570211   28.858900   47.643412
  H    -20.192336   27.078857   49.229910
  H    -18.754568   26.510870   48.345606
  C    -23.092662   27.614829   47.568808
  H    -23.046956   27.180633   48.577217
  H    -22.496317   28.533886   47.553496
  O    -22.621366   26.658040   46.587522
  C    -24.539107   27.941894   47.204072
  C    -25.201484   28.982613   48.118763
  C    -24.696945   30.313611   47.500512
  C    -24.647189   29.996701   45.985436
  O    -24.654013   28.519084   45.862413
  H    -25.109787   27.008728   47.182894
  O    -26.649985   28.879786   48.055109
  H    -24.949296   28.873310   49.174666
  H    -25.377619   31.132554   47.745107
  H    -23.703602   30.562780   47.890889
  H    -23.750560   30.392638   45.498087
  H    -25.526064   30.369953   45.449931
  H    -26.918021   28.714825   47.126379

 Multiplicity           Mult            ....    1
 Number of Electrons    NEL             ....  102
 Basis Dimension        Dim             ....  149

ORBITAL ENERGIES
----------------

  NO   OCC          E(Eh)            E(eV)
   0   2.0000     -19.142421      -520.8918
   1   2.0000     -19.142127      -520.8838
   2   2.0000     -19.141859      -520.8765
   3   2.0000     -19.140334      -520.8350
   4   2.0000     -10.277160      -279.6557
   5   2.0000     -10.245563      -278.7959
   6   2.0000     -10.235302      -278.5167
   7   2.0000     -10.234902      -278.5058
   8   2.0000     -10.232759      -278.4475
   9   2.0000     -10.231199      -278.4051
  10   2.0000     -10.195538      -277.4347
  11   2.0000     -10.192818      -277.3607
  12   2.0000     -10.190232      -277.2903
  13   2.0000      -1.052676       -28.6448
  14   2.0000      -1.037714       -28.2376
  15   2.0000      -1.008281       -27.4367
  16   2.0000      -0.995325       -27.0842
  17   2.0000      -0.790310       -21.5054
  18   2.0000      -0.787113       -21.4184
  19   2.0000      -0.773343       -21.0437
  20   2.0000      -0.734029       -19.9739
  21   2.0000      -0.680062       -18.5054
  22   2.0000      -0.607458       -16.5298
  23   2.0000      -0.605705       -16.4821
  24   2.0000      -0.599176       -16.3044
  25   2.0000      -0.579033       -15.7563
  26   2.0000      -0.527698       -14.3594
  27   2.0000      -0.507008       -13.7964
  28   2.0000      -0.502146       -13.6641
  29   2.0000      -0.493320       -13.4239
  30   2.0000      -0.481179       -13.0936
  31   2.0000      -0.462788       -12.5931
  32   2.0000      -0.455798       -12.4029
  33   2.0000      -0.436650       -11.8819
  34   2.0000      -0.428077       -11.6486
  35   2.0000      -0.416338       -11.3291
  36   2.0000      -0.404832       -11.0160
  37   2.0000      -0.396046       -10.7769
  38   2.0000      -0.383132       -10.4255
  39   2.0000      -0.374294       -10.1851
  40   2.0000      -0.363536        -9.8923
  41   2.0000      -0.361066        -9.8251
  42   2.0000      -0.351180        -9.5561
  43   2.0000      -0.332575        -9.0498
  44   2.0000      -0.318117        -8.6564
  45   2.0000      -0.310404        -8.4465
  46   2.0000      -0.303742        -8.2652
  47   2.0000      -0.272908        -7.4262
  48   2.0000      -0.264384        -7.1943
  49   2.0000      -0.251464        -6.8427
  50   2.0000      -0.246535        -6.7086
  51   0.0000       0.054400         1.4803
  52   0.0000       0.074489         2.0270
  53   0.0000       0.081881         2.2281
  54   0.0000       0.098720         2.6863
  55   0.0000       0.102013         2.7759

MULLIKEN ATOMIC CHARGES
-----------------------
   0 C :    0.302948
   1 C :   -0.275438
   2 C :   -0.315646
   3 C :   -0.010882
   4 O :   -0.507920
   5 H :    0.168946
   6 H :    0.155377
   7 H :    0.156815
   8 H :    0.145161
   9 H :    0.143102
  10 H :    0.142198
  11 H :    0.149249
  12 C :    0.001014
  13 H :    0.141630
  14 H :    0.122164
  15 O :   -0.511403
  16 C :    0.059974
  17 C :    0.077825
  18 C :   -0.291611
  19 C :   -0.029373
  20 O :   -0.508008
  21 H :    0.175111
  22 O :   -0.601689
  23 H :    0.151071
  24 H :    0.164396
  25 H :    0.135728
  26 H :    0.143592
  27 H :    0.148235
  28 H :    0.367432
Sum of atomic charges:   -0.0000000

LOEWDIN ATOMIC CHARGES
----------------------
   0 C :    0.176103
   1 C :   -0.228713
   2 C :   -0.224079
   3 C :   -0.034214
   4 O :   -0.323065
   5 H :    0.115015
   6 H :    0.121943
   7 H :    0.122544
   8 H :    0.115119
   9 H :    0.104701
  10 H :    0.101044
  11 H :    0.105368
  12 C :   -0.043178
  13 H :    0.103815
  14 H :    0.089527
  15 O :   -0.308143
  16 C :    0.018009
  17 C :    0.035846
  18 C :   -0.241328
  19 C :   -0.038901
  20 O :   -0.319331
  21 H :    0.123420
  22 O :   -0.413615
  23 H :    0.115006
  24 H :    0.127538
  25 H :    0.108782
  26 H :    0.102544
  27 H :    0.103412
  28 H :    0.284833

  Mayer bond orders larger than 0.100000
B(  0-C ,  1-C ) :   0.9158 B(  0-C ,  4-O ) :   0.8945 B(  0-C ,  5-H ) :   0.9361
B(  0-C , 15-O ) :   0.9028 B(  1-C ,  2-C ) :   0.9559 B(  1-C ,  6-H ) :   0.9350
B(  1-C ,  7-H ) :   0.9358 B(  2-C ,  3-C ) :   0.9472 B(  2-C ,  8-H ) :   0.9449
B(  2-C ,  9-H ) :   0.9388 B(  3-C ,  4-O ) :   0.8481 B(  3-C , 10-H ) :   0.9337
B(  3-C , 11-H ) :   0.9387 B( 12-C , 13-H ) :   0.9125 B( 12-C , 14-H ) :   0.9017
B( 12-C , 15-O ) :   0.8404 B( 12-C , 16-C ) :   0.9009 B( 16-C , 17-C ) :   0.9018
B( 16-C , 20-O ) :   0.8670 B( 16-C , 21-H ) :   0.9212 B( 17-C , 18-C ) :   0.9108
B( 17-C , 22-O ) :   0.8969 B( 17-C , 23-H ) :   0.9327 B( 18-C , 19-C ) :   0.9389
B( 18-C , 24-H ) :   0.9374 B( 18-C , 25-H ) :   0.9347 B( 19-C , 20-O ) :   0.8523
B( 19-C , 26-H ) :   0.9349 B( 19-C , 27-H ) :   0.9374 B( 22-O , 28-H ) :   0.7923

FINAL SINGLE POINT ENERGY      -652.854328294910

DIPOLE MOMENT
-------------
                                X             Y             Z
Electronic contribution:     -4.77046      -5.29575      -1.16788
Nuclear contribution   :      5.80705       6.71187       1.27239
                        -----------------------------------------
Total Dipole Moment    :      1.03659       1.41611       0.10451
                        -----------------------------------------
Magnitude (a.u.)       :      1.75807
Magnitude (Debye)      :      4.46866

Rotational constants in cm-1:     0.056111     0.012921     0.012629
Rotational constants in MHz :  1682.176911   387.360235   378.613500

                             ****ORCA TERMINATED NORMALLY****
TOTAL RUN TIME: 0 days 1 hours 2 minutes 34 seconds 941 msec
