                         Program Version 4.2.0 -  RELEASE  -
|  1> # Test redundant internal optimization
|  2> #
|  3> ! RKS B3LYP  Opt TightSCF SmallPrint
|  4>
|  5> %basis
|  6>         Basis "6-31G"
|  7> end
|  8>
|  9> %geom
| 10> Constraints
| 11> { D 4  0  15  12  300.0   C } # D for Dihedral angle
| 12> { D 0  15  12  16  120.0   C } # D for Dihedral angle
| 13> { D 0  4  3  2   C } # D for Dihedral angle
| 14> { D 4  3  2  1   C } # D for Dihedral angle
| 15> { D 3  2  1  0   C } # D for Dihedral angle
| 16> { D 2  1  0  4   C } # D for Dihedral angle
| 17> { D 1  0  4  3   C } # D for Dihedral angle
| 18> { D 16  20  19  18   C } # D for Dihedral angle
| 19> { D 20  19  18  17   C } # D for Dihedral angle
| 20> { D 19  18  17  16   C } # D for Dihedral angle
| 21> { D 18  17  16  20   C } # D for Dihedral angle
| 22> { D 17  16  20  19   C } # D for Dihedral angle
| 23> { D 15  12  16  20   C } # D for Dihedral angle
| 24> end
| 25> end
| 26>
| 27>
| 28> #%pal
| 29> #nprocs 8
| 30> #end
| 31>
| 32> * xyz 0 1
| 33> C  -21.048   26.222   46.251
| 34> C  -20.361   27.558   45.944
| 35> C  -20.329   28.222   47.341
| 36> C  -20.110   27.022   48.296
| 37> O  -20.473   25.807   47.535
| 38> H  -20.833   25.428   45.533
| 39> H  -19.344   27.382   45.576
| 40> H  -20.898   28.157   45.201
| 41> H  -19.543   28.978   47.434
| 42> H  -21.289   28.710   47.548
| 43> H  -20.733   27.082   49.195
| 44> H  -19.064   26.913   48.597
| 45> C  -23.362   25.116   46.798
| 46> H  -24.076   24.849   46.009
| 47> H  -22.670   24.275   46.933
| 48> O  -22.586   26.394   46.375
| 49> C  -24.146   25.302   48.126
| 50> C  -23.222   25.765   49.258
| 51> C  -23.083   27.275   48.951
| 52> C  -24.478   27.651   48.393
| 53> O  -25.128   26.383   47.995
| 54> H  -24.703   24.389   48.343
| 55> H  -23.710   25.612   50.227
| 56> O  -21.857   25.026   49.274
| 57> H  -22.813   27.865   49.832
| 58> H  -22.308   27.435   48.191
| 59> H  -24.418   28.313   47.523
| 60> H  -25.118   28.117   49.149
| 61> H  -21.351   25.166   48.312
| 62> *
| 63>
| 64>                          ****END OF INPUT****
 Total Charge           Charge          ....    0
 Multiplicity           Mult            ....    1
 Number of Electrons    NEL             ....  102
FINAL SINGLE POINT ENERGY      -652.817500207886
FINAL SINGLE POINT ENERGY      -652.844039396336
FINAL SINGLE POINT ENERGY      -652.858854422743
FINAL SINGLE POINT ENERGY      -652.865132917107
FINAL SINGLE POINT ENERGY      -652.867728568227
FINAL SINGLE POINT ENERGY      -652.868443341861
FINAL SINGLE POINT ENERGY      -652.868615358889
FINAL SINGLE POINT ENERGY      -652.868657372982
FINAL SINGLE POINT ENERGY      -652.868680196121
FINAL SINGLE POINT ENERGY      -652.868711693902
FINAL SINGLE POINT ENERGY      -652.869177232552
FINAL SINGLE POINT ENERGY      -652.869231829759
FINAL SINGLE POINT ENERGY      -652.869254767967
FINAL SINGLE POINT ENERGY      -652.869257464184
FINAL SINGLE POINT ENERGY      -652.869258328609
FINAL SINGLE POINT ENERGY      -652.869259819968
FINAL SINGLE POINT ENERGY      -652.869262939078
FINAL SINGLE POINT ENERGY      -652.869265682185
FINAL SINGLE POINT ENERGY      -652.869266577441
                    ***********************HURRAY********************

CARTESIAN COORDINATES (ANGSTROEM)
---------------------------------
  C    -21.029290   26.201631   46.250144
  C    -20.323171   27.485298   45.797350
  C    -20.165867   28.244731   47.137575
  C    -19.916150   27.115921   48.165448
  O    -20.383496   25.854650   47.506896
  H    -20.818569   25.339392   45.605330
  H    -19.349359   27.222650   45.372645
  H    -20.908718   28.030867   45.055296
  H    -19.341725   28.964427   47.119891
  H    -21.087241   28.790426   47.365386
  H    -20.450560   27.237195   49.108899
  H    -18.853538   26.967317   48.374189
  C    -23.226405   25.208842   46.741062
  H    -23.904048   24.982226   45.911512
  H    -22.550465   24.355405   46.883038
  O    -22.453947   26.386142   46.297685
  C    -24.085384   25.366208   47.995550
  C    -23.376156   25.706124   49.317249
  C    -23.298304   27.261871   49.249077
  C    -24.615074   27.634531   48.534317
  O    -25.102322   26.401419   47.866411
  H    -24.627304   24.415876   48.085883
  H    -24.024502   25.409992   50.146187
  O    -22.136348   25.015757   49.545660
  H    -23.209367   27.712694   50.241313
  H    -22.446210   27.559929   48.641916
  H    -24.480934   28.411694   47.776424
  H    -25.398712   27.945073   49.232672
  H    -21.490832   25.185712   48.814994

 Multiplicity           Mult            ....    1
 Number of Electrons    NEL             ....  102
 Basis Dimension        Dim             ....  149

ORBITAL ENERGIES
----------------

  NO   OCC          E(Eh)            E(eV)
   0   2.0000     -19.172349      -521.7061
   1   2.0000     -19.158434      -521.3275
   2   2.0000     -19.130431      -520.5655
   3   2.0000     -19.116060      -520.1744
   4   2.0000     -10.293788      -280.1082
   5   2.0000     -10.242813      -278.7211
   6   2.0000     -10.232507      -278.4407
   7   2.0000     -10.228534      -278.3326
   8   2.0000     -10.227862      -278.3143
   9   2.0000     -10.219304      -278.0814
  10   2.0000     -10.201339      -277.5925
  11   2.0000     -10.199835      -277.5516
  12   2.0000     -10.176157      -276.9073
  13   2.0000      -1.070696       -29.1351
  14   2.0000      -1.020558       -27.7708
  15   2.0000      -1.009990       -27.4832
  16   2.0000      -0.993611       -27.0375
  17   2.0000      -0.803437       -21.8626
  18   2.0000      -0.771530       -20.9944
  19   2.0000      -0.764449       -20.8017
  20   2.0000      -0.741784       -20.1850
  21   2.0000      -0.678323       -18.4581
  22   2.0000      -0.615673       -16.7533
  23   2.0000      -0.603557       -16.4236
  24   2.0000      -0.595939       -16.2163
  25   2.0000      -0.574812       -15.6414
  26   2.0000      -0.524379       -14.2691
  27   2.0000      -0.514916       -14.0116
  28   2.0000      -0.511372       -13.9151
  29   2.0000      -0.486493       -13.2382
  30   2.0000      -0.475854       -12.9486
  31   2.0000      -0.466006       -12.6807
  32   2.0000      -0.440156       -11.9773
  33   2.0000      -0.432702       -11.7744
  34   2.0000      -0.423547       -11.5253
  35   2.0000      -0.417032       -11.3480
  36   2.0000      -0.405022       -11.0212
  37   2.0000      -0.397063       -10.8046
  38   2.0000      -0.377837       -10.2815
  39   2.0000      -0.372609       -10.1392
  40   2.0000      -0.368526       -10.0281
  41   2.0000      -0.361920        -9.8483
  42   2.0000      -0.349418        -9.5081
  43   2.0000      -0.346510        -9.4290
  44   2.0000      -0.326181        -8.8758
  45   2.0000      -0.316395        -8.6095
  46   2.0000      -0.295369        -8.0374
  47   2.0000      -0.278158        -7.5691
  48   2.0000      -0.273570        -7.4442
  49   2.0000      -0.250007        -6.8030
  50   2.0000      -0.233018        -6.3407
  51   0.0000       0.066695         1.8149
  52   0.0000       0.085976         2.3395
  53   0.0000       0.089418         2.4332
  54   0.0000       0.093768         2.5516
  55   0.0000       0.102413         2.7868

MULLIKEN ATOMIC CHARGES
-----------------------
   0 C :    0.288166
   1 C :   -0.264736
   2 C :   -0.309778
   3 C :   -0.028768
   4 O :   -0.536886
   5 H :    0.154457
   6 H :    0.154471
   7 H :    0.169536
   8 H :    0.152497
   9 H :    0.167557
  10 H :    0.162342
  11 H :    0.158731
  12 C :   -0.033825
  13 H :    0.164976
  14 H :    0.144015
  15 O :   -0.515616
  16 C :    0.091435
  17 C :    0.088492
  18 C :   -0.315732
  19 C :   -0.005513
  20 O :   -0.522327
  21 H :    0.148778
  22 H :    0.155002
  23 O :   -0.646942
  24 H :    0.138715
  25 H :    0.153645
  26 H :    0.145210
  27 H :    0.140724
  28 H :    0.401373
Sum of atomic charges:   -0.0000000

LOEWDIN ATOMIC CHARGES
----------------------
   0 C :    0.170185
   1 C :   -0.209893
   2 C :   -0.216386
   3 C :   -0.037254
   4 O :   -0.330256
   5 H :    0.095972
   6 H :    0.119720
   7 H :    0.131199
   8 H :    0.119552
   9 H :    0.118046
  10 H :    0.110644
  11 H :    0.111861
  12 C :   -0.049516
  13 H :    0.119206
  14 H :    0.108873
  15 O :   -0.324911
  16 C :    0.013569
  17 C :    0.040117
  18 C :   -0.244746
  19 C :   -0.025744
  20 O :   -0.325033
  21 H :    0.115811
  22 H :    0.111918
  23 O :   -0.435112
  24 H :    0.114121
  25 H :    0.112417
  26 H :    0.103831
  27 H :    0.100468
  28 H :    0.281342

  Mayer bond orders larger than 0.100000
B(  0-C ,  1-C ) :   0.9418 B(  0-C ,  4-O ) :   0.8469 B(  0-C ,  5-H ) :   0.9204
B(  0-C , 15-O ) :   0.8999 B(  1-C ,  2-C ) :   0.9545 B(  1-C ,  6-H ) :   0.9388
B(  1-C ,  7-H ) :   0.9353 B(  2-C ,  3-C ) :   0.9554 B(  2-C ,  8-H ) :   0.9443
B(  2-C ,  9-H ) :   0.9376 B(  3-C ,  4-O ) :   0.8013 B(  3-C , 10-H ) :   0.9198
B(  3-C , 11-H ) :   0.9394 B(  4-O , 28-H ) :   0.1039 B( 12-C , 13-H ) :   0.9301
B( 12-C , 14-H ) :   0.9065 B( 12-C , 15-O ) :   0.8264 B( 12-C , 16-C ) :   0.9122
B( 16-C , 17-C ) :   0.8867 B( 16-C , 20-O ) :   0.8734 B( 16-C , 21-H ) :   0.9201
B( 17-C , 18-C ) :   0.9173 B( 17-C , 22-H ) :   0.9366 B( 17-C , 23-O ) :   0.9430
B( 18-C , 19-C ) :   0.9430 B( 18-C , 24-H ) :   0.9439 B( 18-C , 25-H ) :   0.9204
B( 19-C , 20-O ) :   0.8383 B( 19-C , 26-H ) :   0.9328 B( 19-C , 27-H ) :   0.9380
B( 23-O , 28-H ) :   0.6986

FINAL SINGLE POINT ENERGY      -652.869266477590

DIPOLE MOMENT
-------------
                                X             Y             Z
Electronic contribution:     -2.76371      -4.29090      -0.57277
Nuclear contribution   :      3.77862       5.19149       0.03961
                        -----------------------------------------
Total Dipole Moment    :      1.01491       0.90058      -0.53316
                        -----------------------------------------
Magnitude (a.u.)       :      1.45786
Magnitude (Debye)      :      3.70558

Rotational constants in cm-1:     0.042092     0.020024     0.019096
Rotational constants in MHz :  1261.898361   600.289982   572.476819

                             ****ORCA TERMINATED NORMALLY****
TOTAL RUN TIME: 0 days 0 hours 54 minutes 53 seconds 186 msec
