                         Program Version 4.2.1 -  RELEASE  -
|  1> # Test redundant internal optimization
|  2> #
|  3> ! RKS B3LYP  Opt TightSCF SmallPrint
|  4>
|  5> %basis
|  6>         Basis "6-31G"
|  7> end
|  8>
|  9> %geom
| 10> Constraints
| 11> { D 4  0  19  14  240.0   C } # D for Dihedral angle
| 12> { D 0  19  14  12  240.0   C } # D for Dihedral angle
| 13> { D 0  4  3  2   C } # D for Dihedral angle
| 14> { D 4  3  2  1   C } # D for Dihedral angle
| 15> { D 3  2  1  0   C } # D for Dihedral angle
| 16> { D 2  1  0  4   C } # D for Dihedral angle
| 17> { D 1  0  4  3   C } # D for Dihedral angle
| 18> { D 14  15  16  17   C } # D for Dihedral angle
| 19> { D 15  16  17  12   C } # D for Dihedral angle
| 20> { D 16  17  12  14   C } # D for Dihedral angle
| 21> { D 17  12  14  15   C } # D for Dihedral angle
| 22> { D 12  14  15  16   C } # D for Dihedral angle
| 23> end
| 24> end
| 25>
| 26>
| 27> #%pal
| 28> #nprocs 8
| 29> #end
| 30>
| 31> * xyz 0 1
| 32> C  -21.048   26.222   46.251
| 33> C  -20.361   27.558   45.944
| 34> C  -20.329   28.222   47.341
| 35> C  -20.110   27.022   48.296
| 36> O  -20.473   25.807   47.535
| 37> H  -20.833   25.428   45.533
| 38> H  -19.344   27.382   45.576
| 39> H  -20.898   28.157   45.201
| 40> H  -19.543   28.978   47.434
| 41> H  -21.289   28.710   47.548
| 42> H  -20.733   27.082   49.195
| 43> H  -19.064   26.913   48.597
| 44> C  -24.097   26.379   44.554
| 45> H  -24.893   25.777   44.087
| 46> C  -23.235   25.530   45.496
| 47> C  -22.309   24.797   44.498
| 48> C  -22.080   25.853   43.388
| 49> O  -23.155   26.859   43.537
| 50> H  -24.542   27.260   45.019
| 51> O  -22.472   26.381   46.366
| 52> H  -23.823   24.842   46.114
| 53> H  -21.372   24.462   44.955
| 54> H  -22.816   23.913   44.091
| 55> H  -22.128   25.423   42.382
| 56> H  -21.128   26.381   43.503
| 57> *
| 58>
| 59>                          ****END OF INPUT****
 Total Charge           Charge          ....    0
 Multiplicity           Mult            ....    1
 Number of Electrons    NEL             ....   86
FINAL SINGLE POINT ENERGY      -538.398666348087
FINAL SINGLE POINT ENERGY      -538.426169169540
FINAL SINGLE POINT ENERGY      -538.427766120651
FINAL SINGLE POINT ENERGY      -538.428009370164
FINAL SINGLE POINT ENERGY      -538.428047435569
FINAL SINGLE POINT ENERGY      -538.428054039664
                    ***********************HURRAY********************

CARTESIAN COORDINATES (ANGSTROEM)
---------------------------------
  C    -20.813171   26.258457   46.254585
  C    -20.278689   27.676172   46.048399
  C    -20.436305   28.284641   47.462365
  C    -20.143326   27.084433   48.390480
  O    -20.298030   25.872042   47.548476
  H    -20.448843   25.518639   45.542916
  H    -19.221509   27.631640   45.759900
  H    -20.840352   28.208552   45.277779
  H    -19.757495   29.124136   47.638531
  H    -21.464208   28.633581   47.597803
  H    -20.834388   27.016532   49.234822
  H    -19.114629   27.077860   48.764095
  C    -23.969851   26.471326   44.601058
  H    -24.900631   25.996072   44.258174
  C    -23.132153   25.503453   45.437580
  C    -22.467612   24.647209   44.345386
  C    -22.226661   25.653329   43.193158
  O    -23.109672   26.809791   43.460311
  H    -24.195037   27.394576   45.134652
  O    -22.254489   26.314705   46.284894
  H    -23.743156   24.896895   46.114270
  H    -21.564307   24.126035   44.670464
  H    -23.188547   23.879347   44.042473
  H    -22.473266   25.230472   42.213092
  H    -21.198673   26.028107   43.165339

 Multiplicity           Mult            ....    1
 Number of Electrons    NEL             ....   86
 Basis Dimension        Dim             ....  127

ORBITAL ENERGIES
----------------

  NO   OCC          E(Eh)            E(eV)
   0   2.0000     -19.136201      -520.7225
   1   2.0000     -19.135353      -520.6994
   2   2.0000     -19.132243      -520.6148
   3   2.0000     -10.275765      -279.6178
   4   2.0000     -10.244132      -278.7570
   5   2.0000     -10.229611      -278.3619
   6   2.0000     -10.222211      -278.1605
   7   2.0000     -10.218907      -278.0706
   8   2.0000     -10.196437      -277.4591
   9   2.0000     -10.178975      -276.9840
  10   2.0000     -10.177124      -276.9336
  11   2.0000      -1.047099       -28.4930
  12   2.0000      -1.017550       -27.6890
  13   2.0000      -0.985261       -26.8103
  14   2.0000      -0.791414       -21.5355
  15   2.0000      -0.775282       -21.0965
  16   2.0000      -0.748740       -20.3742
  17   2.0000      -0.717306       -19.5189
  18   2.0000      -0.617133       -16.7930
  19   2.0000      -0.604691       -16.4545
  20   2.0000      -0.591885       -16.1060
  21   2.0000      -0.565101       -15.3772
  22   2.0000      -0.527231       -14.3467
  23   2.0000      -0.503988       -13.7142
  24   2.0000      -0.482433       -13.1277
  25   2.0000      -0.478834       -13.0297
  26   2.0000      -0.455130       -12.3847
  27   2.0000      -0.434739       -11.8299
  28   2.0000      -0.431285       -11.7359
  29   2.0000      -0.420005       -11.4289
  30   2.0000      -0.399724       -10.8770
  31   2.0000      -0.388799       -10.5798
  32   2.0000      -0.373632       -10.1670
  33   2.0000      -0.371600       -10.1118
  34   2.0000      -0.360445        -9.8082
  35   2.0000      -0.349867        -9.5204
  36   2.0000      -0.342552        -9.3213
  37   2.0000      -0.314742        -8.5646
  38   2.0000      -0.306791        -8.3482
  39   2.0000      -0.297200        -8.0872
  40   2.0000      -0.260095        -7.0776
  41   2.0000      -0.248206        -6.7540
  42   2.0000      -0.235912        -6.4195
  43   0.0000       0.074060         2.0153
  44   0.0000       0.092864         2.5269
  45   0.0000       0.099961         2.7201
  46   0.0000       0.109976         2.9926
  47   0.0000       0.115248         3.1361

MULLIKEN ATOMIC CHARGES
-----------------------
   0 C :    0.286828
   1 C :   -0.255498
   2 C :   -0.297813
   3 C :   -0.001253
   4 O :   -0.506874
   5 H :    0.138145
   6 H :    0.136443
   7 H :    0.163759
   8 H :    0.137760
   9 H :    0.160936
  10 H :    0.148621
  11 H :    0.138138
  12 C :   -0.001992
  13 H :    0.123689
  14 C :    0.103530
  15 C :   -0.340927
  16 C :    0.002467
  17 O :   -0.523226
  18 H :    0.168995
  19 O :   -0.529249
  20 H :    0.145559
  21 H :    0.162988
  22 H :    0.155442
  23 H :    0.139554
  24 H :    0.143977
Sum of atomic charges:   -0.0000000

LOEWDIN ATOMIC CHARGES
----------------------
   0 C :    0.175856
   1 C :   -0.222125
   2 C :   -0.215933
   3 C :   -0.027121
   4 O :   -0.321656
   5 H :    0.096734
   6 H :    0.109218
   7 H :    0.125808
   8 H :    0.112261
   9 H :    0.118611
  10 H :    0.105909
  11 H :    0.100256
  12 C :   -0.040472
  13 H :    0.090416
  14 C :    0.049390
  15 C :   -0.241481
  16 C :   -0.031686
  17 O :   -0.332480
  18 H :    0.123008
  19 O :   -0.328506
  20 H :    0.107246
  21 H :    0.123149
  22 H :    0.122230
  23 H :    0.100759
  24 H :    0.100609

  Mayer bond orders larger than 0.100000
B(  0-C ,  1-C ) :   0.9390 B(  0-C ,  4-O ) :   0.9239 B(  0-C ,  5-H ) :   0.9110
B(  0-C , 19-O ) :   0.8480 B(  1-C ,  2-C ) :   0.9575 B(  1-C ,  6-H ) :   0.9385
B(  1-C ,  7-H ) :   0.9321 B(  2-C ,  3-C ) :   0.9538 B(  2-C ,  8-H ) :   0.9458
B(  2-C ,  9-H ) :   0.9440 B(  3-C ,  4-O ) :   0.8398 B(  3-C , 10-H ) :   0.9353
B(  3-C , 11-H ) :   0.9401 B( 12-C , 13-H ) :   0.9133 B( 12-C , 14-C ) :   0.9179
B( 12-C , 17-O ) :   0.8596 B( 12-C , 18-H ) :   0.9314 B( 14-C , 15-C ) :   0.9414
B( 14-C , 19-O ) :   0.8467 B( 14-C , 20-H ) :   0.9279 B( 15-C , 16-C ) :   0.9378
B( 15-C , 21-H ) :   0.9276 B( 15-C , 22-H ) :   0.9346 B( 16-C , 17-O ) :   0.8616
B( 16-C , 23-H ) :   0.9334 B( 16-C , 24-H ) :   0.9342

FINAL SINGLE POINT ENERGY      -538.428054992357

DIPOLE MOMENT
-------------
                                X             Y             Z
Electronic contribution:     -1.27002      -1.15761       0.53936
Nuclear contribution   :      1.33898       0.88189      -0.71782
                        -----------------------------------------
Total Dipole Moment    :      0.06896      -0.27572      -0.17847
                        -----------------------------------------
Magnitude (a.u.)       :      0.33560
Magnitude (Debye)      :      0.85303

Rotational constants in cm-1:     0.078808     0.021941     0.021018
Rotational constants in MHz :  2362.614124   657.773930   630.110723

                             ****ORCA TERMINATED NORMALLY****
TOTAL RUN TIME: 0 days 0 hours 15 minutes 26 seconds 56 msec
