                         Program Version 4.2.0 -  RELEASE  -
|  1> # Test redundant internal optimization
|  2> #
|  3> ! RKS B3LYP  Opt TightSCF SmallPrint
|  4>
|  5> %basis
|  6>         Basis "6-31G"
|  7> end
|  8>
|  9> %geom
| 10> Constraints
| 11> { D 4  0  15  12  165.0   C } # D for Dihedral angle
| 12> { D 0  15  12  16  120.0   C } # D for Dihedral angle
| 13> { D 0  4  3  2   C } # D for Dihedral angle
| 14> { D 4  3  2  1   C } # D for Dihedral angle
| 15> { D 3  2  1  0   C } # D for Dihedral angle
| 16> { D 2  1  0  4   C } # D for Dihedral angle
| 17> { D 1  0  4  3   C } # D for Dihedral angle
| 18> { D 16  20  19  18   C } # D for Dihedral angle
| 19> { D 20  19  18  17   C } # D for Dihedral angle
| 20> { D 19  18  17  16   C } # D for Dihedral angle
| 21> { D 18  17  16  20   C } # D for Dihedral angle
| 22> { D 17  16  20  19   C } # D for Dihedral angle
| 23> { D 15  12  16  20   C } # D for Dihedral angle
| 24> end
| 25> end
| 26>
| 27>
| 28> #%pal
| 29> #nprocs 8
| 30> #end
| 31>
| 32> * xyz 0 1
| 33> C  -21.048   26.222   46.251
| 34> C  -20.361   27.558   45.944
| 35> C  -20.329   28.222   47.341
| 36> C  -20.110   27.022   48.296
| 37> O  -20.473   25.807   47.535
| 38> H  -20.833   25.428   45.533
| 39> H  -19.344   27.382   45.576
| 40> H  -20.898   28.157   45.201
| 41> H  -19.543   28.978   47.434
| 42> H  -21.289   28.710   47.548
| 43> H  -20.733   27.082   49.195
| 44> H  -19.064   26.913   48.597
| 45> C  -23.260   27.170   45.210
| 46> H  -23.749   28.068   45.609
| 47> H  -22.509   27.486   44.475
| 48> O  -22.586   26.394   46.375
| 49> C  -24.327   26.324   44.463
| 50> C  -23.735   25.004   43.954
| 51> C  -23.732   24.145   45.241
| 52> C  -25.013   24.609   45.977
| 53> O  -25.391   25.911   45.384
| 54> H  -24.793   26.937   43.690
| 55> H  -24.394   24.564   43.197
| 56> O  -22.320   25.168   43.336
| 57> H  -23.736   23.070   45.034
| 58> H  -22.840   24.367   45.840
| 59> H  -24.856   24.737   47.053
| 60> H  -25.855   23.928   45.821
| 61> H  -21.643   25.608   44.077
| 62> *
| 63>
| 64>                          ****END OF INPUT****
 Total Charge           Charge          ....    0
 Multiplicity           Mult            ....    1
 Number of Electrons    NEL             ....  102
FINAL SINGLE POINT ENERGY      -652.819847420648
FINAL SINGLE POINT ENERGY      -652.844355192680
FINAL SINGLE POINT ENERGY      -652.850229280367
FINAL SINGLE POINT ENERGY      -652.852602998592
FINAL SINGLE POINT ENERGY      -652.853063896769
FINAL SINGLE POINT ENERGY      -652.853272041383
FINAL SINGLE POINT ENERGY      -652.853347953004
FINAL SINGLE POINT ENERGY      -652.853429058851
FINAL SINGLE POINT ENERGY      -652.853506345236
FINAL SINGLE POINT ENERGY      -652.853605662008
FINAL SINGLE POINT ENERGY      -652.853878542996
FINAL SINGLE POINT ENERGY      -652.853893612663
FINAL SINGLE POINT ENERGY      -652.853900640160
FINAL SINGLE POINT ENERGY      -652.853902051982
                    ***********************HURRAY********************

CARTESIAN COORDINATES (ANGSTROEM)
---------------------------------
  C    -21.035824   26.315932   46.254542
  C    -20.269589   27.607510   45.970637
  C    -20.309246   28.317250   47.348985
  C    -20.217853   27.137123   48.338502
  O    -20.585547   25.928016   47.558927
  H    -20.813031   25.491341   45.571150
  H    -19.239975   27.347592   45.698006
  H    -20.685672   28.214338   45.164200
  H    -19.490008   29.031706   47.473356
  H    -21.255753   28.853077   47.468400
  H    -20.904992   27.228151   49.183099
  H    -19.202744   26.971046   48.710765
  C    -23.188970   27.210936   45.290449
  H    -23.678755   28.074884   45.752320
  H    -22.501641   27.559936   44.513444
  O    -22.481728   26.501817   46.355074
  C    -24.259736   26.354872   44.616933
  C    -23.771609   25.062647   43.942600
  C    -23.750926   24.063890   45.137251
  C    -24.964387   24.522309   45.979502
  O    -25.289230   25.898566   45.541050
  H    -24.769362   27.006145   43.895170
  H    -24.506548   24.751604   43.192244
  O    -22.497295   25.242914   43.261020
  H    -23.839500   23.022775   44.810454
  H    -22.827532   24.192036   45.706419
  H    -24.741043   24.536633   47.049247
  H    -25.853908   23.909995   45.798972
  H    -21.831596   24.615959   43.604282

 Multiplicity           Mult            ....    1
 Number of Electrons    NEL             ....  102
 Basis Dimension        Dim             ....  149

ORBITAL ENERGIES
----------------

  NO   OCC          E(Eh)            E(eV)
   0   2.0000     -19.146609      -521.0057
   1   2.0000     -19.141816      -520.8753
   2   2.0000     -19.138851      -520.7946
   3   2.0000     -19.130270      -520.5611
   4   2.0000     -10.283005      -279.8148
   5   2.0000     -10.239938      -278.6429
   6   2.0000     -10.227156      -278.2951
   7   2.0000     -10.226546      -278.2785
   8   2.0000     -10.223919      -278.2070
   9   2.0000     -10.220443      -278.1124
  10   2.0000     -10.190525      -277.2983
  11   2.0000     -10.189535      -277.2713
  12   2.0000     -10.185085      -277.1502
  13   2.0000      -1.053394       -28.6643
  14   2.0000      -1.028267       -27.9806
  15   2.0000      -1.010697       -27.5025
  16   2.0000      -0.989663       -26.9301
  17   2.0000      -0.788535       -21.4571
  18   2.0000      -0.774068       -21.0634
  19   2.0000      -0.765277       -20.8242
  20   2.0000      -0.733203       -19.9515
  21   2.0000      -0.677200       -18.4276
  22   2.0000      -0.606620       -16.5070
  23   2.0000      -0.603283       -16.4162
  24   2.0000      -0.595875       -16.2146
  25   2.0000      -0.557034       -15.1577
  26   2.0000      -0.523462       -14.2441
  27   2.0000      -0.504403       -13.7255
  28   2.0000      -0.502573       -13.6757
  29   2.0000      -0.499566       -13.5939
  30   2.0000      -0.467131       -12.7113
  31   2.0000      -0.456170       -12.4130
  32   2.0000      -0.440018       -11.9735
  33   2.0000      -0.436296       -11.8722
  34   2.0000      -0.423358       -11.5201
  35   2.0000      -0.412994       -11.2381
  36   2.0000      -0.407788       -11.0965
  37   2.0000      -0.398372       -10.8403
  38   2.0000      -0.381528       -10.3819
  39   2.0000      -0.363404        -9.8887
  40   2.0000      -0.358847        -9.7647
  41   2.0000      -0.356038        -9.6883
  42   2.0000      -0.349145        -9.5007
  43   2.0000      -0.323394        -8.8000
  44   2.0000      -0.316184        -8.6038
  45   2.0000      -0.303237        -8.2515
  46   2.0000      -0.298523        -8.1232
  47   2.0000      -0.269318        -7.3285
  48   2.0000      -0.261102        -7.1049
  49   2.0000      -0.259248        -7.0545
  50   2.0000      -0.231818        -6.3081
  51   0.0000       0.048153         1.3103
  52   0.0000       0.078591         2.1386
  53   0.0000       0.096319         2.6210
  54   0.0000       0.098242         2.6733
  55   0.0000       0.110332         3.0023

MULLIKEN ATOMIC CHARGES
-----------------------
   0 C :    0.318992
   1 C :   -0.287165
   2 C :   -0.299467
   3 C :    0.000919
   4 O :   -0.504639
   5 H :    0.117149
   6 H :    0.149507
   7 H :    0.150424
   8 H :    0.143910
   9 H :    0.160142
  10 H :    0.155624
  11 H :    0.142019
  12 C :   -0.008792
  13 H :    0.150696
  14 H :    0.144069
  15 O :   -0.524188
  16 C :    0.094302
  17 C :    0.095209
  18 C :   -0.340612
  19 C :   -0.001505
  20 O :   -0.518806
  21 H :    0.145114
  22 H :    0.151602
  23 O :   -0.623360
  24 H :    0.140883
  25 H :    0.178626
  26 H :    0.162672
  27 H :    0.139346
  28 H :    0.367328
Sum of atomic charges:   -0.0000000

LOEWDIN ATOMIC CHARGES
----------------------
   0 C :    0.181038
   1 C :   -0.231625
   2 C :   -0.216476
   3 C :   -0.024537
   4 O :   -0.306645
   5 H :    0.083007
   6 H :    0.117428
   7 H :    0.117070
   8 H :    0.115283
   9 H :    0.117104
  10 H :    0.110292
  11 H :    0.102682
  12 C :   -0.043017
  13 H :    0.110573
  14 H :    0.107241
  15 O :   -0.337351
  16 C :    0.021285
  17 C :    0.036649
  18 C :   -0.245831
  19 C :   -0.021930
  20 O :   -0.320894
  21 H :    0.111844
  22 H :    0.106663
  23 O :   -0.422566
  24 H :    0.111780
  25 H :    0.125830
  26 H :    0.113246
  27 H :    0.099549
  28 H :    0.282307

  Mayer bond orders larger than 0.100000
B(  0-C ,  1-C ) :   0.9346 B(  0-C ,  4-O ) :   0.9328 B(  0-C ,  5-H ) :   0.9123
B(  0-C , 15-O ) :   0.8382 B(  1-C ,  2-C ) :   0.9490 B(  1-C ,  6-H ) :   0.9341
B(  1-C ,  7-H ) :   0.9275 B(  2-C ,  3-C ) :   0.9556 B(  2-C ,  8-H ) :   0.9449
B(  2-C ,  9-H ) :   0.9452 B(  3-C ,  4-O ) :   0.8334 B(  3-C , 10-H ) :   0.9344
B(  3-C , 11-H ) :   0.9399 B( 12-C , 13-H ) :   0.9301 B( 12-C , 14-H ) :   0.9005
B( 12-C , 15-O ) :   0.8472 B( 12-C , 16-C ) :   0.9038 B( 16-C , 17-C ) :   0.8984
B( 16-C , 20-O ) :   0.8793 B( 16-C , 21-H ) :   0.9260 B( 17-C , 18-C ) :   0.9442
B( 17-C , 22-H ) :   0.9296 B( 17-C , 23-O ) :   0.8764 B( 18-C , 19-C ) :   0.9471
B( 18-C , 24-H ) :   0.9390 B( 18-C , 25-H ) :   0.9216 B( 19-C , 20-O ) :   0.8445
B( 19-C , 26-H ) :   0.9291 B( 19-C , 27-H ) :   0.9368 B( 23-O , 28-H ) :   0.7932

FINAL SINGLE POINT ENERGY      -652.853901961743

DIPOLE MOMENT
-------------
                                X             Y             Z
Electronic contribution:     -2.79881      -2.00864      -0.87087
Nuclear contribution   :      3.68533       2.17178       0.63810
                        -----------------------------------------
Total Dipole Moment    :      0.88652       0.16313      -0.23278
                        -----------------------------------------
Magnitude (a.u.)       :      0.93098
Magnitude (Debye)      :      2.36635

Rotational constants in cm-1:     0.049345     0.015665     0.014939
Rotational constants in MHz :  1479.329574   469.623652   447.852150

                             ****ORCA TERMINATED NORMALLY****
TOTAL RUN TIME: 0 days 0 hours 36 minutes 30 seconds 351 msec
