                         Program Version 4.2.0 -  RELEASE  -
|  1> # Test redundant internal optimization
|  2> #
|  3> ! RKS B3LYP  Opt TightSCF SmallPrint
|  4>
|  5> %basis
|  6>         Basis "6-31G"
|  7> end
|  8>
|  9> %geom
| 10> Constraints
| 11> { D 4  0  15  12  180.0   C } # D for Dihedral angle
| 12> { D 0  15  12  16  60.0   C } # D for Dihedral angle
| 13> { D 0  4  3  2   C } # D for Dihedral angle
| 14> { D 4  3  2  1   C } # D for Dihedral angle
| 15> { D 3  2  1  0   C } # D for Dihedral angle
| 16> { D 2  1  0  4   C } # D for Dihedral angle
| 17> { D 1  0  4  3   C } # D for Dihedral angle
| 18> { D 16  20  19  18   C } # D for Dihedral angle
| 19> { D 20  19  18  17   C } # D for Dihedral angle
| 20> { D 19  18  17  16   C } # D for Dihedral angle
| 21> { D 18  17  16  20   C } # D for Dihedral angle
| 22> { D 17  16  20  19   C } # D for Dihedral angle
| 23> { D 15  12  16  20   C } # D for Dihedral angle
| 24> end
| 25> end
| 26>
| 27>
| 28> #%pal
| 29> #nprocs 8
| 30> #end
| 31>
| 32> * xyz 0 1
| 33> C  -21.048   26.222   46.251
| 34> C  -20.361   27.558   45.944
| 35> C  -20.329   28.222   47.341
| 36> C  -20.110   27.022   48.296
| 37> O  -20.473   25.807   47.535
| 38> H  -20.833   25.428   45.533
| 39> H  -19.344   27.382   45.576
| 40> H  -20.898   28.157   45.201
| 41> H  -19.543   28.978   47.434
| 42> H  -21.289   28.710   47.548
| 43> H  -20.733   27.082   49.195
| 44> H  -19.064   26.913   48.597
| 45> C  -23.309   26.834   45.072
| 46> H  -24.383   26.934   45.270
| 47> H  -22.930   27.807   44.733
| 48> O  -22.586   26.394   46.375
| 49> C  -23.119   25.821   43.909
| 50> C  -23.773   24.473   44.232
| 51> C  -25.263   24.769   43.937
| 52> C  -25.196   25.743   42.733
| 53> O  -23.820   26.284   42.707
| 54> H  -22.058   25.760   43.657
| 55> O  -23.232   23.375   43.276
| 56> H  -23.601   24.147   45.264
| 57> H  -25.838   23.866   43.710
| 58> H  -25.729   25.255   44.802
| 59> H  -25.905   26.572   42.825
| 60> H  -25.363   25.239   41.778
| 61> H  -23.394   23.680   42.235
| 62> *
| 63>
| 64>                          ****END OF INPUT****
 Total Charge           Charge          ....    0
 Multiplicity           Mult            ....    1
 Number of Electrons    NEL             ....  102
FINAL SINGLE POINT ENERGY      -652.833923213376
FINAL SINGLE POINT ENERGY      -652.855782345859
FINAL SINGLE POINT ENERGY      -652.859452619580
FINAL SINGLE POINT ENERGY      -652.860034061989
FINAL SINGLE POINT ENERGY      -652.860118111677
FINAL SINGLE POINT ENERGY      -652.860128552584
                    ***********************HURRAY********************

CARTESIAN COORDINATES (ANGSTROEM)
---------------------------------
  C    -21.066157   26.217334   46.185379
  C    -20.303696   27.510985   45.906815
  C    -20.354438   28.217186   47.283976
  C    -20.264593   27.039559   48.275805
  O    -20.623611   25.827584   47.491789
  H    -20.848314   25.386117   45.510207
  H    -19.272008   27.262146   45.632128
  H    -20.730790   28.114465   45.101162
  H    -19.540444   28.936614   47.414568
  H    -21.305291   28.746374   47.396404
  H    -20.957415   27.127729   49.116015
  H    -19.251252   26.876327   48.653839
  C    -23.227216   26.838745   45.080229
  H    -24.264227   26.946798   45.407365
  H    -22.884007   27.817751   44.720575
  O    -22.511399   26.430154   46.280583
  C    -23.123231   25.838915   43.923044
  C    -23.734441   24.457724   44.196662
  C    -25.241949   24.734374   43.971510
  C    -25.246627   25.771910   42.821372
  O    -23.878385   26.351429   42.772333
  H    -22.086509   25.742375   43.586317
  O    -23.214117   23.467884   43.266432
  H    -23.506413   24.077839   45.192091
  H    -25.768928   23.811953   43.715184
  H    -25.692588   25.143172   44.881887
  H    -25.967879   26.579671   42.977837
  H    -25.437277   25.317889   41.844157
  H    -23.220801   23.842997   42.360335

 Multiplicity           Mult            ....    1
 Number of Electrons    NEL             ....  102
 Basis Dimension        Dim             ....  149

ORBITAL ENERGIES
----------------

  NO   OCC          E(Eh)            E(eV)
   0   2.0000     -19.148846      -521.0666
   1   2.0000     -19.143964      -520.9337
   2   2.0000     -19.140764      -520.8467
   3   2.0000     -19.138823      -520.7939
   4   2.0000     -10.280555      -279.7481
   5   2.0000     -10.239467      -278.6301
   6   2.0000     -10.236911      -278.5605
   7   2.0000     -10.234890      -278.5055
   8   2.0000     -10.232851      -278.4500
   9   2.0000     -10.225209      -278.2421
  10   2.0000     -10.190110      -277.2870
  11   2.0000     -10.189365      -277.2667
  12   2.0000     -10.188046      -277.2308
  13   2.0000      -1.054060       -28.6824
  14   2.0000      -1.039027       -28.2734
  15   2.0000      -1.007695       -27.4208
  16   2.0000      -0.994761       -27.0688
  17   2.0000      -0.788160       -21.4469
  18   2.0000      -0.781933       -21.2775
  19   2.0000      -0.768635       -20.9156
  20   2.0000      -0.735897       -20.0248
  21   2.0000      -0.679070       -18.4784
  22   2.0000      -0.608359       -16.5543
  23   2.0000      -0.605116       -16.4660
  24   2.0000      -0.600835       -16.3496
  25   2.0000      -0.571143       -15.5416
  26   2.0000      -0.526954       -14.3392
  27   2.0000      -0.515990       -14.0408
  28   2.0000      -0.498709       -13.5706
  29   2.0000      -0.491107       -13.3637
  30   2.0000      -0.473880       -12.8949
  31   2.0000      -0.462163       -12.5761
  32   2.0000      -0.454043       -12.3551
  33   2.0000      -0.438661       -11.9366
  34   2.0000      -0.423972       -11.5369
  35   2.0000      -0.413956       -11.2643
  36   2.0000      -0.405291       -11.0285
  37   2.0000      -0.395271       -10.7559
  38   2.0000      -0.377857       -10.2820
  39   2.0000      -0.370158       -10.0725
  40   2.0000      -0.365315        -9.9407
  41   2.0000      -0.358042        -9.7428
  42   2.0000      -0.356350        -9.6968
  43   2.0000      -0.334449        -9.1008
  44   2.0000      -0.316159        -8.6031
  45   2.0000      -0.309693        -8.4272
  46   2.0000      -0.306288        -8.3345
  47   2.0000      -0.272627        -7.4186
  48   2.0000      -0.266305        -7.2465
  49   2.0000      -0.258354        -7.0302
  50   2.0000      -0.242323        -6.5939
  51   0.0000       0.062321         1.6958
  52   0.0000       0.071864         1.9555
  53   0.0000       0.090905         2.4737
  54   0.0000       0.094912         2.5827
  55   0.0000       0.100973         2.7476

MULLIKEN ATOMIC CHARGES
-----------------------
   0 C :    0.295247
   1 C :   -0.283591
   2 C :   -0.296144
   3 C :   -0.001202
   4 O :   -0.502427
   5 H :    0.153095
   6 H :    0.150266
   7 H :    0.146320
   8 H :    0.143178
   9 H :    0.158699
  10 H :    0.154696
  11 H :    0.142878
  12 C :   -0.013258
  13 H :    0.151397
  14 H :    0.139217
  15 O :   -0.510956
  16 C :    0.038266
  17 C :    0.091257
  18 C :   -0.302231
  19 C :   -0.030992
  20 O :   -0.528582
  21 H :    0.157125
  22 O :   -0.604664
  23 H :    0.178101
  24 H :    0.165736
  25 H :    0.151181
  26 H :    0.149411
  27 H :    0.145662
  28 H :    0.362316
Sum of atomic charges:   -0.0000000

LOEWDIN ATOMIC CHARGES
----------------------
   0 C :    0.176706
   1 C :   -0.232364
   2 C :   -0.216023
   3 C :   -0.024731
   4 O :   -0.301785
   5 H :    0.100768
   6 H :    0.117397
   7 H :    0.114996
   8 H :    0.114870
   9 H :    0.117024
  10 H :    0.109811
  11 H :    0.103166
  12 C :   -0.044457
  13 H :    0.113404
  14 H :    0.098484
  15 O :   -0.332222
  16 C :   -0.000388
  17 C :    0.037027
  18 C :   -0.240442
  19 C :   -0.038010
  20 O :   -0.330894
  21 H :    0.109846
  22 O :   -0.414936
  23 H :    0.128001
  24 H :    0.128281
  25 H :    0.116922
  26 H :    0.105364
  27 H :    0.102740
  28 H :    0.281444

  Mayer bond orders larger than 0.100000
B(  0-C ,  1-C ) :   0.9283 B(  0-C ,  4-O ) :   0.9358 B(  0-C ,  5-H ) :   0.9169
B(  0-C , 15-O ) :   0.8278 B(  1-C ,  2-C ) :   0.9505 B(  1-C ,  6-H ) :   0.9341
B(  1-C ,  7-H ) :   0.9309 B(  2-C ,  3-C ) :   0.9561 B(  2-C ,  8-H ) :   0.9450
B(  2-C ,  9-H ) :   0.9452 B(  3-C ,  4-O ) :   0.8347 B(  3-C , 10-H ) :   0.9345
B(  3-C , 11-H ) :   0.9397 B( 12-C , 13-H ) :   0.9392 B( 12-C , 14-H ) :   0.9111
B( 12-C , 15-O ) :   0.8530 B( 12-C , 16-C ) :   0.8753 B( 16-C , 17-C ) :   0.9073
B( 16-C , 20-O ) :   0.8364 B( 16-C , 21-H ) :   0.9255 B( 17-C , 18-C ) :   0.9138
B( 17-C , 22-O ) :   0.8869 B( 17-C , 23-H ) :   0.9241 B( 18-C , 19-C ) :   0.9409
B( 18-C , 24-H ) :   0.9368 B( 18-C , 25-H ) :   0.9332 B( 19-C , 20-O ) :   0.8416
B( 19-C , 26-H ) :   0.9352 B( 19-C , 27-H ) :   0.9384 B( 22-O , 28-H ) :   0.7969

FINAL SINGLE POINT ENERGY      -652.860131103939

DIPOLE MOMENT
-------------
                                X             Y             Z
Electronic contribution:      0.05439      -3.74061      -1.00912
Nuclear contribution   :     -0.28148       4.82226       0.70554
                        -----------------------------------------
Total Dipole Moment    :     -0.22709       1.08165      -0.30358
                        -----------------------------------------
Magnitude (a.u.)       :      1.14617
Magnitude (Debye)      :      2.91332

Rotational constants in cm-1:     0.062034     0.012530     0.011786
Rotational constants in MHz :  1859.729753   375.632094   353.337153

                             ****ORCA TERMINATED NORMALLY****
TOTAL RUN TIME: 0 days 0 hours 20 minutes 43 seconds 197 msec
