                         Program Version 4.2.0 -  RELEASE  -
|  1> # Test redundant internal optimization
|  2> #
|  3> ! RKS B3LYP  Opt TightSCF SmallPrint
|  4>
|  5> %basis
|  6>         Basis "6-31G"
|  7> end
|  8>
|  9> %geom
| 10> Constraints
| 11> { D 4  0  15  12  270.0   C } # D for Dihedral angle
| 12> { D 0  15  12  16  345.0   C } # D for Dihedral angle
| 13> { D 0  4  3  2   C } # D for Dihedral angle
| 14> { D 4  3  2  1   C } # D for Dihedral angle
| 15> { D 3  2  1  0   C } # D for Dihedral angle
| 16> { D 2  1  0  4   C } # D for Dihedral angle
| 17> { D 1  0  4  3   C } # D for Dihedral angle
| 18> { D 16  20  19  18   C } # D for Dihedral angle
| 19> { D 20  19  18  17   C } # D for Dihedral angle
| 20> { D 19  18  17  16   C } # D for Dihedral angle
| 21> { D 18  17  16  20   C } # D for Dihedral angle
| 22> { D 17  16  20  19   C } # D for Dihedral angle
| 23> { D 15  12  16  20   C } # D for Dihedral angle
| 24> end
| 25> end
| 26>
| 27>
| 28> #%pal
| 29> #nprocs 8
| 30> #end
| 31>
| 32> * xyz 0 1
| 33> C  -21.048   26.222   46.251
| 34> C  -20.361   27.558   45.944
| 35> C  -20.329   28.222   47.341
| 36> C  -20.110   27.022   48.296
| 37> O  -20.473   25.807   47.535
| 38> H  -20.833   25.428   45.533
| 39> H  -19.344   27.382   45.576
| 40> H  -20.898   28.157   45.201
| 41> H  -19.543   28.978   47.434
| 42> H  -21.289   28.710   47.548
| 43> H  -20.733   27.082   49.195
| 44> H  -19.064   26.913   48.597
| 45> C  -23.420   25.119   46.072
| 46> H  -23.799   24.702   47.014
| 47> H  -24.279   25.364   45.435
| 48> O  -22.586   26.394   46.375
| 49> C  -22.594   24.019   45.349
| 50> C  -23.474   22.825   44.963
| 51> C  -24.177   23.352   43.690
| 52> C  -23.086   24.225   43.021
| 53> O  -22.084   24.520   44.068
| 54> H  -21.727   23.762   45.960
| 55> O  -22.588   21.594   44.630
| 56> H  -24.180   22.540   45.751
| 57> H  -24.528   22.548   43.035
| 58> H  -25.046   23.964   43.964
| 59> H  -23.484   25.168   42.629
| 60> H  -22.565   23.698   42.216
| 61> H  -21.873   21.858   43.843
| 62> *
| 63>
| 64>                          ****END OF INPUT****
 Total Charge           Charge          ....    0
 Multiplicity           Mult            ....    1
 Number of Electrons    NEL             ....  102
FINAL SINGLE POINT ENERGY      -652.831850100428
FINAL SINGLE POINT ENERGY      -652.855623947950
FINAL SINGLE POINT ENERGY      -652.859417067345
FINAL SINGLE POINT ENERGY      -652.861596076703
FINAL SINGLE POINT ENERGY      -652.861786718881
FINAL SINGLE POINT ENERGY      -652.861823022770
                    ***********************HURRAY********************

CARTESIAN COORDINATES (ANGSTROEM)
---------------------------------
  C    -20.915132   26.215648   46.198403
  C    -20.407510   27.643953   45.989893
  C    -20.474275   28.218846   47.425985
  C    -20.108578   26.998763   48.302763
  O    -20.308559   25.805190   47.447952
  H    -20.612621   25.501207   45.435782
  H    -19.373110   27.609784   45.628557
  H    -21.018667   28.194080   45.272354
  H    -19.790311   29.059366   47.577711
  H    -21.493007   28.555236   47.638636
  H    -20.738507   26.908170   49.191845
  H    -19.056879   26.995656   48.606031
  C    -23.202781   25.155102   46.021101
  H    -23.589768   24.769569   46.974578
  H    -24.043844   25.556861   45.446807
  O    -22.353061   26.304627   46.308096
  C    -22.553124   23.990368   45.273491
  C    -23.538641   22.853481   44.959038
  C    -24.234998   23.383774   43.676142
  C    -23.092916   24.137387   42.945905
  O    -22.040800   24.393638   43.959065
  H    -21.700383   23.605776   45.840832
  O    -22.833350   21.607016   44.714662
  H    -24.234931   22.634479   45.769526
  H    -24.643780   22.557517   43.089839
  H    -25.055257   24.060407   43.938864
  H    -23.418483   25.092111   42.522681
  H    -22.636273   23.540136   42.150887
  H    -22.045453   21.784855   44.158573

 Multiplicity           Mult            ....    1
 Number of Electrons    NEL             ....  102
 Basis Dimension        Dim             ....  149

ORBITAL ENERGIES
----------------

  NO   OCC          E(Eh)            E(eV)
   0   2.0000     -19.150862      -521.1215
   1   2.0000     -19.143638      -520.9249
   2   2.0000     -19.135390      -520.7004
   3   2.0000     -19.128569      -520.5148
   4   2.0000     -10.266092      -279.3546
   5   2.0000     -10.249186      -278.8945
   6   2.0000     -10.240556      -278.6597
   7   2.0000     -10.237801      -278.5847
   8   2.0000     -10.232167      -278.4314
   9   2.0000     -10.216454      -278.0039
  10   2.0000     -10.195634      -277.4373
  11   2.0000     -10.176278      -276.9106
  12   2.0000     -10.174685      -276.8672
  13   2.0000      -1.047622       -28.5072
  14   2.0000      -1.038451       -28.2577
  15   2.0000      -1.012226       -27.5441
  16   2.0000      -0.984326       -26.7849
  17   2.0000      -0.791442       -21.5362
  18   2.0000      -0.778408       -21.1816
  19   2.0000      -0.766759       -20.8646
  20   2.0000      -0.728878       -19.8338
  21   2.0000      -0.673708       -18.3325
  22   2.0000      -0.610877       -16.6228
  23   2.0000      -0.607360       -16.5271
  24   2.0000      -0.588863       -16.0238
  25   2.0000      -0.565331       -15.3834
  26   2.0000      -0.532300       -14.4846
  27   2.0000      -0.510104       -13.8806
  28   2.0000      -0.493679       -13.4337
  29   2.0000      -0.481883       -13.1127
  30   2.0000      -0.475656       -12.9433
  31   2.0000      -0.456349       -12.4179
  32   2.0000      -0.449938       -12.2434
  33   2.0000      -0.436947       -11.8899
  34   2.0000      -0.424875       -11.5614
  35   2.0000      -0.408632       -11.1194
  36   2.0000      -0.399489       -10.8707
  37   2.0000      -0.394748       -10.7417
  38   2.0000      -0.380687       -10.3590
  39   2.0000      -0.367290        -9.9945
  40   2.0000      -0.362942        -9.8762
  41   2.0000      -0.346879        -9.4391
  42   2.0000      -0.340177        -9.2567
  43   2.0000      -0.334360        -9.0984
  44   2.0000      -0.321896        -8.7592
  45   2.0000      -0.311898        -8.4872
  46   2.0000      -0.295115        -8.0305
  47   2.0000      -0.278213        -7.5706
  48   2.0000      -0.262254        -7.1363
  49   2.0000      -0.248994        -6.7755
  50   2.0000      -0.238151        -6.4804
  51   0.0000       0.061124         1.6633
  52   0.0000       0.083248         2.2653
  53   0.0000       0.088828         2.4171
  54   0.0000       0.097337         2.6487
  55   0.0000       0.102041         2.7767

MULLIKEN ATOMIC CHARGES
-----------------------
   0 C :    0.265127
   1 C :   -0.252226
   2 C :   -0.296744
   3 C :    0.000520
   4 O :   -0.515139
   5 H :    0.183309
   6 H :    0.141154
   7 H :    0.151591
   8 H :    0.135339
   9 H :    0.159911
  10 H :    0.143316
  11 H :    0.138109
  12 C :    0.043819
  13 H :    0.138204
  14 H :    0.139886
  15 O :   -0.536703
  16 C :    0.002458
  17 C :    0.081307
  18 C :   -0.297621
  19 C :   -0.027266
  20 O :   -0.526538
  21 H :    0.189160
  22 O :   -0.599419
  23 H :    0.157461
  24 H :    0.166076
  25 H :    0.146650
  26 H :    0.152043
  27 H :    0.150434
  28 H :    0.365784
Sum of atomic charges:   -0.0000000

LOEWDIN ATOMIC CHARGES
----------------------
   0 C :    0.166297
   1 C :   -0.213059
   2 C :   -0.216545
   3 C :   -0.027488
   4 O :   -0.333792
   5 H :    0.115175
   6 H :    0.111596
   7 H :    0.121630
   8 H :    0.110558
   9 H :    0.117981
  10 H :    0.103140
  11 H :    0.100117
  12 C :   -0.033274
  13 H :    0.104016
  14 H :    0.105240
  15 O :   -0.326508
  16 C :   -0.005147
  17 C :    0.040694
  18 C :   -0.240759
  19 C :   -0.036359
  20 O :   -0.334581
  21 H :    0.125885
  22 O :   -0.411766
  23 H :    0.118346
  24 H :    0.128411
  25 H :    0.114250
  26 H :    0.107296
  27 H :    0.104609
  28 H :    0.284038

  Mayer bond orders larger than 0.100000
B(  0-C ,  1-C ) :   0.9456 B(  0-C ,  4-O ) :   0.9008 B(  0-C ,  5-H ) :   0.8965
B(  0-C , 15-O ) :   0.8504 B(  1-C ,  2-C ) :   0.9570 B(  1-C ,  6-H ) :   0.9416
B(  1-C ,  7-H ) :   0.9384 B(  2-C ,  3-C ) :   0.9551 B(  2-C ,  8-H ) :   0.9461
B(  2-C ,  9-H ) :   0.9444 B(  3-C ,  4-O ) :   0.8419 B(  3-C , 10-H ) :   0.9361
B(  3-C , 11-H ) :   0.9406 B( 12-C , 13-H ) :   0.9134 B( 12-C , 14-H ) :   0.9311
B( 12-C , 15-O ) :   0.8485 B( 12-C , 16-C ) :   0.9022 B( 16-C , 17-C ) :   0.8972
B( 16-C , 20-O ) :   0.8304 B( 16-C , 21-H ) :   0.9127 B( 17-C , 18-C ) :   0.9120
B( 17-C , 22-O ) :   0.8956 B( 17-C , 23-H ) :   0.9324 B( 18-C , 19-C ) :   0.9424
B( 18-C , 24-H ) :   0.9365 B( 18-C , 25-H ) :   0.9325 B( 19-C , 20-O ) :   0.8390
B( 19-C , 26-H ) :   0.9343 B( 19-C , 27-H ) :   0.9378 B( 22-O , 28-H ) :   0.7937

FINAL SINGLE POINT ENERGY      -652.861825988537

DIPOLE MOMENT
-------------
                                X             Y             Z
Electronic contribution:      0.82582      -3.90894       0.10551
Nuclear contribution   :     -1.32451       4.44250      -0.72105
                        -----------------------------------------
Total Dipole Moment    :     -0.49869       0.53356      -0.61554
                        -----------------------------------------
Magnitude (a.u.)       :      0.95512
Magnitude (Debye)      :      2.42773

Rotational constants in cm-1:     0.064356     0.012680     0.011986
Rotational constants in MHz :  1929.343584   380.139174   359.327960

                             ****ORCA TERMINATED NORMALLY****
TOTAL RUN TIME: 0 days 0 hours 23 minutes 14 seconds 145 msec
