                         Program Version 4.2.0 -  RELEASE  -
|  1> # Test redundant internal optimization
|  2> #
|  3> ! RKS B3LYP  Opt TightSCF SmallPrint
|  4>
|  5> %basis
|  6>         Basis "6-31G"
|  7> end
|  8>
|  9> %geom
| 10> Constraints
| 11> { D 4  0  15  12  240.0   C } # D for Dihedral angle
| 12> { D 0  15  12  16  195.0   C } # D for Dihedral angle
| 13> { D 0  4  3  2   C } # D for Dihedral angle
| 14> { D 4  3  2  1   C } # D for Dihedral angle
| 15> { D 3  2  1  0   C } # D for Dihedral angle
| 16> { D 2  1  0  4   C } # D for Dihedral angle
| 17> { D 1  0  4  3   C } # D for Dihedral angle
| 18> { D 16  20  19  18   C } # D for Dihedral angle
| 19> { D 20  19  18  17   C } # D for Dihedral angle
| 20> { D 19  18  17  16   C } # D for Dihedral angle
| 21> { D 18  17  16  20   C } # D for Dihedral angle
| 22> { D 17  16  20  19   C } # D for Dihedral angle
| 23> { D 15  12  16  20   C } # D for Dihedral angle
| 24> end
| 25> end
| 26>
| 27>
| 28> #%pal
| 29> #nprocs 8
| 30> #end
| 31>
| 32> * xyz 0 1
| 33> C  -21.048   26.222   46.251
| 34> C  -20.361   27.558   45.944
| 35> C  -20.329   28.222   47.341
| 36> C  -20.110   27.022   48.296
| 37> O  -20.473   25.807   47.535
| 38> H  -20.833   25.428   45.533
| 39> H  -19.344   27.382   45.576
| 40> H  -20.898   28.157   45.201
| 41> H  -19.543   28.978   47.434
| 42> H  -21.289   28.710   47.548
| 43> H  -20.733   27.082   49.195
| 44> H  -19.064   26.913   48.597
| 45> C  -23.430   25.483   45.442
| 46> H  -22.991   25.488   44.437
| 47> H  -23.428   24.449   45.811
| 48> O  -22.586   26.394   46.375
| 49> C  -24.910   25.943   45.331
| 50> C  -25.738   24.958   44.499
| 51> C  -26.004   23.829   45.522
| 52> C  -26.154   24.595   46.860
| 53> O  -25.551   25.928   46.650
| 54> H  -24.938   26.974   44.973
| 55> H  -26.678   25.426   44.186
| 56> O  -24.995   24.457   43.229
| 57> H  -26.892   23.236   45.279
| 58> H  -25.147   23.146   45.562
| 59> H  -25.641   24.095   47.689
| 60> H  -27.201   24.754   47.135
| 61> H  -24.051   23.983   43.517
| 62> *
| 63>
| 64>                          ****END OF INPUT****
 Total Charge           Charge          ....    0
 Multiplicity           Mult            ....    1
 Number of Electrons    NEL             ....  102
FINAL SINGLE POINT ENERGY      -652.826283150413
FINAL SINGLE POINT ENERGY      -652.850197912941
FINAL SINGLE POINT ENERGY      -652.854631280813
FINAL SINGLE POINT ENERGY      -652.855480507941
FINAL SINGLE POINT ENERGY      -652.855639477459
FINAL SINGLE POINT ENERGY      -652.855670858801
FINAL SINGLE POINT ENERGY      -652.855678225135
FINAL SINGLE POINT ENERGY      -652.855679431814
                    ***********************HURRAY********************

CARTESIAN COORDINATES (ANGSTROEM)
---------------------------------
  C    -21.030530   26.168041   46.200785
  C    -20.459047   27.559995   45.932862
  C    -20.529610   28.209431   47.335638
  C    -20.234305   27.023870   48.280288
  O    -20.469962   25.797657   47.476570
  H    -20.742662   25.392085   45.485274
  H    -19.419034   27.470504   45.596235
  H    -21.030989   28.102920   45.177024
  H    -19.815966   29.029683   47.457074
  H    -21.538508   28.594977   47.509032
  H    -20.889249   26.999403   49.154481
  H    -19.190292   26.988525   48.606421
  C    -23.239558   25.388880   45.428860
  H    -22.840220   25.404239   44.403319
  H    -23.186790   24.357406   45.809649
  O    -22.475249   26.268252   46.290703
  C    -24.678255   25.896015   45.391237
  C    -25.617724   25.025845   44.539776
  C    -26.009730   23.899979   45.543132
  C    -26.066340   24.651587   46.890894
  O    -25.313721   25.917881   46.703813
  H    -24.657367   26.936117   45.054159
  H    -26.496514   25.610425   44.259087
  O    -25.067381   24.562089   43.281799
  H    -26.957264   23.423025   45.279572
  H    -25.230786   23.125141   45.548238
  H    -25.615722   24.087938   47.713321
  H    -27.088272   24.925562   47.168818
  H    -24.468952   23.801527   43.429940

 Multiplicity           Mult            ....    1
 Number of Electrons    NEL             ....  102
 Basis Dimension        Dim             ....  149

ORBITAL ENERGIES
----------------

  NO   OCC          E(Eh)            E(eV)
   0   2.0000     -19.151368      -521.1352
   1   2.0000     -19.136450      -520.7293
   2   2.0000     -19.135216      -520.6957
   3   2.0000     -19.133283      -520.6431
   4   2.0000     -10.275278      -279.6045
   5   2.0000     -10.245845      -278.8036
   6   2.0000     -10.231410      -278.4108
   7   2.0000     -10.230260      -278.3795
   8   2.0000     -10.228806      -278.3399
   9   2.0000     -10.218697      -278.0649
  10   2.0000     -10.196330      -277.4563
  11   2.0000     -10.180502      -277.0256
  12   2.0000     -10.179428      -276.9963
  13   2.0000      -1.048116       -28.5207
  14   2.0000      -1.033921       -28.1344
  15   2.0000      -1.015124       -27.6229
  16   2.0000      -0.990015       -26.9397
  17   2.0000      -0.784722       -21.3534
  18   2.0000      -0.780573       -21.2405
  19   2.0000      -0.766181       -20.8488
  20   2.0000      -0.726721       -19.7751
  21   2.0000      -0.678691       -18.4681
  22   2.0000      -0.612199       -16.6588
  23   2.0000      -0.592806       -16.1311
  24   2.0000      -0.586378       -15.9562
  25   2.0000      -0.579698       -15.7744
  26   2.0000      -0.529198       -14.4002
  27   2.0000      -0.510690       -13.8966
  28   2.0000      -0.496913       -13.5217
  29   2.0000      -0.484849       -13.1934
  30   2.0000      -0.467191       -12.7129
  31   2.0000      -0.456800       -12.4302
  32   2.0000      -0.444893       -12.1061
  33   2.0000      -0.433543       -11.7973
  34   2.0000      -0.424990       -11.5646
  35   2.0000      -0.419622       -11.4185
  36   2.0000      -0.402150       -10.9431
  37   2.0000      -0.396560       -10.7910
  38   2.0000      -0.376250       -10.2383
  39   2.0000      -0.371569       -10.1109
  40   2.0000      -0.353291        -9.6135
  41   2.0000      -0.350681        -9.5425
  42   2.0000      -0.345478        -9.4009
  43   2.0000      -0.329148        -8.9566
  44   2.0000      -0.316448        -8.6110
  45   2.0000      -0.311931        -8.4881
  46   2.0000      -0.300923        -8.1885
  47   2.0000      -0.272161        -7.4059
  48   2.0000      -0.259496        -7.0612
  49   2.0000      -0.246137        -6.6977
  50   2.0000      -0.237254        -6.4560
  51   0.0000       0.049173         1.3381
  52   0.0000       0.079035         2.1507
  53   0.0000       0.087771         2.3884
  54   0.0000       0.094923         2.5830
  55   0.0000       0.103501         2.8164

MULLIKEN ATOMIC CHARGES
-----------------------
   0 C :    0.282033
   1 C :   -0.250923
   2 C :   -0.300560
   3 C :    0.000181
   4 O :   -0.503549
   5 H :    0.134812
   6 H :    0.139733
   7 H :    0.146103
   8 H :    0.138447
   9 H :    0.169116
  10 H :    0.153979
  11 H :    0.137835
  12 C :   -0.012044
  13 H :    0.131702
  14 H :    0.125030
  15 O :   -0.506484
  16 C :    0.097219
  17 C :    0.079862
  18 C :   -0.325606
  19 C :   -0.008278
  20 O :   -0.502114
  21 H :    0.160406
  22 H :    0.168763
  23 O :   -0.600368
  24 H :    0.156397
  25 H :    0.135263
  26 H :    0.149001
  27 H :    0.148454
  28 H :    0.355593
Sum of atomic charges:   -0.0000000

LOEWDIN ATOMIC CHARGES
----------------------
   0 C :    0.174879
   1 C :   -0.220643
   2 C :   -0.216475
   3 C :   -0.025902
   4 O :   -0.317995
   5 H :    0.096532
   6 H :    0.110730
   7 H :    0.118208
   8 H :    0.112642
   9 H :    0.122691
  10 H :    0.109148
  11 H :    0.100242
  12 C :   -0.048948
  13 H :    0.095695
  14 H :    0.090254
  15 O :   -0.321463
  16 C :    0.022626
  17 C :    0.034338
  18 C :   -0.241766
  19 C :   -0.028893
  20 O :   -0.310937
  21 H :    0.118554
  22 H :    0.119768
  23 O :   -0.408512
  24 H :    0.122099
  25 H :    0.104335
  26 H :    0.105528
  27 H :    0.105526
  28 H :    0.277738

  Mayer bond orders larger than 0.100000
B(  0-C ,  1-C ) :   0.9417 B(  0-C ,  4-O ) :   0.9308 B(  0-C ,  5-H ) :   0.9195
B(  0-C , 15-O ) :   0.8461 B(  1-C ,  2-C ) :   0.9576 B(  1-C ,  6-H ) :   0.9373
B(  1-C ,  7-H ) :   0.9385 B(  2-C ,  3-C ) :   0.9548 B(  2-C ,  8-H ) :   0.9453
B(  2-C ,  9-H ) :   0.9421 B(  3-C ,  4-O ) :   0.8372 B(  3-C , 10-H ) :   0.9345
B(  3-C , 11-H ) :   0.9400 B( 12-C , 13-H ) :   0.9027 B( 12-C , 14-H ) :   0.9158
B( 12-C , 15-O ) :   0.8490 B( 12-C , 16-C ) :   0.9078 B( 16-C , 17-C ) :   0.8721
B( 16-C , 20-O ) :   0.8766 B( 16-C , 21-H ) :   0.9295 B( 17-C , 18-C ) :   0.9265
B( 17-C , 22-H ) :   0.9333 B( 17-C , 23-O ) :   0.8936 B( 18-C , 19-C ) :   0.9376
B( 18-C , 24-H ) :   0.9424 B( 18-C , 25-H ) :   0.9398 B( 19-C , 20-O ) :   0.8504
B( 19-C , 26-H ) :   0.9311 B( 19-C , 27-H ) :   0.9378 B( 23-O , 28-H ) :   0.7993

FINAL SINGLE POINT ENERGY      -652.855679539320

DIPOLE MOMENT
-------------
                                X             Y             Z
Electronic contribution:     -1.39135      -0.93463      -0.60144
Nuclear contribution   :      1.50923       0.50973       0.24484
                        -----------------------------------------
Total Dipole Moment    :      0.11788      -0.42491      -0.35660
                        -----------------------------------------
Magnitude (a.u.)       :      0.56710
Magnitude (Debye)      :      1.44146

Rotational constants in cm-1:     0.056767     0.012035     0.011117
Rotational constants in MHz :  1701.824880   360.799004   333.271634

                             ****ORCA TERMINATED NORMALLY****
TOTAL RUN TIME: 0 days 0 hours 25 minutes 59 seconds 32 msec
