                         Program Version 4.2.1 -  RELEASE  -
|  1> # Test redundant internal optimization
|  2> #
|  3> ! RKS B3LYP  Opt TightSCF SmallPrint
|  4>
|  5> %basis
|  6>         Basis "6-31G"
|  7> end
|  8>
|  9> %geom
| 10> Constraints
| 11> { D 4  0  19  14  210.0   C } # D for Dihedral angle
| 12> { D 0  19  14  12  315.0   C } # D for Dihedral angle
| 13> { D 0  4  3  2   C } # D for Dihedral angle
| 14> { D 4  3  2  1   C } # D for Dihedral angle
| 15> { D 3  2  1  0   C } # D for Dihedral angle
| 16> { D 2  1  0  4   C } # D for Dihedral angle
| 17> { D 1  0  4  3   C } # D for Dihedral angle
| 18> { D 14  15  16  17   C } # D for Dihedral angle
| 19> { D 15  16  17  12   C } # D for Dihedral angle
| 20> { D 16  17  12  14   C } # D for Dihedral angle
| 21> { D 17  12  14  15   C } # D for Dihedral angle
| 22> { D 12  14  15  16   C } # D for Dihedral angle
| 23> end
| 24> end
| 25>
| 26>
| 27> #%pal
| 28> #nprocs 8
| 29> #end
| 30>
| 31> * xyz 0 1
| 32> C  -21.048   26.222   46.251
| 33> C  -20.361   27.558   45.944
| 34> C  -20.329   28.222   47.341
| 35> C  -20.110   27.022   48.296
| 36> O  -20.473   25.807   47.535
| 37> H  -20.833   25.428   45.533
| 38> H  -19.344   27.382   45.576
| 39> H  -20.898   28.157   45.201
| 40> H  -19.543   28.978   47.434
| 41> H  -21.289   28.710   47.548
| 42> H  -20.733   27.082   49.195
| 43> H  -19.064   26.913   48.597
| 44> C  -22.501   26.786   43.966
| 45> H  -23.169   26.849   43.093
| 46> C  -23.197   26.114   45.155
| 47> C  -23.095   24.619   44.775
| 48> C  -21.723   24.530   44.061
| 49> O  -21.359   25.911   43.675
| 50> H  -22.096   27.777   44.179
| 51> O  -22.472   26.381   46.366
| 52> H  -24.232   26.448   45.291
| 53> H  -23.159   23.954   45.642
| 54> H  -23.906   24.348   44.087
| 55> H  -21.756   23.903   43.163
| 56> H  -20.932   24.161   44.721
| 57> *
| 58>
| 59>                          ****END OF INPUT****
 Total Charge           Charge          ....    0
 Multiplicity           Mult            ....    1
 Number of Electrons    NEL             ....   86
FINAL SINGLE POINT ENERGY      -538.401877207856
FINAL SINGLE POINT ENERGY      -538.425717489697
FINAL SINGLE POINT ENERGY      -538.428143925112
FINAL SINGLE POINT ENERGY      -538.428550034114
FINAL SINGLE POINT ENERGY      -538.428618624977
FINAL SINGLE POINT ENERGY      -538.428634861807
FINAL SINGLE POINT ENERGY      -538.428635306192
                    ***********************HURRAY********************

CARTESIAN COORDINATES (ANGSTROEM)
---------------------------------
  C    -20.785547   26.267610   46.290008
  C    -20.151339   27.642464   46.080708
  C    -20.352178   28.305458   47.467414
  C    -20.190206   27.115356   48.437532
  O    -20.373558   25.895193   47.614584
  H    -20.444056   25.495933   45.602016
  H    -19.084430   27.512227   45.862648
  H    -20.600452   28.209658   45.264718
  H    -19.631353   29.105229   47.660522
  H    -21.362053   28.720801   47.533469
  H    -20.932321   27.109950   49.240323
  H    -19.187045   27.054336   48.870818
  C    -22.584205   26.694974   43.813253
  H    -23.428252   26.774829   43.112535
  C    -23.059393   26.079253   45.133269
  C    -23.128719   24.582289   44.768438
  C    -21.946263   24.389936   43.789619
  O    -21.580516   25.749457   43.304666
  H    -22.107719   27.669946   43.910522
  O    -22.246500   26.357272   46.310320
  H    -24.040443   26.463919   45.424830
  H    -23.053577   23.960689   45.663610
  H    -24.084321   24.368972   44.276387
  H    -22.206877   23.772976   42.923320
  H    -21.060677   23.963274   44.269471

 Multiplicity           Mult            ....    1
 Number of Electrons    NEL             ....   86
 Basis Dimension        Dim             ....  127

ORBITAL ENERGIES
----------------

  NO   OCC          E(Eh)            E(eV)
   0   2.0000     -19.139865      -520.8222
   1   2.0000     -19.135138      -520.6936
   2   2.0000     -19.133930      -520.6607
   3   2.0000     -10.273016      -279.5430
   4   2.0000     -10.242462      -278.7115
   5   2.0000     -10.229127      -278.3487
   6   2.0000     -10.228064      -278.3198
   7   2.0000     -10.219782      -278.0944
   8   2.0000     -10.186925      -277.2003
   9   2.0000     -10.180911      -277.0367
  10   2.0000     -10.179789      -277.0061
  11   2.0000      -1.047363       -28.5002
  12   2.0000      -1.019041       -27.7295
  13   2.0000      -0.984957       -26.8020
  14   2.0000      -0.787222       -21.4214
  15   2.0000      -0.776110       -21.1190
  16   2.0000      -0.744396       -20.2560
  17   2.0000      -0.722378       -19.6569
  18   2.0000      -0.616815       -16.7844
  19   2.0000      -0.604790       -16.4572
  20   2.0000      -0.593012       -16.1367
  21   2.0000      -0.566548       -15.4166
  22   2.0000      -0.520740       -14.1701
  23   2.0000      -0.503986       -13.7142
  24   2.0000      -0.483039       -13.1442
  25   2.0000      -0.478855       -13.0303
  26   2.0000      -0.451362       -12.2822
  27   2.0000      -0.443496       -12.0681
  28   2.0000      -0.429892       -11.6980
  29   2.0000      -0.412549       -11.2260
  30   2.0000      -0.402927       -10.9642
  31   2.0000      -0.395011       -10.7488
  32   2.0000      -0.376677       -10.2499
  33   2.0000      -0.366586        -9.9753
  34   2.0000      -0.357584        -9.7303
  35   2.0000      -0.350055        -9.5255
  36   2.0000      -0.345730        -9.4078
  37   2.0000      -0.319705        -8.6996
  38   2.0000      -0.305724        -8.3192
  39   2.0000      -0.292114        -7.9488
  40   2.0000      -0.261682        -7.1207
  41   2.0000      -0.249007        -6.7758
  42   2.0000      -0.238221        -6.4823
  43   0.0000       0.074184         2.0186
  44   0.0000       0.088793         2.4162
  45   0.0000       0.100403         2.7321
  46   0.0000       0.104058         2.8315
  47   0.0000       0.112094         3.0502

MULLIKEN ATOMIC CHARGES
-----------------------
   0 C :    0.287246
   1 C :   -0.259944
   2 C :   -0.299238
   3 C :   -0.000204
   4 O :   -0.504426
   5 H :    0.161586
   6 H :    0.146528
   7 H :    0.143569
   8 H :    0.138964
   9 H :    0.157760
  10 H :    0.151164
  11 H :    0.139432
  12 C :   -0.034170
  13 H :    0.137369
  14 C :    0.084486
  15 C :   -0.291525
  16 C :   -0.029011
  17 O :   -0.525726
  18 H :    0.158460
  19 O :   -0.522809
  20 H :    0.148921
  21 H :    0.172785
  22 H :    0.142278
  23 H :    0.145891
  24 H :    0.150615
Sum of atomic charges:    0.0000000

LOEWDIN ATOMIC CHARGES
----------------------
   0 C :    0.178888
   1 C :   -0.222182
   2 C :   -0.218027
   3 C :   -0.025993
   4 O :   -0.308600
   5 H :    0.107363
   6 H :    0.114971
   7 H :    0.113259
   8 H :    0.112903
   9 H :    0.116929
  10 H :    0.107354
  11 H :    0.100851
  12 C :   -0.054499
  13 H :    0.099439
  14 C :    0.042448
  15 C :   -0.236487
  16 C :   -0.038429
  17 O :   -0.339143
  18 H :    0.113691
  19 O :   -0.331928
  20 H :    0.114250
  21 H :    0.131861
  22 H :    0.115180
  23 H :    0.103464
  24 H :    0.102435

  Mayer bond orders larger than 0.100000
B(  0-C ,  1-C ) :   0.9353 B(  0-C ,  4-O ) :   0.9262 B(  0-C ,  5-H ) :   0.9056
B(  0-C , 19-O ) :   0.8179 B(  1-C ,  2-C ) :   0.9525 B(  1-C ,  6-H ) :   0.9347
B(  1-C ,  7-H ) :   0.9321 B(  2-C ,  3-C ) :   0.9543 B(  2-C ,  8-H ) :   0.9453
B(  2-C ,  9-H ) :   0.9441 B(  3-C ,  4-O ) :   0.8372 B(  3-C , 10-H ) :   0.9351
B(  3-C , 11-H ) :   0.9399 B( 12-C , 13-H ) :   0.9133 B( 12-C , 14-C ) :   0.9174
B( 12-C , 17-O ) :   0.8557 B( 12-C , 18-H ) :   0.9245 B( 14-C , 15-C ) :   0.9207
B( 14-C , 19-O ) :   0.8855 B( 14-C , 20-H ) :   0.9363 B( 15-C , 16-C ) :   0.9471
B( 15-C , 21-H ) :   0.9346 B( 15-C , 22-H ) :   0.9394 B( 16-C , 17-O ) :   0.8446
B( 16-C , 23-H ) :   0.9351 B( 16-C , 24-H ) :   0.9295

FINAL SINGLE POINT ENERGY      -538.428635747183

DIPOLE MOMENT
-------------
                                X             Y             Z
Electronic contribution:     -0.06421      -1.78116       0.28870
Nuclear contribution   :     -0.38766       2.19961      -0.50899
                        -----------------------------------------
Total Dipole Moment    :     -0.45187       0.41846      -0.22029
                        -----------------------------------------
Magnitude (a.u.)       :      0.65408
Magnitude (Debye)      :      1.66254

Rotational constants in cm-1:     0.078403     0.022961     0.021702
Rotational constants in MHz :  2350.454029   688.363677   650.612207

                             ****ORCA TERMINATED NORMALLY****
TOTAL RUN TIME: 0 days 0 hours 9 minutes 38 seconds 486 msec
