                         Program Version 4.2.0 -  RELEASE  -
|  1> # Test redundant internal optimization
|  2> #
|  3> ! RKS B3LYP  Opt TightSCF SmallPrint
|  4>
|  5> %basis
|  6>         Basis "6-31G"
|  7> end
|  8>
|  9> %geom
| 10> Constraints
| 11> { D 4  0  15  12  150.0   C } # D for Dihedral angle
| 12> { D 0  15  12  16  180.0   C } # D for Dihedral angle
| 13> { D 0  4  3  2   C } # D for Dihedral angle
| 14> { D 4  3  2  1   C } # D for Dihedral angle
| 15> { D 3  2  1  0   C } # D for Dihedral angle
| 16> { D 2  1  0  4   C } # D for Dihedral angle
| 17> { D 1  0  4  3   C } # D for Dihedral angle
| 18> { D 16  20  19  18   C } # D for Dihedral angle
| 19> { D 20  19  18  17   C } # D for Dihedral angle
| 20> { D 19  18  17  16   C } # D for Dihedral angle
| 21> { D 18  17  16  20   C } # D for Dihedral angle
| 22> { D 17  16  20  19   C } # D for Dihedral angle
| 23> { D 15  12  16  20   C } # D for Dihedral angle
| 24> end
| 25> end
| 26>
| 27>
| 28> #%pal
| 29> #nprocs 8
| 30> #end
| 31>
| 32> * xyz 0 1
| 33> C  -21.048   26.222   46.251
| 34> C  -20.361   27.558   45.944
| 35> C  -20.329   28.222   47.341
| 36> C  -20.110   27.022   48.296
| 37> O  -20.473   25.807   47.535
| 38> H  -20.833   25.428   45.533
| 39> H  -19.344   27.382   45.576
| 40> H  -20.898   28.157   45.201
| 41> H  -19.543   28.978   47.434
| 42> H  -21.289   28.710   47.548
| 43> H  -20.733   27.082   49.195
| 44> H  -19.064   26.913   48.597
| 45> C  -23.210   27.459   45.431
| 46> H  -22.759   28.437   45.641
| 47> H  -23.010   27.206   44.382
| 48> O  -22.586   26.394   46.375
| 49> C  -24.749   27.584   45.602
| 50> C  -25.443   26.230   45.412
| 51> C  -25.191   25.555   46.782
| 52> C  -25.260   26.740   47.777
| 53> O  -25.083   27.972   46.976
| 54> H  -25.118   28.376   44.948
| 55> H  -26.515   26.378   45.245
| 56> O  -24.869   25.412   44.223
| 57> H  -25.924   24.774   47.011
| 58> H  -24.196   25.095   46.798
| 59> H  -24.477   26.693   48.541
| 60> H  -26.233   26.815   48.271
| 61> H  -23.796   25.252   44.370
| 62> *
| 63>
| 64>                          ****END OF INPUT****
 Total Charge           Charge          ....    0
 Multiplicity           Mult            ....    1
 Number of Electrons    NEL             ....  102
FINAL SINGLE POINT ENERGY      -652.828076589033
FINAL SINGLE POINT ENERGY      -652.851487122203
FINAL SINGLE POINT ENERGY      -652.856512589535
FINAL SINGLE POINT ENERGY      -652.858193400120
FINAL SINGLE POINT ENERGY      -652.858371067885
FINAL SINGLE POINT ENERGY      -652.858398762387
                    ***********************HURRAY********************

CARTESIAN COORDINATES (ANGSTROEM)
---------------------------------
  C    -21.079071   26.306957   46.198665
  C    -20.259796   27.568190   45.926709
  C    -20.279317   28.270254   47.308753
  C    -20.241402   27.082636   48.292954
  O    -20.652881   25.892659   47.504036
  H    -20.886066   25.473111   45.517971
  H    -19.240676   27.262701   45.664080
  H    -20.639418   28.193000   45.115127
  H    -19.432233   28.949676   47.442091
  H    -21.202712   28.846131   47.430864
  H    -20.928601   27.198384   49.134325
  H    -19.236037   26.873721   48.669368
  C    -23.155055   27.514109   45.407672
  H    -22.756532   28.514369   45.615356
  H    -22.989685   27.281821   44.344965
  O    -22.525017   26.524571   46.268374
  C    -24.657800   27.545698   45.673899
  C    -25.404625   26.223113   45.427960
  C    -25.200042   25.481536   46.785261
  C    -25.237965   26.635105   47.809322
  O    -24.997837   27.888878   47.046314
  H    -25.066388   28.348354   45.047433
  H    -26.461155   26.423871   45.237921
  O    -24.942848   25.488427   44.267233
  H    -25.977692   24.732737   46.964650
  H    -24.220103   25.000148   46.784572
  H    -24.463748   26.539802   48.575337
  H    -26.215814   26.741693   48.289049
  H    -24.093484   25.051347   44.485737

 Multiplicity           Mult            ....    1
 Number of Electrons    NEL             ....  102
 Basis Dimension        Dim             ....  149

ORBITAL ENERGIES
----------------

  NO   OCC          E(Eh)            E(eV)
   0   2.0000     -19.147661      -521.0344
   1   2.0000     -19.145366      -520.9719
   2   2.0000     -19.137872      -520.7680
   3   2.0000     -19.130907      -520.5784
   4   2.0000     -10.287465      -279.9361
   5   2.0000     -10.233663      -278.4721
   6   2.0000     -10.233367      -278.4641
   7   2.0000     -10.230012      -278.3728
   8   2.0000     -10.229448      -278.3574
   9   2.0000     -10.217215      -278.0245
  10   2.0000     -10.196333      -277.4563
  11   2.0000     -10.193850      -277.3888
  12   2.0000     -10.174293      -276.8566
  13   2.0000      -1.058412       -28.8009
  14   2.0000      -1.025106       -27.8946
  15   2.0000      -1.007411       -27.4131
  16   2.0000      -0.996112       -27.1056
  17   2.0000      -0.793515       -21.5926
  18   2.0000      -0.772970       -21.0336
  19   2.0000      -0.762961       -20.7612
  20   2.0000      -0.735493       -20.0138
  21   2.0000      -0.679677       -18.4950
  22   2.0000      -0.608119       -16.5477
  23   2.0000      -0.599131       -16.3032
  24   2.0000      -0.597068       -16.2471
  25   2.0000      -0.562675       -15.3112
  26   2.0000      -0.531162       -14.4537
  27   2.0000      -0.507715       -13.8156
  28   2.0000      -0.503167       -13.6919
  29   2.0000      -0.487969       -13.2783
  30   2.0000      -0.472842       -12.8667
  31   2.0000      -0.457776       -12.4567
  32   2.0000      -0.449060       -12.2195
  33   2.0000      -0.426322       -11.6008
  34   2.0000      -0.420793       -11.4504
  35   2.0000      -0.416388       -11.3305
  36   2.0000      -0.400524       -10.8988
  37   2.0000      -0.398523       -10.8444
  38   2.0000      -0.386393       -10.5143
  39   2.0000      -0.367032        -9.9874
  40   2.0000      -0.363833        -9.9004
  41   2.0000      -0.358139        -9.7455
  42   2.0000      -0.349386        -9.5073
  43   2.0000      -0.324328        -8.8254
  44   2.0000      -0.315351        -8.5811
  45   2.0000      -0.306448        -8.3389
  46   2.0000      -0.301046        -8.1919
  47   2.0000      -0.271421        -7.3857
  48   2.0000      -0.259336        -7.0569
  49   2.0000      -0.257319        -7.0020
  50   2.0000      -0.236838        -6.4447
  51   0.0000       0.062124         1.6905
  52   0.0000       0.082792         2.2529
  53   0.0000       0.094027         2.5586
  54   0.0000       0.096385         2.6228
  55   0.0000       0.106023         2.8850

MULLIKEN ATOMIC CHARGES
-----------------------
   0 C :    0.319420
   1 C :   -0.298698
   2 C :   -0.303459
   3 C :   -0.002120
   4 O :   -0.499458
   5 H :    0.145237
   6 H :    0.154385
   7 H :    0.148198
   8 H :    0.146829
   9 H :    0.166115
  10 H :    0.156766
  11 H :    0.144762
  12 C :   -0.013034
  13 H :    0.140679
  14 H :    0.133248
  15 O :   -0.538393
  16 C :    0.087386
  17 C :    0.084154
  18 C :   -0.314824
  19 C :   -0.000916
  20 O :   -0.523815
  21 H :    0.148135
  22 H :    0.161326
  23 O :   -0.608474
  24 H :    0.142116
  25 H :    0.174869
  26 H :    0.151379
  27 H :    0.137122
  28 H :    0.361064
Sum of atomic charges:   -0.0000000

LOEWDIN ATOMIC CHARGES
----------------------
   0 C :    0.183048
   1 C :   -0.233137
   2 C :   -0.217367
   3 C :   -0.025650
   4 O :   -0.306546
   5 H :    0.098909
   6 H :    0.120675
   7 H :    0.116490
   8 H :    0.116840
   9 H :    0.118595
  10 H :    0.110548
  11 H :    0.104202
  12 C :   -0.049316
  13 H :    0.100215
  14 H :    0.096163
  15 O :   -0.343121
  16 C :    0.020357
  17 C :    0.036945
  18 C :   -0.243255
  19 C :   -0.023574
  20 O :   -0.324579
  21 H :    0.113205
  22 H :    0.115563
  23 O :   -0.413214
  24 H :    0.113804
  25 H :    0.126551
  26 H :    0.107844
  27 H :    0.099121
  28 H :    0.280685

  Mayer bond orders larger than 0.100000
B(  0-C ,  1-C ) :   0.9344 B(  0-C ,  4-O ) :   0.9402 B(  0-C ,  5-H ) :   0.9257
B(  0-C , 15-O ) :   0.8273 B(  1-C ,  2-C ) :   0.9496 B(  1-C ,  6-H ) :   0.9335
B(  1-C ,  7-H ) :   0.9273 B(  2-C ,  3-C ) :   0.9540 B(  2-C ,  8-H ) :   0.9449
B(  2-C ,  9-H ) :   0.9403 B(  3-C ,  4-O ) :   0.8328 B(  3-C , 10-H ) :   0.9340
B(  3-C , 11-H ) :   0.9397 B( 12-C , 13-H ) :   0.9109 B( 12-C , 14-H ) :   0.9030
B( 12-C , 15-O ) :   0.8315 B( 12-C , 16-C ) :   0.9086 B( 16-C , 17-C ) :   0.8875
B( 16-C , 20-O ) :   0.8851 B( 16-C , 21-H ) :   0.9290 B( 17-C , 18-C ) :   0.9349
B( 17-C , 22-H ) :   0.9354 B( 17-C , 23-O ) :   0.8979 B( 18-C , 19-C ) :   0.9475
B( 18-C , 24-H ) :   0.9408 B( 18-C , 25-H ) :   0.9231 B( 19-C , 20-O ) :   0.8342
B( 19-C , 26-H ) :   0.9319 B( 19-C , 27-H ) :   0.9385 B( 23-O , 28-H ) :   0.7945

FINAL SINGLE POINT ENERGY      -652.858399799835

DIPOLE MOMENT
-------------
                                X             Y             Z
Electronic contribution:     -2.59313      -2.19778      -1.16687
Nuclear contribution   :      3.58083       2.66258       1.11223
                        -----------------------------------------
Total Dipole Moment    :      0.98770       0.46480      -0.05464
                        -----------------------------------------
Magnitude (a.u.)       :      1.09297
Magnitude (Debye)      :      2.77811

Rotational constants in cm-1:     0.047471     0.015995     0.015029
Rotational constants in MHz :  1423.147474   479.510321   450.554519

                             ****ORCA TERMINATED NORMALLY****
TOTAL RUN TIME: 0 days 0 hours 16 minutes 31 seconds 775 msec
