                         Program Version 4.2.0 -  RELEASE  -
|  1> # Test redundant internal optimization
|  2> #
|  3> ! RKS B3LYP  Opt TightSCF SmallPrint
|  4>
|  5> %basis
|  6>         Basis "6-31G"
|  7> end
|  8>
|  9> %geom
| 10> Constraints
| 11> { D 4  0  15  12  15.0   C } # D for Dihedral angle
| 12> { D 0  15  12  16  135.0   C } # D for Dihedral angle
| 13> { D 0  4  3  2   C } # D for Dihedral angle
| 14> { D 4  3  2  1   C } # D for Dihedral angle
| 15> { D 3  2  1  0   C } # D for Dihedral angle
| 16> { D 2  1  0  4   C } # D for Dihedral angle
| 17> { D 1  0  4  3   C } # D for Dihedral angle
| 18> { D 16  20  19  18   C } # D for Dihedral angle
| 19> { D 20  19  18  17   C } # D for Dihedral angle
| 20> { D 19  18  17  16   C } # D for Dihedral angle
| 21> { D 18  17  16  20   C } # D for Dihedral angle
| 22> { D 17  16  20  19   C } # D for Dihedral angle
| 23> { D 15  12  16  20   C } # D for Dihedral angle
| 24> end
| 25> end
| 26>
| 27>
| 28> #%pal
| 29> #nprocs 8
| 30> #end
| 31>
| 32> * xyz 0 1
| 33> C  -21.048   26.222   46.251
| 34> C  -20.361   27.558   45.944
| 35> C  -20.329   28.222   47.341
| 36> C  -20.110   27.022   48.296
| 37> O  -20.473   25.807   47.535
| 38> H  -20.833   25.428   45.533
| 39> H  -19.344   27.382   45.576
| 40> H  -20.898   28.157   45.201
| 41> H  -19.543   28.978   47.434
| 42> H  -21.289   28.710   47.548
| 43> H  -20.733   27.082   49.195
| 44> H  -19.064   26.913   48.597
| 45> C  -23.128   26.462   47.829
| 46> H  -23.606   25.508   48.082
| 47> H  -22.307   26.632   48.537
| 48> O  -22.586   26.394   46.375
| 49> C  -24.168   27.599   48.030
| 50> C  -24.594   27.711   49.498
| 51> C  -23.402   28.484   50.112
| 52> C  -22.981   29.445   48.972
| 53> O  -23.568   28.902   47.727
| 54> H  -24.994   27.456   47.329
| 55> H  -25.517   28.296   49.579
| 56> O  -24.828   26.332   50.172
| 57> H  -23.669   29.017   51.030
| 58> H  -22.587   27.790   50.352
| 59> H  -21.893   29.509   48.857
| 60> H  -23.384   30.453   49.106
| 61> H  -23.917   25.728   50.105
| 62> *
| 63>
| 64>                          ****END OF INPUT****
 Total Charge           Charge          ....    0
 Multiplicity           Mult            ....    1
 Number of Electrons    NEL             ....  102
FINAL SINGLE POINT ENERGY      -652.815065860278
FINAL SINGLE POINT ENERGY      -652.838958119615
FINAL SINGLE POINT ENERGY      -652.850563556509
FINAL SINGLE POINT ENERGY      -652.852618761803
FINAL SINGLE POINT ENERGY      -652.853022857733
FINAL SINGLE POINT ENERGY      -652.853116432430
FINAL SINGLE POINT ENERGY      -652.853122911576
FINAL SINGLE POINT ENERGY      -652.853122639035
                    ***********************HURRAY********************

CARTESIAN COORDINATES (ANGSTROEM)
---------------------------------
  C    -21.094771   26.264466   46.297760
  C    -20.417373   27.573559   45.888123
  C    -20.053240   28.184587   47.261795
  C    -19.703357   26.946296   48.116790
  O    -20.296770   25.780665   47.402721
  H    -21.047273   25.489835   45.528626
  H    -19.521020   27.343831   45.300326
  H    -21.083541   28.210227   45.302808
  H    -19.222776   28.894904   47.205040
  H    -20.930222   28.704115   47.654463
  H    -20.110176   26.987019   49.132691
  H    -18.626748   26.759076   48.174551
  C    -23.049491   26.415323   47.919018
  H    -23.573828   25.465392   48.088979
  H    -22.245068   26.490321   48.659628
  O    -22.511770   26.415177   46.574100
  C    -24.059165   27.555230   48.052237
  C    -24.724465   27.681226   49.434380
  C    -23.685677   28.546712   50.208288
  C    -23.144916   29.495158   49.118375
  O    -23.493614   28.882000   47.805539
  H    -24.804244   27.417981   47.262605
  H    -25.668715   28.220047   49.333409
  O    -25.085320   26.436166   50.076453
  H    -24.134566   29.077200   51.052194
  H    -22.893003   27.896009   50.601897
  H    -22.060906   29.635992   49.174326
  H    -23.626695   30.476353   49.144803
  H    -24.285291   25.954133   50.371076

 Multiplicity           Mult            ....    1
 Number of Electrons    NEL             ....  102
 Basis Dimension        Dim             ....  149

ORBITAL ENERGIES
----------------

  NO   OCC          E(Eh)            E(eV)
   0   2.0000     -19.151740      -521.1453
   1   2.0000     -19.148888      -521.0677
   2   2.0000     -19.144644      -520.9522
   3   2.0000     -19.133378      -520.6457
   4   2.0000     -10.276304      -279.6324
   5   2.0000     -10.247772      -278.8561
   6   2.0000     -10.235578      -278.5242
   7   2.0000     -10.232778      -278.4480
   8   2.0000     -10.230668      -278.3906
   9   2.0000     -10.230423      -278.3840
  10   2.0000     -10.199020      -277.5294
  11   2.0000     -10.185597      -277.1642
  12   2.0000     -10.179824      -277.0071
  13   2.0000      -1.051763       -28.6199
  14   2.0000      -1.035973       -28.1903
  15   2.0000      -1.018817       -27.7234
  16   2.0000      -0.990573       -26.9549
  17   2.0000      -0.788339       -21.4518
  18   2.0000      -0.784870       -21.3574
  19   2.0000      -0.771235       -20.9864
  20   2.0000      -0.734140       -19.9770
  21   2.0000      -0.681463       -18.5436
  22   2.0000      -0.615020       -16.7355
  23   2.0000      -0.602115       -16.3844
  24   2.0000      -0.593839       -16.1592
  25   2.0000      -0.572699       -15.5839
  26   2.0000      -0.529299       -14.4030
  27   2.0000      -0.514107       -13.9895
  28   2.0000      -0.501244       -13.6395
  29   2.0000      -0.491547       -13.3757
  30   2.0000      -0.470555       -12.8045
  31   2.0000      -0.460579       -12.5330
  32   2.0000      -0.447307       -12.1718
  33   2.0000      -0.438833       -11.9413
  34   2.0000      -0.430757       -11.7215
  35   2.0000      -0.415927       -11.3179
  36   2.0000      -0.407321       -11.0838
  37   2.0000      -0.397926       -10.8281
  38   2.0000      -0.383764       -10.4427
  39   2.0000      -0.369300       -10.0492
  40   2.0000      -0.359863        -9.7924
  41   2.0000      -0.355701        -9.6791
  42   2.0000      -0.343139        -9.3373
  43   2.0000      -0.338236        -9.2039
  44   2.0000      -0.325262        -8.8508
  45   2.0000      -0.316598        -8.6151
  46   2.0000      -0.305216        -8.3053
  47   2.0000      -0.273492        -7.4421
  48   2.0000      -0.263775        -7.1777
  49   2.0000      -0.256371        -6.9762
  50   2.0000      -0.235744        -6.4149
  51   0.0000       0.045677         1.2429
  52   0.0000       0.057259         1.5581
  53   0.0000       0.087574         2.3830
  54   0.0000       0.090040         2.4501
  55   0.0000       0.101357         2.7581

MULLIKEN ATOMIC CHARGES
-----------------------
   0 C :    0.301468
   1 C :   -0.253593
   2 C :   -0.332334
   3 C :   -0.023298
   4 O :   -0.512242
   5 H :    0.159060
   6 H :    0.141494
   7 H :    0.169233
   8 H :    0.143028
   9 H :    0.184717
  10 H :    0.131932
  11 H :    0.151804
  12 C :   -0.011140
  13 H :    0.142681
  14 H :    0.129441
  15 O :   -0.534068
  16 C :    0.098184
  17 C :    0.082103
  18 C :   -0.316621
  19 C :   -0.017031
  20 O :   -0.509045
  21 H :    0.168772
  22 H :    0.171464
  23 O :   -0.598370
  24 H :    0.157584
  25 H :    0.130860
  26 H :    0.132800
  27 H :    0.153565
  28 H :    0.357555
Sum of atomic charges:   -0.0000000

LOEWDIN ATOMIC CHARGES
----------------------
   0 C :    0.186040
   1 C :   -0.221111
   2 C :   -0.228131
   3 C :   -0.035578
   4 O :   -0.321338
   5 H :    0.106636
   6 H :    0.112333
   7 H :    0.130607
   8 H :    0.115983
   9 H :    0.124581
  10 H :    0.093530
  11 H :    0.106512
  12 C :   -0.043939
  13 H :    0.104753
  14 H :    0.095367
  15 O :   -0.330654
  16 C :    0.015740
  17 C :    0.035346
  18 C :   -0.240143
  19 C :   -0.033950
  20 O :   -0.318201
  21 H :    0.121008
  22 H :    0.120936
  23 O :   -0.404790
  24 H :    0.123283
  25 H :    0.102807
  26 H :    0.095733
  27 H :    0.107780
  28 H :    0.278861

  Mayer bond orders larger than 0.100000
B(  0-C ,  1-C ) :   0.9222 B(  0-C ,  4-O ) :   0.9096 B(  0-C ,  5-H ) :   0.9328
B(  0-C , 15-O ) :   0.8577 B(  1-C ,  2-C ) :   0.9547 B(  1-C ,  6-H ) :   0.9354
B(  1-C ,  7-H ) :   0.9337 B(  2-C ,  3-C ) :   0.9527 B(  2-C ,  8-H ) :   0.9449
B(  2-C ,  9-H ) :   0.9166 B(  3-C ,  4-O ) :   0.8336 B(  3-C , 10-H ) :   0.9305
B(  3-C , 11-H ) :   0.9398 B( 12-C , 13-H ) :   0.9132 B( 12-C , 14-H ) :   0.9131
B( 12-C , 15-O ) :   0.8429 B( 12-C , 16-C ) :   0.9003 B( 16-C , 17-C ) :   0.8735
B( 16-C , 20-O ) :   0.8600 B( 16-C , 21-H ) :   0.9276 B( 17-C , 18-C ) :   0.9203
B( 17-C , 22-H ) :   0.9321 B( 17-C , 23-O ) :   0.8998 B( 18-C , 19-C ) :   0.9405
B( 18-C , 24-H ) :   0.9422 B( 18-C , 25-H ) :   0.9420 B( 19-C , 20-O ) :   0.8501
B( 19-C , 26-H ) :   0.9228 B( 19-C , 27-H ) :   0.9387 B( 23-O , 28-H ) :   0.7972

FINAL SINGLE POINT ENERGY      -652.853121420431

DIPOLE MOMENT
-------------
                                X             Y             Z
Electronic contribution:     -3.70574      -3.83871      -2.40506
Nuclear contribution   :      4.57478       4.62134       3.31248
                        -----------------------------------------
Total Dipole Moment    :      0.86904       0.78263       0.90742
                        -----------------------------------------
Magnitude (a.u.)       :      1.48025
Magnitude (Debye)      :      3.76250

Rotational constants in cm-1:     0.045113     0.016964     0.015529
Rotational constants in MHz :  1352.449593   508.567751   465.557125

                             ****ORCA TERMINATED NORMALLY****
TOTAL RUN TIME: 0 days 2 hours 2 minutes 13 seconds 268 msec
