                         Program Version 4.2.0 -  RELEASE  -
|  1> # Test redundant internal optimization
|  2> #
|  3> ! RKS B3LYP  Opt TightSCF SmallPrint
|  4>
|  5> %basis
|  6>         Basis "6-31G"
|  7> end
|  8>
|  9> %geom
| 10> Constraints
| 11> { D 4  0  15  12  15.0   C } # D for Dihedral angle
| 12> { D 0  15  12  16  195.0   C } # D for Dihedral angle
| 13> { D 0  4  3  2   C } # D for Dihedral angle
| 14> { D 4  3  2  1   C } # D for Dihedral angle
| 15> { D 3  2  1  0   C } # D for Dihedral angle
| 16> { D 2  1  0  4   C } # D for Dihedral angle
| 17> { D 1  0  4  3   C } # D for Dihedral angle
| 18> { D 16  20  19  18   C } # D for Dihedral angle
| 19> { D 20  19  18  17   C } # D for Dihedral angle
| 20> { D 19  18  17  16   C } # D for Dihedral angle
| 21> { D 18  17  16  20   C } # D for Dihedral angle
| 22> { D 17  16  20  19   C } # D for Dihedral angle
| 23> { D 15  12  16  20   C } # D for Dihedral angle
| 24> end
| 25> end
| 26>
| 27>
| 28> #%pal
| 29> #nprocs 8
| 30> #end
| 31>
| 32> * xyz 0 1
| 33> C  -21.048   26.222   46.251
| 34> C  -20.361   27.558   45.944
| 35> C  -20.329   28.222   47.341
| 36> C  -20.110   27.022   48.296
| 37> O  -20.473   25.807   47.535
| 38> H  -20.833   25.428   45.533
| 39> H  -19.344   27.382   45.576
| 40> H  -20.898   28.157   45.201
| 41> H  -19.543   28.978   47.434
| 42> H  -21.289   28.710   47.548
| 43> H  -20.733   27.082   49.195
| 44> H  -19.064   26.913   48.597
| 45> C  -23.128   26.462   47.829
| 46> H  -22.647   25.681   48.432
| 47> H  -22.895   27.435   48.280
| 48> O  -22.586   26.394   46.375
| 49> C  -24.667   26.261   47.907
| 50> C  -25.181   26.449   49.338
| 51> C  -25.222   27.991   49.457
| 52> C  -25.630   28.442   48.032
| 53> O  -25.359   27.298   47.135
| 54> H  -24.925   25.300   47.456
| 55> O  -26.608   25.851   49.475
| 56> H  -24.537   25.982   50.091
| 57> H  -25.923   28.340   50.222
| 58> H  -24.227   28.375   49.714
| 59> H  -25.057   29.311   47.687
| 60> H  -26.697   28.668   47.955
| 61> H  -27.270   26.305   48.730
| 62> *
| 63>
| 64>                          ****END OF INPUT****
 Total Charge           Charge          ....    0
 Multiplicity           Mult            ....    1
 Number of Electrons    NEL             ....  102
FINAL SINGLE POINT ENERGY      -652.828804912722
FINAL SINGLE POINT ENERGY      -652.851917101278
FINAL SINGLE POINT ENERGY      -652.856621221779
FINAL SINGLE POINT ENERGY      -652.857315562993
FINAL SINGLE POINT ENERGY      -652.857404284643
FINAL SINGLE POINT ENERGY      -652.857415121437
                    ***********************HURRAY********************

CARTESIAN COORDINATES (ANGSTROEM)
---------------------------------
  C    -21.177007   26.242168   46.378782
  C    -20.477163   27.532011   45.942874
  C    -20.171713   28.204396   47.304840
  C    -19.864726   27.001232   48.225933
  O    -20.429568   25.808417   47.537787
  H    -21.120838   25.432551   45.648857
  H    -19.551041   27.279504   45.413283
  H    -21.109607   28.138532   45.291434
  H    -19.332153   28.904257   47.250772
  H    -21.048485   28.758495   47.656062
  H    -20.319706   27.084295   49.217256
  H    -18.792519   26.816615   48.338454
  C    -23.085363   26.528094   47.980373
  H    -22.642495   25.733551   48.593048
  H    -22.822294   27.498468   48.427116
  O    -22.599717   26.443605   46.616788
  C    -24.600394   26.358070   47.930931
  C    -25.284680   26.463095   49.301034
  C    -25.423031   27.999723   49.468989
  C    -25.689898   28.484186   48.021706
  O    -25.255726   27.389374   47.122560
  H    -24.823570   25.403205   47.445167
  O    -26.582714   25.807902   49.282387
  H    -24.731781   25.986893   50.112301
  H    -26.235467   28.240632   50.158998
  H    -24.494349   28.423300   49.867262
  H    -25.136478   29.394142   47.770610
  H    -26.752865   28.660400   47.828307
  H    -27.028651   26.008889   48.432093

 Multiplicity           Mult            ....    1
 Number of Electrons    NEL             ....  102
 Basis Dimension        Dim             ....  149

ORBITAL ENERGIES
----------------

  NO   OCC          E(Eh)            E(eV)
   0   2.0000     -19.151121      -521.1285
   1   2.0000     -19.138476      -520.7844
   2   2.0000     -19.137413      -520.7555
   3   2.0000     -19.135985      -520.7166
   4   2.0000     -10.278281      -279.6862
   5   2.0000     -10.242082      -278.7012
   6   2.0000     -10.234897      -278.5057
   7   2.0000     -10.231867      -278.4233
   8   2.0000     -10.229928      -278.3705
   9   2.0000     -10.228972      -278.3445
  10   2.0000     -10.193923      -277.3907
  11   2.0000     -10.189279      -277.2644
  12   2.0000     -10.185713      -277.1673
  13   2.0000      -1.055546       -28.7229
  14   2.0000      -1.034915       -28.1615
  15   2.0000      -1.005130       -27.3510
  16   2.0000      -0.991649       -26.9841
  17   2.0000      -0.792199       -21.5568
  18   2.0000      -0.783317       -21.3151
  19   2.0000      -0.769144       -20.9295
  20   2.0000      -0.734361       -19.9830
  21   2.0000      -0.673414       -18.3245
  22   2.0000      -0.605954       -16.4888
  23   2.0000      -0.603947       -16.4342
  24   2.0000      -0.595122       -16.1941
  25   2.0000      -0.576903       -15.6983
  26   2.0000      -0.526469       -14.3259
  27   2.0000      -0.506928       -13.7942
  28   2.0000      -0.499652       -13.5962
  29   2.0000      -0.493555       -13.4303
  30   2.0000      -0.477021       -12.9804
  31   2.0000      -0.461154       -12.5486
  32   2.0000      -0.454057       -12.3555
  33   2.0000      -0.436516       -11.8782
  34   2.0000      -0.420066       -11.4306
  35   2.0000      -0.417312       -11.3557
  36   2.0000      -0.400793       -10.9061
  37   2.0000      -0.392622       -10.6838
  38   2.0000      -0.377022       -10.2593
  39   2.0000      -0.371021       -10.0960
  40   2.0000      -0.361934        -9.8487
  41   2.0000      -0.357848        -9.7375
  42   2.0000      -0.350745        -9.5443
  43   2.0000      -0.338189        -9.2026
  44   2.0000      -0.325469        -8.8565
  45   2.0000      -0.310446        -8.4477
  46   2.0000      -0.302713        -8.2372
  47   2.0000      -0.270516        -7.3611
  48   2.0000      -0.264127        -7.1873
  49   2.0000      -0.250316        -6.8114
  50   2.0000      -0.239535        -6.5181
  51   0.0000       0.060939         1.6582
  52   0.0000       0.075507         2.0547
  53   0.0000       0.089663         2.4399
  54   0.0000       0.097410         2.6506
  55   0.0000       0.103604         2.8192

MULLIKEN ATOMIC CHARGES
-----------------------
   0 C :    0.294548
   1 C :   -0.254288
   2 C :   -0.314505
   3 C :   -0.016672
   4 O :   -0.511234
   5 H :    0.162332
   6 H :    0.144622
   7 H :    0.164168
   8 H :    0.148279
   9 H :    0.154387
  10 H :    0.140632
  11 H :    0.153045
  12 C :    0.008965
  13 H :    0.155354
  14 H :    0.111697
  15 O :   -0.525865
  16 C :    0.062051
  17 C :    0.077642
  18 C :   -0.292997
  19 C :   -0.026006
  20 O :   -0.510039
  21 H :    0.169567
  22 O :   -0.602892
  23 H :    0.150351
  24 H :    0.164361
  25 H :    0.137320
  26 H :    0.144142
  27 H :    0.144587
  28 H :    0.366447
Sum of atomic charges:   -0.0000000

LOEWDIN ATOMIC CHARGES
----------------------
   0 C :    0.181108
   1 C :   -0.222705
   2 C :   -0.221320
   3 C :   -0.033916
   4 O :   -0.319078
   5 H :    0.109896
   6 H :    0.114212
   7 H :    0.127273
   8 H :    0.117666
   9 H :    0.112096
  10 H :    0.100423
  11 H :    0.108092
  12 C :   -0.040617
  13 H :    0.109851
  14 H :    0.083004
  15 O :   -0.327700
  16 C :    0.018362
  17 C :    0.035541
  18 C :   -0.241148
  19 C :   -0.037848
  20 O :   -0.320373
  21 H :    0.121535
  22 O :   -0.414628
  23 H :    0.114709
  24 H :    0.126911
  25 H :    0.109455
  26 H :    0.103123
  27 H :    0.101915
  28 H :    0.284160

  Mayer bond orders larger than 0.100000
B(  0-C ,  1-C ) :   0.9225 B(  0-C ,  4-O ) :   0.9068 B(  0-C ,  5-H ) :   0.9322
B(  0-C , 15-O ) :   0.8587 B(  1-C ,  2-C ) :   0.9522 B(  1-C ,  6-H ) :   0.9348
B(  1-C ,  7-H ) :   0.9355 B(  2-C ,  3-C ) :   0.9523 B(  2-C ,  8-H ) :   0.9444
B(  2-C ,  9-H ) :   0.9430 B(  3-C ,  4-O ) :   0.8325 B(  3-C , 10-H ) :   0.9331
B(  3-C , 11-H ) :   0.9400 B( 12-C , 13-H ) :   0.9046 B( 12-C , 14-H ) :   0.9099
B( 12-C , 15-O ) :   0.8360 B( 12-C , 16-C ) :   0.9036 B( 16-C , 17-C ) :   0.9017
B( 16-C , 20-O ) :   0.8621 B( 16-C , 21-H ) :   0.9231 B( 17-C , 18-C ) :   0.9112
B( 17-C , 22-O ) :   0.8929 B( 17-C , 23-H ) :   0.9331 B( 18-C , 19-C ) :   0.9391
B( 18-C , 24-H ) :   0.9370 B( 18-C , 25-H ) :   0.9345 B( 19-C , 20-O ) :   0.8548
B( 19-C , 26-H ) :   0.9348 B( 19-C , 27-H ) :   0.9382 B( 22-O , 28-H ) :   0.7930

FINAL SINGLE POINT ENERGY      -652.857417034144

DIPOLE MOMENT
-------------
                                X             Y             Z
Electronic contribution:     -3.39422      -5.20357      -2.29646
Nuclear contribution   :      4.21642       6.42838       2.74229
                        -----------------------------------------
Total Dipole Moment    :      0.82220       1.22481       0.44583
                        -----------------------------------------
Magnitude (a.u.)       :      1.54109
Magnitude (Debye)      :      3.91713

Rotational constants in cm-1:     0.056194     0.012801     0.012526
Rotational constants in MHz :  1684.640836   383.775613   375.520648

                             ****ORCA TERMINATED NORMALLY****
TOTAL RUN TIME: 0 days 0 hours 22 minutes 1 seconds 902 msec
