                         Program Version 4.2.0 -  RELEASE  -
|  1> # Test redundant internal optimization
|  2> #
|  3> ! RKS B3LYP  Opt TightSCF SmallPrint
|  4>
|  5> %basis
|  6>         Basis "6-31G"
|  7> end
|  8>
|  9> %geom
| 10> Constraints
| 11> { D 4  0  15  12  75.0   C } # D for Dihedral angle
| 12> { D 0  15  12  16  255.0   C } # D for Dihedral angle
| 13> { D 0  4  3  2   C } # D for Dihedral angle
| 14> { D 4  3  2  1   C } # D for Dihedral angle
| 15> { D 3  2  1  0   C } # D for Dihedral angle
| 16> { D 2  1  0  4   C } # D for Dihedral angle
| 17> { D 1  0  4  3   C } # D for Dihedral angle
| 18> { D 16  20  19  18   C } # D for Dihedral angle
| 19> { D 20  19  18  17   C } # D for Dihedral angle
| 20> { D 19  18  17  16   C } # D for Dihedral angle
| 21> { D 18  17  16  20   C } # D for Dihedral angle
| 22> { D 17  16  20  19   C } # D for Dihedral angle
| 23> { D 15  12  16  20   C } # D for Dihedral angle
| 24> end
| 25> end
| 26>
| 27>
| 28> #%pal
| 29> #nprocs 8
| 30> #end
| 31>
| 32> * xyz 0 1
| 33> C  -21.048   26.222   46.251
| 34> C  -20.361   27.558   45.944
| 35> C  -20.329   28.222   47.341
| 36> C  -20.110   27.022   48.296
| 37> O  -20.473   25.807   47.535
| 38> H  -20.833   25.428   45.533
| 39> H  -19.344   27.382   45.576
| 40> H  -20.898   28.157   45.201
| 41> H  -19.543   28.978   47.434
| 42> H  -21.289   28.710   47.548
| 43> H  -20.733   27.082   49.195
| 44> H  -19.064   26.913   48.597
| 45> C  -23.049   27.675   47.122
| 46> H  -22.208   28.376   47.194
| 47> H  -23.861   28.168   46.572
| 48> O  -22.586   26.394   46.375
| 49> C  -23.563   27.380   48.558
| 50> C  -24.684   26.334   48.545
| 51> C  -23.884   25.018   48.395
| 52> C  -22.595   25.296   49.208
| 53> O  -22.505   26.764   49.365
| 54> H  -23.829   28.320   49.044
| 55> O  -25.451   26.358   49.895
| 56> H  -25.406   26.486   47.735
| 57> H  -24.430   24.144   48.764
| 58> H  -23.644   24.842   47.339
| 59> H  -21.694   24.932   48.704
| 60> H  -22.635   24.867   50.214
| 61> H  -24.748   26.206   50.721
| 62> *
| 63>
| 64>                          ****END OF INPUT****
 Total Charge           Charge          ....    0
 Multiplicity           Mult            ....    1
 Number of Electrons    NEL             ....  102
FINAL SINGLE POINT ENERGY      -652.775434698740
FINAL SINGLE POINT ENERGY      -652.831859357585
FINAL SINGLE POINT ENERGY      -652.852811308836
FINAL SINGLE POINT ENERGY      -652.857790150593
FINAL SINGLE POINT ENERGY      -652.859756993367
FINAL SINGLE POINT ENERGY      -652.860170818838
FINAL SINGLE POINT ENERGY      -652.860307605939
FINAL SINGLE POINT ENERGY      -652.860341205305
FINAL SINGLE POINT ENERGY      -652.860353700779
                    ***********************HURRAY********************

CARTESIAN COORDINATES (ANGSTROEM)
---------------------------------
  C    -21.092993   26.439659   46.303250
  C    -20.271644   27.666752   45.876626
  C    -19.910893   28.314459   47.249714
  C    -19.723211   27.074522   48.161625
  O    -20.391987   25.946298   47.461522
  H    -21.054523   25.630853   45.571318
  H    -19.366798   27.318570   45.368393
  H    -20.818839   28.333228   45.204387
  H    -18.994542   28.910994   47.190877
  H    -20.703741   28.969700   47.615392
  H    -20.190600   27.190725   49.140797
  H    -18.671913   26.794517   48.272464
  C    -23.173280   27.669307   47.199394
  H    -22.497685   28.514132   47.348505
  H    -23.999198   28.012274   46.563955
  O    -22.524764   26.596441   46.454197
  C    -23.744768   27.248356   48.557101
  C    -24.832086   26.163674   48.532184
  C    -23.982144   24.866146   48.520822
  C    -22.762724   25.232355   49.400571
  O    -22.731605   26.723010   49.468557
  H    -24.149711   28.156632   49.022851
  O    -25.682059   26.263241   49.710013
  H    -25.511260   26.243548   47.683107
  H    -24.554708   24.021489   48.913542
  H    -23.664622   24.653434   47.498017
  H    -21.819140   24.897918   48.971395
  H    -22.859553   24.875184   50.431484
  H    -25.116009   26.313583   50.508937

 Multiplicity           Mult            ....    1
 Number of Electrons    NEL             ....  102
 Basis Dimension        Dim             ....  149

ORBITAL ENERGIES
----------------

  NO   OCC          E(Eh)            E(eV)
   0   2.0000     -19.147290      -521.0242
   1   2.0000     -19.144131      -520.9383
   2   2.0000     -19.136787      -520.7385
   3   2.0000     -19.131094      -520.5835
   4   2.0000     -10.282508      -279.8013
   5   2.0000     -10.234544      -278.4961
   6   2.0000     -10.231866      -278.4232
   7   2.0000     -10.230679      -278.3909
   8   2.0000     -10.224288      -278.2170
   9   2.0000     -10.211944      -277.8811
  10   2.0000     -10.193819      -277.3879
  11   2.0000     -10.193301      -277.3738
  12   2.0000     -10.170453      -276.7521
  13   2.0000      -1.052444       -28.6385
  14   2.0000      -1.027719       -27.9657
  15   2.0000      -1.000718       -27.2309
  16   2.0000      -0.994383       -27.0585
  17   2.0000      -0.789090       -21.4722
  18   2.0000      -0.777658       -21.1612
  19   2.0000      -0.760699       -20.6997
  20   2.0000      -0.732580       -19.9345
  21   2.0000      -0.676297       -18.4030
  22   2.0000      -0.607058       -16.5189
  23   2.0000      -0.600731       -16.3467
  24   2.0000      -0.591129       -16.0854
  25   2.0000      -0.565022       -15.3750
  26   2.0000      -0.523520       -14.2457
  27   2.0000      -0.507921       -13.8212
  28   2.0000      -0.494396       -13.4532
  29   2.0000      -0.488545       -13.2940
  30   2.0000      -0.467164       -12.7122
  31   2.0000      -0.458226       -12.4690
  32   2.0000      -0.443684       -12.0733
  33   2.0000      -0.430355       -11.7106
  34   2.0000      -0.427584       -11.6352
  35   2.0000      -0.413052       -11.2397
  36   2.0000      -0.398971       -10.8566
  37   2.0000      -0.386678       -10.5220
  38   2.0000      -0.380758       -10.3609
  39   2.0000      -0.362596        -9.8667
  40   2.0000      -0.358659        -9.7596
  41   2.0000      -0.354781        -9.6541
  42   2.0000      -0.347718        -9.4619
  43   2.0000      -0.326576        -8.8866
  44   2.0000      -0.314192        -8.5496
  45   2.0000      -0.304393        -8.2830
  46   2.0000      -0.299185        -8.1412
  47   2.0000      -0.275592        -7.4992
  48   2.0000      -0.262602        -7.1458
  49   2.0000      -0.254868        -6.9353
  50   2.0000      -0.235504        -6.4084
  51   0.0000       0.069460         1.8901
  52   0.0000       0.080900         2.2014
  53   0.0000       0.093065         2.5324
  54   0.0000       0.103170         2.8074
  55   0.0000       0.107397         2.9224

MULLIKEN ATOMIC CHARGES
-----------------------
   0 C :    0.310430
   1 C :   -0.284028
   2 C :   -0.319752
   3 C :   -0.013127
   4 O :   -0.506333
   5 H :    0.165587
   6 H :    0.157648
   7 H :    0.149078
   8 H :    0.145353
   9 H :    0.157047
  10 H :    0.176043
  11 H :    0.142638
  12 C :   -0.018680
  13 H :    0.133668
  14 H :    0.146697
  15 O :   -0.528621
  16 C :    0.083307
  17 C :    0.080858
  18 C :   -0.290442
  19 C :   -0.037875
  20 O :   -0.536380
  21 H :    0.146417
  22 O :   -0.606060
  23 H :    0.150054
  24 H :    0.145156
  25 H :    0.174453
  26 H :    0.186581
  27 H :    0.128451
  28 H :    0.361833
Sum of atomic charges:   -0.0000000

LOEWDIN ATOMIC CHARGES
----------------------
   0 C :    0.175940
   1 C :   -0.228541
   2 C :   -0.222464
   3 C :   -0.034923
   4 O :   -0.317201
   5 H :    0.112115
   6 H :    0.123192
   7 H :    0.118347
   8 H :    0.115392
   9 H :    0.109846
  10 H :    0.119442
  11 H :    0.102462
  12 C :   -0.041703
  13 H :    0.101071
  14 H :    0.110295
  15 O :   -0.325843
  16 C :    0.007469
  17 C :    0.038618
  18 C :   -0.239735
  19 C :   -0.041672
  20 O :   -0.336592
  21 H :    0.112199
  22 O :   -0.418624
  23 H :    0.115298
  24 H :    0.117522
  25 H :    0.129986
  26 H :    0.123960
  27 H :    0.092745
  28 H :    0.281399

  Mayer bond orders larger than 0.100000
B(  0-C ,  1-C ) :   0.9225 B(  0-C ,  4-O ) :   0.9018 B(  0-C ,  5-H ) :   0.9367
B(  0-C , 15-O ) :   0.8862 B(  1-C ,  2-C ) :   0.9553 B(  1-C ,  6-H ) :   0.9348
B(  1-C ,  7-H ) :   0.9369 B(  2-C ,  3-C ) :   0.9511 B(  2-C ,  8-H ) :   0.9446
B(  2-C ,  9-H ) :   0.9338 B(  3-C ,  4-O ) :   0.8260 B(  3-C , 10-H ) :   0.9194
B(  3-C , 11-H ) :   0.9385 B( 12-C , 13-H ) :   0.9082 B( 12-C , 14-H ) :   0.9264
B( 12-C , 15-O ) :   0.8573 B( 12-C , 16-C ) :   0.8870 B( 16-C , 17-C ) :   0.9113
B( 16-C , 20-O ) :   0.8749 B( 16-C , 21-H ) :   0.9169 B( 17-C , 18-C ) :   0.9235
B( 17-C , 22-O ) :   0.8894 B( 17-C , 23-H ) :   0.9359 B( 18-C , 19-C ) :   0.9494
B( 18-C , 24-H ) :   0.9383 B( 18-C , 25-H ) :   0.9195 B( 19-C , 20-O ) :   0.8193
B( 19-C , 26-H ) :   0.9098 B( 19-C , 27-H ) :   0.9381 B( 22-O , 28-H ) :   0.7970

FINAL SINGLE POINT ENERGY      -652.860354506183

DIPOLE MOMENT
-------------
                                X             Y             Z
Electronic contribution:     -3.05439      -1.92083       1.12394
Nuclear contribution   :      3.96166       2.65196      -1.58167
                        -----------------------------------------
Total Dipole Moment    :      0.90727       0.73113      -0.45773
                        -----------------------------------------
Magnitude (a.u.)       :      1.25188
Magnitude (Debye)      :      3.18203

Rotational constants in cm-1:     0.055434     0.017058     0.016223
Rotational constants in MHz :  1661.866366   511.385138   486.365126

                             ****ORCA TERMINATED NORMALLY****
TOTAL RUN TIME: 0 days 1 hours 35 minutes 59 seconds 226 msec
