                         Program Version 4.2.0 -  RELEASE  -
|  1> # Test redundant internal optimization
|  2> #
|  3> ! RKS B3LYP  Opt TightSCF SmallPrint
|  4>
|  5> %basis
|  6>         Basis "6-31G"
|  7> end
|  8>
|  9> %geom
| 10> Constraints
| 11> { D 4  0  15  12  165.0   C } # D for Dihedral angle
| 12> { D 0  15  12  16  210.0   C } # D for Dihedral angle
| 13> { D 0  4  3  2   C } # D for Dihedral angle
| 14> { D 4  3  2  1   C } # D for Dihedral angle
| 15> { D 3  2  1  0   C } # D for Dihedral angle
| 16> { D 2  1  0  4   C } # D for Dihedral angle
| 17> { D 1  0  4  3   C } # D for Dihedral angle
| 18> { D 16  20  19  18   C } # D for Dihedral angle
| 19> { D 20  19  18  17   C } # D for Dihedral angle
| 20> { D 19  18  17  16   C } # D for Dihedral angle
| 21> { D 18  17  16  20   C } # D for Dihedral angle
| 22> { D 17  16  20  19   C } # D for Dihedral angle
| 23> { D 15  12  16  20   C } # D for Dihedral angle
| 24> end
| 25> end
| 26>
| 27>
| 28> #%pal
| 29> #nprocs 8
| 30> #end
| 31>
| 32> * xyz 0 1
| 33> C  -21.048   26.222   46.251
| 34> C  -20.361   27.558   45.944
| 35> C  -20.329   28.222   47.341
| 36> C  -20.110   27.022   48.296
| 37> O  -20.473   25.807   47.535
| 38> H  -20.833   25.428   45.533
| 39> H  -19.344   27.382   45.576
| 40> H  -20.898   28.157   45.201
| 41> H  -19.543   28.978   47.434
| 42> H  -21.289   28.710   47.548
| 43> H  -20.733   27.082   49.195
| 44> H  -19.064   26.913   48.597
| 45> C  -23.260   27.170   45.210
| 46> H  -22.545   27.890   44.794
| 47> H  -23.557   26.480   44.410
| 48> O  -22.586   26.394   46.375
| 49> C  -24.528   27.946   45.660
| 50> C  -25.540   27.014   46.337
| 51> C  -24.936   26.873   47.755
| 52> C  -24.322   28.271   48.017
| 53> O  -24.189   28.926   46.698
| 54> H  -24.926   28.504   44.811
| 55> O  -26.933   27.698   46.402
| 56> H  -25.650   26.053   45.825
| 57> H  -25.681   26.596   48.509
| 58> H  -24.156   26.102   47.757
| 59> H  -23.337   28.215   48.492
| 60> H  -24.973   28.905   48.627
| 61> H  -26.847   28.663   46.912
| 62> *
| 63>
| 64>                          ****END OF INPUT****
 Total Charge           Charge          ....    0
 Multiplicity           Mult            ....    1
 Number of Electrons    NEL             ....  102
FINAL SINGLE POINT ENERGY      -652.831403946509
FINAL SINGLE POINT ENERGY      -652.854418758748
FINAL SINGLE POINT ENERGY      -652.859325266152
FINAL SINGLE POINT ENERGY      -652.860640694362
FINAL SINGLE POINT ENERGY      -652.860790902798
FINAL SINGLE POINT ENERGY      -652.860817734588
FINAL SINGLE POINT ENERGY      -652.860818639763
                    ***********************HURRAY********************

CARTESIAN COORDINATES (ANGSTROEM)
---------------------------------
  C    -21.074290   26.278322   46.159729
  C    -20.282439   27.559197   45.900318
  C    -20.345483   28.262528   47.280118
  C    -20.295880   27.078995   48.266997
  O    -20.662403   25.876978   47.473184
  H    -20.854962   25.448878   45.481007
  H    -19.252747   27.276751   45.651624
  H    -20.659785   28.182256   45.087058
  H    -19.519399   28.964228   47.428528
  H    -21.288825   28.810579   47.364914
  H    -20.999869   27.176548   49.097797
  H    -19.293135   26.895442   48.663547
  C    -23.222895   27.184690   45.182335
  H    -22.581795   27.948796   44.730349
  H    -23.534514   26.486604   44.390130
  O    -22.523421   26.470824   46.234525
  C    -24.450848   27.891976   45.754097
  C    -25.519676   27.008221   46.414931
  C    -24.952744   26.848837   47.850699
  C    -24.284275   28.218124   48.118969
  O    -24.092757   28.860496   46.792932
  H    -24.904776   28.464908   44.936087
  O    -26.817122   27.668944   46.393674
  H    -25.676127   26.056798   45.906402
  H    -25.751958   26.618037   48.560489
  H    -24.205782   26.053313   47.858498
  H    -23.311623   28.117865   48.605743
  H    -24.912268   28.893740   48.710004
  H    -26.719201   28.578123   46.747314

 Multiplicity           Mult            ....    1
 Number of Electrons    NEL             ....  102
 Basis Dimension        Dim             ....  149

ORBITAL ENERGIES
----------------

  NO   OCC          E(Eh)            E(eV)
   0   2.0000     -19.144893      -520.9590
   1   2.0000     -19.143741      -520.9277
   2   2.0000     -19.141568      -520.8685
   3   2.0000     -19.133799      -520.6572
   4   2.0000     -10.284847      -279.8649
   5   2.0000     -10.235837      -278.5313
   6   2.0000     -10.235135      -278.5122
   7   2.0000     -10.234579      -278.4970
   8   2.0000     -10.228179      -278.3229
   9   2.0000     -10.224125      -278.2126
  10   2.0000     -10.191904      -277.3358
  11   2.0000     -10.187466      -277.2151
  12   2.0000     -10.173591      -276.8375
  13   2.0000      -1.056959       -28.7613
  14   2.0000      -1.032490       -28.0955
  15   2.0000      -1.003577       -27.3087
  16   2.0000      -0.993810       -27.0429
  17   2.0000      -0.789632       -21.4870
  18   2.0000      -0.778026       -21.1712
  19   2.0000      -0.764011       -20.7898
  20   2.0000      -0.735190       -20.0056
  21   2.0000      -0.677487       -18.4354
  22   2.0000      -0.605217       -16.4688
  23   2.0000      -0.598318       -16.2811
  24   2.0000      -0.595823       -16.2132
  25   2.0000      -0.572425       -15.5765
  26   2.0000      -0.528321       -14.3764
  27   2.0000      -0.505677       -13.7602
  28   2.0000      -0.499159       -13.5828
  29   2.0000      -0.490014       -13.3340
  30   2.0000      -0.476323       -12.9614
  31   2.0000      -0.458558       -12.4780
  32   2.0000      -0.448500       -12.2043
  33   2.0000      -0.443830       -12.0772
  34   2.0000      -0.419152       -11.4057
  35   2.0000      -0.411963       -11.2101
  36   2.0000      -0.404575       -11.0090
  37   2.0000      -0.388355       -10.5677
  38   2.0000      -0.379416       -10.3244
  39   2.0000      -0.366789        -9.9808
  40   2.0000      -0.358510        -9.7556
  41   2.0000      -0.357852        -9.7377
  42   2.0000      -0.352219        -9.5844
  43   2.0000      -0.328276        -8.9329
  44   2.0000      -0.316064        -8.6005
  45   2.0000      -0.307301        -8.3621
  46   2.0000      -0.297723        -8.1015
  47   2.0000      -0.269913        -7.3447
  48   2.0000      -0.263132        -7.1602
  49   2.0000      -0.257047        -6.9946
  50   2.0000      -0.244136        -6.6433
  51   0.0000       0.063434         1.7261
  52   0.0000       0.081544         2.2189
  53   0.0000       0.095712         2.6045
  54   0.0000       0.101733         2.7683
  55   0.0000       0.102961         2.8017

MULLIKEN ATOMIC CHARGES
-----------------------
   0 C :    0.317503
   1 C :   -0.292820
   2 C :   -0.310667
   3 C :   -0.004444
   4 O :   -0.500927
   5 H :    0.146257
   6 H :    0.151561
   7 H :    0.149005
   8 H :    0.142934
   9 H :    0.181626
  10 H :    0.148895
  11 H :    0.144120
  12 C :   -0.001203
  13 H :    0.137138
  14 H :    0.130355
  15 O :   -0.528332
  16 C :    0.072451
  17 C :    0.074568
  18 C :   -0.289107
  19 C :   -0.032288
  20 O :   -0.530277
  21 H :    0.154902
  22 O :   -0.601375
  23 H :    0.153694
  24 H :    0.146935
  25 H :    0.191458
  26 H :    0.149431
  27 H :    0.137377
  28 H :    0.361228
Sum of atomic charges:    0.0000000

LOEWDIN ATOMIC CHARGES
----------------------
   0 C :    0.185997
   1 C :   -0.232043
   2 C :   -0.220500
   3 C :   -0.026506
   4 O :   -0.304314
   5 H :    0.099198
   6 H :    0.118565
   7 H :    0.115777
   8 H :    0.115244
   9 H :    0.125786
  10 H :    0.104216
  11 H :    0.103859
  12 C :   -0.039754
  13 H :    0.100374
  14 H :    0.096271
  15 O :   -0.337789
  16 C :    0.014278
  17 C :    0.039549
  18 C :   -0.242034
  19 C :   -0.035503
  20 O :   -0.334243
  21 H :    0.115100
  22 O :   -0.417003
  23 H :    0.117366
  24 H :    0.118084
  25 H :    0.138827
  26 H :    0.103997
  27 H :    0.096154
  28 H :    0.281047

  Mayer bond orders larger than 0.100000
B(  0-C ,  1-C ) :   0.9329 B(  0-C ,  4-O ) :   0.9385 B(  0-C ,  5-H ) :   0.9239
B(  0-C , 15-O ) :   0.8226 B(  1-C ,  2-C ) :   0.9487 B(  1-C ,  6-H ) :   0.9331
B(  1-C ,  7-H ) :   0.9256 B(  2-C ,  3-C ) :   0.9555 B(  2-C ,  8-H ) :   0.9447
B(  2-C ,  9-H ) :   0.9296 B(  3-C ,  4-O ) :   0.8335 B(  3-C , 10-H ) :   0.9311
B(  3-C , 11-H ) :   0.9391 B( 12-C , 13-H ) :   0.9063 B( 12-C , 14-H ) :   0.9124
B( 12-C , 15-O ) :   0.8508 B( 12-C , 16-C ) :   0.9028 B( 16-C , 17-C ) :   0.9086
B( 16-C , 20-O ) :   0.8704 B( 16-C , 21-H ) :   0.9218 B( 17-C , 18-C ) :   0.9266
B( 17-C , 22-O ) :   0.8929 B( 17-C , 23-H ) :   0.9359 B( 18-C , 19-C ) :   0.9475
B( 18-C , 24-H ) :   0.9371 B( 18-C , 25-H ) :   0.9142 B( 19-C , 20-O ) :   0.8353
B( 19-C , 26-H ) :   0.9273 B( 19-C , 27-H ) :   0.9372 B( 22-O , 28-H ) :   0.7970

FINAL SINGLE POINT ENERGY      -652.860816895959

DIPOLE MOMENT
-------------
                                X             Y             Z
Electronic contribution:     -3.15235      -1.93716      -1.23513
Nuclear contribution   :      4.06775       2.52260       1.00813
                        -----------------------------------------
Total Dipole Moment    :      0.91540       0.58545      -0.22700
                        -----------------------------------------
Magnitude (a.u.)       :      1.11006
Magnitude (Debye)      :      2.82155

Rotational constants in cm-1:     0.054381     0.015894     0.015200
Rotational constants in MHz :  1630.301872   476.501338   455.699210

                             ****ORCA TERMINATED NORMALLY****
TOTAL RUN TIME: 0 days 0 hours 22 minutes 9 seconds 729 msec
