                         Program Version 4.2.0 -  RELEASE  -
|  1> # Test redundant internal optimization
|  2> #
|  3> ! RKS B3LYP  Opt TightSCF SmallPrint
|  4>
|  5> %basis
|  6>         Basis "6-31G"
|  7> end
|  8>
|  9> %geom
| 10> Constraints
| 11> { D 4  0  15  12  240.0   C } # D for Dihedral angle
| 12> { D 0  15  12  16  105.0   C } # D for Dihedral angle
| 13> { D 0  4  3  2   C } # D for Dihedral angle
| 14> { D 4  3  2  1   C } # D for Dihedral angle
| 15> { D 3  2  1  0   C } # D for Dihedral angle
| 16> { D 2  1  0  4   C } # D for Dihedral angle
| 17> { D 1  0  4  3   C } # D for Dihedral angle
| 18> { D 16  20  19  18   C } # D for Dihedral angle
| 19> { D 20  19  18  17   C } # D for Dihedral angle
| 20> { D 19  18  17  16   C } # D for Dihedral angle
| 21> { D 18  17  16  20   C } # D for Dihedral angle
| 22> { D 17  16  20  19   C } # D for Dihedral angle
| 23> { D 15  12  16  20   C } # D for Dihedral angle
| 24> end
| 25> end
| 26>
| 27>
| 28> #%pal
| 29> #nprocs 8
| 30> #end
| 31>
| 32> * xyz 0 1
| 33> C  -21.048   26.222   46.251
| 34> C  -20.361   27.558   45.944
| 35> C  -20.329   28.222   47.341
| 36> C  -20.110   27.022   48.296
| 37> O  -20.473   25.807   47.535
| 38> H  -20.833   25.428   45.533
| 39> H  -19.344   27.382   45.576
| 40> H  -20.898   28.157   45.201
| 41> H  -19.543   28.978   47.434
| 42> H  -21.289   28.710   47.548
| 43> H  -20.733   27.082   49.195
| 44> H  -19.064   26.913   48.597
| 45> C  -23.430   25.483   45.442
| 46> H  -24.220   26.080   44.970
| 47> H  -22.801   25.058   44.649
| 48> O  -22.586   26.394   46.375
| 49> C  -24.097   24.302   46.200
| 50> C  -25.126   24.805   47.218
| 51> C  -26.342   25.112   46.311
| 52> C  -26.258   24.009   45.226
| 53> O  -24.880   23.476   45.274
| 54> H  -23.320   23.661   46.621
| 55> H  -25.368   24.009   47.932
| 56> O  -24.640   26.046   48.015
| 57> H  -27.292   25.093   46.854
| 58> H  -26.233   26.106   45.861
| 59> H  -26.460   24.393   44.221
| 60> H  -26.934   23.173   45.428
| 61> H  -24.392   26.856   47.320
| 62> *
| 63>
| 64>                          ****END OF INPUT****
 Total Charge           Charge          ....    0
 Multiplicity           Mult            ....    1
 Number of Electrons    NEL             ....  102
FINAL SINGLE POINT ENERGY      -652.831332290284
FINAL SINGLE POINT ENERGY      -652.855645989018
FINAL SINGLE POINT ENERGY      -652.861773736773
FINAL SINGLE POINT ENERGY      -652.864091146379
FINAL SINGLE POINT ENERGY      -652.865500452130
FINAL SINGLE POINT ENERGY      -652.866376745017
FINAL SINGLE POINT ENERGY      -652.866775925314
FINAL SINGLE POINT ENERGY      -652.866880853917
FINAL SINGLE POINT ENERGY      -652.866895046405
                    ***********************HURRAY********************

CARTESIAN COORDINATES (ANGSTROEM)
---------------------------------
  C    -21.077350   26.158956   46.203746
  C    -20.415948   27.508982   45.932948
  C    -20.511644   28.195138   47.316525
  C    -20.327583   27.019607   48.300091
  O    -20.599046   25.788880   47.506373
  H    -20.815289   25.352581   45.513778
  H    -19.369684   27.346617   45.648461
  H    -20.916762   28.066410   45.138425
  H    -19.755283   28.973634   47.452648
  H    -21.499020   28.651688   47.435682
  H    -21.019883   27.046648   49.144940
  H    -19.303094   26.929276   48.671603
  C    -23.344878   25.476629   45.345743
  H    -24.068185   26.136527   44.857520
  H    -22.723351   25.010595   44.572098
  O    -22.526906   26.324580   46.222830
  C    -24.038905   24.389283   46.173769
  C    -25.034390   24.914308   47.221074
  C    -26.287603   25.208050   46.346230
  C    -26.244094   24.091085   45.283845
  O    -24.850652   23.550562   45.293590
  H    -23.279659   23.739549   46.619927
  H    -25.262613   24.104517   47.923259
  O    -24.600475   26.053931   47.989388
  H    -27.206830   25.196138   46.937888
  H    -26.185375   26.205354   45.905568
  H    -26.476173   24.442224   44.273660
  H    -26.903289   23.251871   45.525137
  H    -23.760037   26.403383   47.611252

 Multiplicity           Mult            ....    1
 Number of Electrons    NEL             ....  102
 Basis Dimension        Dim             ....  149

ORBITAL ENERGIES
----------------

  NO   OCC          E(Eh)            E(eV)
   0   2.0000     -19.163423      -521.4633
   1   2.0000     -19.149596      -521.0870
   2   2.0000     -19.139179      -520.8035
   3   2.0000     -19.110812      -520.0316
   4   2.0000     -10.293028      -280.0875
   5   2.0000     -10.240820      -278.6669
   6   2.0000     -10.231777      -278.4208
   7   2.0000     -10.231133      -278.4033
   8   2.0000     -10.227856      -278.3141
   9   2.0000     -10.225463      -278.2490
  10   2.0000     -10.193656      -277.3835
  11   2.0000     -10.192688      -277.3571
  12   2.0000     -10.177405      -276.9413
  13   2.0000      -1.064974       -28.9794
  14   2.0000      -1.023955       -27.8632
  15   2.0000      -1.007199       -27.4073
  16   2.0000      -0.990038       -26.9403
  17   2.0000      -0.795311       -21.6415
  18   2.0000      -0.771843       -21.0029
  19   2.0000      -0.766233       -20.8502
  20   2.0000      -0.736548       -20.0425
  21   2.0000      -0.679490       -18.4899
  22   2.0000      -0.607039       -16.5184
  23   2.0000      -0.601603       -16.3705
  24   2.0000      -0.594600       -16.1799
  25   2.0000      -0.580570       -15.7981
  26   2.0000      -0.527982       -14.3671
  27   2.0000      -0.522684       -14.2230
  28   2.0000      -0.496813       -13.5190
  29   2.0000      -0.487787       -13.2734
  30   2.0000      -0.471530       -12.8310
  31   2.0000      -0.455642       -12.3986
  32   2.0000      -0.450355       -12.2548
  33   2.0000      -0.436283       -11.8719
  34   2.0000      -0.425214       -11.5707
  35   2.0000      -0.412829       -11.2336
  36   2.0000      -0.407990       -11.1020
  37   2.0000      -0.385509       -10.4902
  38   2.0000      -0.381578       -10.3833
  39   2.0000      -0.365480        -9.9452
  40   2.0000      -0.363612        -9.8944
  41   2.0000      -0.361071        -9.8252
  42   2.0000      -0.347238        -9.4488
  43   2.0000      -0.341210        -9.2848
  44   2.0000      -0.328227        -8.9315
  45   2.0000      -0.319447        -8.6926
  46   2.0000      -0.288463        -7.8495
  47   2.0000      -0.279589        -7.6080
  48   2.0000      -0.263493        -7.1700
  49   2.0000      -0.244584        -6.6555
  50   2.0000      -0.239218        -6.5095
  51   0.0000       0.055316         1.5052
  52   0.0000       0.081655         2.2219
  53   0.0000       0.090636         2.4663
  54   0.0000       0.098293         2.6747
  55   0.0000       0.103866         2.8263

MULLIKEN ATOMIC CHARGES
-----------------------
   0 C :    0.291316
   1 C :   -0.252296
   2 C :   -0.305353
   3 C :   -0.010060
   4 O :   -0.500770
   5 H :    0.150325
   6 H :    0.148819
   7 H :    0.150678
   8 H :    0.147235
   9 H :    0.164373
  10 H :    0.161891
  11 H :    0.147427
  12 C :   -0.034750
  13 H :    0.156345
  14 H :    0.152621
  15 O :   -0.551075
  16 C :    0.053111
  17 C :    0.126315
  18 C :   -0.299133
  19 C :   -0.022283
  20 O :   -0.521155
  21 H :    0.164614
  22 H :    0.146810
  23 O :   -0.646275
  24 H :    0.150461
  25 H :    0.144945
  26 H :    0.139745
  27 H :    0.150237
  28 H :    0.395883
Sum of atomic charges:   -0.0000000

LOEWDIN ATOMIC CHARGES
----------------------
   0 C :    0.178095
   1 C :   -0.219941
   2 C :   -0.217099
   3 C :   -0.027740
   4 O :   -0.313058
   5 H :    0.104023
   6 H :    0.115858
   7 H :    0.120610
   8 H :    0.117105
   9 H :    0.119633
  10 H :    0.112452
  11 H :    0.105721
  12 C :   -0.042400
  13 H :    0.110807
  14 H :    0.109555
  15 O :   -0.341275
  16 C :    0.008726
  17 C :    0.043471
  18 C :   -0.235407
  19 C :   -0.032802
  20 O :   -0.326091
  21 H :    0.116844
  22 H :    0.104614
  23 O :   -0.437461
  24 H :    0.120948
  25 H :    0.111062
  26 H :    0.100831
  27 H :    0.106224
  28 H :    0.286695

  Mayer bond orders larger than 0.100000
B(  0-C ,  1-C ) :   0.9441 B(  0-C ,  4-O ) :   0.9448 B(  0-C ,  5-H ) :   0.9181
B(  0-C , 15-O ) :   0.7977 B(  1-C ,  2-C ) :   0.9548 B(  1-C ,  6-H ) :   0.9355
B(  1-C ,  7-H ) :   0.9377 B(  2-C ,  3-C ) :   0.9531 B(  2-C ,  8-H ) :   0.9447
B(  2-C ,  9-H ) :   0.9435 B(  3-C ,  4-O ) :   0.8287 B(  3-C , 10-H ) :   0.9331
B(  3-C , 11-H ) :   0.9396 B( 12-C , 13-H ) :   0.9346 B( 12-C , 14-H ) :   0.9262
B( 12-C , 15-O ) :   0.7992 B( 12-C , 16-C ) :   0.8878 B( 16-C , 17-C ) :   0.9157
B( 16-C , 20-O ) :   0.8530 B( 16-C , 21-H ) :   0.9289 B( 17-C , 18-C ) :   0.9031
B( 17-C , 22-H ) :   0.9295 B( 17-C , 23-O ) :   0.9319 B( 18-C , 19-C ) :   0.9379
B( 18-C , 24-H ) :   0.9454 B( 18-C , 25-H ) :   0.9434 B( 19-C , 20-O ) :   0.8327
B( 19-C , 26-H ) :   0.9350 B( 19-C , 27-H ) :   0.9384 B( 23-O , 28-H ) :   0.7218

FINAL SINGLE POINT ENERGY      -652.866898365087

DIPOLE MOMENT
-------------
                                X             Y             Z
Electronic contribution:      0.05311      -3.76692       0.76622
Nuclear contribution   :      0.53532       4.62247      -1.57865
                        -----------------------------------------
Total Dipole Moment    :      0.58843       0.85555      -0.81242
                        -----------------------------------------
Magnitude (a.u.)       :      1.31842
Magnitude (Debye)      :      3.35117

Rotational constants in cm-1:     0.061186     0.013376     0.012481
Rotational constants in MHz :  1834.297682   401.008623   374.177788

                             ****ORCA TERMINATED NORMALLY****
TOTAL RUN TIME: 0 days 0 hours 40 minutes 51 seconds 684 msec
