                         Program Version 4.2.0 -  RELEASE  -
|  1> # Test redundant internal optimization
|  2> #
|  3> ! RKS B3LYP  Opt TightSCF SmallPrint
|  4>
|  5> %basis
|  6>         Basis "6-31G"
|  7> end
|  8>
|  9> %geom
| 10> Constraints
| 11> { D 4  0  15  12  300.0   C } # D for Dihedral angle
| 12> { D 0  15  12  16  45.0   C } # D for Dihedral angle
| 13> { D 0  4  3  2   C } # D for Dihedral angle
| 14> { D 4  3  2  1   C } # D for Dihedral angle
| 15> { D 3  2  1  0   C } # D for Dihedral angle
| 16> { D 2  1  0  4   C } # D for Dihedral angle
| 17> { D 1  0  4  3   C } # D for Dihedral angle
| 18> { D 16  20  19  18   C } # D for Dihedral angle
| 19> { D 20  19  18  17   C } # D for Dihedral angle
| 20> { D 19  18  17  16   C } # D for Dihedral angle
| 21> { D 18  17  16  20   C } # D for Dihedral angle
| 22> { D 17  16  20  19   C } # D for Dihedral angle
| 23> { D 15  12  16  20   C } # D for Dihedral angle
| 24> end
| 25> end
| 26>
| 27>
| 28> #%pal
| 29> #nprocs 8
| 30> #end
| 31>
| 32> * xyz 0 1
| 33> C  -21.048   26.222   46.251
| 34> C  -20.361   27.558   45.944
| 35> C  -20.329   28.222   47.341
| 36> C  -20.110   27.022   48.296
| 37> O  -20.473   25.807   47.535
| 38> H  -20.833   25.428   45.533
| 39> H  -19.344   27.382   45.576
| 40> H  -20.898   28.157   45.201
| 41> H  -19.543   28.978   47.434
| 42> H  -21.289   28.710   47.548
| 43> H  -20.733   27.082   49.195
| 44> H  -19.064   26.913   48.597
| 45> C  -23.362   25.116   46.798
| 46> H  -24.377   25.395   47.106
| 47> H  -23.438   24.417   45.955
| 48> O  -22.586   26.394   46.375
| 49> C  -22.683   24.364   47.976
| 50> C  -22.686   25.211   49.253
| 51> C  -24.135   25.012   49.758
| 52> C  -24.446   23.546   49.363
| 53> O  -23.454   23.169   48.333
| 54> H  -21.694   24.024   47.661
| 55> O  -21.665   24.639   50.274
| 56> H  -22.439   26.263   49.073
| 57> H  -24.236   25.184   50.834
| 58> H  -24.811   25.704   49.242
| 59> H  -25.454   23.429   48.951
| 60> H  -24.323   22.853   50.199
| 61> H  -21.893   23.584   50.471
| 62> *
| 63>
| 64>                          ****END OF INPUT****
 Total Charge           Charge          ....    0
 Multiplicity           Mult            ....    1
 Number of Electrons    NEL             ....  102
FINAL SINGLE POINT ENERGY      -652.833227020246
FINAL SINGLE POINT ENERGY      -652.856467076888
FINAL SINGLE POINT ENERGY      -652.861222370531
FINAL SINGLE POINT ENERGY      -652.864020873853
FINAL SINGLE POINT ENERGY      -652.864420606155
FINAL SINGLE POINT ENERGY      -652.864539081532
FINAL SINGLE POINT ENERGY      -652.864550019227
FINAL SINGLE POINT ENERGY      -652.864554749946
                    ***********************HURRAY********************

CARTESIAN COORDINATES (ANGSTROEM)
---------------------------------
  C    -20.999915   26.191418   46.295339
  C    -20.484987   27.578686   45.908513
  C    -20.405884   28.281429   47.283935
  C    -19.985313   27.141152   48.239116
  O    -20.291189   25.875165   47.515405
  H    -20.735783   25.389065   45.595712
  H    -19.491505   27.478162   45.457806
  H    -21.150103   28.081231   45.203561
  H    -19.692937   29.111546   47.293438
  H    -21.392048   28.670279   47.554520
  H    -20.520080   27.145997   49.191140
  H    -18.909762   27.126618   48.437105
  C    -23.185846   25.094924   46.861850
  H    -24.183377   25.487612   47.071526
  H    -23.273099   24.387494   46.024296
  O    -22.435316   26.270690   46.414450
  C    -22.657755   24.297784   48.066962
  C    -22.658605   25.066351   49.397945
  C    -24.161316   25.017634   49.790645
  C    -24.607912   23.624098   49.277538
  O    -23.590470   23.187129   48.293502
  H    -21.677731   23.866835   47.862689
  O    -21.823206   24.418246   50.393432
  H    -22.281880   26.081179   49.306746
  H    -24.278433   25.128810   50.871489
  H    -24.713597   25.825066   49.299012
  H    -25.588733   23.641671   48.792110
  H    -24.627584   22.872996   50.073878
  H    -21.902632   23.445733   50.299339

 Multiplicity           Mult            ....    1
 Number of Electrons    NEL             ....  102
 Basis Dimension        Dim             ....  149

ORBITAL ENERGIES
----------------

  NO   OCC          E(Eh)            E(eV)
   0   2.0000     -19.146885      -521.0132
   1   2.0000     -19.146302      -520.9974
   2   2.0000     -19.141703      -520.8722
   3   2.0000     -19.131190      -520.5861
   4   2.0000     -10.280074      -279.7350
   5   2.0000     -10.232566      -278.4423
   6   2.0000     -10.228988      -278.3449
   7   2.0000     -10.228636      -278.3353
   8   2.0000     -10.228518      -278.3321
   9   2.0000     -10.227061      -278.2925
  10   2.0000     -10.187164      -277.2068
  11   2.0000     -10.186392      -277.1858
  12   2.0000     -10.184067      -277.1225
  13   2.0000      -1.054729       -28.7006
  14   2.0000      -1.032659       -28.1001
  15   2.0000      -1.001861       -27.2620
  16   2.0000      -0.996181       -27.1075
  17   2.0000      -0.791059       -21.5258
  18   2.0000      -0.774703       -21.0807
  19   2.0000      -0.762527       -20.7494
  20   2.0000      -0.732541       -19.9335
  21   2.0000      -0.673740       -18.3334
  22   2.0000      -0.601760       -16.3747
  23   2.0000      -0.599669       -16.3178
  24   2.0000      -0.598030       -16.2732
  25   2.0000      -0.572038       -15.5660
  26   2.0000      -0.519800       -14.1445
  27   2.0000      -0.518900       -14.1200
  28   2.0000      -0.493165       -13.4197
  29   2.0000      -0.483446       -13.1552
  30   2.0000      -0.471762       -12.8373
  31   2.0000      -0.458123       -12.4662
  32   2.0000      -0.444154       -12.0860
  33   2.0000      -0.436137       -11.8679
  34   2.0000      -0.415577       -11.3084
  35   2.0000      -0.414181       -11.2704
  36   2.0000      -0.402159       -10.9433
  37   2.0000      -0.387519       -10.5449
  38   2.0000      -0.375673       -10.2226
  39   2.0000      -0.365713        -9.9516
  40   2.0000      -0.358630        -9.7588
  41   2.0000      -0.355724        -9.6798
  42   2.0000      -0.349887        -9.5209
  43   2.0000      -0.337447        -9.1824
  44   2.0000      -0.323433        -8.8011
  45   2.0000      -0.305065        -8.3012
  46   2.0000      -0.300344        -8.1728
  47   2.0000      -0.266232        -7.2445
  48   2.0000      -0.265909        -7.2358
  49   2.0000      -0.261419        -7.1136
  50   2.0000      -0.239212        -6.5093
  51   0.0000       0.068799         1.8721
  52   0.0000       0.076861         2.0915
  53   0.0000       0.094794         2.5795
  54   0.0000       0.099105         2.6968
  55   0.0000       0.106719         2.9040

MULLIKEN ATOMIC CHARGES
-----------------------
   0 C :    0.293336
   1 C :   -0.263542
   2 C :   -0.301087
   3 C :   -0.012353
   4 O :   -0.512857
   5 H :    0.143483
   6 H :    0.147972
   7 H :    0.160996
   8 H :    0.143913
   9 H :    0.158738
  10 H :    0.155446
  11 H :    0.150026
  12 C :   -0.011973
  13 H :    0.148894
  14 H :    0.148263
  15 O :   -0.526810
  16 C :    0.039325
  17 C :    0.108933
  18 C :   -0.300010
  19 C :   -0.032255
  20 O :   -0.528957
  21 H :    0.182645
  22 O :   -0.607038
  23 H :    0.154024
  24 H :    0.160520
  25 H :    0.142982
  26 H :    0.144134
  27 H :    0.149700
  28 H :    0.363551
Sum of atomic charges:   -0.0000000

LOEWDIN ATOMIC CHARGES
----------------------
   0 C :    0.171969
   1 C :   -0.213262
   2 C :   -0.216599
   3 C :   -0.029334
   4 O :   -0.323329
   5 H :    0.093898
   6 H :    0.115539
   7 H :    0.126067
   8 H :    0.115157
   9 H :    0.117056
  10 H :    0.106710
  11 H :    0.106755
  12 C :   -0.042034
  13 H :    0.111817
  14 H :    0.103972
  15 O :   -0.330246
  16 C :    0.003881
  17 C :    0.041288
  18 C :   -0.242887
  19 C :   -0.039288
  20 O :   -0.330456
  21 H :    0.124560
  22 O :   -0.413636
  23 H :    0.115011
  24 H :    0.126102
  25 H :    0.112178
  26 H :    0.102468
  27 H :    0.103929
  28 H :    0.282712

  Mayer bond orders larger than 0.100000
B(  0-C ,  1-C ) :   0.9471 B(  0-C ,  4-O ) :   0.8944 B(  0-C ,  5-H ) :   0.9206
B(  0-C , 15-O ) :   0.8649 B(  1-C ,  2-C ) :   0.9565 B(  1-C ,  6-H ) :   0.9402
B(  1-C ,  7-H ) :   0.9363 B(  2-C ,  3-C ) :   0.9540 B(  2-C ,  8-H ) :   0.9447
B(  2-C ,  9-H ) :   0.9453 B(  3-C ,  4-O ) :   0.8284 B(  3-C , 10-H ) :   0.9237
B(  3-C , 11-H ) :   0.9407 B( 12-C , 13-H ) :   0.9394 B( 12-C , 14-H ) :   0.9198
B( 12-C , 15-O ) :   0.8377 B( 12-C , 16-C ) :   0.8847 B( 16-C , 17-C ) :   0.9142
B( 16-C , 20-O ) :   0.8183 B( 16-C , 21-H ) :   0.9180 B( 17-C , 18-C ) :   0.9066
B( 17-C , 22-O ) :   0.8918 B( 17-C , 23-H ) :   0.9212 B( 18-C , 19-C ) :   0.9437
B( 18-C , 24-H ) :   0.9381 B( 18-C , 25-H ) :   0.9353 B( 19-C , 20-O ) :   0.8424
B( 19-C , 26-H ) :   0.9355 B( 19-C , 27-H ) :   0.9380 B( 22-O , 28-H ) :   0.7958

FINAL SINGLE POINT ENERGY      -652.864555524665

DIPOLE MOMENT
-------------
                                X             Y             Z
Electronic contribution:      0.56551      -4.39099      -0.51225
Nuclear contribution   :     -0.79344       5.08309       0.35024
                        -----------------------------------------
Total Dipole Moment    :     -0.22794       0.69209      -0.16201
                        -----------------------------------------
Magnitude (a.u.)       :      0.74645
Magnitude (Debye)      :      1.89733

Rotational constants in cm-1:     0.051216     0.016780     0.014697
Rotational constants in MHz :  1535.415579   503.062413   440.618120

                             ****ORCA TERMINATED NORMALLY****
TOTAL RUN TIME: 0 days 0 hours 26 minutes 49 seconds 11 msec
