                         Program Version 4.2.0 -  RELEASE  -
|  1> # Test redundant internal optimization
|  2> #
|  3> ! RKS B3LYP  Opt TightSCF SmallPrint
|  4>
|  5> %basis
|  6>         Basis "6-31G"
|  7> end
|  8>
|  9> %geom
| 10> Constraints
| 11> { D 4  0  15  12  255.0   C } # D for Dihedral angle
| 12> { D 0  15  12  16  165.0   C } # D for Dihedral angle
| 13> { D 0  4  3  2   C } # D for Dihedral angle
| 14> { D 4  3  2  1   C } # D for Dihedral angle
| 15> { D 3  2  1  0   C } # D for Dihedral angle
| 16> { D 2  1  0  4   C } # D for Dihedral angle
| 17> { D 1  0  4  3   C } # D for Dihedral angle
| 18> { D 16  20  19  18   C } # D for Dihedral angle
| 19> { D 20  19  18  17   C } # D for Dihedral angle
| 20> { D 19  18  17  16   C } # D for Dihedral angle
| 21> { D 18  17  16  20   C } # D for Dihedral angle
| 22> { D 17  16  20  19   C } # D for Dihedral angle
| 23> { D 15  12  16  20   C } # D for Dihedral angle
| 24> end
| 25> end
| 26>
| 27>
| 28> #%pal
| 29> #nprocs 8
| 30> #end
| 31>
| 32> * xyz 0 1
| 33> C  -21.048   26.222   46.251
| 34> C  -20.361   27.558   45.944
| 35> C  -20.329   28.222   47.341
| 36> C  -20.110   27.022   48.296
| 37> O  -20.473   25.807   47.535
| 38> H  -20.833   25.428   45.533
| 39> H  -19.344   27.382   45.576
| 40> H  -20.898   28.157   45.201
| 41> H  -19.543   28.978   47.434
| 42> H  -21.289   28.710   47.548
| 43> H  -20.733   27.082   49.195
| 44> H  -19.064   26.913   48.597
| 45> C  -23.431   25.260   45.734
| 46> H  -23.410   25.365   44.642
| 47> H  -23.014   24.277   45.991
| 48> O  -22.586   26.394   46.375
| 49> C  -24.914   25.280   46.197
| 50> C  -25.689   24.082   45.638
| 51> C  -25.245   22.948   46.592
| 52> C  -25.097   23.671   47.953
| 53> O  -24.998   25.116   47.653
| 54> H  -25.350   26.252   45.959
| 55> O  -27.217   24.332   45.757
| 56> H  -25.454   23.870   44.588
| 57> H  -25.964   22.123   46.634
| 58> H  -24.282   22.537   46.266
| 59> H  -24.200   23.357   48.500
| 60> H  -25.970   23.534   48.596
| 61> H  -27.475   24.546   46.800
| 62> *
| 63>
| 64>                          ****END OF INPUT****
 Total Charge           Charge          ....    0
 Multiplicity           Mult            ....    1
 Number of Electrons    NEL             ....  102
FINAL SINGLE POINT ENERGY      -652.832696964252
FINAL SINGLE POINT ENERGY      -652.856464871421
FINAL SINGLE POINT ENERGY      -652.860393353435
FINAL SINGLE POINT ENERGY      -652.861104464642
FINAL SINGLE POINT ENERGY      -652.861202060929
FINAL SINGLE POINT ENERGY      -652.861211087693
                    ***********************HURRAY********************

CARTESIAN COORDINATES (ANGSTROEM)
---------------------------------
  C    -21.066039   26.151067   46.184250
  C    -20.519026   27.558271   45.944922
  C    -20.570816   28.166423   47.366685
  C    -20.240571   26.958720   48.271626
  O    -20.474604   25.752185   47.439487
  H    -20.782284   25.396773   45.444514
  H    -19.484910   27.491877   45.586218
  H    -21.113880   28.112433   45.215890
  H    -19.865317   28.992263   47.497841
  H    -21.580640   28.533675   47.571090
  H    -20.877808   26.901458   49.157153
  H    -19.189841   26.929620   48.576187
  C    -23.275006   25.179919   45.686536
  H    -23.288733   25.290569   44.590767
  H    -22.824903   24.207667   45.933363
  O    -22.506199   26.248303   46.292643
  C    -24.701610   25.261540   46.221903
  C    -25.625134   24.153317   45.697978
  C    -25.282027   22.978013   46.650721
  C    -25.011289   23.690197   47.998964
  O    -24.758897   25.115762   47.677378
  H    -25.102952   26.254785   45.998230
  O    -27.020488   24.546559   45.810132
  H    -25.478881   23.911534   44.644116
  H    -26.111184   22.267526   46.699678
  H    -24.393230   22.446224   46.293432
  H    -24.141334   23.285680   48.524830
  H    -25.873902   23.658573   48.672565
  H    -27.159496   24.984066   46.676901

 Multiplicity           Mult            ....    1
 Number of Electrons    NEL             ....  102
 Basis Dimension        Dim             ....  149

ORBITAL ENERGIES
----------------

  NO   OCC          E(Eh)            E(eV)
   0   2.0000     -19.139119      -520.8019
   1   2.0000     -19.139052      -520.8001
   2   2.0000     -19.138951      -520.7973
   3   2.0000     -19.133325      -520.6442
   4   2.0000     -10.276297      -279.6323
   5   2.0000     -10.243242      -278.7328
   6   2.0000     -10.234139      -278.4851
   7   2.0000     -10.233997      -278.4812
   8   2.0000     -10.228338      -278.3272
   9   2.0000     -10.218994      -278.0730
  10   2.0000     -10.189123      -277.2601
  11   2.0000     -10.181394      -277.0498
  12   2.0000     -10.180050      -277.0133
  13   2.0000      -1.050051       -28.5733
  14   2.0000      -1.035007       -28.1640
  15   2.0000      -1.005497       -27.3610
  16   2.0000      -0.990761       -26.9600
  17   2.0000      -0.788224       -21.4487
  18   2.0000      -0.779508       -21.2115
  19   2.0000      -0.766099       -20.8466
  20   2.0000      -0.727090       -19.7851
  21   2.0000      -0.672733       -18.3060
  22   2.0000      -0.603932       -16.4338
  23   2.0000      -0.593467       -16.1490
  24   2.0000      -0.589453       -16.0398
  25   2.0000      -0.585130       -15.9222
  26   2.0000      -0.526500       -14.3268
  27   2.0000      -0.510499       -13.8914
  28   2.0000      -0.490885       -13.3577
  29   2.0000      -0.484224       -13.1764
  30   2.0000      -0.477139       -12.9836
  31   2.0000      -0.457649       -12.4533
  32   2.0000      -0.451162       -12.2767
  33   2.0000      -0.433128       -11.7860
  34   2.0000      -0.429542       -11.6884
  35   2.0000      -0.403235       -10.9726
  36   2.0000      -0.398804       -10.8520
  37   2.0000      -0.393022       -10.6947
  38   2.0000      -0.373920       -10.1749
  39   2.0000      -0.371622       -10.1124
  40   2.0000      -0.356228        -9.6935
  41   2.0000      -0.351558        -9.5664
  42   2.0000      -0.345690        -9.4067
  43   2.0000      -0.330099        -8.9825
  44   2.0000      -0.316892        -8.6231
  45   2.0000      -0.306485        -8.3399
  46   2.0000      -0.300668        -8.1816
  47   2.0000      -0.271207        -7.3799
  48   2.0000      -0.263010        -7.1569
  49   2.0000      -0.244847        -6.6626
  50   2.0000      -0.242461        -6.5977
  51   0.0000       0.067224         1.8293
  52   0.0000       0.083137         2.2623
  53   0.0000       0.089265         2.4290
  54   0.0000       0.101177         2.7532
  55   0.0000       0.106410         2.8956

MULLIKEN ATOMIC CHARGES
-----------------------
   0 C :    0.283620
   1 C :   -0.253225
   2 C :   -0.299698
   3 C :    0.000539
   4 O :   -0.505420
   5 H :    0.135953
   6 H :    0.140859
   7 H :    0.148304
   8 H :    0.138190
   9 H :    0.167739
  10 H :    0.154894
  11 H :    0.137853
  12 C :    0.000348
  13 H :    0.127921
  14 H :    0.136395
  15 O :   -0.510483
  16 C :    0.069005
  17 C :    0.075658
  18 C :   -0.296164
  19 C :   -0.030451
  20 O :   -0.508406
  21 H :    0.167693
  22 O :   -0.603529
  23 H :    0.149176
  24 H :    0.163827
  25 H :    0.143018
  26 H :    0.154677
  27 H :    0.145168
  28 H :    0.366539
Sum of atomic charges:   -0.0000000

LOEWDIN ATOMIC CHARGES
----------------------
   0 C :    0.174556
   1 C :   -0.218190
   2 C :   -0.215941
   3 C :   -0.025967
   4 O :   -0.322587
   5 H :    0.096828
   6 H :    0.111319
   7 H :    0.119614
   8 H :    0.112303
   9 H :    0.121947
  10 H :    0.109652
  11 H :    0.100273
  12 C :   -0.040892
  13 H :    0.093658
  14 H :    0.097586
  15 O :   -0.322861
  16 C :    0.018772
  17 C :    0.035460
  18 C :   -0.241383
  19 C :   -0.038275
  20 O :   -0.318814
  21 H :    0.120053
  22 O :   -0.415023
  23 H :    0.114086
  24 H :    0.126924
  25 H :    0.112227
  26 H :    0.108374
  27 H :    0.101975
  28 H :    0.284325

  Mayer bond orders larger than 0.100000
B(  0-C ,  1-C ) :   0.9462 B(  0-C ,  4-O ) :   0.9241 B(  0-C ,  5-H ) :   0.9201
B(  0-C , 15-O ) :   0.8521 B(  1-C ,  2-C ) :   0.9581 B(  1-C ,  6-H ) :   0.9390
B(  1-C ,  7-H ) :   0.9381 B(  2-C ,  3-C ) :   0.9551 B(  2-C ,  8-H ) :   0.9454
B(  2-C ,  9-H ) :   0.9427 B(  3-C ,  4-O ) :   0.8368 B(  3-C , 10-H ) :   0.9344
B(  3-C , 11-H ) :   0.9401 B( 12-C , 13-H ) :   0.9116 B( 12-C , 14-H ) :   0.9145
B( 12-C , 15-O ) :   0.8435 B( 12-C , 16-C ) :   0.9014 B( 16-C , 17-C ) :   0.9008
B( 16-C , 20-O ) :   0.8711 B( 16-C , 21-H ) :   0.9242 B( 17-C , 18-C ) :   0.9105
B( 17-C , 22-O ) :   0.8939 B( 17-C , 23-H ) :   0.9333 B( 18-C , 19-C ) :   0.9394
B( 18-C , 24-H ) :   0.9375 B( 18-C , 25-H ) :   0.9342 B( 19-C , 20-O ) :   0.8499
B( 19-C , 26-H ) :   0.9332 B( 19-C , 27-H ) :   0.9378 B( 22-O , 28-H ) :   0.7930

FINAL SINGLE POINT ENERGY      -652.861213247348

DIPOLE MOMENT
-------------
                                X             Y             Z
Electronic contribution:     -2.90195      -0.54009       0.04518
Nuclear contribution   :      3.44009       0.42237      -0.36603
                        -----------------------------------------
Total Dipole Moment    :      0.53814      -0.11773      -0.32086
                        -----------------------------------------
Magnitude (a.u.)       :      0.63750
Magnitude (Debye)      :      1.62038

Rotational constants in cm-1:     0.063593     0.011884     0.011291
Rotational constants in MHz :  1906.456974   356.286567   338.488332

                             ****ORCA TERMINATED NORMALLY****
TOTAL RUN TIME: 0 days 0 hours 21 minutes 0 seconds 537 msec
