                         Program Version 4.2.0 -  RELEASE  -
|  1> # Test redundant internal optimization
|  2> #
|  3> ! RKS B3LYP  Opt TightSCF SmallPrint
|  4>
|  5> %basis
|  6>         Basis "6-31G"
|  7> end
|  8>
|  9> %geom
| 10> Constraints
| 11> { D 4  0  15  12  315.0   C } # D for Dihedral angle
| 12> { D 0  15  12  16  135.0   C } # D for Dihedral angle
| 13> { D 0  4  3  2   C } # D for Dihedral angle
| 14> { D 4  3  2  1   C } # D for Dihedral angle
| 15> { D 3  2  1  0   C } # D for Dihedral angle
| 16> { D 2  1  0  4   C } # D for Dihedral angle
| 17> { D 1  0  4  3   C } # D for Dihedral angle
| 18> { D 16  20  19  18   C } # D for Dihedral angle
| 19> { D 20  19  18  17   C } # D for Dihedral angle
| 20> { D 19  18  17  16   C } # D for Dihedral angle
| 21> { D 18  17  16  20   C } # D for Dihedral angle
| 22> { D 17  16  20  19   C } # D for Dihedral angle
| 23> { D 15  12  16  20   C } # D for Dihedral angle
| 24> end
| 25> end
| 26>
| 27>
| 28> #%pal
| 29> #nprocs 8
| 30> #end
| 31>
| 32> * xyz 0 1
| 33> C  -21.048   26.222   46.251
| 34> C  -20.361   27.558   45.944
| 35> C  -20.329   28.222   47.341
| 36> C  -20.110   27.022   48.296
| 37> O  -20.473   25.807   47.535
| 38> H  -20.833   25.428   45.533
| 39> H  -19.344   27.382   45.576
| 40> H  -20.898   28.157   45.201
| 41> H  -19.543   28.978   47.434
| 42> H  -21.289   28.710   47.548
| 43> H  -20.733   27.082   49.195
| 44> H  -19.064   26.913   48.597
| 45> C  -23.319   25.255   47.135
| 46> H  -23.841   24.615   46.412
| 47> H  -22.599   24.634   47.684
| 48> O  -22.586   26.394   46.375
| 49> C  -24.360   25.788   48.157
| 50> C  -23.718   26.764   49.149
| 51> C  -23.648   28.063   48.310
| 52> C  -24.935   27.995   47.450
| 53> O  -25.385   26.586   47.477
| 54> H  -24.870   24.942   48.622
| 55> O  -24.643   26.957   50.381
| 56> H  -22.735   26.435   49.503
| 57> H  -23.606   28.966   48.927
| 58> H  -22.756   28.051   47.672
| 59> H  -24.762   28.297   46.412
| 60> H  -25.746   28.600   47.864
| 61> H  -25.633   27.289   50.051
| 62> *
| 63>
| 64>                          ****END OF INPUT****
 Total Charge           Charge          ....    0
 Multiplicity           Mult            ....    1
 Number of Electrons    NEL             ....  102
FINAL SINGLE POINT ENERGY      -652.831593084551
FINAL SINGLE POINT ENERGY      -652.853698989878
FINAL SINGLE POINT ENERGY      -652.859476108846
FINAL SINGLE POINT ENERGY      -652.862828146838
FINAL SINGLE POINT ENERGY      -652.863183801541
FINAL SINGLE POINT ENERGY      -652.863252069064
FINAL SINGLE POINT ENERGY      -652.863256243524
                    ***********************HURRAY********************

CARTESIAN COORDINATES (ANGSTROEM)
---------------------------------
  C    -21.060132   26.157765   46.319622
  C    -20.328760   27.429049   45.884854
  C    -20.204997   28.194964   47.222455
  C    -19.999443   27.067115   48.259252
  O    -20.459054   25.815752   47.590376
  H    -20.857151   25.292007   45.678108
  H    -19.344499   27.151069   45.495093
  H    -20.876116   27.981360   45.117924
  H    -19.366174   28.899019   47.219499
  H    -21.113948   28.765472   47.422940
  H    -20.573926   27.212850   49.177806
  H    -18.947896   26.911448   48.514114
  C    -23.229209   25.333483   47.120951
  H    -23.730911   24.688282   46.389341
  H    -22.519263   24.736275   47.703067
  O    -22.496931   26.356864   46.359963
  C    -24.295233   25.879580   48.067550
  C    -23.842421   26.811757   49.198279
  C    -23.832289   28.189672   48.488225
  C    -25.028857   28.082826   47.508794
  O    -25.331621   26.642392   47.370289
  H    -24.793697   25.001068   48.496413
  O    -24.787637   26.773299   50.305246
  H    -22.880814   26.534470   49.631260
  H    -23.933213   29.005933   49.208059
  H    -22.907278   28.299712   47.925798
  H    -24.793562   28.489026   46.521497
  H    -25.933865   28.569131   47.888618
  H    -25.698104   26.840362   49.946606

 Multiplicity           Mult            ....    1
 Number of Electrons    NEL             ....  102
 Basis Dimension        Dim             ....  149

ORBITAL ENERGIES
----------------

  NO   OCC          E(Eh)            E(eV)
   0   2.0000     -19.153348      -521.1891
   1   2.0000     -19.148306      -521.0519
   2   2.0000     -19.135698      -520.7088
   3   2.0000     -19.134841      -520.6855
   4   2.0000     -10.283053      -279.8161
   5   2.0000     -10.236715      -278.5552
   6   2.0000     -10.235600      -278.5248
   7   2.0000     -10.231869      -278.4233
   8   2.0000     -10.225865      -278.2599
   9   2.0000     -10.222414      -278.1660
  10   2.0000     -10.194615      -277.4096
  11   2.0000     -10.193034      -277.3666
  12   2.0000     -10.179112      -276.9877
  13   2.0000      -1.058729       -28.8095
  14   2.0000      -1.032213       -28.0879
  15   2.0000      -1.003304       -27.3013
  16   2.0000      -0.995623       -27.0923
  17   2.0000      -0.796603       -21.6767
  18   2.0000      -0.776998       -21.1432
  19   2.0000      -0.764742       -20.8097
  20   2.0000      -0.736575       -20.0432
  21   2.0000      -0.673808       -18.3353
  22   2.0000      -0.609146       -16.5757
  23   2.0000      -0.598410       -16.2836
  24   2.0000      -0.596840       -16.2408
  25   2.0000      -0.574810       -15.6414
  26   2.0000      -0.523072       -14.2335
  27   2.0000      -0.510165       -13.8823
  28   2.0000      -0.502542       -13.6749
  29   2.0000      -0.490144       -13.3375
  30   2.0000      -0.470358       -12.7991
  31   2.0000      -0.462528       -12.5860
  32   2.0000      -0.449462       -12.2305
  33   2.0000      -0.436401       -11.8751
  34   2.0000      -0.420248       -11.4355
  35   2.0000      -0.414016       -11.2659
  36   2.0000      -0.408383       -11.1127
  37   2.0000      -0.387280       -10.5384
  38   2.0000      -0.377305       -10.2670
  39   2.0000      -0.368463       -10.0264
  40   2.0000      -0.365474        -9.9451
  41   2.0000      -0.356283        -9.6950
  42   2.0000      -0.351900        -9.5757
  43   2.0000      -0.342328        -9.3152
  44   2.0000      -0.325147        -8.8477
  45   2.0000      -0.303925        -8.2702
  46   2.0000      -0.301849        -8.2137
  47   2.0000      -0.270303        -7.3553
  48   2.0000      -0.266992        -7.2652
  49   2.0000      -0.263464        -7.1692
  50   2.0000      -0.238378        -6.4866
  51   0.0000       0.063269         1.7216
  52   0.0000       0.076939         2.0936
  53   0.0000       0.091180         2.4811
  54   0.0000       0.101530         2.7628
  55   0.0000       0.104314         2.8385

MULLIKEN ATOMIC CHARGES
-----------------------
   0 C :    0.294773
   1 C :   -0.267207
   2 C :   -0.308730
   3 C :   -0.016124
   4 O :   -0.514938
   5 H :    0.149086
   6 H :    0.151502
   7 H :    0.161316
   8 H :    0.146374
   9 H :    0.161414
  10 H :    0.148100
  11 H :    0.151827
  12 C :   -0.015501
  13 H :    0.150865
  14 H :    0.164018
  15 O :   -0.527590
  16 C :    0.071309
  17 C :    0.070722
  18 C :   -0.302866
  19 C :   -0.015974
  20 O :   -0.526305
  21 H :    0.154070
  22 O :   -0.604561
  23 H :    0.154065
  24 H :    0.147683
  25 H :    0.170477
  26 H :    0.153307
  27 H :    0.135395
  28 H :    0.363496
Sum of atomic charges:    0.0000000

LOEWDIN ATOMIC CHARGES
----------------------
   0 C :    0.173224
   1 C :   -0.212020
   2 C :   -0.218817
   3 C :   -0.030918
   4 O :   -0.327591
   5 H :    0.094722
   6 H :    0.118508
   7 H :    0.126929
   8 H :    0.116572
   9 H :    0.114470
  10 H :    0.103331
  11 H :    0.107857
  12 C :   -0.045226
  13 H :    0.109337
  14 H :    0.117900
  15 O :   -0.334956
  16 C :    0.012969
  17 C :    0.037860
  18 C :   -0.242971
  19 C :   -0.032219
  20 O :   -0.329904
  21 H :    0.116508
  22 O :   -0.417351
  23 H :    0.114966
  24 H :    0.119269
  25 H :    0.120655
  26 H :    0.108711
  27 H :    0.095905
  28 H :    0.282278

  Mayer bond orders larger than 0.100000
B(  0-C ,  1-C ) :   0.9436 B(  0-C ,  4-O ) :   0.8917 B(  0-C ,  5-H ) :   0.9226
B(  0-C , 15-O ) :   0.8676 B(  1-C ,  2-C ) :   0.9568 B(  1-C ,  6-H ) :   0.9386
B(  1-C ,  7-H ) :   0.9355 B(  2-C ,  3-C ) :   0.9546 B(  2-C ,  8-H ) :   0.9436
B(  2-C ,  9-H ) :   0.9306 B(  3-C ,  4-O ) :   0.8338 B(  3-C , 10-H ) :   0.9289
B(  3-C , 11-H ) :   0.9398 B( 12-C , 13-H ) :   0.9248 B( 12-C , 14-H ) :   0.8998
B( 12-C , 15-O ) :   0.8358 B( 12-C , 16-C ) :   0.9093 B( 16-C , 17-C ) :   0.9091
B( 16-C , 20-O ) :   0.8669 B( 16-C , 21-H ) :   0.9182 B( 17-C , 18-C ) :   0.9245
B( 17-C , 22-O ) :   0.8877 B( 17-C , 23-H ) :   0.9307 B( 18-C , 19-C ) :   0.9442
B( 18-C , 24-H ) :   0.9389 B( 18-C , 25-H ) :   0.8994 B( 19-C , 20-O ) :   0.8410
B( 19-C , 26-H ) :   0.9337 B( 19-C , 27-H ) :   0.9377 B( 22-O , 28-H ) :   0.7954

FINAL SINGLE POINT ENERGY      -652.863254855403

DIPOLE MOMENT
-------------
                                X             Y             Z
Electronic contribution:     -3.84381      -4.25265       0.24601
Nuclear contribution   :      4.72419       4.95162      -0.60357
                        -----------------------------------------
Total Dipole Moment    :      0.88038       0.69896      -0.35756
                        -----------------------------------------
Magnitude (a.u.)       :      1.17960
Magnitude (Debye)      :      2.99832

Rotational constants in cm-1:     0.045180     0.017285     0.016411
Rotational constants in MHz :  1354.470231   518.191004   491.990347

                             ****ORCA TERMINATED NORMALLY****
TOTAL RUN TIME: 0 days 1 hours 8 minutes 24 seconds 874 msec
