                         Program Version 4.2.0 -  RELEASE  -
|  1> # Test redundant internal optimization
|  2> #
|  3> ! RKS B3LYP  Opt TightSCF SmallPrint
|  4>
|  5> %basis
|  6>         Basis "6-31G"
|  7> end
|  8>
|  9> %geom
| 10> Constraints
| 11> { D 4  0  15  12  255.0   C } # D for Dihedral angle
| 12> { D 0  15  12  16  285.0   C } # D for Dihedral angle
| 13> { D 0  4  3  2   C } # D for Dihedral angle
| 14> { D 4  3  2  1   C } # D for Dihedral angle
| 15> { D 3  2  1  0   C } # D for Dihedral angle
| 16> { D 2  1  0  4   C } # D for Dihedral angle
| 17> { D 1  0  4  3   C } # D for Dihedral angle
| 18> { D 16  20  19  18   C } # D for Dihedral angle
| 19> { D 20  19  18  17   C } # D for Dihedral angle
| 20> { D 19  18  17  16   C } # D for Dihedral angle
| 21> { D 18  17  16  20   C } # D for Dihedral angle
| 22> { D 17  16  20  19   C } # D for Dihedral angle
| 23> { D 15  12  16  20   C } # D for Dihedral angle
| 24> end
| 25> end
| 26>
| 27>
| 28> #%pal
| 29> #nprocs 8
| 30> #end
| 31>
| 32> * xyz 0 1
| 33> C  -21.048   26.222   46.251
| 34> C  -20.361   27.558   45.944
| 35> C  -20.329   28.222   47.341
| 36> C  -20.110   27.022   48.296
| 37> O  -20.473   25.807   47.535
| 38> H  -20.833   25.428   45.533
| 39> H  -19.344   27.382   45.576
| 40> H  -20.898   28.157   45.201
| 41> H  -19.543   28.978   47.434
| 42> H  -21.289   28.710   47.548
| 43> H  -20.733   27.082   49.195
| 44> H  -19.064   26.913   48.597
| 45> C  -23.431   25.260   45.734
| 46> H  -23.009   24.288   46.019
| 47> H  -24.467   25.302   46.093
| 48> O  -22.586   26.394   46.375
| 49> C  -23.466   25.340   44.182
| 50> C  -24.400   24.279   43.590
| 51> C  -25.789   24.926   43.809
| 52> C  -25.509   26.436   43.607
| 53> O  -24.048   26.615   43.748
| 54> H  -22.444   25.308   43.799
| 55> H  -24.197   24.152   42.521
| 56> O  -24.266   22.894   44.282
| 57> H  -26.548   24.546   43.118
| 58> H  -26.138   24.731   44.830
| 59> H  -26.020   27.060   44.349
| 60> H  -25.781   26.781   42.605
| 61> H  -24.466   22.996   45.354
| 62> *
| 63>
| 64>                          ****END OF INPUT****
 Total Charge           Charge          ....    0
 Multiplicity           Mult            ....    1
 Number of Electrons    NEL             ....  102
FINAL SINGLE POINT ENERGY      -652.828255361141
FINAL SINGLE POINT ENERGY      -652.852033570021
FINAL SINGLE POINT ENERGY      -652.856775405026
FINAL SINGLE POINT ENERGY      -652.857664505755
FINAL SINGLE POINT ENERGY      -652.857822265140
FINAL SINGLE POINT ENERGY      -652.857840955379
FINAL SINGLE POINT ENERGY      -652.857844448600
                    ***********************HURRAY********************

CARTESIAN COORDINATES (ANGSTROEM)
---------------------------------
  C    -21.054613   26.174533   46.209318
  C    -20.445885   27.544677   45.911454
  C    -20.434294   28.197708   47.312710
  C    -20.141520   27.005538   48.250797
  O    -20.452850   25.784589   47.465785
  H    -20.818572   25.382583   45.493456
  H    -19.425308   27.415873   45.531730
  H    -21.035659   28.099316   45.179037
  H    -19.686706   28.991886   47.402080
  H    -21.419805   28.622116   47.525905
  H    -20.757487   27.009735   49.153625
  H    -19.086489   26.935617   48.533098
  C    -23.332820   25.299366   45.800542
  H    -22.967663   24.309664   46.111689
  H    -24.310683   25.473466   46.258961
  O    -22.485294   26.342109   46.350744
  C    -23.427392   25.346846   44.272363
  C    -24.368525   24.283404   43.681179
  C    -25.762769   24.961551   43.847458
  C    -25.444447   26.454473   43.613902
  O    -23.977679   26.611143   43.790380
  H    -22.423907   25.275162   43.841491
  H    -24.137947   24.146903   42.622329
  O    -24.254036   22.957679   44.249349
  H    -26.500448   24.566380   43.144603
  H    -26.135505   24.784412   44.865050
  H    -25.959687   27.116856   44.315935
  H    -25.678172   26.771910   42.593595
  H    -24.663836   22.923505   45.137436

 Multiplicity           Mult            ....    1
 Number of Electrons    NEL             ....  102
 Basis Dimension        Dim             ....  149

ORBITAL ENERGIES
----------------

  NO   OCC          E(Eh)            E(eV)
   0   2.0000     -19.152423      -521.1639
   1   2.0000     -19.140031      -520.8267
   2   2.0000     -19.137595      -520.7604
   3   2.0000     -19.131482      -520.5941
   4   2.0000     -10.272880      -279.5393
   5   2.0000     -10.248336      -278.8714
   6   2.0000     -10.233731      -278.4740
   7   2.0000     -10.232789      -278.4483
   8   2.0000     -10.230768      -278.3934
   9   2.0000     -10.217980      -278.0454
  10   2.0000     -10.198390      -277.5123
  11   2.0000     -10.177854      -276.9535
  12   2.0000     -10.176530      -276.9175
  13   2.0000      -1.047472       -28.5031
  14   2.0000      -1.035741       -28.1840
  15   2.0000      -1.018032       -27.7021
  16   2.0000      -0.988456       -26.8973
  17   2.0000      -0.786177       -21.3930
  18   2.0000      -0.779813       -21.2198
  19   2.0000      -0.765412       -20.8279
  20   2.0000      -0.728998       -19.8371
  21   2.0000      -0.679507       -18.4903
  22   2.0000      -0.614505       -16.7215
  23   2.0000      -0.600623       -16.3438
  24   2.0000      -0.590366       -16.0647
  25   2.0000      -0.567742       -15.4491
  26   2.0000      -0.533012       -14.5040
  27   2.0000      -0.512664       -13.9503
  28   2.0000      -0.494857       -13.4658
  29   2.0000      -0.486802       -13.2466
  30   2.0000      -0.465976       -12.6798
  31   2.0000      -0.450394       -12.2558
  32   2.0000      -0.443701       -12.0737
  33   2.0000      -0.435155       -11.8412
  34   2.0000      -0.429633       -11.6909
  35   2.0000      -0.421620       -11.4729
  36   2.0000      -0.407977       -11.1016
  37   2.0000      -0.394451       -10.7335
  38   2.0000      -0.380882       -10.3643
  39   2.0000      -0.365078        -9.9343
  40   2.0000      -0.356475        -9.7002
  41   2.0000      -0.349016        -9.4972
  42   2.0000      -0.342903        -9.3309
  43   2.0000      -0.333498        -9.0749
  44   2.0000      -0.319303        -8.6887
  45   2.0000      -0.312402        -8.5009
  46   2.0000      -0.298657        -8.1269
  47   2.0000      -0.274689        -7.4747
  48   2.0000      -0.267518        -7.2795
  49   2.0000      -0.247369        -6.7313
  50   2.0000      -0.234481        -6.3805
  51   0.0000       0.050385         1.3710
  52   0.0000       0.077569         2.1108
  53   0.0000       0.085977         2.3395
  54   0.0000       0.092734         2.5234
  55   0.0000       0.101203         2.7539

MULLIKEN ATOMIC CHARGES
-----------------------
   0 C :    0.276999
   1 C :   -0.254182
   2 C :   -0.300804
   3 C :   -0.000117
   4 O :   -0.509849
   5 H :    0.140566
   6 H :    0.139404
   7 H :    0.165794
   8 H :    0.138459
   9 H :    0.164457
  10 H :    0.146540
  11 H :    0.138558
  12 C :   -0.022969
  13 H :    0.139305
  14 H :    0.144083
  15 O :   -0.504731
  16 C :    0.081660
  17 C :    0.085841
  18 C :   -0.324230
  19 C :   -0.007213
  20 O :   -0.508768
  21 H :    0.153798
  22 H :    0.168556
  23 O :   -0.599506
  24 H :    0.160627
  25 H :    0.132437
  26 H :    0.149829
  27 H :    0.147487
  28 H :    0.357970
Sum of atomic charges:   -0.0000000

LOEWDIN ATOMIC CHARGES
----------------------
   0 C :    0.172123
   1 C :   -0.217713
   2 C :   -0.216442
   3 C :   -0.026986
   4 O :   -0.324954
   5 H :    0.097423
   6 H :    0.110961
   7 H :    0.127772
   8 H :    0.112290
   9 H :    0.120221
  10 H :    0.105214
  11 H :    0.100578
  12 C :   -0.049176
  13 H :    0.101506
  14 H :    0.109026
  15 O :   -0.317198
  16 C :    0.006473
  17 C :    0.034681
  18 C :   -0.240675
  19 C :   -0.028538
  20 O :   -0.318527
  21 H :    0.111039
  22 H :    0.119592
  23 O :   -0.406546
  24 H :    0.123868
  25 H :    0.103844
  26 H :    0.105512
  27 H :    0.105655
  28 H :    0.278974

  Mayer bond orders larger than 0.100000
B(  0-C ,  1-C ) :   0.9452 B(  0-C ,  4-O ) :   0.9167 B(  0-C ,  5-H ) :   0.9168
B(  0-C , 15-O ) :   0.8499 B(  1-C ,  2-C ) :   0.9575 B(  1-C ,  6-H ) :   0.9393
B(  1-C ,  7-H ) :   0.9338 B(  2-C ,  3-C ) :   0.9546 B(  2-C ,  8-H ) :   0.9456
B(  2-C ,  9-H ) :   0.9437 B(  3-C ,  4-O ) :   0.8404 B(  3-C , 10-H ) :   0.9356
B(  3-C , 11-H ) :   0.9402 B( 12-C , 13-H ) :   0.9047 B( 12-C , 14-H ) :   0.9405
B( 12-C , 15-O ) :   0.8681 B( 12-C , 16-C ) :   0.8845 B( 16-C , 17-C ) :   0.8705
B( 16-C , 20-O ) :   0.8667 B( 16-C , 21-H ) :   0.9282 B( 17-C , 18-C ) :   0.9229
B( 17-C , 22-H ) :   0.9321 B( 17-C , 23-O ) :   0.9002 B( 18-C , 19-C ) :   0.9378
B( 18-C , 24-H ) :   0.9415 B( 18-C , 25-H ) :   0.9417 B( 19-C , 20-O ) :   0.8471
B( 19-C , 26-H ) :   0.9310 B( 19-C , 27-H ) :   0.9384 B( 23-O , 28-H ) :   0.7968

FINAL SINGLE POINT ENERGY      -652.857844699415

DIPOLE MOMENT
-------------
                                X             Y             Z
Electronic contribution:      0.23710      -2.98041      -0.60582
Nuclear contribution   :     -0.97394       3.26359       0.51061
                        -----------------------------------------
Total Dipole Moment    :     -0.73684       0.28318      -0.09521
                        -----------------------------------------
Magnitude (a.u.)       :      0.79510
Magnitude (Debye)      :      2.02099

Rotational constants in cm-1:     0.059080     0.012523     0.011235
Rotational constants in MHz :  1771.185631   375.437714   336.819432

                             ****ORCA TERMINATED NORMALLY****
TOTAL RUN TIME: 0 days 2 hours 1 minutes 30 seconds 804 msec
