                         Program Version 4.2.0 -  RELEASE  -
|  1> # Test redundant internal optimization
|  2> #
|  3> ! RKS B3LYP  Opt TightSCF SmallPrint
|  4>
|  5> %basis
|  6>         Basis "6-31G"
|  7> end
|  8>
|  9> %geom
| 10> Constraints
| 11> { D 4  0  15  12  270.0   C } # D for Dihedral angle
| 12> { D 0  15  12  16  165.0   C } # D for Dihedral angle
| 13> { D 0  4  3  2   C } # D for Dihedral angle
| 14> { D 4  3  2  1   C } # D for Dihedral angle
| 15> { D 3  2  1  0   C } # D for Dihedral angle
| 16> { D 2  1  0  4   C } # D for Dihedral angle
| 17> { D 1  0  4  3   C } # D for Dihedral angle
| 18> { D 16  20  19  18   C } # D for Dihedral angle
| 19> { D 20  19  18  17   C } # D for Dihedral angle
| 20> { D 19  18  17  16   C } # D for Dihedral angle
| 21> { D 18  17  16  20   C } # D for Dihedral angle
| 22> { D 17  16  20  19   C } # D for Dihedral angle
| 23> { D 15  12  16  20   C } # D for Dihedral angle
| 24> end
| 25> end
| 26>
| 27>
| 28> #%pal
| 29> #nprocs 8
| 30> #end
| 31>
| 32> * xyz 0 1
| 33> C  -21.048   26.222   46.251
| 34> C  -20.361   27.558   45.944
| 35> C  -20.329   28.222   47.341
| 36> C  -20.110   27.022   48.296
| 37> O  -20.473   25.807   47.535
| 38> H  -20.833   25.428   45.533
| 39> H  -19.344   27.382   45.576
| 40> H  -20.898   28.157   45.201
| 41> H  -19.543   28.978   47.434
| 42> H  -21.289   28.710   47.548
| 43> H  -20.733   27.082   49.195
| 44> H  -19.064   26.913   48.597
| 45> C  -23.420   25.119   46.072
| 46> H  -23.429   24.941   44.990
| 47> H  -22.972   24.243   46.560
| 48> O  -22.586   26.394   46.375
| 49> C  -24.890   25.232   46.562
| 50> C  -25.650   23.918   46.352
| 51> C  -25.153   23.074   47.550
| 52> C  -24.988   24.126   48.676
| 53> O  -24.932   25.446   48.012
| 54> H  -25.356   26.103   46.096
| 55> H  -26.729   24.091   46.422
| 56> O  -25.349   23.252   44.981
| 57> H  -25.850   22.276   47.825
| 58> H  -24.190   22.610   47.310
| 59> H  -24.070   23.978   49.256
| 60> H  -25.841   24.144   49.360
| 61> H  -24.273   23.067   44.888
| 62> *
| 63>
| 64>                          ****END OF INPUT****
 Total Charge           Charge          ....    0
 Multiplicity           Mult            ....    1
 Number of Electrons    NEL             ....  102
FINAL SINGLE POINT ENERGY      -652.829066334197
FINAL SINGLE POINT ENERGY      -652.854040844395
FINAL SINGLE POINT ENERGY      -652.858925127648
FINAL SINGLE POINT ENERGY      -652.859775035234
FINAL SINGLE POINT ENERGY      -652.859920481381
FINAL SINGLE POINT ENERGY      -652.859956993270
FINAL SINGLE POINT ENERGY      -652.859965374909
FINAL SINGLE POINT ENERGY      -652.859968247028
                    ***********************HURRAY********************

CARTESIAN COORDINATES (ANGSTROEM)
---------------------------------
  C    -21.040922   26.162296   46.203158
  C    -20.497614   27.571515   45.965199
  C    -20.536794   28.171474   47.390189
  C    -20.196816   26.960495   48.287062
  O    -20.436364   25.756022   47.453278
  H    -20.763954   25.409088   45.459122
  H    -19.467846   27.506560   45.594699
  H    -21.102175   28.127071   45.245648
  H    -19.830099   28.996854   47.519078
  H    -21.544782   28.536674   47.605665
  H    -20.826027   26.900657   49.178215
  H    -19.143370   26.931275   48.582190
  C    -23.223126   25.065882   46.021884
  H    -23.255425   24.897198   44.935719
  H    -22.736592   24.206410   46.504809
  O    -22.474874   26.273785   46.319044
  C    -24.643202   25.251004   46.548821
  C    -25.545136   24.022397   46.343688
  C    -25.163389   23.137424   47.568882
  C    -24.901808   24.183951   48.674341
  O    -24.686794   25.483929   47.987964
  H    -25.061246   26.151693   46.090130
  H    -26.591836   24.327531   46.404509
  O    -25.428935   23.369189   45.055718
  H    -25.954228   22.428894   47.829176
  H    -24.256287   22.563007   47.337803
  H    -24.021709   23.952483   49.282473
  H    -25.764526   24.311674   49.335821
  H    -24.607125   22.838568   45.013712

 Multiplicity           Mult            ....    1
 Number of Electrons    NEL             ....  102
 Basis Dimension        Dim             ....  149

ORBITAL ENERGIES
----------------

  NO   OCC          E(Eh)            E(eV)
   0   2.0000     -19.150154      -521.1022
   1   2.0000     -19.138849      -520.7946
   2   2.0000     -19.134485      -520.6758
   3   2.0000     -19.133000      -520.6354
   4   2.0000     -10.274558      -279.5849
   5   2.0000     -10.244700      -278.7724
   6   2.0000     -10.229221      -278.3513
   7   2.0000     -10.228639      -278.3354
   8   2.0000     -10.228276      -278.3255
   9   2.0000     -10.218336      -278.0551
  10   2.0000     -10.194932      -277.4182
  11   2.0000     -10.179848      -277.0078
  12   2.0000     -10.178319      -276.9661
  13   2.0000      -1.049696       -28.5637
  14   2.0000      -1.032666       -28.1003
  15   2.0000      -1.013927       -27.5904
  16   2.0000      -0.989435       -26.9239
  17   2.0000      -0.784894       -21.3580
  18   2.0000      -0.779780       -21.2189
  19   2.0000      -0.764411       -20.8007
  20   2.0000      -0.725624       -19.7452
  21   2.0000      -0.677231       -18.4284
  22   2.0000      -0.610490       -16.6123
  23   2.0000      -0.592376       -16.1194
  24   2.0000      -0.585327       -15.9276
  25   2.0000      -0.578421       -15.7396
  26   2.0000      -0.529431       -14.4065
  27   2.0000      -0.509870       -13.8743
  28   2.0000      -0.493579       -13.4310
  29   2.0000      -0.483459       -13.1556
  30   2.0000      -0.469403       -12.7731
  31   2.0000      -0.456084       -12.4107
  32   2.0000      -0.441982       -12.0269
  33   2.0000      -0.433082       -11.7848
  34   2.0000      -0.424495       -11.5511
  35   2.0000      -0.416360       -11.3297
  36   2.0000      -0.399036       -10.8583
  37   2.0000      -0.396737       -10.7958
  38   2.0000      -0.376917       -10.2564
  39   2.0000      -0.371921       -10.1205
  40   2.0000      -0.351532        -9.5657
  41   2.0000      -0.348607        -9.4861
  42   2.0000      -0.341704        -9.2982
  43   2.0000      -0.328848        -8.9484
  44   2.0000      -0.319579        -8.6962
  45   2.0000      -0.314131        -8.5479
  46   2.0000      -0.297674        -8.1001
  47   2.0000      -0.271240        -7.3808
  48   2.0000      -0.262273        -7.1368
  49   2.0000      -0.243667        -6.6305
  50   2.0000      -0.240286        -6.5385
  51   0.0000       0.050705         1.3798
  52   0.0000       0.079595         2.1659
  53   0.0000       0.090152         2.4532
  54   0.0000       0.098602         2.6831
  55   0.0000       0.104895         2.8544

MULLIKEN ATOMIC CHARGES
-----------------------
   0 C :    0.282774
   1 C :   -0.256238
   2 C :   -0.299238
   3 C :    0.000305
   4 O :   -0.510768
   5 H :    0.134529
   6 H :    0.140842
   7 H :    0.152932
   8 H :    0.137282
   9 H :    0.170951
  10 H :    0.153385
  11 H :    0.137412
  12 C :   -0.009744
  13 H :    0.131562
  14 H :    0.131981
  15 O :   -0.509720
  16 C :    0.092217
  17 C :    0.081213
  18 C :   -0.325612
  19 C :   -0.013296
  20 O :   -0.502813
  21 H :    0.163456
  22 H :    0.168737
  23 O :   -0.600402
  24 H :    0.158063
  25 H :    0.134495
  26 H :    0.150543
  27 H :    0.149299
  28 H :    0.355856
Sum of atomic charges:   -0.0000000

LOEWDIN ATOMIC CHARGES
----------------------
   0 C :    0.172250
   1 C :   -0.216120
   2 C :   -0.215707
   3 C :   -0.026197
   4 O :   -0.329505
   5 H :    0.094905
   6 H :    0.111527
   7 H :    0.122096
   8 H :    0.111749
   9 H :    0.123503
  10 H :    0.108843
  11 H :    0.099992
  12 C :   -0.051403
  13 H :    0.096461
  14 H :    0.094956
  15 O :   -0.317658
  16 C :    0.022810
  17 C :    0.034673
  18 C :   -0.242202
  19 C :   -0.031087
  20 O :   -0.311786
  21 H :    0.119435
  22 H :    0.119873
  23 O :   -0.408047
  24 H :    0.122584
  25 H :    0.104480
  26 H :    0.106198
  27 H :    0.105622
  28 H :    0.277754

  Mayer bond orders larger than 0.100000
B(  0-C ,  1-C ) :   0.9484 B(  0-C ,  4-O ) :   0.9143 B(  0-C ,  5-H ) :   0.9195
B(  0-C , 15-O ) :   0.8631 B(  1-C ,  2-C ) :   0.9579 B(  1-C ,  6-H ) :   0.9405
B(  1-C ,  7-H ) :   0.9371 B(  2-C ,  3-C ) :   0.9558 B(  2-C ,  8-H ) :   0.9455
B(  2-C ,  9-H ) :   0.9421 B(  3-C ,  4-O ) :   0.8358 B(  3-C , 10-H ) :   0.9348
B(  3-C , 11-H ) :   0.9404 B( 12-C , 13-H ) :   0.9051 B( 12-C , 14-H ) :   0.9141
B( 12-C , 15-O ) :   0.8429 B( 12-C , 16-C ) :   0.9077 B( 16-C , 17-C ) :   0.8753
B( 16-C , 20-O ) :   0.8764 B( 16-C , 21-H ) :   0.9295 B( 17-C , 18-C ) :   0.9248
B( 17-C , 22-H ) :   0.9332 B( 17-C , 23-O ) :   0.8952 B( 18-C , 19-C ) :   0.9404
B( 18-C , 24-H ) :   0.9413 B( 18-C , 25-H ) :   0.9399 B( 19-C , 20-O ) :   0.8499
B( 19-C , 26-H ) :   0.9303 B( 19-C , 27-H ) :   0.9374 B( 23-O , 28-H ) :   0.7987

FINAL SINGLE POINT ENERGY      -652.859968866210

DIPOLE MOMENT
-------------
                                X             Y             Z
Electronic contribution:     -2.29666      -0.94249      -1.42681
Nuclear contribution   :      2.73190       0.50075       1.42637
                        -----------------------------------------
Total Dipole Moment    :      0.43525      -0.44174      -0.00044
                        -----------------------------------------
Magnitude (a.u.)       :      0.62014
Magnitude (Debye)      :      1.57626

Rotational constants in cm-1:     0.054671     0.013150     0.011967
Rotational constants in MHz :  1639.000105   394.214370   358.766759

                             ****ORCA TERMINATED NORMALLY****
TOTAL RUN TIME: 0 days 1 hours 32 minutes 29 seconds 233 msec
