                         Program Version 4.2.0 -  RELEASE  -
|  1> # Test redundant internal optimization
|  2> #
|  3> ! RKS B3LYP  Opt TightSCF SmallPrint
|  4>
|  5> %basis
|  6>         Basis "6-31G"
|  7> end
|  8>
|  9> %geom
| 10> Constraints
| 11> { D 4  0  15  12  300.0   C } # D for Dihedral angle
| 12> { D 0  15  12  16  315.0   C } # D for Dihedral angle
| 13> { D 0  4  3  2   C } # D for Dihedral angle
| 14> { D 4  3  2  1   C } # D for Dihedral angle
| 15> { D 3  2  1  0   C } # D for Dihedral angle
| 16> { D 2  1  0  4   C } # D for Dihedral angle
| 17> { D 1  0  4  3   C } # D for Dihedral angle
| 18> { D 16  20  19  18   C } # D for Dihedral angle
| 19> { D 20  19  18  17   C } # D for Dihedral angle
| 20> { D 19  18  17  16   C } # D for Dihedral angle
| 21> { D 18  17  16  20   C } # D for Dihedral angle
| 22> { D 17  16  20  19   C } # D for Dihedral angle
| 23> { D 15  12  16  20   C } # D for Dihedral angle
| 24> end
| 25> end
| 26>
| 27>
| 28> #%pal
| 29> #nprocs 8
| 30> #end
| 31>
| 32> * xyz 0 1
| 33> C  -21.048   26.222   46.251
| 34> C  -20.361   27.558   45.944
| 35> C  -20.329   28.222   47.341
| 36> C  -20.110   27.022   48.296
| 37> O  -20.473   25.807   47.535
| 38> H  -20.833   25.428   45.533
| 39> H  -19.344   27.382   45.576
| 40> H  -20.898   28.157   45.201
| 41> H  -19.543   28.978   47.434
| 42> H  -21.289   28.710   47.548
| 43> H  -20.733   27.082   49.195
| 44> H  -19.064   26.913   48.597
| 45> C  -23.362   25.116   46.798
| 46> H  -23.213   24.941   47.871
| 47> H  -24.437   25.242   46.616
| 48> O  -22.586   26.394   46.375
| 49> C  -22.897   23.849   46.027
| 50> C  -23.759   22.634   46.384
| 51> C  -25.022   22.882   45.525
| 52> C  -24.452   23.535   44.242
| 53> O  -23.099   24.024   44.585
| 54> H  -21.826   23.707   46.185
| 55> H  -23.256   21.711   46.074
| 56> O  -24.074   22.533   47.902
| 57> H  -25.579   21.963   45.314
| 58> H  -25.699   23.572   46.042
| 59> H  -25.060   24.378   43.894
| 60> H  -24.338   22.819   43.423
| 61> H  -24.579   23.446   48.236
| 62> *
| 63>
| 64>                          ****END OF INPUT****
 Total Charge           Charge          ....    0
 Multiplicity           Mult            ....    1
 Number of Electrons    NEL             ....  102
FINAL SINGLE POINT ENERGY      -652.830610382668
FINAL SINGLE POINT ENERGY      -652.854978564860
FINAL SINGLE POINT ENERGY      -652.860122176659
FINAL SINGLE POINT ENERGY      -652.861051772951
FINAL SINGLE POINT ENERGY      -652.861222168269
FINAL SINGLE POINT ENERGY      -652.861257062174
FINAL SINGLE POINT ENERGY      -652.861262279666
FINAL SINGLE POINT ENERGY      -652.861264216848
                    ***********************HURRAY********************

CARTESIAN COORDINATES (ANGSTROEM)
---------------------------------
  C    -21.019616   26.182878   46.224501
  C    -20.436636   27.571671   45.958945
  C    -20.425328   28.185471   47.377567
  C    -20.104561   26.974206   48.282493
  O    -20.400273   25.767161   47.468360
  H    -20.776650   25.420593   45.482268
  H    -19.420197   27.465406   45.563547
  H    -21.040135   28.138316   45.247194
  H    -19.689005   28.988129   47.484635
  H    -21.415222   28.588786   47.608987
  H    -20.710024   26.945698   49.192282
  H    -19.046141   26.915520   48.553615
  C    -23.229476   25.184178   46.748346
  H    -23.106655   25.024716   47.828113
  H    -24.260497   25.486439   46.541238
  O    -22.444645   26.347974   46.350626
  C    -22.881723   23.877247   46.034182
  C    -23.792301   22.707692   46.449545
  C    -25.049011   22.943695   45.553091
  C    -24.432718   23.500034   44.249911
  O    -23.064445   23.967134   44.588065
  H    -21.830783   23.630887   46.201412
  H    -23.309121   21.765765   46.180425
  O    -24.063988   22.581113   47.864050
  H    -25.620903   22.025399   45.397489
  H    -25.709508   23.678308   46.032295
  H    -25.000563   24.336953   43.831920
  H    -24.324494   22.728764   43.480987
  H    -24.658380   23.296866   48.167911

 Multiplicity           Mult            ....    1
 Number of Electrons    NEL             ....  102
 Basis Dimension        Dim             ....  149

ORBITAL ENERGIES
----------------

  NO   OCC          E(Eh)            E(eV)
   0   2.0000     -19.149395      -521.0815
   1   2.0000     -19.138812      -520.7936
   2   2.0000     -19.138393      -520.7821
   3   2.0000     -19.135667      -520.7080
   4   2.0000     -10.269763      -279.4545
   5   2.0000     -10.245796      -278.8023
   6   2.0000     -10.231788      -278.4211
   7   2.0000     -10.230124      -278.3758
   8   2.0000     -10.226783      -278.2849
   9   2.0000     -10.221377      -278.1378
  10   2.0000     -10.195846      -277.4431
  11   2.0000     -10.180210      -277.0176
  12   2.0000     -10.178717      -276.9770
  13   2.0000      -1.049319       -28.5534
  14   2.0000      -1.033584       -28.1252
  15   2.0000      -1.016276       -27.6543
  16   2.0000      -0.987037       -26.8587
  17   2.0000      -0.785699       -21.3800
  18   2.0000      -0.780707       -21.2441
  19   2.0000      -0.762934       -20.7605
  20   2.0000      -0.730316       -19.8729
  21   2.0000      -0.677625       -18.4391
  22   2.0000      -0.612078       -16.6555
  23   2.0000      -0.602445       -16.3934
  24   2.0000      -0.593123       -16.1397
  25   2.0000      -0.559077       -15.2133
  26   2.0000      -0.531271       -14.4566
  27   2.0000      -0.509354       -13.8602
  28   2.0000      -0.496660       -13.5148
  29   2.0000      -0.483335       -13.1522
  30   2.0000      -0.467219       -12.7137
  31   2.0000      -0.454294       -12.3620
  32   2.0000      -0.437576       -11.9071
  33   2.0000      -0.434305       -11.8180
  34   2.0000      -0.427756       -11.6398
  35   2.0000      -0.417434       -11.3590
  36   2.0000      -0.401657       -10.9296
  37   2.0000      -0.399173       -10.8620
  38   2.0000      -0.380391       -10.3510
  39   2.0000      -0.366729        -9.9792
  40   2.0000      -0.355537        -9.6747
  41   2.0000      -0.351188        -9.5563
  42   2.0000      -0.341465        -9.2917
  43   2.0000      -0.331240        -9.0135
  44   2.0000      -0.325173        -8.8484
  45   2.0000      -0.314191        -8.5496
  46   2.0000      -0.293272        -7.9803
  47   2.0000      -0.272472        -7.4143
  48   2.0000      -0.267309        -7.2739
  49   2.0000      -0.247667        -6.7394
  50   2.0000      -0.237334        -6.4582
  51   0.0000       0.052687         1.4337
  52   0.0000       0.078838         2.1453
  53   0.0000       0.090652         2.4668
  54   0.0000       0.093140         2.5345
  55   0.0000       0.103324         2.8116

MULLIKEN ATOMIC CHARGES
-----------------------
   0 C :    0.275846
   1 C :   -0.260094
   2 C :   -0.298259
   3 C :   -0.003230
   4 O :   -0.520035
   5 H :    0.167098
   6 H :    0.143959
   7 H :    0.159584
   8 H :    0.138866
   9 H :    0.159886
  10 H :    0.143277
  11 H :    0.142311
  12 C :    0.003036
  13 H :    0.142015
  14 H :    0.137620
  15 O :   -0.522240
  16 C :    0.057186
  17 C :    0.086657
  18 C :   -0.324564
  19 C :   -0.012538
  20 O :   -0.517256
  21 H :    0.179123
  22 H :    0.167162
  23 O :   -0.596593
  24 H :    0.158886
  25 H :    0.135841
  26 H :    0.148116
  27 H :    0.151898
  28 H :    0.356442
Sum of atomic charges:    0.0000000

LOEWDIN ATOMIC CHARGES
----------------------
   0 C :    0.168792
   1 C :   -0.212291
   2 C :   -0.216604
   3 C :   -0.027904
   4 O :   -0.335723
   5 H :    0.105802
   6 H :    0.113357
   7 H :    0.125730
   8 H :    0.112203
   9 H :    0.117952
  10 H :    0.103086
  11 H :    0.102393
  12 C :   -0.050630
  13 H :    0.103507
  14 H :    0.105844
  15 O :   -0.318140
  16 C :    0.003425
  17 C :    0.038908
  18 C :   -0.241953
  19 C :   -0.029933
  20 O :   -0.323957
  21 H :    0.122901
  22 H :    0.119249
  23 O :   -0.403787
  24 H :    0.123275
  25 H :    0.104779
  26 H :    0.104797
  27 H :    0.106881
  28 H :    0.278041

  Mayer bond orders larger than 0.100000
B(  0-C ,  1-C ) :   0.9491 B(  0-C ,  4-O ) :   0.8865 B(  0-C ,  5-H ) :   0.9105
B(  0-C , 15-O ) :   0.8637 B(  1-C ,  2-C ) :   0.9549 B(  1-C ,  6-H ) :   0.9412
B(  1-C ,  7-H ) :   0.9361 B(  2-C ,  3-C ) :   0.9558 B(  2-C ,  8-H ) :   0.9455
B(  2-C ,  9-H ) :   0.9447 B(  3-C ,  4-O ) :   0.8379 B(  3-C , 10-H ) :   0.9362
B(  3-C , 11-H ) :   0.9407 B( 12-C , 13-H ) :   0.9024 B( 12-C , 14-H ) :   0.9388
B( 12-C , 15-O ) :   0.8536 B( 12-C , 16-C ) :   0.8924 B( 16-C , 17-C ) :   0.8681
B( 16-C , 20-O ) :   0.8527 B( 16-C , 21-H ) :   0.9201 B( 17-C , 18-C ) :   0.9205
B( 17-C , 22-H ) :   0.9346 B( 17-C , 23-O ) :   0.9028 B( 18-C , 19-C ) :   0.9394
B( 18-C , 24-H ) :   0.9419 B( 18-C , 25-H ) :   0.9413 B( 19-C , 20-O ) :   0.8450
B( 19-C , 26-H ) :   0.9313 B( 19-C , 27-H ) :   0.9375 B( 23-O , 28-H ) :   0.7971

FINAL SINGLE POINT ENERGY      -652.861264445032

DIPOLE MOMENT
-------------
                                X             Y             Z
Electronic contribution:      0.34479      -2.99445      -0.21927
Nuclear contribution   :     -1.04902       3.45108       0.18215
                        -----------------------------------------
Total Dipole Moment    :     -0.70423       0.45662      -0.03712
                        -----------------------------------------
Magnitude (a.u.)       :      0.84013
Magnitude (Debye)      :      2.13544

Rotational constants in cm-1:     0.057380     0.013599     0.012072
Rotational constants in MHz :  1720.213979   407.690458   361.898215

                             ****ORCA TERMINATED NORMALLY****
TOTAL RUN TIME: 0 days 0 hours 27 minutes 32 seconds 185 msec
