                         Program Version 4.2.1 -  RELEASE  -
|  1> # Test redundant internal optimization
|  2> #
|  3> ! RKS B3LYP  Opt TightSCF SmallPrint
|  4>
|  5> %basis
|  6>         Basis "6-31G"
|  7> end
|  8>
|  9> %geom
| 10> Constraints
| 11> { D 4  0  19  14  315.0   C } # D for Dihedral angle
| 12> { D 0  19  14  12  120.0   C } # D for Dihedral angle
| 13> { D 0  4  3  2   C } # D for Dihedral angle
| 14> { D 4  3  2  1   C } # D for Dihedral angle
| 15> { D 3  2  1  0   C } # D for Dihedral angle
| 16> { D 2  1  0  4   C } # D for Dihedral angle
| 17> { D 1  0  4  3   C } # D for Dihedral angle
| 18> { D 14  15  16  17   C } # D for Dihedral angle
| 19> { D 15  16  17  12   C } # D for Dihedral angle
| 20> { D 16  17  12  14   C } # D for Dihedral angle
| 21> { D 17  12  14  15   C } # D for Dihedral angle
| 22> { D 12  14  15  16   C } # D for Dihedral angle
| 23> end
| 24> end
| 25>
| 26>
| 27> #%pal
| 28> #nprocs 8
| 29> #end
| 30>
| 31> * xyz 0 1
| 32> C  -21.048   26.222   46.251
| 33> C  -20.361   27.558   45.944
| 34> C  -20.329   28.222   47.341
| 35> C  -20.110   27.022   48.296
| 36> O  -20.473   25.807   47.535
| 37> H  -20.833   25.428   45.533
| 38> H  -19.344   27.382   45.576
| 39> H  -20.898   28.157   45.201
| 40> H  -19.543   28.978   47.434
| 41> H  -21.289   28.710   47.548
| 42> H  -20.733   27.082   49.195
| 43> H  -19.064   26.913   48.597
| 44> C  -23.851   25.873   48.306
| 45> H  -24.113   25.070   49.013
| 46> C  -23.132   25.318   47.072
| 47> C  -24.313   24.762   46.243
| 48> C  -25.454   25.768   46.539
| 49> O  -25.065   26.496   47.767
| 50> H  -23.302   26.652   48.838
| 51> O  -22.472   26.381   46.366
| 52> H  -22.387   24.552   47.316
| 53> H  -24.087   24.691   45.175
| 54> H  -24.583   23.759   46.595
| 55> H  -26.418   25.274   46.705
| 56> H  -25.571   26.513   45.746
| 57> *
| 58>
| 59>                          ****END OF INPUT****
 Total Charge           Charge          ....    0
 Multiplicity           Mult            ....    1
 Number of Electrons    NEL             ....   86
FINAL SINGLE POINT ENERGY      -538.434588693166
FINAL SINGLE POINT ENERGY      -538.436818422438
FINAL SINGLE POINT ENERGY      -538.437137937916
FINAL SINGLE POINT ENERGY      -538.437171017155
FINAL SINGLE POINT ENERGY      -538.437180665930
                    ***********************HURRAY********************

CARTESIAN COORDINATES (ANGSTROEM)
---------------------------------
  C    -21.003104   26.182926   46.265128
  C    -20.424305   27.562049   45.949353
  C    -20.392072   28.216224   47.347780
  C    -20.058332   27.035599   48.286356
  O    -20.367229   25.801910   47.510376
  H    -20.756882   25.385875   45.555817
  H    -19.414339   27.443458   45.540974
  H    -21.039624   28.109833   45.232746
  H    -19.654479   29.021578   47.418614
  H    -21.378285   28.627917   47.580189
  H    -20.651576   27.033873   49.204591
  H    -18.996774   26.980937   48.544138
  C    -23.865711   25.862695   48.315018
  H    -24.177848   25.071099   49.013176
  C    -23.140574   25.264050   47.110774
  C    -24.319233   24.768731   46.251311
  C    -25.415140   25.831941   46.502819
  O    -25.025121   26.545211   47.739333
  H    -23.273054   26.609070   48.845570
  O    -22.437179   26.322764   46.380627
  H    -22.438000   24.475310   47.392520
  H    -24.037772   24.689470   45.198286
  H    -24.639188   23.780346   46.601486
  H    -26.407720   25.389613   46.640892
  H    -25.459461   26.577523   45.704127

 Multiplicity           Mult            ....    1
 Number of Electrons    NEL             ....   86
 Basis Dimension        Dim             ....  127

ORBITAL ENERGIES
----------------

  NO   OCC          E(Eh)            E(eV)
   0   2.0000     -19.145415      -520.9732
   1   2.0000     -19.139460      -520.8112
   2   2.0000     -19.124161      -520.3949
   3   2.0000     -10.278754      -279.6991
   4   2.0000     -10.233935      -278.4795
   5   2.0000     -10.228293      -278.3260
   6   2.0000     -10.217564      -278.0341
   7   2.0000     -10.216223      -277.9976
   8   2.0000     -10.185406      -277.1590
   9   2.0000     -10.184979      -277.1474
  10   2.0000     -10.181746      -277.0594
  11   2.0000      -1.054896       -28.7052
  12   2.0000      -1.010718       -27.5030
  13   2.0000      -0.987486       -26.8709
  14   2.0000      -0.792487       -21.5647
  15   2.0000      -0.774681       -21.0801
  16   2.0000      -0.737458       -20.0672
  17   2.0000      -0.719324       -19.5738
  18   2.0000      -0.609216       -16.5776
  19   2.0000      -0.597383       -16.2556
  20   2.0000      -0.594419       -16.1750
  21   2.0000      -0.569797       -15.5050
  22   2.0000      -0.519055       -14.1242
  23   2.0000      -0.502130       -13.6637
  24   2.0000      -0.483761       -13.1638
  25   2.0000      -0.477975       -13.0064
  26   2.0000      -0.452679       -12.3180
  27   2.0000      -0.437099       -11.8941
  28   2.0000      -0.425540       -11.5795
  29   2.0000      -0.413972       -11.2648
  30   2.0000      -0.407951       -11.1009
  31   2.0000      -0.380669       -10.3585
  32   2.0000      -0.367575       -10.0022
  33   2.0000      -0.365539        -9.9468
  34   2.0000      -0.358249        -9.7484
  35   2.0000      -0.352565        -9.5938
  36   2.0000      -0.342448        -9.3185
  37   2.0000      -0.332087        -9.0365
  38   2.0000      -0.299977        -8.1628
  39   2.0000      -0.296547        -8.0695
  40   2.0000      -0.264501        -7.1974
  41   2.0000      -0.255691        -6.9577
  42   2.0000      -0.229331        -6.2404
  43   0.0000       0.078439         2.1344
  44   0.0000       0.092727         2.5232
  45   0.0000       0.102512         2.7895
  46   0.0000       0.111488         3.0337
  47   0.0000       0.114675         3.1205

MULLIKEN ATOMIC CHARGES
-----------------------
   0 C :    0.286612
   1 C :   -0.260503
   2 C :   -0.301892
   3 C :   -0.010477
   4 O :   -0.516489
   5 H :    0.144735
   6 H :    0.143752
   7 H :    0.162243
   8 H :    0.142745
   9 H :    0.168533
  10 H :    0.144604
  11 H :    0.146298
  12 C :    0.009689
  13 H :    0.122708
  14 C :    0.052811
  15 C :   -0.283108
  16 C :    0.003080
  17 O :   -0.522325
  18 H :    0.154635
  19 O :   -0.520704
  20 H :    0.157334
  21 H :    0.152252
  22 H :    0.138316
  23 H :    0.132087
  24 H :    0.153064
Sum of atomic charges:    0.0000000

LOEWDIN ATOMIC CHARGES
----------------------
   0 C :    0.174492
   1 C :   -0.214050
   2 C :   -0.216958
   3 C :   -0.029804
   4 O :   -0.331743
   5 H :    0.095244
   6 H :    0.113580
   7 H :    0.127074
   8 H :    0.114710
   9 H :    0.121753
  10 H :    0.102620
  11 H :    0.104624
  12 C :   -0.037861
  13 H :    0.090844
  14 C :    0.034067
  15 C :   -0.227908
  16 C :   -0.028458
  17 O :   -0.332170
  18 H :    0.114659
  19 O :   -0.327299
  20 H :    0.114312
  21 H :    0.122597
  22 H :    0.110937
  23 H :    0.096886
  24 H :    0.107853

  Mayer bond orders larger than 0.100000
B(  0-C ,  1-C ) :   0.9488 B(  0-C ,  4-O ) :   0.8944 B(  0-C ,  5-H ) :   0.9213
B(  0-C , 19-O ) :   0.8681 B(  1-C ,  2-C ) :   0.9542 B(  1-C ,  6-H ) :   0.9389
B(  1-C ,  7-H ) :   0.9352 B(  2-C ,  3-C ) :   0.9561 B(  2-C ,  8-H ) :   0.9447
B(  2-C ,  9-H ) :   0.9420 B(  3-C ,  4-O ) :   0.8326 B(  3-C , 10-H ) :   0.9335
B(  3-C , 11-H ) :   0.9404 B( 12-C , 13-H ) :   0.9127 B( 12-C , 14-C ) :   0.9292
B( 12-C , 17-O ) :   0.8710 B( 12-C , 18-H ) :   0.9328 B( 14-C , 15-C ) :   0.9481
B( 14-C , 19-O ) :   0.8129 B( 14-C , 20-H ) :   0.9136 B( 15-C , 16-C ) :   0.9460
B( 15-C , 21-H ) :   0.9402 B( 15-C , 22-H ) :   0.9411 B( 16-C , 17-O ) :   0.8574
B( 16-C , 23-H ) :   0.9339 B( 16-C , 24-H ) :   0.9360

FINAL SINGLE POINT ENERGY      -538.437181538403

DIPOLE MOMENT
-------------
                                X             Y             Z
Electronic contribution:     -0.71007      -1.07649       0.18123
Nuclear contribution   :      1.33697       0.82959      -0.45521
                        -----------------------------------------
Total Dipole Moment    :      0.62690      -0.24690      -0.27398
                        -----------------------------------------
Magnitude (a.u.)       :      0.72735
Magnitude (Debye)      :      1.84877

Rotational constants in cm-1:     0.077246     0.021842     0.021106
Rotational constants in MHz :  2315.768314   654.819698   632.746670

                             ****ORCA TERMINATED NORMALLY****
TOTAL RUN TIME: 0 days 0 hours 5 minutes 56 seconds 25 msec
