                         Program Version 4.2.0 -  RELEASE  -
|  1> # Test redundant internal optimization
|  2> #
|  3> ! RKS B3LYP  Opt TightSCF SmallPrint
|  4>
|  5> %basis
|  6>         Basis "6-31G"
|  7> end
|  8>
|  9> %geom
| 10> Constraints
| 11> { D 4  0  15  12  165.0   C } # D for Dihedral angle
| 12> { D 0  15  12  16  240.0   C } # D for Dihedral angle
| 13> { D 0  4  3  2   C } # D for Dihedral angle
| 14> { D 4  3  2  1   C } # D for Dihedral angle
| 15> { D 3  2  1  0   C } # D for Dihedral angle
| 16> { D 2  1  0  4   C } # D for Dihedral angle
| 17> { D 1  0  4  3   C } # D for Dihedral angle
| 18> { D 16  20  19  18   C } # D for Dihedral angle
| 19> { D 20  19  18  17   C } # D for Dihedral angle
| 20> { D 19  18  17  16   C } # D for Dihedral angle
| 21> { D 18  17  16  20   C } # D for Dihedral angle
| 22> { D 17  16  20  19   C } # D for Dihedral angle
| 23> { D 15  12  16  20   C } # D for Dihedral angle
| 24> end
| 25> end
| 26>
| 27>
| 28> #%pal
| 29> #nprocs 8
| 30> #end
| 31>
| 32> * xyz 0 1
| 33> C  -21.048   26.222   46.251
| 34> C  -20.361   27.558   45.944
| 35> C  -20.329   28.222   47.341
| 36> C  -20.110   27.022   48.296
| 37> O  -20.473   25.807   47.535
| 38> H  -20.833   25.428   45.533
| 39> H  -19.344   27.382   45.576
| 40> H  -20.898   28.157   45.201
| 41> H  -19.543   28.978   47.434
| 42> H  -21.289   28.710   47.548
| 43> H  -20.733   27.082   49.195
| 44> H  -19.064   26.913   48.597
| 45> C  -23.260   27.170   45.210
| 46> H  -22.495   27.460   44.478
| 47> H  -23.998   26.536   44.703
| 48> O  -22.586   26.394   46.375
| 49> C  -23.990   28.456   45.688
| 50> C  -23.001   29.477   46.261
| 51> C  -22.415   30.103   44.973
| 52> C  -23.624   30.108   44.003
| 53> O  -24.606   29.148   44.551
| 54> H  -24.797   28.177   46.369
| 55> O  -23.761   30.545   47.093
| 56> H  -22.235   29.024   46.900
| 57> H  -22.007   31.105   45.135
| 58> H  -21.608   29.472   44.581
| 59> H  -23.350   29.800   42.989
| 60> H  -24.118   31.082   43.956
| 61> H  -24.534   31.014   46.473
| 62> *
| 63>
| 64>                          ****END OF INPUT****
 Total Charge           Charge          ....    0
 Multiplicity           Mult            ....    1
 Number of Electrons    NEL             ....  102
FINAL SINGLE POINT ENERGY      -652.800073295076
FINAL SINGLE POINT ENERGY      -652.827904956254
FINAL SINGLE POINT ENERGY      -652.842904567548
FINAL SINGLE POINT ENERGY      -652.846324787648
FINAL SINGLE POINT ENERGY      -652.847043130727
FINAL SINGLE POINT ENERGY      -652.847120815014
FINAL SINGLE POINT ENERGY      -652.847129925323
                    ***********************HURRAY********************

CARTESIAN COORDINATES (ANGSTROEM)
---------------------------------
  C    -21.091799   26.230045   46.273445
  C    -20.134113   27.377408   45.942267
  C    -20.029191   28.123113   47.304510
  C    -20.107095   26.960481   48.319683
  O    -20.678791   25.812581   47.577229
  H    -20.940118   25.363584   45.619354
  H    -19.168782   26.937474   45.671031
  H    -20.454242   28.017896   45.116610
  H    -19.095463   28.686982   47.393770
  H    -20.853181   28.819656   47.442402
  H    -20.748641   27.180070   49.176937
  H    -19.122962   26.643326   48.675508
  C    -23.221638   27.216293   45.250957
  H    -22.530271   27.462381   44.432274
  H    -23.983379   26.548450   44.836642
  O    -22.532429   26.480987   46.304308
  C    -23.951863   28.503028   45.683984
  C    -23.175115   29.685259   46.281709
  C    -22.569869   30.340508   45.011506
  C    -23.677032   30.123273   43.948779
  O    -24.555684   29.051069   44.463733
  H    -24.773043   28.235494   46.356523
  O    -24.091751   30.592433   46.956811
  H    -22.452100   29.401620   47.036449
  H    -22.349477   31.395915   45.187204
  H    -21.639968   29.837991   44.725478
  H    -23.278271   29.822374   42.975210
  H    -24.300179   31.012130   43.808936
  H    -24.903554   30.690177   46.415748

 Multiplicity           Mult            ....    1
 Number of Electrons    NEL             ....  102
 Basis Dimension        Dim             ....  149

ORBITAL ENERGIES
----------------

  NO   OCC          E(Eh)            E(eV)
   0   2.0000     -19.151519      -521.1393
   1   2.0000     -19.143935      -520.9330
   2   2.0000     -19.141683      -520.8717
   3   2.0000     -19.140432      -520.8376
   4   2.0000     -10.283938      -279.8402
   5   2.0000     -10.245128      -278.7841
   6   2.0000     -10.238274      -278.5976
   7   2.0000     -10.238039      -278.5912
   8   2.0000     -10.235471      -278.5213
   9   2.0000     -10.229353      -278.3549
  10   2.0000     -10.198360      -277.5115
  11   2.0000     -10.195965      -277.4463
  12   2.0000     -10.195342      -277.4294
  13   2.0000      -1.053420       -28.6650
  14   2.0000      -1.044209       -28.4144
  15   2.0000      -1.011193       -27.5160
  16   2.0000      -0.994542       -27.0629
  17   2.0000      -0.793893       -21.6029
  18   2.0000      -0.784495       -21.3472
  19   2.0000      -0.773318       -21.0431
  20   2.0000      -0.738466       -20.0947
  21   2.0000      -0.683464       -18.5980
  22   2.0000      -0.611426       -16.6378
  23   2.0000      -0.608698       -16.5635
  24   2.0000      -0.600379       -16.3372
  25   2.0000      -0.580651       -15.8003
  26   2.0000      -0.527648       -14.3580
  27   2.0000      -0.520138       -14.1537
  28   2.0000      -0.505155       -13.7460
  29   2.0000      -0.493711       -13.4346
  30   2.0000      -0.482336       -13.1250
  31   2.0000      -0.459097       -12.4927
  32   2.0000      -0.456729       -12.4282
  33   2.0000      -0.438356       -11.9283
  34   2.0000      -0.430379       -11.7112
  35   2.0000      -0.422799       -11.5049
  36   2.0000      -0.414414       -11.2768
  37   2.0000      -0.400146       -10.8885
  38   2.0000      -0.380871       -10.3640
  39   2.0000      -0.379370       -10.3232
  40   2.0000      -0.364559        -9.9202
  41   2.0000      -0.360743        -9.8163
  42   2.0000      -0.358919        -9.7667
  43   2.0000      -0.336491        -9.1564
  44   2.0000      -0.314609        -8.5609
  45   2.0000      -0.312532        -8.5044
  46   2.0000      -0.297939        -8.1073
  47   2.0000      -0.278176        -7.5696
  48   2.0000      -0.268570        -7.3081
  49   2.0000      -0.260473        -7.0878
  50   2.0000      -0.242089        -6.5876
  51   0.0000       0.054424         1.4810
  52   0.0000       0.064678         1.7600
  53   0.0000       0.084878         2.3096
  54   0.0000       0.090440         2.4610
  55   0.0000       0.097617         2.6563

MULLIKEN ATOMIC CHARGES
-----------------------
   0 C :    0.327805
   1 C :   -0.305245
   2 C :   -0.314106
   3 C :   -0.002382
   4 O :   -0.496724
   5 H :    0.146635
   6 H :    0.158161
   7 H :    0.143736
   8 H :    0.146027
   9 H :    0.161502
  10 H :    0.156043
  11 H :    0.145975
  12 C :   -0.005732
  13 H :    0.116430
  14 H :    0.167948
  15 O :   -0.526776
  16 C :    0.051253
  17 C :    0.068579
  18 C :   -0.298991
  19 C :   -0.029341
  20 O :   -0.523751
  21 H :    0.171705
  22 O :   -0.601787
  23 H :    0.172944
  24 H :    0.164897
  25 H :    0.141967
  26 H :    0.146247
  27 H :    0.150837
  28 H :    0.366144
Sum of atomic charges:   -0.0000000

LOEWDIN ATOMIC CHARGES
----------------------
   0 C :    0.187233
   1 C :   -0.234706
   2 C :   -0.221033
   3 C :   -0.025890
   4 O :   -0.299061
   5 H :    0.095548
   6 H :    0.123436
   7 H :    0.110206
   8 H :    0.116757
   9 H :    0.112140
  10 H :    0.110107
  11 H :    0.104355
  12 C :   -0.038421
  13 H :    0.090285
  14 H :    0.118749
  15 O :   -0.342924
  16 C :    0.011065
  17 C :    0.035668
  18 C :   -0.241563
  19 C :   -0.038231
  20 O :   -0.327670
  21 H :    0.119170
  22 O :   -0.413210
  23 H :    0.118842
  24 H :    0.128098
  25 H :    0.109410
  26 H :    0.104043
  27 H :    0.104344
  28 H :    0.283253

  Mayer bond orders larger than 0.100000
B(  0-C ,  1-C ) :   0.9193 B(  0-C ,  4-O ) :   0.9362 B(  0-C ,  5-H ) :   0.9262
B(  0-C , 15-O ) :   0.8468 B(  1-C ,  2-C ) :   0.9545 B(  1-C ,  6-H ) :   0.9313
B(  1-C ,  7-H ) :   0.9223 B(  2-C ,  3-C ) :   0.9531 B(  2-C ,  8-H ) :   0.9447
B(  2-C ,  9-H ) :   0.9180 B(  3-C ,  4-O ) :   0.8371 B(  3-C , 10-H ) :   0.9337
B(  3-C , 11-H ) :   0.9392 B( 12-C , 13-H ) :   0.9240 B( 12-C , 14-H ) :   0.9234
B( 12-C , 15-O ) :   0.8419 B( 12-C , 16-C ) :   0.8895 B( 16-C , 17-C ) :   0.9118
B( 16-C , 20-O ) :   0.8280 B( 16-C , 21-H ) :   0.9239 B( 17-C , 18-C ) :   0.9155
B( 17-C , 22-O ) :   0.8883 B( 17-C , 23-H ) :   0.9004 B( 18-C , 19-C ) :   0.9393
B( 18-C , 24-H ) :   0.9372 B( 18-C , 25-H ) :   0.9258 B( 19-C , 20-O ) :   0.8424
B( 19-C , 26-H ) :   0.9353 B( 19-C , 27-H ) :   0.9370 B( 22-O , 28-H ) :   0.7919

FINAL SINGLE POINT ENERGY      -652.847130606761

DIPOLE MOMENT
-------------
                                X             Y             Z
Electronic contribution:     -4.98085      -3.56804       1.65863
Nuclear contribution   :      6.05094       4.52579      -2.63372
                        -----------------------------------------
Total Dipole Moment    :      1.07009       0.95775      -0.97509
                        -----------------------------------------
Magnitude (a.u.)       :      1.73585
Magnitude (Debye)      :      4.41219

Rotational constants in cm-1:     0.047278     0.015659     0.014409
Rotational constants in MHz :  1417.345578   469.434274   431.970218

                             ****ORCA TERMINATED NORMALLY****
TOTAL RUN TIME: 0 days 0 hours 28 minutes 34 seconds 756 msec
