                         Program Version 4.2.0 -  RELEASE  -
|  1> # Test redundant internal optimization
|  2> #
|  3> ! RKS B3LYP  Opt TightSCF SmallPrint
|  4>
|  5> %basis
|  6>         Basis "6-31G"
|  7> end
|  8>
|  9> %geom
| 10> Constraints
| 11> { D 4  0  15  12  225.0   C } # D for Dihedral angle
| 12> { D 0  15  12  16  300.0   C } # D for Dihedral angle
| 13> { D 0  4  3  2   C } # D for Dihedral angle
| 14> { D 4  3  2  1   C } # D for Dihedral angle
| 15> { D 3  2  1  0   C } # D for Dihedral angle
| 16> { D 2  1  0  4   C } # D for Dihedral angle
| 17> { D 1  0  4  3   C } # D for Dihedral angle
| 18> { D 16  20  19  18   C } # D for Dihedral angle
| 19> { D 20  19  18  17   C } # D for Dihedral angle
| 20> { D 19  18  17  16   C } # D for Dihedral angle
| 21> { D 18  17  16  20   C } # D for Dihedral angle
| 22> { D 17  16  20  19   C } # D for Dihedral angle
| 23> { D 15  12  16  20   C } # D for Dihedral angle
| 24> end
| 25> end
| 26>
| 27>
| 28> #%pal
| 29> #nprocs 8
| 30> #end
| 31>
| 32> * xyz 0 1
| 33> C  -21.048   26.222   46.251
| 34> C  -20.361   27.558   45.944
| 35> C  -20.329   28.222   47.341
| 36> C  -20.110   27.022   48.296
| 37> O  -20.473   25.807   47.535
| 38> H  -20.833   25.428   45.533
| 39> H  -19.344   27.382   45.576
| 40> H  -20.898   28.157   45.201
| 41> H  -19.543   28.978   47.434
| 42> H  -21.289   28.710   47.548
| 43> H  -20.733   27.082   49.195
| 44> H  -19.064   26.913   48.597
| 45> C  -23.415   25.773   45.218
| 46> H  -23.229   24.692   45.178
| 47> H  -24.489   25.930   45.387
| 48> O  -22.586   26.394   46.375
| 49> C  -23.062   26.381   43.832
| 50> C  -23.977   25.830   42.733
| 51> C  -25.261   26.667   42.945
| 52> C  -24.712   28.048   43.383
| 53> O  -23.319   27.825   43.825
| 54> H  -21.996   26.244   43.643
| 55> H  -23.544   26.030   41.747
| 56> O  -24.228   24.302   42.857
| 57> H  -25.880   26.731   42.044
| 58> H  -25.872   26.224   43.741
| 59> H  -25.285   28.484   44.210
| 60> H  -24.678   28.765   42.558
| 61> H  -24.663   24.077   43.837
| 62> *
| 63>
| 64>                          ****END OF INPUT****
 Total Charge           Charge          ....    0
 Multiplicity           Mult            ....    1
 Number of Electrons    NEL             ....  102
FINAL SINGLE POINT ENERGY      -652.826985545099
FINAL SINGLE POINT ENERGY      -652.850479513287
FINAL SINGLE POINT ENERGY      -652.855104515226
FINAL SINGLE POINT ENERGY      -652.855970598317
FINAL SINGLE POINT ENERGY      -652.856129796520
FINAL SINGLE POINT ENERGY      -652.856151054917
FINAL SINGLE POINT ENERGY      -652.856155581774
                    ***********************HURRAY********************

CARTESIAN COORDINATES (ANGSTROEM)
---------------------------------
  C    -21.036757   26.209264   46.195913
  C    -20.390564   27.565776   45.921368
  C    -20.406237   28.215079   47.324184
  C    -20.167368   27.015645   48.266182
  O    -20.483449   25.804436   47.463149
  H    -20.803039   25.413366   45.481368
  H    -19.361263   27.416882   45.571943
  H    -20.944974   28.143034   45.178217
  H    -19.645674   28.993628   47.436805
  H    -21.389110   28.658943   47.508291
  H    -20.810617   27.025706   49.149499
  H    -19.122906   26.919518   48.578125
  C    -23.307648   25.799752   45.286897
  H    -23.167638   24.707357   45.248695
  H    -24.329137   26.013973   45.614509
  O    -22.476056   26.365373   46.331099
  C    -23.046867   26.368047   43.887632
  C    -23.984619   25.794267   42.810528
  C    -25.260807   26.672116   42.995754
  C    -24.672570   28.049197   43.376172
  O    -23.275830   27.808586   43.822165
  H    -21.997542   26.218308   43.617408
  H    -23.547601   25.965980   41.824119
  O    -24.205420   24.365828   42.864498
  H    -25.872111   26.705534   42.090365
  H    -25.876478   26.259399   43.806133
  H    -25.223134   28.541270   44.183598
  H    -24.619979   28.727862   42.519297
  H    -24.795605   24.133870   43.610086

 Multiplicity           Mult            ....    1
 Number of Electrons    NEL             ....  102
 Basis Dimension        Dim             ....  149

ORBITAL ENERGIES
----------------

  NO   OCC          E(Eh)            E(eV)
   0   2.0000     -19.154853      -521.2301
   1   2.0000     -19.145238      -520.9684
   2   2.0000     -19.135196      -520.6952
   3   2.0000     -19.131323      -520.5898
   4   2.0000     -10.271978      -279.5147
   5   2.0000     -10.251349      -278.9534
   6   2.0000     -10.236935      -278.5612
   7   2.0000     -10.236899      -278.5602
   8   2.0000     -10.232860      -278.4503
   9   2.0000     -10.216508      -278.0053
  10   2.0000     -10.201268      -277.5906
  11   2.0000     -10.175935      -276.9013
  12   2.0000     -10.172944      -276.8199
  13   2.0000      -1.046972       -28.4895
  14   2.0000      -1.038242       -28.2520
  15   2.0000      -1.021833       -27.8055
  16   2.0000      -0.987897       -26.8820
  17   2.0000      -0.788533       -21.4571
  18   2.0000      -0.776991       -21.1430
  19   2.0000      -0.767915       -20.8960
  20   2.0000      -0.729437       -19.8490
  21   2.0000      -0.680990       -18.5307
  22   2.0000      -0.617581       -16.8052
  23   2.0000      -0.602353       -16.3908
  24   2.0000      -0.589109       -16.0305
  25   2.0000      -0.567292       -15.4368
  26   2.0000      -0.533748       -14.5240
  27   2.0000      -0.515126       -14.0173
  28   2.0000      -0.493918       -13.4402
  29   2.0000      -0.486183       -13.2297
  30   2.0000      -0.465937       -12.6788
  31   2.0000      -0.451209       -12.2780
  32   2.0000      -0.447000       -12.1635
  33   2.0000      -0.437332       -11.9004
  34   2.0000      -0.432563       -11.7706
  35   2.0000      -0.419918       -11.4266
  36   2.0000      -0.410944       -11.1824
  37   2.0000      -0.393838       -10.7169
  38   2.0000      -0.384001       -10.4492
  39   2.0000      -0.365188        -9.9373
  40   2.0000      -0.359025        -9.7696
  41   2.0000      -0.348407        -9.4806
  42   2.0000      -0.343515        -9.3475
  43   2.0000      -0.335070        -9.1177
  44   2.0000      -0.322161        -8.7665
  45   2.0000      -0.306545        -8.3415
  46   2.0000      -0.300887        -8.1875
  47   2.0000      -0.277660        -7.5555
  48   2.0000      -0.264179        -7.1887
  49   2.0000      -0.248388        -6.7590
  50   2.0000      -0.235062        -6.3964
  51   0.0000       0.048115         1.3093
  52   0.0000       0.073867         2.0100
  53   0.0000       0.083338         2.2678
  54   0.0000       0.093820         2.5530
  55   0.0000       0.097170         2.6441

MULLIKEN ATOMIC CHARGES
-----------------------
   0 C :    0.277073
   1 C :   -0.264542
   2 C :   -0.301112
   3 C :   -0.000951
   4 O :   -0.507528
   5 H :    0.138910
   6 H :    0.134540
   7 H :    0.178927
   8 H :    0.137932
   9 H :    0.164159
  10 H :    0.149221
  11 H :    0.137728
  12 C :   -0.018462
  13 H :    0.133856
  14 H :    0.143543
  15 O :   -0.502255
  16 C :    0.077440
  17 C :    0.088326
  18 C :   -0.324982
  19 C :   -0.014230
  20 O :   -0.513288
  21 H :    0.155677
  22 H :    0.166392
  23 O :   -0.598733
  24 H :    0.161280
  25 H :    0.137399
  26 H :    0.151374
  27 H :    0.153611
  28 H :    0.358697
Sum of atomic charges:   -0.0000000

LOEWDIN ATOMIC CHARGES
----------------------
   0 C :    0.174385
   1 C :   -0.227402
   2 C :   -0.216212
   3 C :   -0.026276
   4 O :   -0.313488
   5 H :    0.096020
   6 H :    0.108727
   7 H :    0.131563
   8 H :    0.112454
   9 H :    0.120280
  10 H :    0.106599
  11 H :    0.100259
  12 C :   -0.049005
  13 H :    0.097221
  14 H :    0.109317
  15 O :   -0.321691
  16 C :    0.003257
  17 C :    0.036995
  18 C :   -0.240919
  19 C :   -0.029670
  20 O :   -0.321341
  21 H :    0.111592
  22 H :    0.118937
  23 O :   -0.405506
  24 H :    0.124412
  25 H :    0.105738
  26 H :    0.106469
  27 H :    0.107750
  28 H :    0.279534

  Mayer bond orders larger than 0.100000
B(  0-C ,  1-C ) :   0.9356 B(  0-C ,  4-O ) :   0.9283 B(  0-C ,  5-H ) :   0.9177
B(  0-C , 15-O ) :   0.8345 B(  1-C ,  2-C ) :   0.9553 B(  1-C ,  6-H ) :   0.9361
B(  1-C ,  7-H ) :   0.9233 B(  2-C ,  3-C ) :   0.9552 B(  2-C ,  8-H ) :   0.9455
B(  2-C ,  9-H ) :   0.9433 B(  3-C ,  4-O ) :   0.8384 B(  3-C , 10-H ) :   0.9353
B(  3-C , 11-H ) :   0.9400 B( 12-C , 13-H ) :   0.9012 B( 12-C , 14-H ) :   0.9402
B( 12-C , 15-O ) :   0.8776 B( 12-C , 16-C ) :   0.8798 B( 16-C , 17-C ) :   0.8694
B( 16-C , 20-O ) :   0.8570 B( 16-C , 21-H ) :   0.9281 B( 17-C , 18-C ) :   0.9230
B( 17-C , 22-H ) :   0.9338 B( 17-C , 23-O ) :   0.9019 B( 18-C , 19-C ) :   0.9383
B( 18-C , 24-H ) :   0.9417 B( 18-C , 25-H ) :   0.9404 B( 19-C , 20-O ) :   0.8419
B( 19-C , 26-H ) :   0.9309 B( 19-C , 27-H ) :   0.9372 B( 23-O , 28-H ) :   0.7965

FINAL SINGLE POINT ENERGY      -652.856156510454

DIPOLE MOMENT
-------------
                                X             Y             Z
Electronic contribution:      0.16307      -3.45733      -0.08863
Nuclear contribution   :     -0.95185       4.04123      -0.41643
                        -----------------------------------------
Total Dipole Moment    :     -0.78878       0.58390      -0.50506
                        -----------------------------------------
Magnitude (a.u.)       :      1.10372
Magnitude (Debye)      :      2.80544

Rotational constants in cm-1:     0.058491     0.013264     0.011843
Rotational constants in MHz :  1753.523297   397.658104   355.057202

                             ****ORCA TERMINATED NORMALLY****
TOTAL RUN TIME: 0 days 0 hours 57 minutes 5 seconds 837 msec
