                         Program Version 4.2.0 -  RELEASE  -
|  1> # Test redundant internal optimization
|  2> #
|  3> ! RKS B3LYP  Opt TightSCF SmallPrint
|  4>
|  5> %basis
|  6>         Basis "6-31G"
|  7> end
|  8>
|  9> %geom
| 10> Constraints
| 11> { D 4  0  15  12  30.0   C } # D for Dihedral angle
| 12> { D 0  15  12  16  180.0   C } # D for Dihedral angle
| 13> { D 0  4  3  2   C } # D for Dihedral angle
| 14> { D 4  3  2  1   C } # D for Dihedral angle
| 15> { D 3  2  1  0   C } # D for Dihedral angle
| 16> { D 2  1  0  4   C } # D for Dihedral angle
| 17> { D 1  0  4  3   C } # D for Dihedral angle
| 18> { D 16  20  19  18   C } # D for Dihedral angle
| 19> { D 20  19  18  17   C } # D for Dihedral angle
| 20> { D 19  18  17  16   C } # D for Dihedral angle
| 21> { D 18  17  16  20   C } # D for Dihedral angle
| 22> { D 17  16  20  19   C } # D for Dihedral angle
| 23> { D 15  12  16  20   C } # D for Dihedral angle
| 24> end
| 25> end
| 26>
| 27>
| 28> #%pal
| 29> #nprocs 8
| 30> #end
| 31>
| 32> * xyz 0 1
| 33> C  -21.048   26.222   46.251
| 34> C  -20.361   27.558   45.944
| 35> C  -20.329   28.222   47.341
| 36> C  -20.110   27.022   48.296
| 37> O  -20.473   25.807   47.535
| 38> H  -20.833   25.428   45.533
| 39> H  -19.344   27.382   45.576
| 40> H  -20.898   28.157   45.201
| 41> H  -19.543   28.978   47.434
| 42> H  -21.289   28.710   47.548
| 43> H  -20.733   27.082   49.195
| 44> H  -19.064   26.913   48.597
| 45> C  -23.091   26.824   47.779
| 46> H  -22.791   26.071   48.518
| 47> H  -22.648   27.785   48.070
| 48> O  -22.586   26.394   46.375
| 49> C  -24.636   26.979   47.840
| 50> C  -25.089   27.515   49.203
| 51> C  -24.788   29.026   49.062
| 52> C  -25.094   29.307   47.570
| 53> O  -25.087   27.997   46.885
| 54> H  -25.102   26.036   47.548
| 55> O  -26.611   27.274   49.392
| 56> H  -24.559   27.053   50.044
| 57> H  -25.391   29.644   49.736
| 58> H  -23.732   29.222   49.283
| 59> H  -24.346   29.959   47.104
| 60> H  -26.086   29.744   47.422
| 61> H  -27.162   27.729   48.561
| 62> *
| 63>
| 64>                          ****END OF INPUT****
 Total Charge           Charge          ....    0
 Multiplicity           Mult            ....    1
 Number of Electrons    NEL             ....  102
FINAL SINGLE POINT ENERGY      -652.823800821958
FINAL SINGLE POINT ENERGY      -652.848255207089
FINAL SINGLE POINT ENERGY      -652.853701196295
FINAL SINGLE POINT ENERGY      -652.856243827920
FINAL SINGLE POINT ENERGY      -652.856470815314
FINAL SINGLE POINT ENERGY      -652.856512084012
FINAL SINGLE POINT ENERGY      -652.856516278270
                    ***********************HURRAY********************

CARTESIAN COORDINATES (ANGSTROEM)
---------------------------------
  C    -21.200377   26.290008   46.388978
  C    -20.415353   27.524396   45.929547
  C    -20.039438   28.187525   47.282483
  C    -19.805692   26.969338   48.208156
  O    -20.464861   25.815714   47.541583
  H    -21.191647   25.478407   45.659152
  H    -19.518267   27.195455   45.393082
  H    -21.007871   28.169402   45.277121
  H    -19.147100   28.816965   47.207234
  H    -20.859475   28.816989   47.640464
  H    -20.235456   27.093620   49.206705
  H    -18.746696   26.712928   48.304238
  C    -23.071186   26.912271   47.943156
  H    -22.817719   26.139128   48.679863
  H    -22.613881   27.858948   48.260979
  O    -22.611214   26.518274   46.624699
  C    -24.586028   27.068656   47.851611
  C    -25.252757   27.524008   49.158171
  C    -25.051483   29.061303   49.096960
  C    -25.182022   29.369331   47.584565
  O    -24.985646   28.083962   46.873631
  H    -25.009079   26.124193   47.497839
  O    -26.662351   27.168724   49.167825
  H    -24.832909   27.067326   50.055473
  H    -25.801955   29.572457   49.704788
  H    -24.059717   29.330461   49.476614
  H    -24.437263   30.090160   47.233119
  H    -26.176738   29.739255   47.315908
  H    -27.039817   27.340794   48.279054

 Multiplicity           Mult            ....    1
 Number of Electrons    NEL             ....  102
 Basis Dimension        Dim             ....  149

ORBITAL ENERGIES
----------------

  NO   OCC          E(Eh)            E(eV)
   0   2.0000     -19.148351      -521.0531
   1   2.0000     -19.140288      -520.8337
   2   2.0000     -19.138567      -520.7869
   3   2.0000     -19.138396      -520.7822
   4   2.0000     -10.277728      -279.6712
   5   2.0000     -10.243470      -278.7390
   6   2.0000     -10.234087      -278.4837
   7   2.0000     -10.233205      -278.4597
   8   2.0000     -10.232031      -278.4277
   9   2.0000     -10.230708      -278.3917
  10   2.0000     -10.194813      -277.4150
  11   2.0000     -10.190661      -277.3020
  12   2.0000     -10.186877      -277.1990
  13   2.0000      -1.054716       -28.7003
  14   2.0000      -1.036285       -28.1987
  15   2.0000      -1.006503       -27.3883
  16   2.0000      -0.993039       -27.0220
  17   2.0000      -0.791419       -21.5356
  18   2.0000      -0.785052       -21.3623
  19   2.0000      -0.771096       -20.9826
  20   2.0000      -0.734326       -19.9820
  21   2.0000      -0.675922       -18.3928
  22   2.0000      -0.606264       -16.4973
  23   2.0000      -0.605383       -16.4733
  24   2.0000      -0.596161       -16.2224
  25   2.0000      -0.578412       -15.7394
  26   2.0000      -0.527058       -14.3420
  27   2.0000      -0.507201       -13.8016
  28   2.0000      -0.500002       -13.6058
  29   2.0000      -0.494128       -13.4459
  30   2.0000      -0.478138       -13.0108
  31   2.0000      -0.461892       -12.5687
  32   2.0000      -0.455100       -12.3839
  33   2.0000      -0.437309       -11.8998
  34   2.0000      -0.421702       -11.4751
  35   2.0000      -0.417638       -11.3645
  36   2.0000      -0.402821       -10.9613
  37   2.0000      -0.394216       -10.7271
  38   2.0000      -0.379274       -10.3206
  39   2.0000      -0.372270       -10.1300
  40   2.0000      -0.362038        -9.8516
  41   2.0000      -0.360335        -9.8052
  42   2.0000      -0.349907        -9.5215
  43   2.0000      -0.336071        -9.1449
  44   2.0000      -0.324493        -8.8299
  45   2.0000      -0.311489        -8.4760
  46   2.0000      -0.304389        -8.2828
  47   2.0000      -0.271599        -7.3906
  48   2.0000      -0.263309        -7.1650
  49   2.0000      -0.248584        -6.7643
  50   2.0000      -0.244272        -6.6470
  51   0.0000       0.056304         1.5321
  52   0.0000       0.075617         2.0577
  53   0.0000       0.087340         2.3766
  54   0.0000       0.098082         2.6690
  55   0.0000       0.102560         2.7908

MULLIKEN ATOMIC CHARGES
-----------------------
   0 C :    0.296724
   1 C :   -0.258494
   2 C :   -0.318582
   3 C :   -0.013294
   4 O :   -0.510861
   5 H :    0.164916
   6 H :    0.147936
   7 H :    0.162328
   8 H :    0.147097
   9 H :    0.152242
  10 H :    0.139802
  11 H :    0.151837
  12 C :    0.005269
  13 H :    0.151587
  14 H :    0.113028
  15 O :   -0.520060
  16 C :    0.065594
  17 C :    0.075791
  18 C :   -0.289554
  19 C :   -0.027146
  20 O :   -0.510532
  21 H :    0.170838
  22 O :   -0.602351
  23 H :    0.150477
  24 H :    0.164027
  25 H :    0.136074
  26 H :    0.144999
  27 H :    0.143592
  28 H :    0.366716
Sum of atomic charges:    0.0000000

LOEWDIN ATOMIC CHARGES
----------------------
   0 C :    0.179222
   1 C :   -0.224919
   2 C :   -0.223173
   3 C :   -0.034181
   4 O :   -0.320866
   5 H :    0.111928
   6 H :    0.116677
   7 H :    0.126172
   8 H :    0.116704
   9 H :    0.109332
  10 H :    0.100053
  11 H :    0.107355
  12 C :   -0.041147
  13 H :    0.107489
  14 H :    0.084750
  15 O :   -0.320149
  16 C :    0.019828
  17 C :    0.035866
  18 C :   -0.240519
  19 C :   -0.038400
  20 O :   -0.320311
  21 H :    0.122278
  22 O :   -0.414051
  23 H :    0.114876
  24 H :    0.127150
  25 H :    0.109015
  26 H :    0.102975
  27 H :    0.101753
  28 H :    0.284294

  Mayer bond orders larger than 0.100000
B(  0-C ,  1-C ) :   0.9171 B(  0-C ,  4-O ) :   0.9018 B(  0-C ,  5-H ) :   0.9346
B(  0-C , 15-O ) :   0.8748 B(  1-C ,  2-C ) :   0.9535 B(  1-C ,  6-H ) :   0.9347
B(  1-C ,  7-H ) :   0.9358 B(  2-C ,  3-C ) :   0.9501 B(  2-C ,  8-H ) :   0.9443
B(  2-C ,  9-H ) :   0.9409 B(  3-C ,  4-O ) :   0.8383 B(  3-C , 10-H ) :   0.9333
B(  3-C , 11-H ) :   0.9395 B( 12-C , 13-H ) :   0.9079 B( 12-C , 14-H ) :   0.9038
B( 12-C , 15-O ) :   0.8387 B( 12-C , 16-C ) :   0.9055 B( 16-C , 17-C ) :   0.9017
B( 16-C , 20-O ) :   0.8626 B( 16-C , 21-H ) :   0.9223 B( 17-C , 18-C ) :   0.9101
B( 17-C , 22-O ) :   0.8936 B( 17-C , 23-H ) :   0.9334 B( 18-C , 19-C ) :   0.9389
B( 18-C , 24-H ) :   0.9370 B( 18-C , 25-H ) :   0.9353 B( 19-C , 20-O ) :   0.8540
B( 19-C , 26-H ) :   0.9344 B( 19-C , 27-H ) :   0.9383 B( 22-O , 28-H ) :   0.7930

FINAL SINGLE POINT ENERGY      -652.856504922743

DIPOLE MOMENT
-------------
                                X             Y             Z
Electronic contribution:     -4.07183      -5.18018      -1.96035
Nuclear contribution   :      5.00772       6.45873       2.31955
                        -----------------------------------------
Total Dipole Moment    :      0.93589       1.27855       0.35920
                        -----------------------------------------
Magnitude (a.u.)       :      1.62468
Magnitude (Debye)      :      4.12962

Rotational constants in cm-1:     0.055231     0.013103     0.012823
Rotational constants in MHz :  1655.790785   392.814157   384.420449

                             ****ORCA TERMINATED NORMALLY****
TOTAL RUN TIME: 0 days 2 hours 6 minutes 37 seconds 449 msec
