                         Program Version 4.2.0 -  RELEASE  -
|  1> # Test redundant internal optimization
|  2> #
|  3> ! RKS B3LYP  Opt TightSCF SmallPrint
|  4>
|  5> %basis
|  6>         Basis "6-31G"
|  7> end
|  8>
|  9> %geom
| 10> Constraints
| 11> { D 4  0  15  12  15.0   C } # D for Dihedral angle
| 12> { D 0  15  12  16  90.0   C } # D for Dihedral angle
| 13> { D 0  4  3  2   C } # D for Dihedral angle
| 14> { D 4  3  2  1   C } # D for Dihedral angle
| 15> { D 3  2  1  0   C } # D for Dihedral angle
| 16> { D 2  1  0  4   C } # D for Dihedral angle
| 17> { D 1  0  4  3   C } # D for Dihedral angle
| 18> { D 16  20  19  18   C } # D for Dihedral angle
| 19> { D 20  19  18  17   C } # D for Dihedral angle
| 20> { D 19  18  17  16   C } # D for Dihedral angle
| 21> { D 18  17  16  20   C } # D for Dihedral angle
| 22> { D 17  16  20  19   C } # D for Dihedral angle
| 23> { D 15  12  16  20   C } # D for Dihedral angle
| 24> end
| 25> end
| 26>
| 27>
| 28> #%pal
| 29> #nprocs 8
| 30> #end
| 31>
| 32> * xyz 0 1
| 33> C  -21.048   26.222   46.251
| 34> C  -20.361   27.558   45.944
| 35> C  -20.329   28.222   47.341
| 36> C  -20.110   27.022   48.296
| 37> O  -20.473   25.807   47.535
| 38> H  -20.833   25.428   45.533
| 39> H  -19.344   27.382   45.576
| 40> H  -20.898   28.157   45.201
| 41> H  -19.543   28.978   47.434
| 42> H  -21.289   28.710   47.548
| 43> H  -20.733   27.082   49.195
| 44> H  -19.064   26.913   48.597
| 45> C  -23.128   26.462   47.829
| 46> H  -24.143   26.047   47.857
| 47> H  -22.496   25.869   48.503
| 48> O  -22.586   26.394   46.375
| 49> C  -23.179   27.913   48.384
| 50> C  -24.176   28.773   47.600
| 51> C  -25.525   28.327   48.213
| 52> C  -25.167   28.066   49.698
| 53> O  -23.697   27.919   49.756
| 54> H  -22.165   28.317   48.422
| 55> H  -23.993   29.836   47.799
| 56> O  -24.106   28.544   46.065
| 57> H  -26.312   29.079   48.100
| 58> H  -25.870   27.406   47.730
| 59> H  -25.634   27.155   50.087
| 60> H  -25.433   28.905   50.345
| 61> H  -24.286   27.487   45.843
| 62> *
| 63>
| 64>                          ****END OF INPUT****
 Total Charge           Charge          ....    0
 Multiplicity           Mult            ....    1
 Number of Electrons    NEL             ....  102
FINAL SINGLE POINT ENERGY      -652.808805886199
FINAL SINGLE POINT ENERGY      -652.837499967857
FINAL SINGLE POINT ENERGY      -652.854595141545
FINAL SINGLE POINT ENERGY      -652.858344657005
FINAL SINGLE POINT ENERGY      -652.859653114201
FINAL SINGLE POINT ENERGY      -652.860252440403
FINAL SINGLE POINT ENERGY      -652.860390902584
FINAL SINGLE POINT ENERGY      -652.860431313724
                    ***********************HURRAY********************

CARTESIAN COORDINATES (ANGSTROEM)
---------------------------------
  C    -21.126986   26.246568   46.408290
  C    -20.413214   27.496380   45.886865
  C    -20.075377   28.244003   47.202743
  C    -19.773416   27.094482   48.189820
  O    -20.373528   25.870768   47.573771
  H    -21.052432   25.403112   45.717589
  H    -19.504598   27.178951   45.365039
  H    -21.032584   28.086593   45.207095
  H    -19.215682   28.911994   47.088172
  H    -20.922382   28.855671   47.518056
  H    -20.210707   27.236511   49.182110
  H    -18.703980   26.893092   48.291600
  C    -23.190158   26.449537   47.948882
  H    -24.167736   25.978106   47.820330
  H    -22.607876   25.854684   48.658607
  O    -22.572240   26.370269   46.617236
  C    -23.338615   27.876222   48.486945
  C    -24.271140   28.776794   47.660830
  C    -25.670572   28.305338   48.145205
  C    -25.440244   27.977297   49.634924
  O    -23.962670   27.820872   49.810386
  H    -22.360474   28.329130   48.646857
  H    -24.117810   29.822028   47.948054
  O    -24.067710   28.713357   46.233013
  H    -26.432442   29.075050   47.994226
  H    -25.972071   27.422283   47.570748
  H    -25.931815   27.054471   49.957910
  H    -25.746560   28.791364   50.298513
  H    -23.665983   27.845074   45.993184

 Multiplicity           Mult            ....    1
 Number of Electrons    NEL             ....  102
 Basis Dimension        Dim             ....  149

ORBITAL ENERGIES
----------------

  NO   OCC          E(Eh)            E(eV)
   0   2.0000     -19.158926      -521.3409
   1   2.0000     -19.156927      -521.2865
   2   2.0000     -19.142497      -520.8938
   3   2.0000     -19.121964      -520.3351
   4   2.0000     -10.289295      -279.9860
   5   2.0000     -10.238904      -278.6147
   6   2.0000     -10.234557      -278.4964
   7   2.0000     -10.234409      -278.4924
   8   2.0000     -10.233707      -278.4733
   9   2.0000     -10.229149      -278.3493
  10   2.0000     -10.197105      -277.4773
  11   2.0000     -10.194534      -277.4074
  12   2.0000     -10.182993      -277.0933
  13   2.0000      -1.062416       -28.9098
  14   2.0000      -1.027018       -27.9466
  15   2.0000      -1.005775       -27.3685
  16   2.0000      -0.996281       -27.1102
  17   2.0000      -0.797368       -21.6975
  18   2.0000      -0.777454       -21.1556
  19   2.0000      -0.771175       -20.9847
  20   2.0000      -0.738634       -20.0993
  21   2.0000      -0.682046       -18.5594
  22   2.0000      -0.611824       -16.6486
  23   2.0000      -0.603659       -16.4264
  24   2.0000      -0.598878       -16.2963
  25   2.0000      -0.576633       -15.6910
  26   2.0000      -0.532326       -14.4853
  27   2.0000      -0.511899       -13.9295
  28   2.0000      -0.506399       -13.7798
  29   2.0000      -0.488939       -13.3047
  30   2.0000      -0.476312       -12.9611
  31   2.0000      -0.460862       -12.5407
  32   2.0000      -0.451168       -12.2769
  33   2.0000      -0.428758       -11.6671
  34   2.0000      -0.425638       -11.5822
  35   2.0000      -0.416660       -11.3379
  36   2.0000      -0.414496       -11.2790
  37   2.0000      -0.392855       -10.6901
  38   2.0000      -0.383204       -10.4275
  39   2.0000      -0.371572       -10.1110
  40   2.0000      -0.367466        -9.9993
  41   2.0000      -0.356245        -9.6939
  42   2.0000      -0.350027        -9.5247
  43   2.0000      -0.347390        -9.4529
  44   2.0000      -0.329901        -8.9771
  45   2.0000      -0.320086        -8.7100
  46   2.0000      -0.293205        -7.9785
  47   2.0000      -0.276649        -7.5280
  48   2.0000      -0.271670        -7.3925
  49   2.0000      -0.253112        -6.8875
  50   2.0000      -0.238860        -6.4997
  51   0.0000       0.058366         1.5882
  52   0.0000       0.070220         1.9108
  53   0.0000       0.083977         2.2851
  54   0.0000       0.090939         2.4746
  55   0.0000       0.099720         2.7135

MULLIKEN ATOMIC CHARGES
-----------------------
   0 C :    0.315598
   1 C :   -0.273765
   2 C :   -0.322607
   3 C :   -0.026576
   4 O :   -0.508272
   5 H :    0.166869
   6 H :    0.155133
   7 H :    0.166812
   8 H :    0.152267
   9 H :    0.166914
  10 H :    0.158932
  11 H :    0.157420
  12 C :   -0.046550
  13 H :    0.159949
  14 H :    0.183466
  15 O :   -0.563255
  16 C :    0.048300
  17 C :    0.119879
  18 C :   -0.313586
  19 C :   -0.020171
  20 O :   -0.521608
  21 H :    0.147820
  22 H :    0.147513
  23 O :   -0.640215
  24 H :    0.155253
  25 H :    0.148757
  26 H :    0.144185
  27 H :    0.151282
  28 H :    0.390255
Sum of atomic charges:   -0.0000000

LOEWDIN ATOMIC CHARGES
----------------------
   0 C :    0.183747
   1 C :   -0.224057
   2 C :   -0.224639
   3 C :   -0.034378
   4 O :   -0.312887
   5 H :    0.109688
   6 H :    0.120879
   7 H :    0.128266
   8 H :    0.120235
   9 H :    0.115302
  10 H :    0.108745
  11 H :    0.111012
  12 C :   -0.050534
  13 H :    0.114296
  14 H :    0.124686
  15 O :   -0.347639
  16 C :    0.001647
  17 C :    0.040838
  18 C :   -0.240489
  19 C :   -0.031965
  20 O :   -0.324057
  21 H :    0.107316
  22 H :    0.106770
  23 O :   -0.433081
  24 H :    0.122569
  25 H :    0.112798
  26 H :    0.103236
  27 H :    0.106731
  28 H :    0.284964

  Mayer bond orders larger than 0.100000
B(  0-C ,  1-C ) :   0.9239 B(  0-C ,  4-O ) :   0.9260 B(  0-C ,  5-H ) :   0.9333
B(  0-C , 15-O ) :   0.8165 B(  1-C ,  2-C ) :   0.9523 B(  1-C ,  6-H ) :   0.9335
B(  1-C ,  7-H ) :   0.9319 B(  2-C ,  3-C ) :   0.9521 B(  2-C ,  8-H ) :   0.9430
B(  2-C ,  9-H ) :   0.9253 B(  3-C ,  4-O ) :   0.8243 B(  3-C , 10-H ) :   0.9290
B(  3-C , 11-H ) :   0.9381 B( 12-C , 13-H ) :   0.9360 B( 12-C , 14-H ) :   0.9178
B( 12-C , 15-O ) :   0.7990 B( 12-C , 16-C ) :   0.8828 B( 16-C , 17-C ) :   0.9074
B( 16-C , 20-O ) :   0.8454 B( 16-C , 21-H ) :   0.9165 B( 17-C , 18-C ) :   0.9034
B( 17-C , 22-H ) :   0.9342 B( 17-C , 23-O ) :   0.9293 B( 18-C , 19-C ) :   0.9391
B( 18-C , 24-H ) :   0.9435 B( 18-C , 25-H ) :   0.9423 B( 19-C , 20-O ) :   0.8321
B( 19-C , 26-H ) :   0.9340 B( 19-C , 27-H ) :   0.9378 B( 23-O , 28-H ) :   0.7257

FINAL SINGLE POINT ENERGY      -652.860430874240

DIPOLE MOMENT
-------------
                                X             Y             Z
Electronic contribution:     -0.18814      -2.74485      -0.41598
Nuclear contribution   :      0.59437       2.96901       0.51158
                        -----------------------------------------
Total Dipole Moment    :      0.40623       0.22416       0.09560
                        -----------------------------------------
Magnitude (a.u.)       :      0.47372
Magnitude (Debye)      :      1.20410

Rotational constants in cm-1:     0.049189     0.016745     0.015361
Rotational constants in MHz :  1474.634632   502.015538   460.507505

                             ****ORCA TERMINATED NORMALLY****
TOTAL RUN TIME: 0 days 0 hours 36 minutes 42 seconds 548 msec
