                         Program Version 4.2.0 -  RELEASE  -
|  1> # Test redundant internal optimization
|  2> #
|  3> ! RKS B3LYP  Opt TightSCF SmallPrint
|  4>
|  5> %basis
|  6>         Basis "6-31G"
|  7> end
|  8>
|  9> %geom
| 10> Constraints
| 11> { D 4  0  15  12  135.0   C } # D for Dihedral angle
| 12> { D 0  15  12  16  195.0   C } # D for Dihedral angle
| 13> { D 0  4  3  2   C } # D for Dihedral angle
| 14> { D 4  3  2  1   C } # D for Dihedral angle
| 15> { D 3  2  1  0   C } # D for Dihedral angle
| 16> { D 2  1  0  4   C } # D for Dihedral angle
| 17> { D 1  0  4  3   C } # D for Dihedral angle
| 18> { D 16  20  19  18   C } # D for Dihedral angle
| 19> { D 20  19  18  17   C } # D for Dihedral angle
| 20> { D 19  18  17  16   C } # D for Dihedral angle
| 21> { D 18  17  16  20   C } # D for Dihedral angle
| 22> { D 17  16  20  19   C } # D for Dihedral angle
| 23> { D 15  12  16  20   C } # D for Dihedral angle
| 24> end
| 25> end
| 26>
| 27>
| 28> #%pal
| 29> #nprocs 8
| 30> #end
| 31>
| 32> * xyz 0 1
| 33> C  -21.048   26.222   46.251
| 34> C  -20.361   27.558   45.944
| 35> C  -20.329   28.222   47.341
| 36> C  -20.110   27.022   48.296
| 37> O  -20.473   25.807   47.535
| 38> H  -20.833   25.428   45.533
| 39> H  -19.344   27.382   45.576
| 40> H  -20.898   28.157   45.201
| 41> H  -19.543   28.978   47.434
| 42> H  -21.289   28.710   47.548
| 43> H  -20.733   27.082   49.195
| 44> H  -19.064   26.913   48.597
| 45> C  -23.162   27.680   45.721
| 46> H  -22.525   28.535   45.981
| 47> H  -23.173   27.582   44.627
| 48> O  -22.586   26.394   46.375
| 49> C  -24.612   27.991   46.183
| 50> C  -24.662   28.311   47.681
| 51> C  -24.175   29.779   47.705
| 52> C  -24.760   30.365   46.395
| 53> O  -25.105   29.212   45.536
| 54> H  -25.269   27.177   45.872
| 55> H  -25.693   28.240   48.046
| 56> O  -23.773   27.367   48.537
| 57> H  -24.511   30.324   48.592
| 58> H  -23.079   29.812   47.687
| 59> H  -24.046   31.005   45.866
| 60> H  -25.681   30.928   46.565
| 61> H  -22.736   27.422   48.188
| 62> *
| 63>
| 64>                          ****END OF INPUT****
 Total Charge           Charge          ....    0
 Multiplicity           Mult            ....    1
 Number of Electrons    NEL             ....  102
FINAL SINGLE POINT ENERGY      -652.814302734520
FINAL SINGLE POINT ENERGY      -652.840911002828
FINAL SINGLE POINT ENERGY      -652.849995798743
FINAL SINGLE POINT ENERGY      -652.854208919680
FINAL SINGLE POINT ENERGY      -652.856758829755
FINAL SINGLE POINT ENERGY      -652.858652989658
FINAL SINGLE POINT ENERGY      -652.860109061020
FINAL SINGLE POINT ENERGY      -652.861046799996
FINAL SINGLE POINT ENERGY      -652.861394471151
FINAL SINGLE POINT ENERGY      -652.861439147204
FINAL SINGLE POINT ENERGY      -652.861460361302
                    ***********************HURRAY********************

CARTESIAN COORDINATES (ANGSTROEM)
---------------------------------
  C    -21.123989   26.296476   46.269996
  C    -20.166523   27.435672   45.916528
  C    -20.109550   28.232363   47.245980
  C    -20.207390   27.123398   48.315307
  O    -20.750962   25.929627   47.606013
  H    -21.028988   25.399678   45.655867
  H    -19.189333   26.998829   45.685281
  H    -20.477668   28.036148   45.057803
  H    -19.190479   28.818561   47.337772
  H    -20.957638   28.919078   47.326646
  H    -20.889891   27.377146   49.129102
  H    -19.235112   26.828568   48.717631
  C    -23.107364   27.822258   45.628816
  H    -22.500888   28.714803   45.818193
  H    -23.173327   27.666178   44.546087
  O    -22.548345   26.643599   46.292125
  C    -24.512990   28.000239   46.216302
  C    -24.556394   28.290337   47.726781
  C    -24.238787   29.815334   47.767414
  C    -24.923422   30.344628   46.489275
  O    -25.159035   29.161835   45.611512
  H    -25.118617   27.128884   45.951968
  H    -25.583045   28.123542   48.077370
  O    -23.652717   27.534947   48.559979
  H    -24.617111   30.285720   48.678487
  H    -23.152082   29.951433   47.744624
  H    -24.316493   31.072901   45.941735
  H    -25.905133   30.783978   46.688072
  H    -23.179727   26.868841   48.005336

 Multiplicity           Mult            ....    1
 Number of Electrons    NEL             ....  102
 Basis Dimension        Dim             ....  149

ORBITAL ENERGIES
----------------

  NO   OCC          E(Eh)            E(eV)
   0   2.0000     -19.159474      -521.3558
   1   2.0000     -19.150561      -521.1133
   2   2.0000     -19.142298      -520.8884
   3   2.0000     -19.113073      -520.0932
   4   2.0000     -10.292868      -280.0832
   5   2.0000     -10.241237      -278.6782
   6   2.0000     -10.235596      -278.5247
   7   2.0000     -10.231533      -278.4142
   8   2.0000     -10.230715      -278.3919
   9   2.0000     -10.228845      -278.3410
  10   2.0000     -10.202588      -277.6265
  11   2.0000     -10.198847      -277.5247
  12   2.0000     -10.182616      -277.0831
  13   2.0000      -1.064695       -28.9718
  14   2.0000      -1.027303       -27.9543
  15   2.0000      -1.005914       -27.3723
  16   2.0000      -0.990871       -26.9630
  17   2.0000      -0.798887       -21.7388
  18   2.0000      -0.777564       -21.1586
  19   2.0000      -0.770140       -20.9566
  20   2.0000      -0.737782       -20.0761
  21   2.0000      -0.683469       -18.5981
  22   2.0000      -0.611909       -16.6509
  23   2.0000      -0.599634       -16.3169
  24   2.0000      -0.596336       -16.2271
  25   2.0000      -0.578371       -15.7383
  26   2.0000      -0.531234       -14.4556
  27   2.0000      -0.516168       -14.0456
  28   2.0000      -0.510262       -13.8849
  29   2.0000      -0.490741       -13.3537
  30   2.0000      -0.476587       -12.9686
  31   2.0000      -0.458160       -12.4672
  32   2.0000      -0.447041       -12.1646
  33   2.0000      -0.438618       -11.9354
  34   2.0000      -0.429924       -11.6988
  35   2.0000      -0.419543       -11.4163
  36   2.0000      -0.411377       -11.1941
  37   2.0000      -0.391172       -10.6443
  38   2.0000      -0.383550       -10.4369
  39   2.0000      -0.372575       -10.1383
  40   2.0000      -0.366569        -9.9749
  41   2.0000      -0.365255        -9.9391
  42   2.0000      -0.350108        -9.5269
  43   2.0000      -0.340598        -9.2681
  44   2.0000      -0.324799        -8.8382
  45   2.0000      -0.310492        -8.4489
  46   2.0000      -0.293029        -7.9737
  47   2.0000      -0.276784        -7.5317
  48   2.0000      -0.263807        -7.1786
  49   2.0000      -0.247359        -6.7310
  50   2.0000      -0.245038        -6.6678
  51   0.0000       0.056655         1.5417
  52   0.0000       0.064415         1.7528
  53   0.0000       0.089151         2.4259
  54   0.0000       0.095124         2.5885
  55   0.0000       0.104266         2.8372

MULLIKEN ATOMIC CHARGES
-----------------------
   0 C :    0.326568
   1 C :   -0.300207
   2 C :   -0.313911
   3 C :   -0.019681
   4 O :   -0.500764
   5 H :    0.163491
   6 H :    0.160041
   7 H :    0.151309
   8 H :    0.148895
   9 H :    0.163305
  10 H :    0.177907
  11 H :    0.148230
  12 C :   -0.004220
  13 H :    0.131565
  14 H :    0.156332
  15 O :   -0.570426
  16 C :    0.051185
  17 C :    0.124726
  18 C :   -0.300827
  19 C :   -0.024305
  20 O :   -0.521851
  21 H :    0.165437
  22 H :    0.142564
  23 O :   -0.651081
  24 H :    0.151082
  25 H :    0.144716
  26 H :    0.140340
  27 H :    0.152201
  28 H :    0.407379
Sum of atomic charges:    0.0000000

LOEWDIN ATOMIC CHARGES
----------------------
   0 C :    0.185779
   1 C :   -0.231051
   2 C :   -0.220058
   3 C :   -0.031928
   4 O :   -0.309078
   5 H :    0.109691
   6 H :    0.124812
   7 H :    0.117689
   8 H :    0.118545
   9 H :    0.112091
  10 H :    0.120153
  11 H :    0.106594
  12 C :   -0.040966
  13 H :    0.094632
  14 H :    0.108002
  15 O :   -0.345403
  16 C :    0.019764
  17 C :    0.043390
  18 C :   -0.232337
  19 C :   -0.033662
  20 O :   -0.322891
  21 H :    0.117428
  22 H :    0.101351
  23 O :   -0.441340
  24 H :    0.121711
  25 H :    0.107277
  26 H :    0.100621
  27 H :    0.107129
  28 H :    0.292056

  Mayer bond orders larger than 0.100000
B(  0-C ,  1-C ) :   0.9362 B(  0-C ,  4-O ) :   0.9376 B(  0-C ,  5-H ) :   0.9278
B(  0-C , 15-O ) :   0.7990 B(  1-C ,  2-C ) :   0.9472 B(  1-C ,  6-H ) :   0.9328
B(  1-C ,  7-H ) :   0.9291 B(  2-C ,  3-C ) :   0.9506 B(  2-C ,  8-H ) :   0.9451
B(  2-C ,  9-H ) :   0.9305 B(  3-C ,  4-O ) :   0.8236 B(  3-C , 10-H ) :   0.9246
B(  3-C , 11-H ) :   0.9390 B( 12-C , 13-H ) :   0.9093 B( 12-C , 14-H ) :   0.9243
B( 12-C , 15-O ) :   0.7908 B( 12-C , 16-C ) :   0.9024 B( 16-C , 17-C ) :   0.9117
B( 16-C , 20-O ) :   0.8582 B( 16-C , 21-H ) :   0.9278 B( 17-C , 18-C ) :   0.9087
B( 17-C , 22-H ) :   0.9262 B( 17-C , 23-O ) :   0.9286 B( 18-C , 19-C ) :   0.9396
B( 18-C , 24-H ) :   0.9450 B( 18-C , 25-H ) :   0.9386 B( 19-C , 20-O ) :   0.8343
B( 19-C , 26-H ) :   0.9342 B( 19-C , 27-H ) :   0.9378 B( 23-O , 28-H ) :   0.7066

FINAL SINGLE POINT ENERGY      -652.861462819601

DIPOLE MOMENT
-------------
                                X             Y             Z
Electronic contribution:     -3.27551      -5.41182      -0.52092
Nuclear contribution   :      4.37512       6.41339      -0.12371
                        -----------------------------------------
Total Dipole Moment    :      1.09961       1.00157      -0.64463
                        -----------------------------------------
Magnitude (a.u.)       :      1.62106
Magnitude (Debye)      :      4.12041

Rotational constants in cm-1:     0.049110     0.016707     0.015928
Rotational constants in MHz :  1472.289085   500.868537   477.502742

                             ****ORCA TERMINATED NORMALLY****
TOTAL RUN TIME: 0 days 0 hours 53 minutes 41 seconds 105 msec
