                         Program Version 4.2.0 -  RELEASE  -
|  1> # Test redundant internal optimization
|  2> #
|  3> ! RKS B3LYP  Opt TightSCF SmallPrint
|  4>
|  5> %basis
|  6>         Basis "6-31G"
|  7> end
|  8>
|  9> %geom
| 10> Constraints
| 11> { D 4  0  15  12  255.0   C } # D for Dihedral angle
| 12> { D 0  15  12  16  240.0   C } # D for Dihedral angle
| 13> { D 0  4  3  2   C } # D for Dihedral angle
| 14> { D 4  3  2  1   C } # D for Dihedral angle
| 15> { D 3  2  1  0   C } # D for Dihedral angle
| 16> { D 2  1  0  4   C } # D for Dihedral angle
| 17> { D 1  0  4  3   C } # D for Dihedral angle
| 18> { D 16  20  19  18   C } # D for Dihedral angle
| 19> { D 20  19  18  17   C } # D for Dihedral angle
| 20> { D 19  18  17  16   C } # D for Dihedral angle
| 21> { D 18  17  16  20   C } # D for Dihedral angle
| 22> { D 17  16  20  19   C } # D for Dihedral angle
| 23> { D 15  12  16  20   C } # D for Dihedral angle
| 24> end
| 25> end
| 26>
| 27>
| 28> #%pal
| 29> #nprocs 8
| 30> #end
| 31>
| 32> * xyz 0 1
| 33> C  -21.048   26.222   46.251
| 34> C  -20.361   27.558   45.944
| 35> C  -20.329   28.222   47.341
| 36> C  -20.110   27.022   48.296
| 37> O  -20.473   25.807   47.535
| 38> H  -20.833   25.428   45.533
| 39> H  -19.344   27.382   45.576
| 40> H  -20.898   28.157   45.201
| 41> H  -19.543   28.978   47.434
| 42> H  -21.289   28.710   47.548
| 43> H  -20.733   27.082   49.195
| 44> H  -19.064   26.913   48.597
| 45> C  -23.431   25.260   45.734
| 46> H  -22.759   24.509   45.300
| 47> H  -24.052   24.767   46.493
| 48> O  -22.586   26.394   46.375
| 49> C  -24.376   25.775   44.613
| 50> C  -23.581   26.330   43.426
| 51> C  -23.166   25.033   42.692
| 52> C  -24.384   24.100   42.911
| 53> O  -25.148   24.666   44.043
| 54> H  -25.094   26.476   45.044
| 55> H  -24.232   26.942   42.791
| 56> O  -22.365   27.195   43.857
| 57> H  -22.951   25.196   41.632
| 58> H  -22.267   24.610   43.156
| 59> H  -24.089   23.075   43.154
| 60> H  -25.055   24.080   42.048
| 61> H  -21.699   26.601   44.494
| 62> *
| 63>
| 64>                          ****END OF INPUT****
 Total Charge           Charge          ....    0
 Multiplicity           Mult            ....    1
 Number of Electrons    NEL             ....  102
FINAL SINGLE POINT ENERGY      -652.814856142996
FINAL SINGLE POINT ENERGY      -652.843979179370
FINAL SINGLE POINT ENERGY      -652.853337680687
FINAL SINGLE POINT ENERGY      -652.855499154570
FINAL SINGLE POINT ENERGY      -652.855868577732
FINAL SINGLE POINT ENERGY      -652.855923066441
FINAL SINGLE POINT ENERGY      -652.855933999335
FINAL SINGLE POINT ENERGY      -652.855934110421
                    ***********************HURRAY********************

CARTESIAN COORDINATES (ANGSTROEM)
---------------------------------
  C    -20.994554   26.145759   46.277568
  C    -20.354553   27.508475   46.002655
  C    -20.406952   28.177262   47.401493
  C    -20.176362   26.984636   48.356099
  O    -20.462389   25.765031   47.561880
  H    -20.736172   25.338335   45.581912
  H    -19.316929   27.365649   45.678498
  H    -20.890814   28.093900   45.253632
  H    -19.653347   28.961120   47.519663
  H    -21.396813   28.614871   47.558385
  H    -20.837688   26.997778   49.225908
  H    -19.138143   26.903181   48.691468
  C    -23.313067   25.318321   45.764318
  H    -22.715195   24.471078   45.393665
  H    -23.956689   24.938258   46.562625
  O    -22.427239   26.326975   46.335503
  C    -24.224586   25.842527   44.638473
  C    -23.574955   26.352580   43.336544
  C    -23.207495   25.015251   42.612773
  C    -24.373651   24.087310   43.017136
  O    -25.022785   24.698125   44.203987
  H    -24.917328   26.582695   45.047759
  H    -24.342624   26.877269   42.761643
  O    -22.496008   27.299377   43.431195
  H    -23.121007   25.147811   41.531390
  H    -22.244682   24.646489   42.987481
  H    -24.049242   23.074010   43.273832
  H    -25.139177   24.022176   42.237629
  H    -21.769554   26.933749   43.968886

 Multiplicity           Mult            ....    1
 Number of Electrons    NEL             ....  102
 Basis Dimension        Dim             ....  149

ORBITAL ENERGIES
----------------

  NO   OCC          E(Eh)            E(eV)
   0   2.0000     -19.147382      -521.0268
   1   2.0000     -19.146080      -520.9913
   2   2.0000     -19.144821      -520.9571
   3   2.0000     -19.141984      -520.8799
   4   2.0000     -10.288809      -279.9727
   5   2.0000     -10.244729      -278.7733
   6   2.0000     -10.234780      -278.5025
   7   2.0000     -10.234367      -278.4913
   8   2.0000     -10.233705      -278.4733
   9   2.0000     -10.226331      -278.2726
  10   2.0000     -10.193748      -277.3860
  11   2.0000     -10.190398      -277.2948
  12   2.0000     -10.187659      -277.2203
  13   2.0000      -1.057209       -28.7681
  14   2.0000      -1.035675       -28.1821
  15   2.0000      -1.019825       -27.7508
  16   2.0000      -0.998429       -27.1686
  17   2.0000      -0.791679       -21.5427
  18   2.0000      -0.780356       -21.2346
  19   2.0000      -0.768901       -20.9228
  20   2.0000      -0.734464       -19.9858
  21   2.0000      -0.682832       -18.5808
  22   2.0000      -0.611895       -16.6505
  23   2.0000      -0.602857       -16.4046
  24   2.0000      -0.596163       -16.2224
  25   2.0000      -0.584854       -15.9147
  26   2.0000      -0.531224       -14.4553
  27   2.0000      -0.523964       -14.2578
  28   2.0000      -0.497293       -13.5320
  29   2.0000      -0.493515       -13.4292
  30   2.0000      -0.469775       -12.7832
  31   2.0000      -0.458442       -12.4748
  32   2.0000      -0.443330       -12.0636
  33   2.0000      -0.435100       -11.8397
  34   2.0000      -0.434895       -11.8341
  35   2.0000      -0.415151       -11.2968
  36   2.0000      -0.412289       -11.2190
  37   2.0000      -0.405083       -11.0229
  38   2.0000      -0.381278       -10.3751
  39   2.0000      -0.371986       -10.1222
  40   2.0000      -0.360495        -9.8096
  41   2.0000      -0.355385        -9.6705
  42   2.0000      -0.352761        -9.5991
  43   2.0000      -0.338877        -9.2213
  44   2.0000      -0.322208        -8.7677
  45   2.0000      -0.311876        -8.4866
  46   2.0000      -0.307293        -8.3619
  47   2.0000      -0.274769        -7.4768
  48   2.0000      -0.267997        -7.2926
  49   2.0000      -0.260249        -7.0817
  50   2.0000      -0.239330        -6.5125
  51   0.0000       0.047220         1.2849
  52   0.0000       0.070540         1.9195
  53   0.0000       0.083247         2.2653
  54   0.0000       0.094977         2.5844
  55   0.0000       0.098591         2.6828

MULLIKEN ATOMIC CHARGES
-----------------------
   0 C :    0.272283
   1 C :   -0.285283
   2 C :   -0.299397
   3 C :   -0.001678
   4 O :   -0.504963
   5 H :    0.134524
   6 H :    0.146966
   7 H :    0.169709
   8 H :    0.144013
   9 H :    0.169723
  10 H :    0.153532
  11 H :    0.141865
  12 C :   -0.014696
  13 H :    0.124748
  14 H :    0.171940
  15 O :   -0.523723
  16 C :    0.076375
  17 C :    0.087476
  18 C :   -0.314281
  19 C :   -0.019574
  20 O :   -0.517789
  21 H :    0.163773
  22 H :    0.167857
  23 O :   -0.601672
  24 H :    0.160033
  25 H :    0.129997
  26 H :    0.146260
  27 H :    0.154792
  28 H :    0.367188
Sum of atomic charges:   -0.0000000

LOEWDIN ATOMIC CHARGES
----------------------
   0 C :    0.164047
   1 C :   -0.231051
   2 C :   -0.213063
   3 C :   -0.026199
   4 O :   -0.318211
   5 H :    0.092042
   6 H :    0.114417
   7 H :    0.126510
   8 H :    0.115301
   9 H :    0.122841
  10 H :    0.108884
  11 H :    0.102522
  12 C :   -0.040567
  13 H :    0.093332
  14 H :    0.120317
  15 O :   -0.335233
  16 C :    0.015327
  17 C :    0.036283
  18 C :   -0.241976
  19 C :   -0.033209
  20 O :   -0.319868
  21 H :    0.117562
  22 H :    0.118575
  23 O :   -0.400877
  24 H :    0.124328
  25 H :    0.102572
  26 H :    0.103402
  27 H :    0.108102
  28 H :    0.273892

  Mayer bond orders larger than 0.100000
B(  0-C ,  1-C ) :   0.9357 B(  0-C ,  4-O ) :   0.9310 B(  0-C ,  5-H ) :   0.9148
B(  0-C , 15-O ) :   0.8483 B(  1-C ,  2-C ) :   0.9542 B(  1-C ,  6-H ) :   0.9364
B(  1-C ,  7-H ) :   0.9169 B(  2-C ,  3-C ) :   0.9546 B(  2-C ,  8-H ) :   0.9447
B(  2-C ,  9-H ) :   0.9428 B(  3-C ,  4-O ) :   0.8345 B(  3-C , 10-H ) :   0.9348
B(  3-C , 11-H ) :   0.9399 B( 12-C , 13-H ) :   0.9233 B( 12-C , 14-H ) :   0.9289
B( 12-C , 15-O ) :   0.8230 B( 12-C , 16-C ) :   0.8974 B( 16-C , 17-C ) :   0.8890
B( 16-C , 20-O ) :   0.8368 B( 16-C , 21-H ) :   0.9301 B( 17-C , 18-C ) :   0.9140
B( 17-C , 22-H ) :   0.9322 B( 17-C , 23-O ) :   0.9211 B( 18-C , 19-C ) :   0.9394
B( 18-C , 24-H ) :   0.9415 B( 18-C , 25-H ) :   0.9441 B( 19-C , 20-O ) :   0.8353
B( 19-C , 26-H ) :   0.9326 B( 19-C , 27-H ) :   0.9372 B( 23-O , 28-H ) :   0.7641

FINAL SINGLE POINT ENERGY      -652.855933641642

DIPOLE MOMENT
-------------
                                X             Y             Z
Electronic contribution:     -2.93906      -1.09525       1.00644
Nuclear contribution   :      3.66671       1.05476      -1.44755
                        -----------------------------------------
Total Dipole Moment    :      0.72765      -0.04049      -0.44112
                        -----------------------------------------
Magnitude (a.u.)       :      0.85188
Magnitude (Debye)      :      2.16531

Rotational constants in cm-1:     0.059184     0.013707     0.012490
Rotational constants in MHz :  1774.290403   410.919094   374.434799

                             ****ORCA TERMINATED NORMALLY****
TOTAL RUN TIME: 0 days 0 hours 44 minutes 50 seconds 216 msec
