                         Program Version 4.2.0 -  RELEASE  -
|  1> # Test redundant internal optimization
|  2> #
|  3> ! RKS B3LYP  Opt TightSCF SmallPrint
|  4>
|  5> %basis
|  6>         Basis "6-31G"
|  7> end
|  8>
|  9> %geom
| 10> Constraints
| 11> { D 4  0  15  12  225.0   C } # D for Dihedral angle
| 12> { D 0  15  12  16  105.0   C } # D for Dihedral angle
| 13> { D 0  4  3  2   C } # D for Dihedral angle
| 14> { D 4  3  2  1   C } # D for Dihedral angle
| 15> { D 3  2  1  0   C } # D for Dihedral angle
| 16> { D 2  1  0  4   C } # D for Dihedral angle
| 17> { D 1  0  4  3   C } # D for Dihedral angle
| 18> { D 16  20  19  18   C } # D for Dihedral angle
| 19> { D 20  19  18  17   C } # D for Dihedral angle
| 20> { D 19  18  17  16   C } # D for Dihedral angle
| 21> { D 18  17  16  20   C } # D for Dihedral angle
| 22> { D 17  16  20  19   C } # D for Dihedral angle
| 23> { D 15  12  16  20   C } # D for Dihedral angle
| 24> end
| 25> end
| 26>
| 27>
| 28> #%pal
| 29> #nprocs 8
| 30> #end
| 31>
| 32> * xyz 0 1
| 33> C  -21.048   26.222   46.251
| 34> C  -20.361   27.558   45.944
| 35> C  -20.329   28.222   47.341
| 36> C  -20.110   27.022   48.296
| 37> O  -20.473   25.807   47.535
| 38> H  -20.833   25.428   45.533
| 39> H  -19.344   27.382   45.576
| 40> H  -20.898   28.157   45.201
| 41> H  -19.543   28.978   47.434
| 42> H  -21.289   28.710   47.548
| 43> H  -20.733   27.082   49.195
| 44> H  -19.064   26.913   48.597
| 45> C  -23.415   25.773   45.218
| 46> H  -24.180   26.490   44.895
| 47> H  -22.769   25.550   44.359
| 48> O  -22.586   26.394   46.375
| 49> C  -24.126   24.454   45.629
| 50> C  -23.126   23.430   46.179
| 51> C  -22.912   23.945   47.622
| 52> C  -24.307   24.497   48.010
| 53> O  -25.047   24.694   46.745
| 54> H  -24.726   24.094   44.791
| 55> H  -23.577   22.432   46.188
| 56> O  -21.807   23.365   45.361
| 57> H  -22.568   23.163   48.306
| 58> H  -22.164   24.748   47.629
| 59> H  -24.248   25.451   48.545
| 60> H  -24.883   23.788   48.613
| 61> H  -21.339   24.355   45.339
| 62> *
| 63>
| 64>                          ****END OF INPUT****
 Total Charge           Charge          ....    0
 Multiplicity           Mult            ....    1
 Number of Electrons    NEL             ....  102
FINAL SINGLE POINT ENERGY      -652.809879615460
FINAL SINGLE POINT ENERGY      -652.840851986943
FINAL SINGLE POINT ENERGY      -652.855101475623
FINAL SINGLE POINT ENERGY      -652.858125686885
FINAL SINGLE POINT ENERGY      -652.859256896020
FINAL SINGLE POINT ENERGY      -652.859963157397
FINAL SINGLE POINT ENERGY      -652.860546510069
FINAL SINGLE POINT ENERGY      -652.861083776980
FINAL SINGLE POINT ENERGY      -652.861466329735
FINAL SINGLE POINT ENERGY      -652.861799641223
FINAL SINGLE POINT ENERGY      -652.862130326533
FINAL SINGLE POINT ENERGY      -652.862503520979
FINAL SINGLE POINT ENERGY      -652.862857942351
FINAL SINGLE POINT ENERGY      -652.863117144584
FINAL SINGLE POINT ENERGY      -652.863186245486
FINAL SINGLE POINT ENERGY      -652.863232131034
FINAL SINGLE POINT ENERGY      -652.863234727182
                    ***********************HURRAY********************

CARTESIAN COORDINATES (ANGSTROEM)
---------------------------------
  C    -21.014542   26.330041   46.203425
  C    -20.358435   27.678182   45.901559
  C    -20.387465   28.364954   47.288890
  C    -20.164430   27.186258   48.262745
  O    -20.475682   25.956624   47.489733
  H    -20.794503   25.514328   45.513263
  H    -19.326681   27.517488   45.565611
  H    -20.896923   28.237350   45.132815
  H    -19.624324   29.141982   47.393712
  H    -21.370585   28.815870   47.452218
  H    -20.817049   27.223955   49.138534
  H    -19.123988   27.096020   48.589450
  C    -23.287378   25.909317   45.281762
  H    -24.041246   26.665136   45.041343
  H    -22.693234   25.704206   44.382025
  O    -22.455346   26.502847   46.323796
  C    -24.029437   24.634420   45.687123
  C    -23.173572   23.435347   46.123360
  C    -22.935797   23.741428   47.631213
  C    -24.265710   24.406296   48.054022
  O    -24.935420   24.841752   46.806782
  H    -24.663395   24.369757   44.830670
  H    -23.755222   22.511503   46.001272
  O    -21.970738   23.373992   45.308154
  H    -22.735333   22.830987   48.208306
  H    -22.094158   24.427481   47.741439
  H    -24.104926   25.281166   48.690125
  H    -24.947916   23.712208   48.556222
  H    -21.361565   22.693103   45.655430

 Multiplicity           Mult            ....    1
 Number of Electrons    NEL             ....  102
 Basis Dimension        Dim             ....  149

ORBITAL ENERGIES
----------------

  NO   OCC          E(Eh)            E(eV)
   0   2.0000     -19.145642      -520.9794
   1   2.0000     -19.139903      -520.8232
   2   2.0000     -19.132433      -520.6200
   3   2.0000     -19.125463      -520.4303
   4   2.0000     -10.269726      -279.4535
   5   2.0000     -10.236390      -278.5463
   6   2.0000     -10.224521      -278.2234
   7   2.0000     -10.223295      -278.1900
   8   2.0000     -10.219783      -278.0944
   9   2.0000     -10.213815      -277.9320
  10   2.0000     -10.181990      -277.0660
  11   2.0000     -10.180442      -277.0239
  12   2.0000     -10.167653      -276.6759
  13   2.0000      -1.046560       -28.4783
  14   2.0000      -1.025406       -27.9027
  15   2.0000      -1.007184       -27.4069
  16   2.0000      -0.985765       -26.8240
  17   2.0000      -0.782208       -21.2850
  18   2.0000      -0.766559       -20.8591
  19   2.0000      -0.757052       -20.6004
  20   2.0000      -0.726106       -19.7584
  21   2.0000      -0.668708       -18.1965
  22   2.0000      -0.596690       -16.2367
  23   2.0000      -0.593990       -16.1633
  24   2.0000      -0.587442       -15.9851
  25   2.0000      -0.558031       -15.1848
  26   2.0000      -0.518144       -14.0994
  27   2.0000      -0.509088       -13.8530
  28   2.0000      -0.489897       -13.3308
  29   2.0000      -0.485409       -13.2086
  30   2.0000      -0.462780       -12.5929
  31   2.0000      -0.448942       -12.2163
  32   2.0000      -0.436178       -11.8690
  33   2.0000      -0.425798       -11.5866
  34   2.0000      -0.420665       -11.4469
  35   2.0000      -0.407241       -11.0816
  36   2.0000      -0.398024       -10.8308
  37   2.0000      -0.389261       -10.5923
  38   2.0000      -0.365413        -9.9434
  39   2.0000      -0.356031        -9.6881
  40   2.0000      -0.354271        -9.6402
  41   2.0000      -0.349936        -9.5222
  42   2.0000      -0.343571        -9.3490
  43   2.0000      -0.327233        -8.9045
  44   2.0000      -0.314648        -8.5620
  45   2.0000      -0.297902        -8.1063
  46   2.0000      -0.289291        -7.8720
  47   2.0000      -0.271821        -7.3966
  48   2.0000      -0.258936        -7.0460
  49   2.0000      -0.249774        -6.7967
  50   2.0000      -0.225505        -6.1363
  51   0.0000       0.059723         1.6251
  52   0.0000       0.085422         2.3244
  53   0.0000       0.097275         2.6470
  54   0.0000       0.108961         2.9650
  55   0.0000       0.119246         3.2448

MULLIKEN ATOMIC CHARGES
-----------------------
   0 C :    0.275659
   1 C :   -0.251094
   2 C :   -0.300954
   3 C :    0.000036
   4 O :   -0.514626
   5 H :    0.171901
   6 H :    0.139068
   7 H :    0.147095
   8 H :    0.139580
   9 H :    0.165412
  10 H :    0.148818
  11 H :    0.139294
  12 C :   -0.008554
  13 H :    0.155608
  14 H :    0.141296
  15 O :   -0.523850
  16 C :    0.101308
  17 C :    0.088036
  18 C :   -0.345159
  19 C :   -0.005584
  20 O :   -0.522118
  21 H :    0.141112
  22 H :    0.134752
  23 O :   -0.618303
  24 H :    0.122341
  25 H :    0.224655
  26 H :    0.152984
  27 H :    0.134783
  28 H :    0.366503
Sum of atomic charges:    0.0000000

LOEWDIN ATOMIC CHARGES
----------------------
   0 C :    0.169257
   1 C :   -0.221637
   2 C :   -0.216881
   3 C :   -0.026946
   4 O :   -0.316732
   5 H :    0.111768
   6 H :    0.110437
   7 H :    0.118291
   8 H :    0.113017
   9 H :    0.120978
  10 H :    0.106363
  11 H :    0.100833
  12 C :   -0.037101
  13 H :    0.114372
  14 H :    0.106390
  15 O :   -0.336237
  16 C :    0.026753
  17 C :    0.034610
  18 C :   -0.257001
  19 C :   -0.023395
  20 O :   -0.323317
  21 H :    0.110478
  22 H :    0.095467
  23 O :   -0.421364
  24 H :    0.104471
  25 H :    0.145388
  26 H :    0.107916
  27 H :    0.096632
  28 H :    0.287191

  Mayer bond orders larger than 0.100000
B(  0-C ,  1-C ) :   0.9393 B(  0-C ,  4-O ) :   0.8885 B(  0-C ,  5-H ) :   0.9014
B(  0-C , 15-O ) :   0.8330 B(  1-C ,  2-C ) :   0.9537 B(  1-C ,  6-H ) :   0.9364
B(  1-C ,  7-H ) :   0.9399 B(  2-C ,  3-C ) :   0.9557 B(  2-C ,  8-H ) :   0.9455
B(  2-C ,  9-H ) :   0.9427 B(  3-C ,  4-O ) :   0.8331 B(  3-C , 10-H ) :   0.9354
B(  3-C , 11-H ) :   0.9403 B( 12-C , 13-H ) :   0.9321 B( 12-C , 14-H ) :   0.9099
B( 12-C , 15-O ) :   0.8654 B( 12-C , 16-C ) :   0.9018 B( 16-C , 17-C ) :   0.9256
B( 16-C , 20-O ) :   0.8851 B( 16-C , 21-H ) :   0.9230 B( 17-C , 18-C ) :   0.9288
B( 17-C , 22-H ) :   0.9255 B( 17-C , 23-O ) :   0.8630 B( 18-C , 19-C ) :   0.9464
B( 18-C , 24-H ) :   0.9434 B( 18-C , 25-H ) :   0.8882 B( 19-C , 20-O ) :   0.8391
B( 19-C , 26-H ) :   0.9321 B( 19-C , 27-H ) :   0.9376 B( 23-O , 28-H ) :   0.8000

FINAL SINGLE POINT ENERGY      -652.863235430453

DIPOLE MOMENT
-------------
                                X             Y             Z
Electronic contribution:     -2.65347      -2.95347      -1.59417
Nuclear contribution   :      3.57993       2.78411       1.56829
                        -----------------------------------------
Total Dipole Moment    :      0.92646      -0.16937      -0.02588
                        -----------------------------------------
Magnitude (a.u.)       :      0.94217
Magnitude (Debye)      :      2.39482

Rotational constants in cm-1:     0.045965     0.017121     0.016819
Rotational constants in MHz :  1377.988611   513.283997   504.206720

                             ****ORCA TERMINATED NORMALLY****
TOTAL RUN TIME: 0 days 0 hours 57 minutes 18 seconds 352 msec
