                         Program Version 4.2.0 -  RELEASE  -
|  1> # Test redundant internal optimization
|  2> #
|  3> ! RKS B3LYP  Opt TightSCF SmallPrint
|  4>
|  5> %basis
|  6>         Basis "6-31G"
|  7> end
|  8>
|  9> %geom
| 10> Constraints
| 11> { D 4  0  15  12  345.0   C } # D for Dihedral angle
| 12> { D 0  15  12  16  210.0   C } # D for Dihedral angle
| 13> { D 0  4  3  2   C } # D for Dihedral angle
| 14> { D 4  3  2  1   C } # D for Dihedral angle
| 15> { D 3  2  1  0   C } # D for Dihedral angle
| 16> { D 2  1  0  4   C } # D for Dihedral angle
| 17> { D 1  0  4  3   C } # D for Dihedral angle
| 18> { D 16  20  19  18   C } # D for Dihedral angle
| 19> { D 20  19  18  17   C } # D for Dihedral angle
| 20> { D 19  18  17  16   C } # D for Dihedral angle
| 21> { D 18  17  16  20   C } # D for Dihedral angle
| 22> { D 17  16  20  19   C } # D for Dihedral angle
| 23> { D 15  12  16  20   C } # D for Dihedral angle
| 24> end
| 25> end
| 26>
| 27>
| 28> #%pal
| 29> #nprocs 8
| 30> #end
| 31>
| 32> * xyz 0 1
| 33> C  -21.048   26.222   46.251
| 34> C  -20.361   27.558   45.944
| 35> C  -20.329   28.222   47.341
| 36> C  -20.110   27.022   48.296
| 37> O  -20.473   25.807   47.535
| 38> H  -20.833   25.428   45.533
| 39> H  -19.344   27.382   45.576
| 40> H  -20.898   28.157   45.201
| 41> H  -19.543   28.978   47.434
| 42> H  -21.289   28.710   47.548
| 43> H  -20.733   27.082   49.195
| 44> H  -19.064   26.913   48.597
| 45> C  -23.221   25.764   47.645
| 46> H  -22.624   24.897   47.956
| 47> H  -23.229   26.489   48.470
| 48> O  -22.586   26.394   46.375
| 49> C  -24.684   25.294   47.415
| 50> C  -25.316   24.785   48.716
| 51> C  -25.690   26.110   49.422
| 52> C  -26.093   27.034   48.245
| 53> O  -25.530   26.425   47.021
| 54> H  -24.704   24.576   46.592
| 55> H  -26.214   24.198   48.494
| 56> O  -24.352   23.905   49.559
| 57> H  -26.496   25.989   50.152
| 58> H  -24.818   26.515   49.949
| 59> H  -25.698   28.050   48.354
| 60> H  -27.177   27.088   48.109
| 61> H  -23.445   24.472   49.794
| 62> *
| 63>
| 64>                          ****END OF INPUT****
 Total Charge           Charge          ....    0
 Multiplicity           Mult            ....    1
 Number of Electrons    NEL             ....  102
FINAL SINGLE POINT ENERGY      -652.827445661622
FINAL SINGLE POINT ENERGY      -652.850597859575
FINAL SINGLE POINT ENERGY      -652.854954909715
FINAL SINGLE POINT ENERGY      -652.855639245196
FINAL SINGLE POINT ENERGY      -652.855752458227
FINAL SINGLE POINT ENERGY      -652.855785069057
FINAL SINGLE POINT ENERGY      -652.855789766898
                    ***********************HURRAY********************

CARTESIAN COORDINATES (ANGSTROEM)
---------------------------------
  C    -21.097602   26.196771   46.323841
  C    -20.515028   27.556817   45.940651
  C    -20.333108   28.221348   47.322952
  C    -19.943557   27.039882   48.237726
  O    -20.358220   25.809124   47.505392
  H    -20.940818   25.396611   45.595643
  H    -19.551213   27.410848   45.439087
  H    -21.183344   28.113391   45.280504
  H    -19.571634   29.007384   47.316031
  H    -21.280309   28.665885   47.644025
  H    -20.447121   27.057868   49.208513
  H    -18.864229   26.957305   48.394800
  C    -23.102057   25.781976   47.755397
  H    -22.534226   24.902839   48.080189
  H    -23.063461   26.535423   48.557151
  O    -22.531491   26.341447   46.541219
  C    -24.541182   25.373268   47.454256
  C    -25.290277   24.799630   48.670506
  C    -25.772580   26.096116   49.390051
  C    -26.076056   27.045385   48.209817
  O    -25.373475   26.493332   47.024445
  H    -24.524314   24.675099   46.612215
  H    -26.146957   24.217853   48.323423
  O    -24.540335   23.877902   49.496310
  H    -26.641746   25.915203   50.028126
  H    -24.963440   26.485495   50.021985
  H    -25.730190   28.069001   48.385750
  H    -27.142651   27.072998   47.965634
  H    -23.841381   24.349795   49.993360

 Multiplicity           Mult            ....    1
 Number of Electrons    NEL             ....  102
 Basis Dimension        Dim             ....  149

ORBITAL ENERGIES
----------------

  NO   OCC          E(Eh)            E(eV)
   0   2.0000     -19.149977      -521.0974
   1   2.0000     -19.147462      -521.0289
   2   2.0000     -19.135187      -520.6949
   3   2.0000     -19.132549      -520.6231
   4   2.0000     -10.277230      -279.6576
   5   2.0000     -10.242435      -278.7108
   6   2.0000     -10.232934      -278.4523
   7   2.0000     -10.227382      -278.3012
   8   2.0000     -10.226612      -278.2803
   9   2.0000     -10.225878      -278.2603
  10   2.0000     -10.192987      -277.3653
  11   2.0000     -10.189640      -277.2742
  12   2.0000     -10.184062      -277.1224
  13   2.0000      -1.054111       -28.6838
  14   2.0000      -1.030939       -28.0533
  15   2.0000      -1.012472       -27.5508
  16   2.0000      -0.989658       -26.9300
  17   2.0000      -0.790995       -21.5241
  18   2.0000      -0.779379       -21.2080
  19   2.0000      -0.766349       -20.8534
  20   2.0000      -0.732055       -19.9202
  21   2.0000      -0.676968       -18.4212
  22   2.0000      -0.608330       -16.5535
  23   2.0000      -0.603375       -16.4187
  24   2.0000      -0.592257       -16.1161
  25   2.0000      -0.568904       -15.4807
  26   2.0000      -0.528417       -14.3789
  27   2.0000      -0.506774       -13.7900
  28   2.0000      -0.497359       -13.5338
  29   2.0000      -0.496826       -13.5193
  30   2.0000      -0.470267       -12.7966
  31   2.0000      -0.453791       -12.3483
  32   2.0000      -0.448817       -12.2129
  33   2.0000      -0.428219       -11.6524
  34   2.0000      -0.424147       -11.5416
  35   2.0000      -0.412677       -11.2295
  36   2.0000      -0.409272       -11.1369
  37   2.0000      -0.399064       -10.8591
  38   2.0000      -0.375947       -10.2300
  39   2.0000      -0.368181       -10.0187
  40   2.0000      -0.360132        -9.7997
  41   2.0000      -0.351629        -9.5683
  42   2.0000      -0.349265        -9.5040
  43   2.0000      -0.340205        -9.2574
  44   2.0000      -0.323994        -8.8163
  45   2.0000      -0.310707        -8.4548
  46   2.0000      -0.301711        -8.2100
  47   2.0000      -0.268721        -7.3123
  48   2.0000      -0.263107        -7.1595
  49   2.0000      -0.250839        -6.8257
  50   2.0000      -0.235087        -6.3970
  51   0.0000       0.051244         1.3944
  52   0.0000       0.071237         1.9385
  53   0.0000       0.089344         2.4312
  54   0.0000       0.095967         2.6114
  55   0.0000       0.105543         2.8720

MULLIKEN ATOMIC CHARGES
-----------------------
   0 C :    0.295478
   1 C :   -0.255992
   2 C :   -0.306376
   3 C :   -0.014660
   4 O :   -0.514017
   5 H :    0.154145
   6 H :    0.142789
   7 H :    0.167326
   8 H :    0.146022
   9 H :    0.159212
  10 H :    0.138265
  11 H :    0.151280
  12 C :   -0.010894
  13 H :    0.158126
  14 H :    0.112125
  15 O :   -0.526269
  16 C :    0.090109
  17 C :    0.079398
  18 C :   -0.321052
  19 C :   -0.011854
  20 O :   -0.503223
  21 H :    0.162753
  22 H :    0.169019
  23 O :   -0.597474
  24 H :    0.157536
  25 H :    0.131017
  26 H :    0.142581
  27 H :    0.149208
  28 H :    0.355423
Sum of atomic charges:   -0.0000000

LOEWDIN ATOMIC CHARGES
----------------------
   0 C :    0.180887
   1 C :   -0.217406
   2 C :   -0.218578
   3 C :   -0.032028
   4 O :   -0.322800
   5 H :    0.102705
   6 H :    0.112788
   7 H :    0.129332
   8 H :    0.116634
   9 H :    0.117028
  10 H :    0.099564
  11 H :    0.107015
  12 C :   -0.051337
  13 H :    0.112319
  14 H :    0.083851
  15 O :   -0.329495
  16 C :    0.019374
  17 C :    0.033395
  18 C :   -0.242391
  19 C :   -0.031176
  20 O :   -0.313392
  21 H :    0.119501
  22 H :    0.120186
  23 O :   -0.405811
  24 H :    0.122205
  25 H :    0.102679
  26 H :    0.102052
  27 H :    0.105370
  28 H :    0.277529

  Mayer bond orders larger than 0.100000
B(  0-C ,  1-C ) :   0.9383 B(  0-C ,  4-O ) :   0.9014 B(  0-C ,  5-H ) :   0.9256
B(  0-C , 15-O ) :   0.8500 B(  1-C ,  2-C ) :   0.9522 B(  1-C ,  6-H ) :   0.9364
B(  1-C ,  7-H ) :   0.9345 B(  2-C ,  3-C ) :   0.9551 B(  2-C ,  8-H ) :   0.9446
B(  2-C ,  9-H ) :   0.9449 B(  3-C ,  4-O ) :   0.8318 B(  3-C , 10-H ) :   0.9348
B(  3-C , 11-H ) :   0.9401 B( 12-C , 13-H ) :   0.8984 B( 12-C , 14-H ) :   0.9215
B( 12-C , 15-O ) :   0.8360 B( 12-C , 16-C ) :   0.9054 B( 16-C , 17-C ) :   0.8733
B( 16-C , 20-O ) :   0.8673 B( 16-C , 21-H ) :   0.9292 B( 17-C , 18-C ) :   0.9211
B( 17-C , 22-H ) :   0.9331 B( 17-C , 23-O ) :   0.8987 B( 18-C , 19-C ) :   0.9387
B( 18-C , 24-H ) :   0.9415 B( 18-C , 25-H ) :   0.9418 B( 19-C , 20-O ) :   0.8530
B( 19-C , 26-H ) :   0.9316 B( 19-C , 27-H ) :   0.9374 B( 23-O , 28-H ) :   0.7976

FINAL SINGLE POINT ENERGY      -652.855791304472

DIPOLE MOMENT
-------------
                                X             Y             Z
Electronic contribution:     -1.57980      -4.48563      -2.52132
Nuclear contribution   :      2.05021       5.49213       3.41627
                        -----------------------------------------
Total Dipole Moment    :      0.47041       1.00650       0.89495
                        -----------------------------------------
Magnitude (a.u.)       :      1.42663
Magnitude (Debye)      :      3.62621

Rotational constants in cm-1:     0.049259     0.013730     0.012627
Rotational constants in MHz :  1476.757546   411.606185   378.545311

                             ****ORCA TERMINATED NORMALLY****
TOTAL RUN TIME: 0 days 0 hours 23 minutes 31 seconds 386 msec
