                         Program Version 4.2.0 -  RELEASE  -
|  1> # Test redundant internal optimization
|  2> #
|  3> ! RKS B3LYP  Opt TightSCF SmallPrint
|  4>
|  5> %basis
|  6>         Basis "6-31G"
|  7> end
|  8>
|  9> %geom
| 10> Constraints
| 11> { D 4  0  15  12  45.0   C } # D for Dihedral angle
| 12> { D 0  15  12  16  135.0   C } # D for Dihedral angle
| 13> { D 0  4  3  2   C } # D for Dihedral angle
| 14> { D 4  3  2  1   C } # D for Dihedral angle
| 15> { D 3  2  1  0   C } # D for Dihedral angle
| 16> { D 2  1  0  4   C } # D for Dihedral angle
| 17> { D 1  0  4  3   C } # D for Dihedral angle
| 18> { D 16  20  19  18   C } # D for Dihedral angle
| 19> { D 20  19  18  17   C } # D for Dihedral angle
| 20> { D 19  18  17  16   C } # D for Dihedral angle
| 21> { D 18  17  16  20   C } # D for Dihedral angle
| 22> { D 17  16  20  19   C } # D for Dihedral angle
| 23> { D 15  12  16  20   C } # D for Dihedral angle
| 24> end
| 25> end
| 26>
| 27>
| 28> #%pal
| 29> #nprocs 8
| 30> #end
| 31>
| 32> * xyz 0 1
| 33> C  -21.048   26.222   46.251
| 34> C  -20.361   27.558   45.944
| 35> C  -20.329   28.222   47.341
| 36> C  -20.110   27.022   48.296
| 37> O  -20.473   25.807   47.535
| 38> H  -20.833   25.428   45.533
| 39> H  -19.344   27.382   45.576
| 40> H  -20.898   28.157   45.201
| 41> H  -19.543   28.978   47.434
| 42> H  -21.289   28.710   47.548
| 43> H  -20.733   27.082   49.195
| 44> H  -19.064   26.913   48.597
| 45> C  -23.065   27.161   47.638
| 46> H  -23.479   26.447   48.360
| 47> H  -22.223   27.682   48.113
| 48> O  -22.586   26.394   46.375
| 49> C  -24.156   28.221   47.319
| 50> C  -23.679   29.205   46.244
| 51> C  -23.884   28.380   44.951
| 52> C  -25.160   27.558   45.256
| 53> O  -25.334   27.581   46.725
| 54> H  -24.481   28.691   48.248
| 55> H  -24.318   30.095   46.240
| 56> O  -22.207   29.659   46.442
| 57> H  -23.994   29.007   44.060
| 58> H  -23.026   27.716   44.788
| 59> H  -25.081   26.519   44.920
| 60> H  -26.059   28.004   44.819
| 61> H  -21.549   28.783   46.449
| 62> *
| 63>
| 64>                          ****END OF INPUT****
 Total Charge           Charge          ....    0
 Multiplicity           Mult            ....    1
 Number of Electrons    NEL             ....  102
FINAL SINGLE POINT ENERGY      -652.751847309292
FINAL SINGLE POINT ENERGY      -652.822431781330
FINAL SINGLE POINT ENERGY      -652.843506752595
FINAL SINGLE POINT ENERGY      -652.849174411182
FINAL SINGLE POINT ENERGY      -652.850577091242
FINAL SINGLE POINT ENERGY      -652.851264606458
FINAL SINGLE POINT ENERGY      -652.851434901280
FINAL SINGLE POINT ENERGY      -652.851519621811
FINAL SINGLE POINT ENERGY      -652.851597204324
FINAL SINGLE POINT ENERGY      -652.851654331787
FINAL SINGLE POINT ENERGY      -652.851826822292
FINAL SINGLE POINT ENERGY      -652.851833431483
FINAL SINGLE POINT ENERGY      -652.851836924102
                    ***********************HURRAY********************

CARTESIAN COORDINATES (ANGSTROEM)
---------------------------------
  C    -21.119258   26.205342   46.489911
  C    -20.267159   27.384276   45.997490
  C    -19.964619   28.147093   47.324866
  C    -19.833170   26.989918   48.346773
  O    -20.477228   25.810273   47.720637
  H    -21.055183   25.343650   45.822327
  H    -19.346955   26.984003   45.558926
  H    -20.773297   27.992146   45.243710
  H    -19.043284   28.735531   47.263754
  H    -20.785944   28.821784   47.572200
  H    -20.326184   27.198343   49.301334
  H    -18.791500   26.716249   48.538255
  C    -23.174408   27.108716   47.702949
  H    -23.656422   26.360209   48.340951
  H    -22.436130   27.647738   48.302345
  O    -22.553786   26.384846   46.593224
  C    -24.258745   28.088749   47.249458
  C    -23.880782   29.235192   46.298726
  C    -23.958883   28.539270   44.906014
  C    -25.134816   27.551846   45.094011
  O    -25.333107   27.396212   46.547822
  H    -24.704902   28.485683   48.170315
  H    -24.653599   30.009291   46.372506
  O    -22.612548   29.863040   46.624264
  H    -24.133384   29.250177   44.092317
  H    -23.031630   27.990968   44.724150
  H    -24.922627   26.571421   44.659530
  H    -26.071269   27.937848   44.678711
  H    -22.005182   29.834185   45.860524

 Multiplicity           Mult            ....    1
 Number of Electrons    NEL             ....  102
 Basis Dimension        Dim             ....  149

ORBITAL ENERGIES
----------------

  NO   OCC          E(Eh)            E(eV)
   0   2.0000     -19.154368      -521.2169
   1   2.0000     -19.144095      -520.9373
   2   2.0000     -19.139580      -520.8145
   3   2.0000     -19.132823      -520.6306
   4   2.0000     -10.279745      -279.7261
   5   2.0000     -10.245388      -278.7912
   6   2.0000     -10.231069      -278.4015
   7   2.0000     -10.229097      -278.3479
   8   2.0000     -10.224329      -278.2181
   9   2.0000     -10.224229      -278.2154
  10   2.0000     -10.193044      -277.3668
  11   2.0000     -10.190852      -277.3072
  12   2.0000     -10.187034      -277.2033
  13   2.0000      -1.051254       -28.6061
  14   2.0000      -1.034751       -28.1570
  15   2.0000      -1.016362       -27.6566
  16   2.0000      -0.990561       -26.9545
  17   2.0000      -0.788205       -21.4482
  18   2.0000      -0.778620       -21.1873
  19   2.0000      -0.769900       -20.9500
  20   2.0000      -0.734492       -19.9865
  21   2.0000      -0.679074       -18.4785
  22   2.0000      -0.611239       -16.6327
  23   2.0000      -0.603219       -16.4144
  24   2.0000      -0.599288       -16.3075
  25   2.0000      -0.559862       -15.2346
  26   2.0000      -0.516392       -14.0518
  27   2.0000      -0.513855       -13.9827
  28   2.0000      -0.509530       -13.8650
  29   2.0000      -0.498379       -13.5616
  30   2.0000      -0.462912       -12.5965
  31   2.0000      -0.451700       -12.2914
  32   2.0000      -0.444281       -12.0895
  33   2.0000      -0.437263       -11.8985
  34   2.0000      -0.426610       -11.6087
  35   2.0000      -0.421123       -11.4593
  36   2.0000      -0.411714       -11.2033
  37   2.0000      -0.400675       -10.9029
  38   2.0000      -0.378671       -10.3042
  39   2.0000      -0.369175       -10.0458
  40   2.0000      -0.364745        -9.9252
  41   2.0000      -0.355147        -9.6640
  42   2.0000      -0.348331        -9.4786
  43   2.0000      -0.325415        -8.8550
  44   2.0000      -0.318904        -8.6778
  45   2.0000      -0.310726        -8.4553
  46   2.0000      -0.305197        -8.3048
  47   2.0000      -0.274436        -7.4678
  48   2.0000      -0.261789        -7.1236
  49   2.0000      -0.253557        -6.8996
  50   2.0000      -0.234549        -6.3824
  51   0.0000       0.042391         1.1535
  52   0.0000       0.073719         2.0060
  53   0.0000       0.090682         2.4676
  54   0.0000       0.096675         2.6307
  55   0.0000       0.109247         2.9728

MULLIKEN ATOMIC CHARGES
-----------------------
   0 C :    0.308599
   1 C :   -0.275083
   2 C :   -0.342997
   3 C :   -0.016423
   4 O :   -0.507438
   5 H :    0.162769
   6 H :    0.153102
   7 H :    0.121270
   8 H :    0.140513
   9 H :    0.193424
  10 H :    0.147142
  11 H :    0.146870
  12 C :    0.008476
  13 H :    0.162678
  14 H :    0.139875
  15 O :   -0.536473
  16 C :    0.090283
  17 C :    0.095334
  18 C :   -0.341623
  19 C :    0.007573
  20 O :   -0.517397
  21 H :    0.146700
  22 H :    0.155097
  23 O :   -0.616996
  24 H :    0.141992
  25 H :    0.166559
  26 H :    0.156682
  27 H :    0.138636
  28 H :    0.370858
Sum of atomic charges:   -0.0000000

LOEWDIN ATOMIC CHARGES
----------------------
   0 C :    0.179933
   1 C :   -0.229912
   2 C :   -0.238777
   3 C :   -0.034016
   4 O :   -0.318448
   5 H :    0.110525
   6 H :    0.119510
   7 H :    0.101902
   8 H :    0.113878
   9 H :    0.126043
  10 H :    0.101941
  11 H :    0.104213
  12 C :   -0.034578
  13 H :    0.116388
  14 H :    0.106436
  15 O :   -0.331411
  16 C :    0.023885
  17 C :    0.036259
  18 C :   -0.246594
  19 C :   -0.020137
  20 O :   -0.318663
  21 H :    0.113143
  22 H :    0.107665
  23 O :   -0.413337
  24 H :    0.112197
  25 H :    0.118110
  26 H :    0.110392
  27 H :    0.099479
  28 H :    0.283974

  Mayer bond orders larger than 0.100000
B(  0-C ,  1-C ) :   0.9126 B(  0-C ,  4-O ) :   0.9072 B(  0-C ,  5-H ) :   0.9363
B(  0-C , 15-O ) :   0.8863 B(  1-C ,  2-C ) :   0.9544 B(  1-C ,  6-H ) :   0.9335
B(  1-C ,  7-H ) :   0.9304 B(  2-C ,  3-C ) :   0.9467 B(  2-C ,  8-H ) :   0.9453
B(  2-C ,  9-H ) :   0.9072 B(  3-C ,  4-O ) :   0.8381 B(  3-C , 10-H ) :   0.9320
B(  3-C , 11-H ) :   0.9391 B( 12-C , 13-H ) :   0.9264 B( 12-C , 14-H ) :   0.9034
B( 12-C , 15-O ) :   0.8303 B( 12-C , 16-C ) :   0.9137 B( 16-C , 17-C ) :   0.8962
B( 16-C , 20-O ) :   0.8719 B( 16-C , 21-H ) :   0.9257 B( 17-C , 18-C ) :   0.9464
B( 17-C , 22-H ) :   0.9270 B( 17-C , 23-O ) :   0.8695 B( 18-C , 19-C ) :   0.9447
B( 18-C , 24-H ) :   0.9388 B( 18-C , 25-H ) :   0.9203 B( 19-C , 20-O ) :   0.8444
B( 19-C , 26-H ) :   0.9303 B( 19-C , 27-H ) :   0.9371 B( 23-O , 28-H ) :   0.7886

FINAL SINGLE POINT ENERGY      -652.851840215955

DIPOLE MOMENT
-------------
                                X             Y             Z
Electronic contribution:     -3.19968      -2.96811       1.51442
Nuclear contribution   :      4.01826       4.04884      -2.32642
                        -----------------------------------------
Total Dipole Moment    :      0.81858       1.08073      -0.81200
                        -----------------------------------------
Magnitude (a.u.)       :      1.58032
Magnitude (Debye)      :      4.01685

Rotational constants in cm-1:     0.047731     0.018183     0.016480
Rotational constants in MHz :  1430.940226   545.111085   494.064440

                             ****ORCA TERMINATED NORMALLY****
TOTAL RUN TIME: 0 days 0 hours 57 minutes 34 seconds 162 msec
