                         Program Version 4.2.0 -  RELEASE  -
|  1> # Test redundant internal optimization
|  2> #
|  3> ! RKS B3LYP  Opt TightSCF SmallPrint
|  4>
|  5> %basis
|  6>         Basis "6-31G"
|  7> end
|  8>
|  9> %geom
| 10> Constraints
| 11> { D 4  0  15  12  300.0   C } # D for Dihedral angle
| 12> { D 0  15  12  16  120.0   C } # D for Dihedral angle
| 13> { D 0  4  3  2   C } # D for Dihedral angle
| 14> { D 4  3  2  1   C } # D for Dihedral angle
| 15> { D 3  2  1  0   C } # D for Dihedral angle
| 16> { D 2  1  0  4   C } # D for Dihedral angle
| 17> { D 1  0  4  3   C } # D for Dihedral angle
| 18> { D 16  20  19  18   C } # D for Dihedral angle
| 19> { D 20  19  18  17   C } # D for Dihedral angle
| 20> { D 19  18  17  16   C } # D for Dihedral angle
| 21> { D 18  17  16  20   C } # D for Dihedral angle
| 22> { D 17  16  20  19   C } # D for Dihedral angle
| 23> { D 15  12  16  20   C } # D for Dihedral angle
| 24> end
| 25> end
| 26>
| 27>
| 28> #%pal
| 29> #nprocs 8
| 30> #end
| 31>
| 32> * xyz 0 1
| 33> C  -21.048   26.222   46.251
| 34> C  -20.361   27.558   45.944
| 35> C  -20.329   28.222   47.341
| 36> C  -20.110   27.022   48.296
| 37> O  -20.473   25.807   47.535
| 38> H  -20.833   25.428   45.533
| 39> H  -19.344   27.382   45.576
| 40> H  -20.898   28.157   45.201
| 41> H  -19.543   28.978   47.434
| 42> H  -21.289   28.710   47.548
| 43> H  -20.733   27.082   49.195
| 44> H  -19.064   26.913   48.597
| 45> C  -23.362   25.116   46.798
| 46> H  -24.076   24.849   46.009
| 47> H  -22.670   24.275   46.933
| 48> O  -22.586   26.394   46.375
| 49> C  -24.146   25.302   48.126
| 50> C  -24.803   23.991   48.572
| 51> C  -23.607   23.240   49.204
| 52> C  -22.781   24.378   49.854
| 53> O  -23.229   25.636   49.221
| 54> H  -24.837   26.141   48.019
| 55> H  -25.574   24.192   49.324
| 56> O  -25.456   23.207   47.401
| 57> H  -23.918   22.482   49.931
| 58> H  -23.024   22.736   48.424
| 59> H  -21.704   24.259   49.692
| 60> H  -22.970   24.471   50.927
| 61> H  -24.703   22.992   46.635
| 62> *
| 63>
| 64>                          ****END OF INPUT****
 Total Charge           Charge          ....    0
 Multiplicity           Mult            ....    1
 Number of Electrons    NEL             ....  102
FINAL SINGLE POINT ENERGY      -652.834247553051
FINAL SINGLE POINT ENERGY      -652.858944646931
FINAL SINGLE POINT ENERGY      -652.863676684460
FINAL SINGLE POINT ENERGY      -652.864457911726
FINAL SINGLE POINT ENERGY      -652.864588525858
FINAL SINGLE POINT ENERGY      -652.864616948521
FINAL SINGLE POINT ENERGY      -652.864621201968
                    ***********************HURRAY********************

CARTESIAN COORDINATES (ANGSTROEM)
---------------------------------
  C    -21.051209   26.170053   46.225300
  C    -20.489499   27.572886   45.999187
  C    -20.487937   28.146038   47.433246
  C    -20.149986   26.918297   48.306152
  O    -20.429261   25.728530   47.453332
  H    -20.805045   25.416197   45.470432
  H    -19.471035   27.494826   45.601397
  H    -21.101279   28.150789   45.303381
  H    -19.765766   28.958659   47.559810
  H    -21.485283   28.520883   47.677880
  H    -20.776743   26.849198   49.195569
  H    -19.091137   26.862575   48.576298
  C    -23.220785   25.116663   46.705943
  H    -23.947031   24.914422   45.909599
  H    -22.528154   24.269844   46.791479
  O    -22.484348   26.318459   46.345346
  C    -23.969419   25.342692   48.022294
  C    -24.731563   24.097875   48.507870
  C    -23.605636   23.292584   49.223829
  C    -22.732610   24.405286   49.844375
  O    -23.075249   25.662401   49.130004
  H    -24.620957   26.212706   47.902639
  H    -25.500100   24.396063   49.223998
  O    -25.452296   23.370329   47.483325
  H    -24.005484   22.598179   49.967774
  H    -23.041755   22.709344   48.484314
  H    -21.661397   24.221835   49.722598
  H    -22.957410   24.567296   50.903153
  H    -24.832624   22.857092   46.925476

 Multiplicity           Mult            ....    1
 Number of Electrons    NEL             ....  102
 Basis Dimension        Dim             ....  149

ORBITAL ENERGIES
----------------

  NO   OCC          E(Eh)            E(eV)
   0   2.0000     -19.148512      -521.0575
   1   2.0000     -19.137666      -520.7624
   2   2.0000     -19.136043      -520.7182
   3   2.0000     -19.133933      -520.6608
   4   2.0000     -10.273020      -279.5431
   5   2.0000     -10.243110      -278.7292
   6   2.0000     -10.227375      -278.3010
   7   2.0000     -10.226620      -278.2805
   8   2.0000     -10.225922      -278.2615
   9   2.0000     -10.212919      -277.9076
  10   2.0000     -10.193476      -277.3786
  11   2.0000     -10.178037      -276.9585
  12   2.0000     -10.175127      -276.8793
  13   2.0000      -1.048374       -28.5277
  14   2.0000      -1.031286       -28.0627
  15   2.0000      -1.013092       -27.5676
  16   2.0000      -0.986335       -26.8395
  17   2.0000      -0.783826       -21.3290
  18   2.0000      -0.778487       -21.1837
  19   2.0000      -0.761253       -20.7147
  20   2.0000      -0.724283       -19.7087
  21   2.0000      -0.674939       -18.3660
  22   2.0000      -0.609154       -16.5759
  23   2.0000      -0.590042       -16.0559
  24   2.0000      -0.584509       -15.9053
  25   2.0000      -0.574700       -15.6384
  26   2.0000      -0.525710       -14.3053
  27   2.0000      -0.510202       -13.8833
  28   2.0000      -0.490865       -13.3571
  29   2.0000      -0.481596       -13.1049
  30   2.0000      -0.467807       -12.7297
  31   2.0000      -0.453248       -12.3335
  32   2.0000      -0.440878       -11.9969
  33   2.0000      -0.430921       -11.7260
  34   2.0000      -0.419928       -11.4268
  35   2.0000      -0.414393       -11.2762
  36   2.0000      -0.398981       -10.8568
  37   2.0000      -0.393436       -10.7059
  38   2.0000      -0.377910       -10.2835
  39   2.0000      -0.368036       -10.0148
  40   2.0000      -0.348771        -9.4905
  41   2.0000      -0.345527        -9.4023
  42   2.0000      -0.338888        -9.2216
  43   2.0000      -0.328896        -8.9497
  44   2.0000      -0.323749        -8.8096
  45   2.0000      -0.313389        -8.5277
  46   2.0000      -0.292433        -7.9575
  47   2.0000      -0.270970        -7.3735
  48   2.0000      -0.264748        -7.2042
  49   2.0000      -0.249085        -6.7780
  50   2.0000      -0.233783        -6.3616
  51   0.0000       0.051939         1.4133
  52   0.0000       0.080043         2.1781
  53   0.0000       0.092894         2.5278
  54   0.0000       0.103551         2.8178
  55   0.0000       0.107087         2.9140

MULLIKEN ATOMIC CHARGES
-----------------------
   0 C :    0.285992
   1 C :   -0.262550
   2 C :   -0.297591
   3 C :   -0.007240
   4 O :   -0.518495
   5 H :    0.138586
   6 H :    0.140315
   7 H :    0.156412
   8 H :    0.135300
   9 H :    0.169010
  10 H :    0.171733
  11 H :    0.132248
  12 C :   -0.020259
  13 H :    0.142759
  14 H :    0.132416
  15 O :   -0.516227
  16 C :    0.101313
  17 C :    0.082777
  18 C :   -0.323868
  19 C :   -0.017737
  20 O :   -0.510093
  21 H :    0.162054
  22 H :    0.167072
  23 O :   -0.600188
  24 H :    0.156341
  25 H :    0.135542
  26 H :    0.162892
  27 H :    0.146647
  28 H :    0.354839
Sum of atomic charges:   -0.0000000

LOEWDIN ATOMIC CHARGES
----------------------
   0 C :    0.173230
   1 C :   -0.214966
   2 C :   -0.214464
   3 C :   -0.030272
   4 O :   -0.332572
   5 H :    0.092946
   6 H :    0.111555
   7 H :    0.123776
   8 H :    0.110697
   9 H :    0.122723
  10 H :    0.117278
  11 H :    0.097484
  12 C :   -0.053107
  13 H :    0.106159
  14 H :    0.098623
  15 O :   -0.322515
  16 C :    0.018816
  17 C :    0.034031
  18 C :   -0.240597
  19 C :   -0.033076
  20 O :   -0.315348
  21 H :    0.118154
  22 H :    0.118945
  23 O :   -0.407782
  24 H :    0.121881
  25 H :    0.105167
  26 H :    0.111831
  27 H :    0.104218
  28 H :    0.277187

  Mayer bond orders larger than 0.100000
B(  0-C ,  1-C ) :   0.9524 B(  0-C ,  4-O ) :   0.9061 B(  0-C ,  5-H ) :   0.9208
B(  0-C , 15-O ) :   0.8629 B(  1-C ,  2-C ) :   0.9570 B(  1-C ,  6-H ) :   0.9407
B(  1-C ,  7-H ) :   0.9364 B(  2-C ,  3-C ) :   0.9606 B(  2-C ,  8-H ) :   0.9454
B(  2-C ,  9-H ) :   0.9420 B(  3-C ,  4-O ) :   0.8245 B(  3-C , 10-H ) :   0.9224
B(  3-C , 11-H ) :   0.9403 B( 12-C , 13-H ) :   0.9164 B( 12-C , 14-H ) :   0.9192
B( 12-C , 15-O ) :   0.8437 B( 12-C , 16-C ) :   0.8993 B( 16-C , 17-C ) :   0.8720
B( 16-C , 20-O ) :   0.8701 B( 16-C , 21-H ) :   0.9317 B( 17-C , 18-C ) :   0.9230
B( 17-C , 22-H ) :   0.9327 B( 17-C , 23-O ) :   0.8957 B( 18-C , 19-C ) :   0.9440
B( 18-C , 24-H ) :   0.9420 B( 18-C , 25-H ) :   0.9403 B( 19-C , 20-O ) :   0.8391
B( 19-C , 26-H ) :   0.9240 B( 19-C , 27-H ) :   0.9371 B( 23-O , 28-H ) :   0.7987

FINAL SINGLE POINT ENERGY      -652.864622113761

DIPOLE MOMENT
-------------
                                X             Y             Z
Electronic contribution:     -3.01959      -0.96914      -1.23976
Nuclear contribution   :      3.62284       0.52016       1.28868
                        -----------------------------------------
Total Dipole Moment    :      0.60326      -0.44898       0.04893
                        -----------------------------------------
Magnitude (a.u.)       :      0.75359
Magnitude (Debye)      :      1.91547

Rotational constants in cm-1:     0.053675     0.016350     0.014241
Rotational constants in MHz :  1609.146043   490.163110   426.920296

                             ****ORCA TERMINATED NORMALLY****
TOTAL RUN TIME: 0 days 0 hours 40 minutes 51 seconds 437 msec
