                         Program Version 4.2.0 -  RELEASE  -
|  1> # Test redundant internal optimization
|  2> #
|  3> ! RKS B3LYP  Opt TightSCF SmallPrint
|  4>
|  5> %basis
|  6>         Basis "6-31G"
|  7> end
|  8>
|  9> %geom
| 10> Constraints
| 11> { D 4  0  15  12  135.0   C } # D for Dihedral angle
| 12> { D 0  15  12  16  165.0   C } # D for Dihedral angle
| 13> { D 0  4  3  2   C } # D for Dihedral angle
| 14> { D 4  3  2  1   C } # D for Dihedral angle
| 15> { D 3  2  1  0   C } # D for Dihedral angle
| 16> { D 2  1  0  4   C } # D for Dihedral angle
| 17> { D 1  0  4  3   C } # D for Dihedral angle
| 18> { D 16  20  19  18   C } # D for Dihedral angle
| 19> { D 20  19  18  17   C } # D for Dihedral angle
| 20> { D 19  18  17  16   C } # D for Dihedral angle
| 21> { D 18  17  16  20   C } # D for Dihedral angle
| 22> { D 17  16  20  19   C } # D for Dihedral angle
| 23> { D 15  12  16  20   C } # D for Dihedral angle
| 24> end
| 25> end
| 26>
| 27>
| 28> #%pal
| 29> #nprocs 8
| 30> #end
| 31>
| 32> * xyz 0 1
| 33> C  -21.048   26.222   46.251
| 34> C  -20.361   27.558   45.944
| 35> C  -20.329   28.222   47.341
| 36> C  -20.110   27.022   48.296
| 37> O  -20.473   25.807   47.535
| 38> H  -20.833   25.428   45.533
| 39> H  -19.344   27.382   45.576
| 40> H  -20.898   28.157   45.201
| 41> H  -19.543   28.978   47.434
| 42> H  -21.289   28.710   47.548
| 43> H  -20.733   27.082   49.195
| 44> H  -19.064   26.913   48.597
| 45> C  -23.162   27.680   45.721
| 46> H  -22.917   28.546   46.348
| 47> H  -22.718   27.838   44.729
| 48> O  -22.586   26.394   46.375
| 49> C  -24.705   27.625   45.544
| 50> C  -25.223   28.856   44.793
| 51> C  -24.888   28.492   43.327
| 52> C  -25.105   26.959   43.286
| 53> O  -25.083   26.494   44.690
| 54> H  -25.170   27.460   46.518
| 55> O  -26.758   28.992   44.987
| 56> H  -24.750   29.789   45.118
| 57> H  -25.517   29.022   42.604
| 58> H  -23.843   28.740   43.107
| 59> H  -24.321   26.439   42.724
| 60> H  -26.079   26.686   42.871
| 61> H  -27.253   28.068   44.667
| 62> *
| 63>
| 64>                          ****END OF INPUT****
 Total Charge           Charge          ....    0
 Multiplicity           Mult            ....    1
 Number of Electrons    NEL             ....  102
FINAL SINGLE POINT ENERGY      -652.821281537264
FINAL SINGLE POINT ENERGY      -652.845200333013
FINAL SINGLE POINT ENERGY      -652.849588580565
FINAL SINGLE POINT ENERGY      -652.851280227190
FINAL SINGLE POINT ENERGY      -652.851448321963
FINAL SINGLE POINT ENERGY      -652.851477750493
                    ***********************HURRAY********************

CARTESIAN COORDINATES (ANGSTROEM)
---------------------------------
  C    -21.134102   26.321931   46.239972
  C    -20.200292   27.508819   45.989805
  C    -20.184781   28.208295   47.376619
  C    -20.271379   27.013827   48.353859
  O    -20.768819   25.869220   47.555442
  H    -20.984921   25.470172   45.573094
  H    -19.206147   27.118167   45.746474
  H    -20.509790   28.168118   45.175476
  H    -19.281991   28.807234   47.529798
  H    -21.050684   28.869862   47.487038
  H    -20.957776   27.189170   49.186460
  H    -19.293852   26.721352   48.748145
  C    -23.083372   27.824437   45.618070
  H    -22.904991   28.708205   46.248934
  H    -22.623004   28.004354   44.635834
  O    -22.560858   26.620956   46.226412
  C    -24.589348   27.622846   45.455059
  C    -25.311600   28.797978   44.781903
  C    -25.069808   28.497910   43.278543
  C    -25.112810   26.950822   43.220680
  O    -24.910649   26.472198   44.609362
  H    -25.014691   27.404155   46.438987
  O    -26.727636   28.790774   45.110088
  H    -24.949409   29.780204   45.089529
  H    -25.837336   28.972318   42.662222
  H    -24.092224   28.883024   42.967429
  H    -24.333171   26.527965   42.579511
  H    -26.082449   26.570124   42.885139
  H    -27.055112   27.866564   45.090118

 Multiplicity           Mult            ....    1
 Number of Electrons    NEL             ....  102
 Basis Dimension        Dim             ....  149

ORBITAL ENERGIES
----------------

  NO   OCC          E(Eh)            E(eV)
   0   2.0000     -19.140643      -520.8434
   1   2.0000     -19.139846      -520.8217
   2   2.0000     -19.138164      -520.7759
   3   2.0000     -19.137154      -520.7484
   4   2.0000     -10.279184      -279.7108
   5   2.0000     -10.244853      -278.7766
   6   2.0000     -10.237522      -278.5771
   7   2.0000     -10.234735      -278.5013
   8   2.0000     -10.230565      -278.3878
   9   2.0000     -10.226745      -278.2839
  10   2.0000     -10.194834      -277.4155
  11   2.0000     -10.194573      -277.4084
  12   2.0000     -10.191388      -277.3218
  13   2.0000      -1.051072       -28.6011
  14   2.0000      -1.036869       -28.2146
  15   2.0000      -1.007296       -27.4099
  16   2.0000      -0.991818       -26.9887
  17   2.0000      -0.791214       -21.5300
  18   2.0000      -0.786708       -21.4074
  19   2.0000      -0.770867       -20.9764
  20   2.0000      -0.733641       -19.9634
  21   2.0000      -0.680154       -18.5079
  22   2.0000      -0.607378       -16.5276
  23   2.0000      -0.604922       -16.4608
  24   2.0000      -0.595961       -16.2169
  25   2.0000      -0.578502       -15.7418
  26   2.0000      -0.527530       -14.3548
  27   2.0000      -0.510855       -13.9011
  28   2.0000      -0.499620       -13.5954
  29   2.0000      -0.493770       -13.4362
  30   2.0000      -0.479868       -13.0579
  31   2.0000      -0.462719       -12.5912
  32   2.0000      -0.449483       -12.2310
  33   2.0000      -0.446818       -12.1585
  34   2.0000      -0.425885       -11.5889
  35   2.0000      -0.414405       -11.2765
  36   2.0000      -0.404562       -11.0087
  37   2.0000      -0.394794       -10.7429
  38   2.0000      -0.382705       -10.4139
  39   2.0000      -0.374147       -10.1811
  40   2.0000      -0.367423        -9.9981
  41   2.0000      -0.359586        -9.7848
  42   2.0000      -0.352871        -9.6021
  43   2.0000      -0.333160        -9.0657
  44   2.0000      -0.313516        -8.5312
  45   2.0000      -0.307038        -8.3549
  46   2.0000      -0.293752        -7.9934
  47   2.0000      -0.272689        -7.4202
  48   2.0000      -0.263451        -7.1689
  49   2.0000      -0.250679        -6.8213
  50   2.0000      -0.243417        -6.6237
  51   0.0000       0.061107         1.6628
  52   0.0000       0.075779         2.0620
  53   0.0000       0.081710         2.2234
  54   0.0000       0.096436         2.6242
  55   0.0000       0.102596         2.7918

MULLIKEN ATOMIC CHARGES
-----------------------
   0 C :    0.318074
   1 C :   -0.296181
   2 C :   -0.308454
   3 C :   -0.000446
   4 O :   -0.493959
   5 H :    0.157778
   6 H :    0.154297
   7 H :    0.142380
   8 H :    0.145901
   9 H :    0.152317
  10 H :    0.151827
  11 H :    0.144021
  12 C :    0.004446
  13 H :    0.122039
  14 H :    0.121435
  15 O :   -0.514493
  16 C :    0.066124
  17 C :    0.080305
  18 C :   -0.292668
  19 C :   -0.027533
  20 O :   -0.506189
  21 H :    0.174620
  22 O :   -0.602966
  23 H :    0.146771
  24 H :    0.164340
  25 H :    0.136731
  26 H :    0.146975
  27 H :    0.144958
  28 H :    0.367549
Sum of atomic charges:   -0.0000000

LOEWDIN ATOMIC CHARGES
----------------------
   0 C :    0.184724
   1 C :   -0.233225
   2 C :   -0.219373
   3 C :   -0.028323
   4 O :   -0.307018
   5 H :    0.106482
   6 H :    0.121507
   7 H :    0.113346
   8 H :    0.116178
   9 H :    0.110014
  10 H :    0.107681
  11 H :    0.103664
  12 C :   -0.040143
  13 H :    0.090347
  14 H :    0.088445
  15 O :   -0.323811
  16 C :    0.019041
  17 C :    0.036057
  18 C :   -0.241055
  19 C :   -0.038469
  20 O :   -0.316674
  21 H :    0.123481
  22 O :   -0.414222
  23 H :    0.112891
  24 H :    0.127394
  25 H :    0.109269
  26 H :    0.104319
  27 H :    0.102521
  28 H :    0.284949

  Mayer bond orders larger than 0.100000
B(  0-C ,  1-C ) :   0.9320 B(  0-C ,  4-O ) :   0.9256 B(  0-C ,  5-H ) :   0.9271
B(  0-C , 15-O ) :   0.8539 B(  1-C ,  2-C ) :   0.9496 B(  1-C ,  6-H ) :   0.9343
B(  1-C ,  7-H ) :   0.9284 B(  2-C ,  3-C ) :   0.9514 B(  2-C ,  8-H ) :   0.9455
B(  2-C ,  9-H ) :   0.9419 B(  3-C ,  4-O ) :   0.8434 B(  3-C , 10-H ) :   0.9341
B(  3-C , 11-H ) :   0.9394 B( 12-C , 13-H ) :   0.9005 B( 12-C , 14-H ) :   0.9114
B( 12-C , 15-O ) :   0.8560 B( 12-C , 16-C ) :   0.8938 B( 16-C , 17-C ) :   0.9000
B( 16-C , 20-O ) :   0.8686 B( 16-C , 21-H ) :   0.9220 B( 17-C , 18-C ) :   0.9100
B( 17-C , 22-O ) :   0.8945 B( 17-C , 23-H ) :   0.9338 B( 18-C , 19-C ) :   0.9390
B( 18-C , 24-H ) :   0.9372 B( 18-C , 25-H ) :   0.9349 B( 19-C , 20-O ) :   0.8532
B( 19-C , 26-H ) :   0.9342 B( 19-C , 27-H ) :   0.9379 B( 22-O , 28-H ) :   0.7926

FINAL SINGLE POINT ENERGY      -652.851480955211

DIPOLE MOMENT
-------------
                                X             Y             Z
Electronic contribution:     -4.05713      -4.73827       1.80340
Nuclear contribution   :      5.07138       5.98548      -2.64628
                        -----------------------------------------
Total Dipole Moment    :      1.01425       1.24721      -0.84288
                        -----------------------------------------
Magnitude (a.u.)       :      1.81512
Magnitude (Debye)      :      4.61368

Rotational constants in cm-1:     0.062365     0.011685     0.011370
Rotational constants in MHz :  1869.661825   350.302049   340.876716

                             ****ORCA TERMINATED NORMALLY****
TOTAL RUN TIME: 0 days 0 hours 17 minutes 5 seconds 492 msec
