                         Program Version 4.2.0 -  RELEASE  -
|  1> # Test redundant internal optimization
|  2> #
|  3> ! RKS B3LYP  Opt TightSCF SmallPrint
|  4>
|  5> %basis
|  6>         Basis "6-31G"
|  7> end
|  8>
|  9> %geom
| 10> Constraints
| 11> { D 4  0  15  12  75.0   C } # D for Dihedral angle
| 12> { D 0  15  12  16  195.0   C } # D for Dihedral angle
| 13> { D 0  4  3  2   C } # D for Dihedral angle
| 14> { D 4  3  2  1   C } # D for Dihedral angle
| 15> { D 3  2  1  0   C } # D for Dihedral angle
| 16> { D 2  1  0  4   C } # D for Dihedral angle
| 17> { D 1  0  4  3   C } # D for Dihedral angle
| 18> { D 16  20  19  18   C } # D for Dihedral angle
| 19> { D 20  19  18  17   C } # D for Dihedral angle
| 20> { D 19  18  17  16   C } # D for Dihedral angle
| 21> { D 18  17  16  20   C } # D for Dihedral angle
| 22> { D 17  16  20  19   C } # D for Dihedral angle
| 23> { D 15  12  16  20   C } # D for Dihedral angle
| 24> end
| 25> end
| 26>
| 27>
| 28> #%pal
| 29> #nprocs 8
| 30> #end
| 31>
| 32> * xyz 0 1
| 33> C  -21.048   26.222   46.251
| 34> C  -20.361   27.558   45.944
| 35> C  -20.329   28.222   47.341
| 36> C  -20.110   27.022   48.296
| 37> O  -20.473   25.807   47.535
| 38> H  -20.833   25.428   45.533
| 39> H  -19.344   27.382   45.576
| 40> H  -20.898   28.157   45.201
| 41> H  -19.543   28.978   47.434
| 42> H  -21.289   28.710   47.548
| 43> H  -20.733   27.082   49.195
| 44> H  -19.064   26.913   48.597
| 45> C  -23.049   27.675   47.122
| 46> H  -22.442   27.806   48.026
| 47> H  -22.914   28.560   46.487
| 48> O  -22.586   26.394   46.375
| 49> C  -24.544   27.618   47.541
| 50> C  -24.792   26.507   48.568
| 51> C  -24.291   27.170   49.874
| 52> C  -24.685   28.657   49.687
| 53> O  -24.927   28.849   48.241
| 54> H  -25.165   27.552   46.646
| 55> O  -26.311   26.195   48.659
| 56> H  -24.263   25.577   48.334
| 57> H  -24.738   26.730   50.771
| 58> H  -23.203   27.065   49.955
| 59> H  -23.897   29.343   50.013
| 60> H  -25.613   28.911   50.206
| 61> H  -26.863   27.113   48.894
| 62> *
| 63>
| 64>                          ****END OF INPUT****
 Total Charge           Charge          ....    0
 Multiplicity           Mult            ....    1
 Number of Electrons    NEL             ....  102
FINAL SINGLE POINT ENERGY      -652.813731258953
FINAL SINGLE POINT ENERGY      -652.842673721896
FINAL SINGLE POINT ENERGY      -652.857446303311
FINAL SINGLE POINT ENERGY      -652.859646930126
FINAL SINGLE POINT ENERGY      -652.860016869282
FINAL SINGLE POINT ENERGY      -652.860074627529
FINAL SINGLE POINT ENERGY      -652.860081800540
FINAL SINGLE POINT ENERGY      -652.860081499478
                    ***********************HURRAY********************

CARTESIAN COORDINATES (ANGSTROEM)
---------------------------------
  C    -21.232793   26.358779   46.422865
  C    -20.333088   27.474434   45.871651
  C    -19.908814   28.220239   47.170387
  C    -19.796401   27.066355   48.199746
  O    -20.551021   25.925674   47.624358
  H    -21.269605   25.480620   45.776914
  H    -19.465694   27.015379   45.386862
  H    -20.842759   28.114696   45.146611
  H    -18.958035   28.749218   47.051288
  H    -20.659739   28.957156   47.465189
  H    -20.219082   27.317354   49.177624
  H    -18.764561   26.729379   48.335076
  C    -23.089572   27.854374   47.271573
  H    -22.523629   28.035141   48.193248
  H    -22.991853   28.730146   46.619060
  O    -22.631991   26.643306   46.605235
  C    -24.562459   27.628701   47.610403
  C    -24.833056   26.478357   48.590609
  C    -24.504921   27.144017   49.951546
  C    -24.977139   28.605953   49.755020
  O    -25.092681   28.817443   48.289180
  H    -25.136067   27.496322   46.689325
  O    -26.224055   26.058583   48.518060
  H    -24.239775   25.591244   48.379177
  H    -25.027213   26.634636   50.764735
  H    -23.428857   27.091517   50.150215
  H    -24.278123   29.341201   50.165740
  H    -25.966919   28.789662   50.184090
  H    -26.798098   26.853113   48.484211

 Multiplicity           Mult            ....    1
 Number of Electrons    NEL             ....  102
 Basis Dimension        Dim             ....  149

ORBITAL ENERGIES
----------------

  NO   OCC          E(Eh)            E(eV)
   0   2.0000     -19.150084      -521.1003
   1   2.0000     -19.145144      -520.9659
   2   2.0000     -19.144791      -520.9562
   3   2.0000     -19.132184      -520.6132
   4   2.0000     -10.281987      -279.7871
   5   2.0000     -10.234972      -278.5078
   6   2.0000     -10.233912      -278.4789
   7   2.0000     -10.232379      -278.4372
   8   2.0000     -10.232111      -278.4299
   9   2.0000     -10.231852      -278.4229
  10   2.0000     -10.197206      -277.4801
  11   2.0000     -10.195336      -277.4292
  12   2.0000     -10.186020      -277.1757
  13   2.0000      -1.056588       -28.7512
  14   2.0000      -1.034880       -28.1605
  15   2.0000      -1.003152       -27.2972
  16   2.0000      -1.000171       -27.2160
  17   2.0000      -0.793065       -21.5804
  18   2.0000      -0.782184       -21.2843
  19   2.0000      -0.770820       -20.9751
  20   2.0000      -0.734001       -19.9732
  21   2.0000      -0.680369       -18.5138
  22   2.0000      -0.608495       -16.5580
  23   2.0000      -0.603184       -16.4135
  24   2.0000      -0.597386       -16.2557
  25   2.0000      -0.577845       -15.7240
  26   2.0000      -0.522176       -14.2091
  27   2.0000      -0.515679       -14.0323
  28   2.0000      -0.506627       -13.7860
  29   2.0000      -0.491349       -13.3703
  30   2.0000      -0.473423       -12.8825
  31   2.0000      -0.460170       -12.5219
  32   2.0000      -0.452085       -12.3019
  33   2.0000      -0.438123       -11.9219
  34   2.0000      -0.425441       -11.5768
  35   2.0000      -0.418841       -11.3972
  36   2.0000      -0.410449       -11.1689
  37   2.0000      -0.391014       -10.6400
  38   2.0000      -0.386660       -10.5216
  39   2.0000      -0.366360        -9.9692
  40   2.0000      -0.365550        -9.9471
  41   2.0000      -0.360445        -9.8082
  42   2.0000      -0.352096        -9.5810
  43   2.0000      -0.330381        -8.9901
  44   2.0000      -0.318857        -8.6765
  45   2.0000      -0.309874        -8.4321
  46   2.0000      -0.303371        -8.2552
  47   2.0000      -0.274513        -7.4699
  48   2.0000      -0.266172        -7.2429
  49   2.0000      -0.257379        -7.0036
  50   2.0000      -0.246903        -6.7186
  51   0.0000       0.058684         1.5969
  52   0.0000       0.065411         1.7799
  53   0.0000       0.089173         2.4265
  54   0.0000       0.096150         2.6164
  55   0.0000       0.101477         2.7613

MULLIKEN ATOMIC CHARGES
-----------------------
   0 C :    0.301309
   1 C :   -0.280349
   2 C :   -0.317480
   3 C :   -0.010758
   4 O :   -0.503529
   5 H :    0.168623
   6 H :    0.157926
   7 H :    0.152211
   8 H :    0.147497
   9 H :    0.151108
  10 H :    0.140569
  11 H :    0.149480
  12 C :   -0.008857
  13 H :    0.132569
  14 H :    0.146181
  15 O :   -0.522601
  16 C :    0.056966
  17 C :    0.092436
  18 C :   -0.304057
  19 C :   -0.031123
  20 O :   -0.529470
  21 H :    0.168293
  22 O :   -0.601623
  23 H :    0.183730
  24 H :    0.162258
  25 H :    0.147908
  26 H :    0.143292
  27 H :    0.146800
  28 H :    0.360689
Sum of atomic charges:   -0.0000000

LOEWDIN ATOMIC CHARGES
----------------------
   0 C :    0.173587
   1 C :   -0.228597
   2 C :   -0.224830
   3 C :   -0.034054
   4 O :   -0.322335
   5 H :    0.114620
   6 H :    0.123267
   7 H :    0.119856
   8 H :    0.116908
   9 H :    0.110879
  10 H :    0.099620
  11 H :    0.105691
  12 C :   -0.041878
  13 H :    0.093905
  14 H :    0.102995
  15 O :   -0.318558
  16 C :    0.018824
  17 C :    0.039837
  18 C :   -0.242575
  19 C :   -0.038958
  20 O :   -0.332501
  21 H :    0.119798
  22 O :   -0.413474
  23 H :    0.131554
  24 H :    0.127128
  25 H :    0.114179
  26 H :    0.102014
  27 H :    0.102919
  28 H :    0.280182

  Mayer bond orders larger than 0.100000
B(  0-C ,  1-C ) :   0.9202 B(  0-C ,  4-O ) :   0.9023 B(  0-C ,  5-H ) :   0.9357
B(  0-C , 15-O ) :   0.8967 B(  1-C ,  2-C ) :   0.9537 B(  1-C ,  6-H ) :   0.9354
B(  1-C ,  7-H ) :   0.9362 B(  2-C ,  3-C ) :   0.9472 B(  2-C ,  8-H ) :   0.9451
B(  2-C ,  9-H ) :   0.9405 B(  3-C ,  4-O ) :   0.8471 B(  3-C , 10-H ) :   0.9333
B(  3-C , 11-H ) :   0.9383 B( 12-C , 13-H ) :   0.9116 B( 12-C , 14-H ) :   0.9158
B( 12-C , 15-O ) :   0.8274 B( 12-C , 16-C ) :   0.9035 B( 16-C , 17-C ) :   0.9130
B( 16-C , 20-O ) :   0.8454 B( 16-C , 21-H ) :   0.9244 B( 17-C , 18-C ) :   0.9107
B( 17-C , 22-O ) :   0.8887 B( 17-C , 23-H ) :   0.9211 B( 18-C , 19-C ) :   0.9410
B( 18-C , 24-H ) :   0.9383 B( 18-C , 25-H ) :   0.9345 B( 19-C , 20-O ) :   0.8420
B( 19-C , 26-H ) :   0.9360 B( 19-C , 27-H ) :   0.9385 B( 22-O , 28-H ) :   0.7968

FINAL SINGLE POINT ENERGY      -652.860072335983

DIPOLE MOMENT
-------------
                                X             Y             Z
Electronic contribution:     -4.79490      -3.47735      -2.03115
Nuclear contribution   :      5.91858       4.67288       2.30512
                        -----------------------------------------
Total Dipole Moment    :      1.12368       1.19553       0.27397
                        -----------------------------------------
Magnitude (a.u.)       :      1.66343
Magnitude (Debye)      :      4.22811

Rotational constants in cm-1:     0.051150     0.013973     0.013560
Rotational constants in MHz :  1533.435311   418.896159   406.525100

                             ****ORCA TERMINATED NORMALLY****
TOTAL RUN TIME: 0 days 0 hours 27 minutes 15 seconds 436 msec
