                         Program Version 4.2.0 -  RELEASE  -
|  1> # Test redundant internal optimization
|  2> #
|  3> ! RKS B3LYP  Opt TightSCF SmallPrint
|  4>
|  5> %basis
|  6>         Basis "6-31G"
|  7> end
|  8>
|  9> %geom
| 10> Constraints
| 11> { D 4  0  15  12  150.0   C } # D for Dihedral angle
| 12> { D 0  15  12  16  240.0   C } # D for Dihedral angle
| 13> { D 0  4  3  2   C } # D for Dihedral angle
| 14> { D 4  3  2  1   C } # D for Dihedral angle
| 15> { D 3  2  1  0   C } # D for Dihedral angle
| 16> { D 2  1  0  4   C } # D for Dihedral angle
| 17> { D 1  0  4  3   C } # D for Dihedral angle
| 18> { D 16  20  19  18   C } # D for Dihedral angle
| 19> { D 20  19  18  17   C } # D for Dihedral angle
| 20> { D 19  18  17  16   C } # D for Dihedral angle
| 21> { D 18  17  16  20   C } # D for Dihedral angle
| 22> { D 17  16  20  19   C } # D for Dihedral angle
| 23> { D 15  12  16  20   C } # D for Dihedral angle
| 24> end
| 25> end
| 26>
| 27>
| 28> #%pal
| 29> #nprocs 8
| 30> #end
| 31>
| 32> * xyz 0 1
| 33> C  -21.048   26.222   46.251
| 34> C  -20.361   27.558   45.944
| 35> C  -20.329   28.222   47.341
| 36> C  -20.110   27.022   48.296
| 37> O  -20.473   25.807   47.535
| 38> H  -20.833   25.428   45.533
| 39> H  -19.344   27.382   45.576
| 40> H  -20.898   28.157   45.201
| 41> H  -19.543   28.978   47.434
| 42> H  -21.289   28.710   47.548
| 43> H  -20.733   27.082   49.195
| 44> H  -19.064   26.913   48.597
| 45> C  -23.210   27.459   45.431
| 46> H  -22.418   27.907   44.818
| 47> H  -23.942   26.994   44.759
| 48> O  -22.586   26.394   46.375
| 49> C  -23.933   28.596   46.204
| 50> C  -24.633   29.564   45.244
| 51> C  -25.918   28.778   44.890
| 52> C  -26.255   28.042   46.210
| 53> O  -25.020   28.049   47.023
| 54> H  -23.225   29.071   46.888
| 55> H  -24.881   30.497   45.763
| 56> O  -23.777   29.911   43.996
| 57> H  -26.734   29.427   44.554
| 58> H  -25.711   28.059   44.088
| 59> H  -26.568   27.005   46.044
| 60> H  -27.027   28.556   46.790
| 61> H  -23.517   28.993   43.459
| 62> *
| 63>
| 64>                          ****END OF INPUT****
 Total Charge           Charge          ....    0
 Multiplicity           Mult            ....    1
 Number of Electrons    NEL             ....  102
FINAL SINGLE POINT ENERGY      -652.813935921204
FINAL SINGLE POINT ENERGY      -652.837740095880
FINAL SINGLE POINT ENERGY      -652.842987227980
FINAL SINGLE POINT ENERGY      -652.845345850770
FINAL SINGLE POINT ENERGY      -652.845714522379
FINAL SINGLE POINT ENERGY      -652.845821719943
FINAL SINGLE POINT ENERGY      -652.845838409022
FINAL SINGLE POINT ENERGY      -652.845844969290
FINAL SINGLE POINT ENERGY      -652.845846178906
                    ***********************HURRAY********************

CARTESIAN COORDINATES (ANGSTROEM)
---------------------------------
  C    -21.058004   26.273767   46.238428
  C    -20.184688   27.498802   45.961040
  C    -20.231218   28.247271   47.321421
  C    -20.271976   27.085993   48.338510
  O    -20.694054   25.889644   47.571197
  H    -20.844246   25.412831   45.598921
  H    -19.168275   27.146789   45.752041
  H    -20.499638   28.117906   45.117860
  H    -19.362955   28.897484   47.465433
  H    -21.131224   28.863701   47.391250
  H    -20.985191   27.250676   49.149972
  H    -19.288354   26.857597   48.759433
  C    -23.146920   27.441955   45.342176
  H    -22.430484   27.941528   44.679203
  H    -23.845477   26.868855   44.717499
  O    -22.504643   26.491215   46.229153
  C    -23.899606   28.513722   46.134174
  C    -24.643678   29.523854   45.244586
  C    -25.968916   28.762532   44.935006
  C    -26.231172   27.993388   46.248901
  O    -24.944365   27.960653   46.987633
  H    -23.198438   29.009534   46.811079
  H    -24.850299   30.429156   45.819902
  O    -23.911224   29.985937   44.081220
  H    -26.783374   29.441628   44.668825
  H    -25.811157   28.076467   44.091654
  H    -26.572301   26.967376   46.081919
  H    -26.955071   28.505788   46.889577
  H    -23.963052   29.326951   43.358988

 Multiplicity           Mult            ....    1
 Number of Electrons    NEL             ....  102
 Basis Dimension        Dim             ....  149

ORBITAL ENERGIES
----------------

  NO   OCC          E(Eh)            E(eV)
   0   2.0000     -19.154121      -521.2101
   1   2.0000     -19.136474      -520.7299
   2   2.0000     -19.134863      -520.6861
   3   2.0000     -19.132432      -520.6199
   4   2.0000     -10.277247      -279.6581
   5   2.0000     -10.247936      -278.8605
   6   2.0000     -10.231381      -278.4100
   7   2.0000     -10.231143      -278.4036
   8   2.0000     -10.230412      -278.3837
   9   2.0000     -10.221696      -278.1465
  10   2.0000     -10.198784      -277.5230
  11   2.0000     -10.190274      -277.2914
  12   2.0000     -10.188292      -277.2375
  13   2.0000      -1.046887       -28.4873
  14   2.0000      -1.036071       -28.1929
  15   2.0000      -1.016885       -27.6708
  16   2.0000      -0.986805       -26.8523
  17   2.0000      -0.786135       -21.3918
  18   2.0000      -0.784853       -21.3569
  19   2.0000      -0.769064       -20.9273
  20   2.0000      -0.731675       -19.9099
  21   2.0000      -0.683711       -18.6047
  22   2.0000      -0.614091       -16.7103
  23   2.0000      -0.603355       -16.4181
  24   2.0000      -0.591802       -16.1037
  25   2.0000      -0.571095       -15.5403
  26   2.0000      -0.524522       -14.2730
  27   2.0000      -0.512761       -13.9529
  28   2.0000      -0.503238       -13.6938
  29   2.0000      -0.497650       -13.5417
  30   2.0000      -0.465317       -12.6619
  31   2.0000      -0.452143       -12.3034
  32   2.0000      -0.449654       -12.2357
  33   2.0000      -0.434017       -11.8102
  34   2.0000      -0.429358       -11.6834
  35   2.0000      -0.425099       -11.5675
  36   2.0000      -0.408113       -11.1053
  37   2.0000      -0.400319       -10.8932
  38   2.0000      -0.379328       -10.3220
  39   2.0000      -0.375854       -10.2275
  40   2.0000      -0.359774        -9.7900
  41   2.0000      -0.353627        -9.6227
  42   2.0000      -0.351421        -9.5626
  43   2.0000      -0.331280        -9.0146
  44   2.0000      -0.319308        -8.6888
  45   2.0000      -0.307440        -8.3659
  46   2.0000      -0.288777        -7.8580
  47   2.0000      -0.274397        -7.4667
  48   2.0000      -0.263189        -7.1617
  49   2.0000      -0.250067        -6.8047
  50   2.0000      -0.232978        -6.3396
  51   0.0000       0.047196         1.2843
  52   0.0000       0.075307         2.0492
  53   0.0000       0.081539         2.2188
  54   0.0000       0.088093         2.3971
  55   0.0000       0.101677         2.7668

MULLIKEN ATOMIC CHARGES
-----------------------
   0 C :    0.317045
   1 C :   -0.302666
   2 C :   -0.306453
   3 C :   -0.000198
   4 O :   -0.494289
   5 H :    0.146084
   6 H :    0.153630
   7 H :    0.148200
   8 H :    0.144098
   9 H :    0.159085
  10 H :    0.157778
  11 H :    0.141519
  12 C :   -0.014233
  13 H :    0.122609
  14 H :    0.132045
  15 O :   -0.511976
  16 C :    0.093173
  17 C :    0.078159
  18 C :   -0.326389
  19 C :   -0.011974
  20 O :   -0.501263
  21 H :    0.159012
  22 H :    0.169017
  23 O :   -0.601035
  24 H :    0.158294
  25 H :    0.133451
  26 H :    0.150971
  27 H :    0.150554
  28 H :    0.355754
Sum of atomic charges:   -0.0000000

LOEWDIN ATOMIC CHARGES
----------------------
   0 C :    0.185815
   1 C :   -0.235073
   2 C :   -0.217937
   3 C :   -0.026681
   4 O :   -0.303077
   5 H :    0.098564
   6 H :    0.120644
   7 H :    0.114436
   8 H :    0.115382
   9 H :    0.111919
  10 H :    0.111230
  11 H :    0.102419
  12 C :   -0.049400
  13 H :    0.095928
  14 H :    0.097672
  15 O :   -0.325429
  16 C :    0.016056
  17 C :    0.032294
  18 C :   -0.241645
  19 C :   -0.029759
  20 O :   -0.310873
  21 H :    0.111257
  22 H :    0.119415
  23 O :   -0.409861
  24 H :    0.122648
  25 H :    0.103664
  26 H :    0.106336
  27 H :    0.106365
  28 H :    0.277692

  Mayer bond orders larger than 0.100000
B(  0-C ,  1-C ) :   0.9290 B(  0-C ,  4-O ) :   0.9332 B(  0-C ,  5-H ) :   0.9264
B(  0-C , 15-O ) :   0.8500 B(  1-C ,  2-C ) :   0.9506 B(  1-C ,  6-H ) :   0.9330
B(  1-C ,  7-H ) :   0.9258 B(  2-C ,  3-C ) :   0.9537 B(  2-C ,  8-H ) :   0.9449
B(  2-C ,  9-H ) :   0.9346 B(  3-C ,  4-O ) :   0.8382 B(  3-C , 10-H ) :   0.9333
B(  3-C , 11-H ) :   0.9397 B( 12-C , 13-H ) :   0.8962 B( 12-C , 14-H ) :   0.9289
B( 12-C , 15-O ) :   0.8602 B( 12-C , 16-C ) :   0.8936 B( 16-C , 17-C ) :   0.8654
B( 16-C , 20-O ) :   0.8742 B( 16-C , 21-H ) :   0.9229 B( 17-C , 18-C ) :   0.9274
B( 17-C , 22-H ) :   0.9324 B( 17-C , 23-O ) :   0.8916 B( 18-C , 19-C ) :   0.9382
B( 18-C , 24-H ) :   0.9414 B( 18-C , 25-H ) :   0.9402 B( 19-C , 20-O ) :   0.8515
B( 19-C , 26-H ) :   0.9301 B( 19-C , 27-H ) :   0.9371 B( 23-O , 28-H ) :   0.7991

FINAL SINGLE POINT ENERGY      -652.845846341981

DIPOLE MOMENT
-------------
                                X             Y             Z
Electronic contribution:     -0.80639      -2.90194       1.30859
Nuclear contribution   :      0.73837       3.70663      -2.49398
                        -----------------------------------------
Total Dipole Moment    :     -0.06802       0.80469      -1.18539
                        -----------------------------------------
Magnitude (a.u.)       :      1.43433
Magnitude (Debye)      :      3.64579

Rotational constants in cm-1:     0.050995     0.014124     0.012873
Rotational constants in MHz :  1528.789795   423.426426   385.927101

                             ****ORCA TERMINATED NORMALLY****
TOTAL RUN TIME: 0 days 0 hours 28 minutes 51 seconds 782 msec
