                         Program Version 4.2.1 -  RELEASE  -
|  1> # Test redundant internal optimization
|  2> #
|  3> ! RKS B3LYP  Opt TightSCF SmallPrint
|  4>
|  5> %basis
|  6>         Basis "6-31G"
|  7> end
|  8>
|  9> %geom
| 10> Constraints
| 11> { D 4  0  19  14  210.0   C } # D for Dihedral angle
| 12> { D 0  19  14  12  225.0   C } # D for Dihedral angle
| 13> { D 0  4  3  2   C } # D for Dihedral angle
| 14> { D 4  3  2  1   C } # D for Dihedral angle
| 15> { D 3  2  1  0   C } # D for Dihedral angle
| 16> { D 2  1  0  4   C } # D for Dihedral angle
| 17> { D 1  0  4  3   C } # D for Dihedral angle
| 18> { D 14  15  16  17   C } # D for Dihedral angle
| 19> { D 15  16  17  12   C } # D for Dihedral angle
| 20> { D 16  17  12  14   C } # D for Dihedral angle
| 21> { D 17  12  14  15   C } # D for Dihedral angle
| 22> { D 12  14  15  16   C } # D for Dihedral angle
| 23> end
| 24> end
| 25>
| 26>
| 27> #%pal
| 28> #nprocs 8
| 29> #end
| 30>
| 31> * xyz 0 1
| 32> C  -21.048   26.222   46.251
| 33> C  -20.361   27.558   45.944
| 34> C  -20.329   28.222   47.341
| 35> C  -20.110   27.022   48.296
| 36> O  -20.473   25.807   47.535
| 37> H  -20.833   25.428   45.533
| 38> H  -19.344   27.382   45.576
| 39> H  -20.898   28.157   45.201
| 40> H  -19.543   28.978   47.434
| 41> H  -21.289   28.710   47.548
| 42> H  -20.733   27.082   49.195
| 43> H  -19.064   26.913   48.597
| 44> C  -24.250   27.205   44.922
| 45> H  -25.001   26.885   44.182
| 46> C  -23.197   26.114   45.155
| 47> C  -22.283   26.291   43.920
| 48> C  -22.303   27.822   43.683
| 49> O  -23.481   28.345   44.410
| 50> H  -24.759   27.543   45.826
| 51> O  -22.472   26.381   46.366
| 52> H  -23.628   25.109   45.224
| 53> H  -21.271   25.906   44.082
| 54> H  -22.708   25.762   43.058
| 55> H  -22.391   28.083   42.623
| 56> H  -21.421   28.320   44.099
| 57> *
| 58>
| 59>                          ****END OF INPUT****
 Total Charge           Charge          ....    0
 Multiplicity           Mult            ....    1
 Number of Electrons    NEL             ....   86
FINAL SINGLE POINT ENERGY      -538.389787920724
FINAL SINGLE POINT ENERGY      -538.421925018149
FINAL SINGLE POINT ENERGY      -538.424107814696
FINAL SINGLE POINT ENERGY      -538.424403618809
FINAL SINGLE POINT ENERGY      -538.424463948585
FINAL SINGLE POINT ENERGY      -538.424477849704
FINAL SINGLE POINT ENERGY      -538.424478351334
                    ***********************HURRAY********************

CARTESIAN COORDINATES (ANGSTROEM)
---------------------------------
  C    -20.824113   26.244447   46.259811
  C    -20.162429   27.613305   46.098939
  C    -20.352544   28.231556   47.508151
  C    -20.215661   27.005835   48.436169
  O    -20.421528   25.817908   47.571591
  H    -20.497125   25.472626   45.557507
  H    -19.097813   27.479530   45.870712
  H    -20.619858   28.224435   45.321581
  H    -19.616069   29.009623   47.728156
  H    -21.353912   28.664513   47.581879
  H    -20.959376   26.986401   49.237089
  H    -19.214759   26.908543   48.868057
  C    -24.137464   27.280763   45.022312
  H    -25.034939   26.958607   44.475687
  C    -23.107384   26.151491   45.087993
  C    -22.473072   26.232521   43.689331
  C    -22.476297   27.749145   43.373593
  O    -23.452179   28.364997   44.301870
  H    -24.410234   27.655640   46.008321
  O    -22.272292   26.365415   46.268624
  H    -23.595725   25.177777   45.229039
  H    -21.477784   25.785087   43.624342
  H    -23.121610   25.688110   42.994586
  H    -22.788080   27.954640   42.342970
  H    -21.507753   28.224084   43.542689

 Multiplicity           Mult            ....    1
 Number of Electrons    NEL             ....   86
 Basis Dimension        Dim             ....  127

ORBITAL ENERGIES
----------------

  NO   OCC          E(Eh)            E(eV)
   0   2.0000     -19.135943      -520.7155
   1   2.0000     -19.134970      -520.6890
   2   2.0000     -19.134904      -520.6872
   3   2.0000     -10.279157      -279.7101
   4   2.0000     -10.243557      -278.7413
   5   2.0000     -10.228978      -278.3446
   6   2.0000     -10.222657      -278.1726
   7   2.0000     -10.220527      -278.1147
   8   2.0000     -10.197642      -277.4919
   9   2.0000     -10.181372      -277.0492
  10   2.0000     -10.180808      -277.0339
  11   2.0000      -1.049202       -28.5502
  12   2.0000      -1.016917       -27.6717
  13   2.0000      -0.985719       -26.8228
  14   2.0000      -0.790295       -21.5050
  15   2.0000      -0.779473       -21.2106
  16   2.0000      -0.748748       -20.3745
  17   2.0000      -0.719331       -19.5740
  18   2.0000      -0.618462       -16.8292
  19   2.0000      -0.604279       -16.4433
  20   2.0000      -0.594637       -16.1809
  21   2.0000      -0.566582       -15.4175
  22   2.0000      -0.522019       -14.2049
  23   2.0000      -0.503870       -13.7110
  24   2.0000      -0.488252       -13.2860
  25   2.0000      -0.483212       -13.1489
  26   2.0000      -0.455165       -12.3857
  27   2.0000      -0.444033       -12.0828
  28   2.0000      -0.425548       -11.5798
  29   2.0000      -0.420082       -11.4310
  30   2.0000      -0.402243       -10.9456
  31   2.0000      -0.386075       -10.5056
  32   2.0000      -0.377880       -10.2826
  33   2.0000      -0.372833       -10.1453
  34   2.0000      -0.364785        -9.9263
  35   2.0000      -0.351242        -9.5578
  36   2.0000      -0.345347        -9.3974
  37   2.0000      -0.311761        -8.4835
  38   2.0000      -0.308046        -8.3824
  39   2.0000      -0.297519        -8.0959
  40   2.0000      -0.258266        -7.0278
  41   2.0000      -0.246044        -6.6952
  42   2.0000      -0.239306        -6.5118
  43   0.0000       0.073176         1.9912
  44   0.0000       0.088469         2.4074
  45   0.0000       0.097119         2.6428
  46   0.0000       0.107262         2.9187
  47   0.0000       0.111971         3.0469

MULLIKEN ATOMIC CHARGES
-----------------------
   0 C :    0.296067
   1 C :   -0.271804
   2 C :   -0.300347
   3 C :   -0.001033
   4 O :   -0.503704
   5 H :    0.136646
   6 H :    0.138307
   7 H :    0.161815
   8 H :    0.139949
   9 H :    0.168490
  10 H :    0.152921
  11 H :    0.139154
  12 C :   -0.005101
  13 H :    0.125207
  14 C :    0.102374
  15 C :   -0.329618
  16 C :    0.002688
  17 O :   -0.524142
  18 H :    0.171779
  19 O :   -0.525066
  20 H :    0.138437
  21 H :    0.149905
  22 H :    0.157577
  23 H :    0.138487
  24 H :    0.141012
Sum of atomic charges:   -0.0000000

LOEWDIN ATOMIC CHARGES
----------------------
   0 C :    0.182598
   1 C :   -0.230510
   2 C :   -0.215774
   3 C :   -0.025959
   4 O :   -0.307252
   5 H :    0.094669
   6 H :    0.110601
   7 H :    0.121124
   8 H :    0.113657
   9 H :    0.122132
  10 H :    0.108306
  11 H :    0.100802
  12 C :   -0.036759
  13 H :    0.091648
  14 C :    0.045677
  15 C :   -0.240344
  16 C :   -0.032075
  17 O :   -0.333275
  18 H :    0.124958
  19 O :   -0.334767
  20 H :    0.101161
  21 H :    0.118379
  22 H :    0.123017
  23 H :    0.099440
  24 H :    0.098546

  Mayer bond orders larger than 0.100000
B(  0-C ,  1-C ) :   0.9337 B(  0-C ,  4-O ) :   0.9337 B(  0-C ,  5-H ) :   0.9191
B(  0-C , 19-O ) :   0.8305 B(  1-C ,  2-C ) :   0.9534 B(  1-C ,  6-H ) :   0.9346
B(  1-C ,  7-H ) :   0.9220 B(  2-C ,  3-C ) :   0.9547 B(  2-C ,  8-H ) :   0.9450
B(  2-C ,  9-H ) :   0.9418 B(  3-C ,  4-O ) :   0.8344 B(  3-C , 10-H ) :   0.9350
B(  3-C , 11-H ) :   0.9400 B( 12-C , 13-H ) :   0.9143 B( 12-C , 14-C ) :   0.9218
B( 12-C , 17-O ) :   0.8620 B( 12-C , 18-H ) :   0.9310 B( 14-C , 15-C ) :   0.9348
B( 14-C , 19-O ) :   0.8532 B( 14-C , 20-H ) :   0.9267 B( 15-C , 16-C ) :   0.9400
B( 15-C , 21-H ) :   0.9335 B( 15-C , 22-H ) :   0.9345 B( 16-C , 17-O ) :   0.8633
B( 16-C , 23-H ) :   0.9338 B( 16-C , 24-H ) :   0.9247

FINAL SINGLE POINT ENERGY      -538.424478494915

DIPOLE MOMENT
-------------
                                X             Y             Z
Electronic contribution:     -1.62826      -2.02590       1.71466
Nuclear contribution   :      1.95905       1.95634      -2.46046
                        -----------------------------------------
Total Dipole Moment    :      0.33079      -0.06956      -0.74580
                        -----------------------------------------
Magnitude (a.u.)       :      0.81883
Magnitude (Debye)      :      2.08131

Rotational constants in cm-1:     0.073912     0.023073     0.022017
Rotational constants in MHz :  2215.839924   691.710130   660.056723

                             ****ORCA TERMINATED NORMALLY****
TOTAL RUN TIME: 0 days 0 hours 18 minutes 55 seconds 160 msec
