                         Program Version 4.2.0 -  RELEASE  -
|  1> # Test redundant internal optimization
|  2> #
|  3> ! RKS B3LYP  Opt TightSCF SmallPrint
|  4>
|  5> %basis
|  6>         Basis "6-31G"
|  7> end
|  8>
|  9> %geom
| 10> Constraints
| 11> { D 4  0  15  12  285.0   C } # D for Dihedral angle
| 12> { D 0  15  12  16  150.0   C } # D for Dihedral angle
| 13> { D 0  4  3  2   C } # D for Dihedral angle
| 14> { D 4  3  2  1   C } # D for Dihedral angle
| 15> { D 3  2  1  0   C } # D for Dihedral angle
| 16> { D 2  1  0  4   C } # D for Dihedral angle
| 17> { D 1  0  4  3   C } # D for Dihedral angle
| 18> { D 16  20  19  18   C } # D for Dihedral angle
| 19> { D 20  19  18  17   C } # D for Dihedral angle
| 20> { D 19  18  17  16   C } # D for Dihedral angle
| 21> { D 18  17  16  20   C } # D for Dihedral angle
| 22> { D 17  16  20  19   C } # D for Dihedral angle
| 23> { D 15  12  16  20   C } # D for Dihedral angle
| 24> end
| 25> end
| 26>
| 27>
| 28> #%pal
| 29> #nprocs 8
| 30> #end
| 31>
| 32> * xyz 0 1
| 33> C  -21.048   26.222   46.251
| 34> C  -20.361   27.558   45.944
| 35> C  -20.329   28.222   47.341
| 36> C  -20.110   27.022   48.296
| 37> O  -20.473   25.807   47.535
| 38> H  -20.833   25.428   45.533
| 39> H  -19.344   27.382   45.576
| 40> H  -20.898   28.157   45.201
| 41> H  -19.543   28.978   47.434
| 42> H  -21.289   28.710   47.548
| 43> H  -20.733   27.082   49.195
| 44> H  -19.064   26.913   48.597
| 45> C  -23.396   25.070   46.435
| 46> H  -23.660   24.760   45.416
| 47> H  -22.795   24.273   46.891
| 48> O  -22.586   26.394   46.375
| 49> C  -24.706   25.204   47.260
| 50> C  -25.419   23.855   47.395
| 51> C  -24.599   23.178   48.519
| 52> C  -24.222   24.364   49.442
| 53> O  -24.405   25.593   48.641
| 54> H  -25.320   25.999   46.830
| 55> O  -26.890   24.071   47.844
| 56> H  -25.424   23.275   46.465
| 57> H  -25.162   22.401   49.047
| 58> H  -23.699   22.713   48.101
| 59> H  -23.184   24.312   49.788
| 60> H  -24.882   24.443   50.311
| 61> H  -26.910   24.650   48.775
| 62> *
| 63>
| 64>                          ****END OF INPUT****
 Total Charge           Charge          ....    0
 Multiplicity           Mult            ....    1
 Number of Electrons    NEL             ....  102
FINAL SINGLE POINT ENERGY      -652.836101802500
FINAL SINGLE POINT ENERGY      -652.860865135253
FINAL SINGLE POINT ENERGY      -652.865141452339
FINAL SINGLE POINT ENERGY      -652.865945156288
FINAL SINGLE POINT ENERGY      -652.866063359638
FINAL SINGLE POINT ENERGY      -652.866072571287
FINAL SINGLE POINT ENERGY      -652.866075156401
                    ***********************HURRAY********************

CARTESIAN COORDINATES (ANGSTROEM)
---------------------------------
  C    -21.089727   26.142542   46.209379
  C    -20.552952   27.556126   45.985399
  C    -20.576541   28.133388   47.418614
  C    -20.223071   26.912144   48.295233
  O    -20.469404   25.717350   47.446759
  H    -20.827439   25.395042   45.454550
  H    -19.528888   27.498409   45.598732
  H    -21.168918   28.120668   45.282541
  H    -19.870400   28.958821   47.550903
  H    -21.582882   28.491270   47.651813
  H    -20.846483   26.838180   49.189068
  H    -19.166815   26.880197   48.579063
  C    -23.250310   25.008995   46.391389
  H    -23.539314   24.712103   45.372333
  H    -22.614515   24.227399   46.826024
  O    -22.519327   26.263646   46.352151
  C    -24.495687   25.219320   47.248569
  C    -25.348230   23.955866   47.428883
  C    -24.599108   23.231684   48.578824
  C    -24.097128   24.401690   49.460593
  O    -24.151962   25.619495   48.615450
  H    -25.081682   26.041580   46.826759
  O    -26.710093   24.299162   47.806160
  H    -25.443312   23.349794   46.526520
  H    -25.272511   22.553031   49.108544
  H    -23.763435   22.646583   48.179146
  H    -23.069907   24.258287   49.807394
  H    -24.740679   24.580079   50.327719
  H    -26.683279   25.023151   48.467487

 Multiplicity           Mult            ....    1
 Number of Electrons    NEL             ....  102
 Basis Dimension        Dim             ....  149

ORBITAL ENERGIES
----------------

  NO   OCC          E(Eh)            E(eV)
   0   2.0000     -19.140201      -520.8314
   1   2.0000     -19.138835      -520.7942
   2   2.0000     -19.137584      -520.7601
   3   2.0000     -19.134992      -520.6896
   4   2.0000     -10.275357      -279.6067
   5   2.0000     -10.242100      -278.7017
   6   2.0000     -10.232368      -278.4369
   7   2.0000     -10.229387      -278.3558
   8   2.0000     -10.227553      -278.3059
   9   2.0000     -10.218988      -278.0728
  10   2.0000     -10.188236      -277.2360
  11   2.0000     -10.180735      -277.0319
  12   2.0000     -10.178515      -276.9715
  13   2.0000      -1.052072       -28.6283
  14   2.0000      -1.033997       -28.1365
  15   2.0000      -1.004511       -27.3341
  16   2.0000      -0.989299       -26.9202
  17   2.0000      -0.788150       -21.4467
  18   2.0000      -0.778796       -21.1921
  19   2.0000      -0.764425       -20.8011
  20   2.0000      -0.726288       -19.7633
  21   2.0000      -0.670883       -18.2557
  22   2.0000      -0.602727       -16.4010
  23   2.0000      -0.593958       -16.1624
  24   2.0000      -0.587569       -15.9886
  25   2.0000      -0.582655       -15.8549
  26   2.0000      -0.525655       -14.3038
  27   2.0000      -0.509605       -13.8670
  28   2.0000      -0.487528       -13.2663
  29   2.0000      -0.484453       -13.1826
  30   2.0000      -0.477954       -13.0058
  31   2.0000      -0.456507       -12.4222
  32   2.0000      -0.449467       -12.2306
  33   2.0000      -0.436044       -11.8654
  34   2.0000      -0.422519       -11.4973
  35   2.0000      -0.400184       -10.8896
  36   2.0000      -0.399002       -10.8574
  37   2.0000      -0.392370       -10.6769
  38   2.0000      -0.374031       -10.1779
  39   2.0000      -0.370722       -10.0879
  40   2.0000      -0.355775        -9.6811
  41   2.0000      -0.350484        -9.5372
  42   2.0000      -0.342904        -9.3309
  43   2.0000      -0.329163        -8.9570
  44   2.0000      -0.324312        -8.8250
  45   2.0000      -0.305585        -8.3154
  46   2.0000      -0.296153        -8.0587
  47   2.0000      -0.270015        -7.3475
  48   2.0000      -0.265662        -7.2290
  49   2.0000      -0.246526        -6.7083
  50   2.0000      -0.243133        -6.6160
  51   0.0000       0.067857         1.8465
  52   0.0000       0.087665         2.3855
  53   0.0000       0.091196         2.4816
  54   0.0000       0.102626         2.7926
  55   0.0000       0.108570         2.9543

MULLIKEN ATOMIC CHARGES
-----------------------
   0 C :    0.280894
   1 C :   -0.259339
   2 C :   -0.297928
   3 C :   -0.001501
   4 O :   -0.514436
   5 H :    0.138409
   6 H :    0.141679
   7 H :    0.155148
   8 H :    0.136902
   9 H :    0.171923
  10 H :    0.156062
  11 H :    0.137535
  12 C :   -0.000622
  13 H :    0.126725
  14 H :    0.148794
  15 O :   -0.511291
  16 C :    0.067112
  17 C :    0.073173
  18 C :   -0.295336
  19 C :   -0.030453
  20 O :   -0.511957
  21 H :    0.168116
  22 O :   -0.601066
  23 H :    0.150380
  24 H :    0.162298
  25 H :    0.144925
  26 H :    0.154364
  27 H :    0.144720
  28 H :    0.364770
Sum of atomic charges:    0.0000000

LOEWDIN ATOMIC CHARGES
----------------------
   0 C :    0.171916
   1 C :   -0.214968
   2 C :   -0.215219
   3 C :   -0.026499
   4 O :   -0.332638
   5 H :    0.095305
   6 H :    0.112106
   7 H :    0.123268
   8 H :    0.111520
   9 H :    0.124114
  10 H :    0.110102
  11 H :    0.100150
  12 C :   -0.044177
  13 H :    0.095852
  14 H :    0.105390
  15 O :   -0.319704
  16 C :    0.017625
  17 C :    0.034658
  18 C :   -0.241090
  19 C :   -0.038514
  20 O :   -0.322126
  21 H :    0.119738
  22 O :   -0.414306
  23 H :    0.114603
  24 H :    0.126319
  25 H :    0.113362
  26 H :    0.108432
  27 H :    0.101492
  28 H :    0.283290

  Mayer bond orders larger than 0.100000
B(  0-C ,  1-C ) :   0.9513 B(  0-C ,  4-O ) :   0.9060 B(  0-C ,  5-H ) :   0.9201
B(  0-C , 15-O ) :   0.8657 B(  1-C ,  2-C ) :   0.9568 B(  1-C ,  6-H ) :   0.9410
B(  1-C ,  7-H ) :   0.9366 B(  2-C ,  3-C ) :   0.9570 B(  2-C ,  8-H ) :   0.9454
B(  2-C ,  9-H ) :   0.9417 B(  3-C ,  4-O ) :   0.8329 B(  3-C , 10-H ) :   0.9338
B(  3-C , 11-H ) :   0.9403 B( 12-C , 13-H ) :   0.9154 B( 12-C , 14-H ) :   0.9130
B( 12-C , 15-O ) :   0.8365 B( 12-C , 16-C ) :   0.9016 B( 16-C , 17-C ) :   0.9005
B( 16-C , 20-O ) :   0.8664 B( 16-C , 21-H ) :   0.9244 B( 17-C , 18-C ) :   0.9117
B( 17-C , 22-O ) :   0.8941 B( 17-C , 23-H ) :   0.9331 B( 18-C , 19-C ) :   0.9410
B( 18-C , 24-H ) :   0.9376 B( 18-C , 25-H ) :   0.9336 B( 19-C , 20-O ) :   0.8497
B( 19-C , 26-H ) :   0.9327 B( 19-C , 27-H ) :   0.9379 B( 22-O , 28-H ) :   0.7940

FINAL SINGLE POINT ENERGY      -652.866075465463

DIPOLE MOMENT
-------------
                                X             Y             Z
Electronic contribution:     -3.16929      -0.56178      -0.85246
Nuclear contribution   :      3.79773       0.45619       0.82728
                        -----------------------------------------
Total Dipole Moment    :      0.62844      -0.10559      -0.02519
                        -----------------------------------------
Magnitude (a.u.)       :      0.63775
Magnitude (Debye)      :      1.62103

Rotational constants in cm-1:     0.059952     0.013491     0.012657
Rotational constants in MHz :  1797.304394   404.459274   379.450194

                             ****ORCA TERMINATED NORMALLY****
TOTAL RUN TIME: 0 days 2 hours 5 minutes 14 seconds 610 msec
