                         Program Version 4.2.0 -  RELEASE  -
|  1> # Test redundant internal optimization
|  2> #
|  3> ! RKS B3LYP  Opt TightSCF SmallPrint
|  4>
|  5> %basis
|  6>         Basis "6-31G"
|  7> end
|  8>
|  9> %geom
| 10> Constraints
| 11> { D 4  0  15  12  285.0   C } # D for Dihedral angle
| 12> { D 0  15  12  16  240.0   C } # D for Dihedral angle
| 13> { D 0  4  3  2   C } # D for Dihedral angle
| 14> { D 4  3  2  1   C } # D for Dihedral angle
| 15> { D 3  2  1  0   C } # D for Dihedral angle
| 16> { D 2  1  0  4   C } # D for Dihedral angle
| 17> { D 1  0  4  3   C } # D for Dihedral angle
| 18> { D 16  20  19  18   C } # D for Dihedral angle
| 19> { D 20  19  18  17   C } # D for Dihedral angle
| 20> { D 19  18  17  16   C } # D for Dihedral angle
| 21> { D 18  17  16  20   C } # D for Dihedral angle
| 22> { D 17  16  20  19   C } # D for Dihedral angle
| 23> { D 15  12  16  20   C } # D for Dihedral angle
| 24> end
| 25> end
| 26>
| 27>
| 28> #%pal
| 29> #nprocs 8
| 30> #end
| 31>
| 32> * xyz 0 1
| 33> C  -21.048   26.222   46.251
| 34> C  -20.361   27.558   45.944
| 35> C  -20.329   28.222   47.341
| 36> C  -20.110   27.022   48.296
| 37> O  -20.473   25.807   47.535
| 38> H  -20.833   25.428   45.533
| 39> H  -19.344   27.382   45.576
| 40> H  -20.898   28.157   45.201
| 41> H  -19.543   28.978   47.434
| 42> H  -21.289   28.710   47.548
| 43> H  -20.733   27.082   49.195
| 44> H  -19.064   26.913   48.597
| 45> C  -23.396   25.070   46.435
| 46> H  -22.704   24.220   46.386
| 47> H  -23.954   25.004   47.378
| 48> O  -22.586   26.394   46.375
| 49> C  -24.417   24.937   45.272
| 50> C  -23.707   24.849   43.916
| 51> C  -23.255   23.370   43.893
| 52> C  -24.410   22.639   44.624
| 53> O  -25.152   23.672   45.377
| 54> H  -25.151   25.741   45.347
| 55> O  -24.715   25.133   42.768
| 56> H  -22.871   25.551   43.821
| 57> H  -23.097   22.990   42.879
| 58> H  -22.315   23.256   44.445
| 59> H  -24.048   21.877   45.322
| 60> H  -25.116   22.175   43.930
| 61> H  -25.562   24.441   42.842
| 62> *
| 63>
| 64>                          ****END OF INPUT****
 Total Charge           Charge          ....    0
 Multiplicity           Mult            ....    1
 Number of Electrons    NEL             ....  102
FINAL SINGLE POINT ENERGY      -652.839186026629
FINAL SINGLE POINT ENERGY      -652.862538497252
FINAL SINGLE POINT ENERGY      -652.866467936494
FINAL SINGLE POINT ENERGY      -652.867153411952
FINAL SINGLE POINT ENERGY      -652.867241932052
FINAL SINGLE POINT ENERGY      -652.867252918605
FINAL SINGLE POINT ENERGY      -652.867254944747
                    ***********************HURRAY********************

CARTESIAN COORDINATES (ANGSTROEM)
---------------------------------
  C    -21.069385   26.119164   46.253506
  C    -20.471865   27.484292   45.912655
  C    -20.475895   28.184228   47.290811
  C    -20.177966   27.028677   48.272028
  O    -20.472590   25.777177   47.526526
  H    -20.820859   25.299065   45.572094
  H    -19.449377   27.347407   45.542887
  H    -21.056828   28.013951   45.158041
  H    -19.735001   28.986899   47.357195
  H    -21.465627   28.608032   47.482797
  H    -20.799182   27.057993   49.170654
  H    -19.124500   26.977216   48.562601
  C    -23.295073   25.070304   46.470664
  H    -22.640549   24.190322   46.516913
  H    -23.858943   25.114738   47.406325
  O    -22.498043   26.288359   46.349727
  C    -24.269971   24.971448   45.294282
  C    -23.625491   24.853688   43.904628
  C    -23.248754   23.349917   43.858124
  C    -24.404563   22.674860   44.638514
  O    -25.062245   23.744026   45.429554
  H    -24.967367   25.813454   45.323295
  O    -24.579424   25.199653   42.862529
  H    -22.781381   25.526351   43.760410
  H    -23.174667   23.003086   42.824702
  H    -22.283743   23.178035   44.346871
  H    -24.058439   21.891392   45.319309
  H    -25.166004   22.249864   43.976770
  H    -25.447269   24.796399   43.076586

 Multiplicity           Mult            ....    1
 Number of Electrons    NEL             ....  102
 Basis Dimension        Dim             ....  149

ORBITAL ENERGIES
----------------

  NO   OCC          E(Eh)            E(eV)
   0   2.0000     -19.147728      -521.0362
   1   2.0000     -19.146438      -521.0011
   2   2.0000     -19.140768      -520.8468
   3   2.0000     -19.137410      -520.7554
   4   2.0000     -10.282373      -279.7976
   5   2.0000     -10.239753      -278.6378
   6   2.0000     -10.233524      -278.4683
   7   2.0000     -10.232932      -278.4522
   8   2.0000     -10.229979      -278.3719
   9   2.0000     -10.225603      -278.2528
  10   2.0000     -10.190289      -277.2919
  11   2.0000     -10.186572      -277.1907
  12   2.0000     -10.185380      -277.1583
  13   2.0000      -1.056218       -28.7412
  14   2.0000      -1.037793       -28.2398
  15   2.0000      -1.006341       -27.3839
  16   2.0000      -0.996182       -27.1075
  17   2.0000      -0.790639       -21.5144
  18   2.0000      -0.779916       -21.2226
  19   2.0000      -0.767665       -20.8892
  20   2.0000      -0.731852       -19.9147
  21   2.0000      -0.675373       -18.3778
  22   2.0000      -0.605105       -16.4657
  23   2.0000      -0.600009       -16.3271
  24   2.0000      -0.592838       -16.1319
  25   2.0000      -0.585032       -15.9195
  26   2.0000      -0.522976       -14.2309
  27   2.0000      -0.520551       -14.1649
  28   2.0000      -0.498378       -13.5616
  29   2.0000      -0.490412       -13.3448
  30   2.0000      -0.470724       -12.8091
  31   2.0000      -0.459052       -12.4915
  32   2.0000      -0.447179       -12.1684
  33   2.0000      -0.437424       -11.9029
  34   2.0000      -0.427589       -11.6353
  35   2.0000      -0.415332       -11.3018
  36   2.0000      -0.403392       -10.9769
  37   2.0000      -0.394684       -10.7399
  38   2.0000      -0.377238       -10.2652
  39   2.0000      -0.370036       -10.0692
  40   2.0000      -0.357706        -9.7337
  41   2.0000      -0.353185        -9.6107
  42   2.0000      -0.349220        -9.5028
  43   2.0000      -0.336154        -9.1472
  44   2.0000      -0.327721        -8.9177
  45   2.0000      -0.308276        -8.3886
  46   2.0000      -0.301531        -8.2051
  47   2.0000      -0.277441        -7.5496
  48   2.0000      -0.270174        -7.3518
  49   2.0000      -0.257173        -6.9980
  50   2.0000      -0.242436        -6.5970
  51   0.0000       0.064327         1.7504
  52   0.0000       0.066204         1.8015
  53   0.0000       0.094096         2.5605
  54   0.0000       0.098131         2.6703
  55   0.0000       0.103509         2.8166

MULLIKEN ATOMIC CHARGES
-----------------------
   0 C :    0.281834
   1 C :   -0.261461
   2 C :   -0.298746
   3 C :   -0.003027
   4 O :   -0.512878
   5 H :    0.138137
   6 H :    0.145440
   7 H :    0.159131
   8 H :    0.141682
   9 H :    0.165238
  10 H :    0.148824
  11 H :    0.142556
  12 C :   -0.012343
  13 H :    0.140253
  14 H :    0.162993
  15 O :   -0.523173
  16 C :    0.062623
  17 C :    0.084702
  18 C :   -0.297972
  19 C :   -0.030854
  20 O :   -0.526365
  21 H :    0.167707
  22 O :   -0.603345
  23 H :    0.161767
  24 H :    0.163712
  25 H :    0.142136
  26 H :    0.149343
  27 H :    0.147706
  28 H :    0.364382
Sum of atomic charges:   -0.0000000

LOEWDIN ATOMIC CHARGES
----------------------
   0 C :    0.169516
   1 C :   -0.215389
   2 C :   -0.215542
   3 C :   -0.027129
   4 O :   -0.330544
   5 H :    0.092349
   6 H :    0.114358
   7 H :    0.124611
   8 H :    0.113794
   9 H :    0.120600
  10 H :    0.106465
  11 H :    0.102765
  12 C :   -0.037799
  13 H :    0.103043
  14 H :    0.117390
  15 O :   -0.329033
  16 C :    0.011762
  17 C :    0.035572
  18 C :   -0.241660
  19 C :   -0.038017
  20 O :   -0.330404
  21 H :    0.118777
  22 O :   -0.414369
  23 H :    0.119267
  24 H :    0.127171
  25 H :    0.111251
  26 H :    0.105395
  27 H :    0.103227
  28 H :    0.282574

  Mayer bond orders larger than 0.100000
B(  0-C ,  1-C ) :   0.9491 B(  0-C ,  4-O ) :   0.9092 B(  0-C ,  5-H ) :   0.9173
B(  0-C , 15-O ) :   0.8588 B(  1-C ,  2-C ) :   0.9569 B(  1-C ,  6-H ) :   0.9398
B(  1-C ,  7-H ) :   0.9356 B(  2-C ,  3-C ) :   0.9553 B(  2-C ,  8-H ) :   0.9451
B(  2-C ,  9-H ) :   0.9439 B(  3-C ,  4-O ) :   0.8360 B(  3-C , 10-H ) :   0.9357
B(  3-C , 11-H ) :   0.9404 B( 12-C , 13-H ) :   0.9234 B( 12-C , 14-H ) :   0.9299
B( 12-C , 15-O ) :   0.8196 B( 12-C , 16-C ) :   0.8951 B( 16-C , 17-C ) :   0.9108
B( 16-C , 20-O ) :   0.8401 B( 16-C , 21-H ) :   0.9248 B( 17-C , 18-C ) :   0.9112
B( 17-C , 22-O ) :   0.8913 B( 17-C , 23-H ) :   0.9268 B( 18-C , 19-C ) :   0.9405
B( 18-C , 24-H ) :   0.9378 B( 18-C , 25-H ) :   0.9343 B( 19-C , 20-O ) :   0.8437
B( 19-C , 26-H ) :   0.9351 B( 19-C , 27-H ) :   0.9380 B( 22-O , 28-H ) :   0.7945

FINAL SINGLE POINT ENERGY      -652.867255075211

DIPOLE MOMENT
-------------
                                X             Y             Z
Electronic contribution:     -3.96039      -1.16467      -0.37609
Nuclear contribution   :      4.62100       1.07346       0.39671
                        -----------------------------------------
Total Dipole Moment    :      0.66060      -0.09120       0.02062
                        -----------------------------------------
Magnitude (a.u.)       :      0.66719
Magnitude (Debye)      :      1.69585

Rotational constants in cm-1:     0.059476     0.012579     0.011808
Rotational constants in MHz :  1783.039389   377.119719   354.008634

                             ****ORCA TERMINATED NORMALLY****
TOTAL RUN TIME: 0 days 0 hours 27 minutes 22 seconds 374 msec
