                         Program Version 4.2.0 -  RELEASE  -
|  1> # Test redundant internal optimization
|  2> #
|  3> ! RKS B3LYP  Opt TightSCF SmallPrint
|  4>
|  5> %basis
|  6>         Basis "6-31G"
|  7> end
|  8>
|  9> %geom
| 10> Constraints
| 11> { D 4  0  15  12  165.0   C } # D for Dihedral angle
| 12> { D 0  15  12  16  165.0   C } # D for Dihedral angle
| 13> { D 0  4  3  2   C } # D for Dihedral angle
| 14> { D 4  3  2  1   C } # D for Dihedral angle
| 15> { D 3  2  1  0   C } # D for Dihedral angle
| 16> { D 2  1  0  4   C } # D for Dihedral angle
| 17> { D 1  0  4  3   C } # D for Dihedral angle
| 18> { D 16  20  19  18   C } # D for Dihedral angle
| 19> { D 20  19  18  17   C } # D for Dihedral angle
| 20> { D 19  18  17  16   C } # D for Dihedral angle
| 21> { D 18  17  16  20   C } # D for Dihedral angle
| 22> { D 17  16  20  19   C } # D for Dihedral angle
| 23> { D 15  12  16  20   C } # D for Dihedral angle
| 24> end
| 25> end
| 26>
| 27>
| 28> #%pal
| 29> #nprocs 8
| 30> #end
| 31>
| 32> * xyz 0 1
| 33> C  -21.048   26.222   46.251
| 34> C  -20.361   27.558   45.944
| 35> C  -20.329   28.222   47.341
| 36> C  -20.110   27.022   48.296
| 37> O  -20.473   25.807   47.535
| 38> H  -20.833   25.428   45.533
| 39> H  -19.344   27.382   45.576
| 40> H  -20.898   28.157   45.201
| 41> H  -19.543   28.978   47.434
| 42> H  -21.289   28.710   47.548
| 43> H  -20.733   27.082   49.195
| 44> H  -19.064   26.913   48.597
| 45> C  -23.260   27.170   45.210
| 46> H  -23.035   28.239   45.310
| 47> H  -22.870   26.826   44.244
| 48> O  -22.586   26.394   46.375
| 49> C  -24.804   26.996   45.187
| 50> C  -25.452   27.608   46.434
| 51> C  -25.461   29.113   46.075
| 52> C  -25.713   29.109   44.546
| 53> O  -25.387   27.748   44.070
| 54> H  -25.043   25.944   45.023
| 55> H  -26.475   27.232   46.548
| 56> O  -24.669   27.304   47.740
| 57> H  -26.225   29.675   46.622
| 58> H  -24.487   29.561   46.306
| 59> H  -25.086   29.834   44.016
| 60> H  -26.760   29.297   44.295
| 61> H  -23.641   27.673   47.647
| 62> *
| 63>
| 64>                          ****END OF INPUT****
 Total Charge           Charge          ....    0
 Multiplicity           Mult            ....    1
 Number of Electrons    NEL             ....  102
FINAL SINGLE POINT ENERGY      -652.825852801279
FINAL SINGLE POINT ENERGY      -652.850240256009
FINAL SINGLE POINT ENERGY      -652.857103025815
FINAL SINGLE POINT ENERGY      -652.859937229275
FINAL SINGLE POINT ENERGY      -652.861711873505
FINAL SINGLE POINT ENERGY      -652.862923372943
FINAL SINGLE POINT ENERGY      -652.863646993185
FINAL SINGLE POINT ENERGY      -652.863891552950
FINAL SINGLE POINT ENERGY      -652.863930198031
FINAL SINGLE POINT ENERGY      -652.863938038925
                    ***********************HURRAY********************

CARTESIAN COORDINATES (ANGSTROEM)
---------------------------------
  C    -21.111850   26.263174   46.207335
  C    -20.282224   27.511464   45.915830
  C    -20.337801   28.258975   47.271279
  C    -20.330942   27.108686   48.297455
  O    -20.725878   25.891705   47.532721
  H    -20.933847   25.408254   45.550168
  H    -19.257404   27.199035   45.685254
  H    -20.646555   28.108952   45.076395
  H    -19.495205   28.943517   47.404749
  H    -21.264845   28.836946   47.346291
  H    -21.041986   27.250231   49.114607
  H    -19.338239   26.905499   48.707878
  C    -23.167719   27.244905   45.124060
  H    -22.909487   28.310605   45.163142
  H    -22.825073   26.835956   44.165323
  O    -22.555340   26.529929   46.244787
  C    -24.681414   27.042948   45.248759
  C    -25.311123   27.639283   46.519274
  C    -25.428805   29.144183   46.136390
  C    -25.747027   29.097146   44.627710
  O    -25.355844   27.735548   44.154085
  H    -24.906398   25.978718   45.139048
  H    -26.315119   27.214415   46.639216
  O    -24.586952   27.435168   47.748106
  H    -26.201545   29.652053   46.719319
  H    -24.472382   29.635519   46.344480
  H    -25.197878   29.842117   44.043812
  H    -26.815156   29.202942   44.418027
  H    -23.734961   26.976128   47.553502

 Multiplicity           Mult            ....    1
 Number of Electrons    NEL             ....  102
 Basis Dimension        Dim             ....  149

ORBITAL ENERGIES
----------------

  NO   OCC          E(Eh)            E(eV)
   0   2.0000     -19.162621      -521.4414
   1   2.0000     -19.153204      -521.1852
   2   2.0000     -19.141070      -520.8550
   3   2.0000     -19.110101      -520.0123
   4   2.0000     -10.294613      -280.1307
   5   2.0000     -10.241671      -278.6900
   6   2.0000     -10.235031      -278.5093
   7   2.0000     -10.235019      -278.5090
   8   2.0000     -10.229709      -278.3645
   9   2.0000     -10.227147      -278.2948
  10   2.0000     -10.200601      -277.5725
  11   2.0000     -10.198288      -277.5095
  12   2.0000     -10.179574      -277.0003
  13   2.0000      -1.068151       -29.0659
  14   2.0000      -1.026668       -27.9370
  15   2.0000      -1.008705       -27.4483
  16   2.0000      -0.989683       -26.9306
  17   2.0000      -0.798939       -21.7402
  18   2.0000      -0.775940       -21.1144
  19   2.0000      -0.768471       -20.9112
  20   2.0000      -0.739201       -20.1147
  21   2.0000      -0.682596       -18.5744
  22   2.0000      -0.612654       -16.6712
  23   2.0000      -0.600405       -16.3378
  24   2.0000      -0.595850       -16.2139
  25   2.0000      -0.578999       -15.7554
  26   2.0000      -0.529425       -14.4064
  27   2.0000      -0.522250       -14.2111
  28   2.0000      -0.507422       -13.8077
  29   2.0000      -0.489673       -13.3247
  30   2.0000      -0.477599       -12.9961
  31   2.0000      -0.461120       -12.5477
  32   2.0000      -0.448992       -12.2177
  33   2.0000      -0.436614       -11.8809
  34   2.0000      -0.429218       -11.6796
  35   2.0000      -0.416156       -11.3242
  36   2.0000      -0.412686       -11.2298
  37   2.0000      -0.389523       -10.5995
  38   2.0000      -0.384882       -10.4732
  39   2.0000      -0.371107       -10.0983
  40   2.0000      -0.368129       -10.0173
  41   2.0000      -0.365998        -9.9593
  42   2.0000      -0.350549        -9.5389
  43   2.0000      -0.341813        -9.3012
  44   2.0000      -0.323687        -8.8080
  45   2.0000      -0.316422        -8.6103
  46   2.0000      -0.287542        -7.8244
  47   2.0000      -0.274685        -7.4746
  48   2.0000      -0.269157        -7.3241
  49   2.0000      -0.248403        -6.7594
  50   2.0000      -0.241965        -6.5842
  51   0.0000       0.055257         1.5036
  52   0.0000       0.069492         1.8910
  53   0.0000       0.089577         2.4375
  54   0.0000       0.094477         2.5709
  55   0.0000       0.104541         2.8447

MULLIKEN ATOMIC CHARGES
-----------------------
   0 C :    0.323669
   1 C :   -0.290722
   2 C :   -0.303152
   3 C :   -0.009940
   4 O :   -0.499553
   5 H :    0.156005
   6 H :    0.156460
   7 H :    0.148988
   8 H :    0.149604
   9 H :    0.161258
  10 H :    0.164691
  11 H :    0.150008
  12 C :   -0.013079
  13 H :    0.138473
  14 H :    0.150188
  15 O :   -0.560846
  16 C :    0.050663
  17 C :    0.121353
  18 C :   -0.299718
  19 C :   -0.020241
  20 O :   -0.522899
  21 H :    0.164183
  22 H :    0.144404
  23 O :   -0.647183
  24 H :    0.153441
  25 H :    0.141417
  26 H :    0.139896
  27 H :    0.149114
  28 H :    0.403519
Sum of atomic charges:    0.0000000

LOEWDIN ATOMIC CHARGES
----------------------
   0 C :    0.186900
   1 C :   -0.232351
   2 C :   -0.217392
   3 C :   -0.026422
   4 O :   -0.300253
   5 H :    0.106014
   6 H :    0.121325
   7 H :    0.116873
   8 H :    0.118518
   9 H :    0.116836
  10 H :    0.114131
  11 H :    0.107208
  12 C :   -0.045678
  13 H :    0.094926
  14 H :    0.106925
  15 O :   -0.346572
  16 C :    0.019415
  17 C :    0.042787
  18 C :   -0.235162
  19 C :   -0.032977
  20 O :   -0.324516
  21 H :    0.117560
  22 H :    0.103261
  23 O :   -0.439832
  24 H :    0.122137
  25 H :    0.108950
  26 H :    0.100774
  27 H :    0.106241
  28 H :    0.290372

  Mayer bond orders larger than 0.100000
B(  0-C ,  1-C ) :   0.9327 B(  0-C ,  4-O ) :   0.9508 B(  0-C ,  5-H ) :   0.9234
B(  0-C , 15-O ) :   0.7855 B(  1-C ,  2-C ) :   0.9481 B(  1-C ,  6-H ) :   0.9330
B(  1-C ,  7-H ) :   0.9282 B(  2-C ,  3-C ) :   0.9536 B(  2-C ,  8-H ) :   0.9446
B(  2-C ,  9-H ) :   0.9426 B(  3-C ,  4-O ) :   0.8260 B(  3-C , 10-H ) :   0.9328
B(  3-C , 11-H ) :   0.9394 B( 12-C , 13-H ) :   0.9152 B( 12-C , 14-H ) :   0.9230
B( 12-C , 15-O ) :   0.7910 B( 12-C , 16-C ) :   0.9006 B( 16-C , 17-C ) :   0.9168
B( 16-C , 20-O ) :   0.8552 B( 16-C , 21-H ) :   0.9285 B( 17-C , 18-C ) :   0.9038
B( 17-C , 22-H ) :   0.9274 B( 17-C , 23-O ) :   0.9359 B( 18-C , 19-C ) :   0.9411
B( 18-C , 24-H ) :   0.9440 B( 18-C , 25-H ) :   0.9430 B( 19-C , 20-O ) :   0.8336
B( 19-C , 26-H ) :   0.9344 B( 19-C , 27-H ) :   0.9386 B( 23-O , 28-H ) :   0.7149

FINAL SINGLE POINT ENERGY      -652.863939537779

DIPOLE MOMENT
-------------
                                X             Y             Z
Electronic contribution:     -2.10666      -5.66097       0.16611
Nuclear contribution   :      3.23884       6.70998      -0.78969
                        -----------------------------------------
Total Dipole Moment    :      1.13219       1.04901      -0.62358
                        -----------------------------------------
Magnitude (a.u.)       :      1.66467
Magnitude (Debye)      :      4.23125

Rotational constants in cm-1:     0.053264     0.014454     0.013734
Rotational constants in MHz :  1596.822188   433.317743   411.734744

                             ****ORCA TERMINATED NORMALLY****
TOTAL RUN TIME: 0 days 0 hours 30 minutes 33 seconds 903 msec
