                         Program Version 4.2.1 -  RELEASE  -
|  1> # Test redundant internal optimization
|  2> #
|  3> ! RKS B3LYP  Opt TightSCF SmallPrint
|  4>
|  5> %basis
|  6>         Basis "6-31G"
|  7> end
|  8>
|  9> %geom
| 10> Constraints
| 11> { D 4  0  19  14  330.0   C } # D for Dihedral angle
| 12> { D 0  19  14  12  210.0   C } # D for Dihedral angle
| 13> { D 0  4  3  2   C } # D for Dihedral angle
| 14> { D 4  3  2  1   C } # D for Dihedral angle
| 15> { D 3  2  1  0   C } # D for Dihedral angle
| 16> { D 2  1  0  4   C } # D for Dihedral angle
| 17> { D 1  0  4  3   C } # D for Dihedral angle
| 18> { D 14  15  16  17   C } # D for Dihedral angle
| 19> { D 15  16  17  12   C } # D for Dihedral angle
| 20> { D 16  17  12  14   C } # D for Dihedral angle
| 21> { D 17  12  14  15   C } # D for Dihedral angle
| 22> { D 12  14  15  16   C } # D for Dihedral angle
| 23> end
| 24> end
| 25>
| 26>
| 27> #%pal
| 28> #nprocs 8
| 29> #end
| 30>
| 31> * xyz 0 1
| 32> C  -21.048   26.222   46.251
| 33> C  -20.361   27.558   45.944
| 34> C  -20.329   28.222   47.341
| 35> C  -20.110   27.022   48.296
| 36> O  -20.473   25.807   47.535
| 37> H  -20.833   25.428   45.533
| 38> H  -19.344   27.382   45.576
| 39> H  -20.898   28.157   45.201
| 40> H  -19.543   28.978   47.434
| 41> H  -21.289   28.710   47.548
| 42> H  -20.733   27.082   49.195
| 43> H  -19.064   26.913   48.597
| 44> C  -24.524   25.194   46.919
| 45> H  -25.107   24.792   47.763
| 46> C  -23.087   25.523   47.341
| 47> C  -22.428   24.125   47.331
| 48> C  -23.132   23.411   46.150
| 49> O  -24.368   24.176   45.874
| 50> H  -25.067   26.028   46.474
| 51> O  -22.472   26.381   46.366
| 52> H  -23.028   26.014   48.319
| 53> H  -21.341   24.167   47.205
| 54> H  -22.634   23.603   48.275
| 55> H  -23.396   22.374   46.381
| 56> H  -22.532   23.428   45.234
| 57> *
| 58>
| 59>                          ****END OF INPUT****
 Total Charge           Charge          ....    0
 Multiplicity           Mult            ....    1
 Number of Electrons    NEL             ....   86
FINAL SINGLE POINT ENERGY      -538.420130513266
FINAL SINGLE POINT ENERGY      -538.430820336533
FINAL SINGLE POINT ENERGY      -538.432148105243
FINAL SINGLE POINT ENERGY      -538.432466173883
FINAL SINGLE POINT ENERGY      -538.432488425963
FINAL SINGLE POINT ENERGY      -538.432495191781
                    ***********************HURRAY********************

CARTESIAN COORDINATES (ANGSTROEM)
---------------------------------
  C    -20.956146   26.253132   46.245670
  C    -20.453058   27.668744   45.958770
  C    -20.352069   28.260794   47.382533
  C    -19.910652   27.052863   48.239612
  O    -20.223191   25.843652   47.427830
  H    -20.718819   25.508612   45.480134
  H    -19.468848   27.612034   45.479833
  H    -21.136729   28.219770   45.309963
  H    -19.643014   29.091982   47.443929
  H    -21.334653   28.622225   47.699847
  H    -20.440498   26.983960   49.193572
  H    -18.832704   27.032748   48.425024
  C    -24.486718   25.233938   46.777944
  H    -25.194324   24.911301   47.556440
  C    -23.092108   25.443308   47.369164
  C    -22.568373   23.998110   47.448745
  C    -23.180157   23.323319   46.200221
  O    -24.301241   24.188815   45.767225
  H    -24.867357   26.120990   46.270685
  O    -22.390238   26.317434   46.423694
  H    -23.108762   25.930374   48.351256
  H    -21.480583   23.948713   47.493135
  H    -22.964158   23.544915   48.365951
  H    -23.560420   22.317243   46.408685
  H    -22.476179   23.268023   45.363137

 Multiplicity           Mult            ....    1
 Number of Electrons    NEL             ....   86
 Basis Dimension        Dim             ....  127

ORBITAL ENERGIES
----------------

  NO   OCC          E(Eh)            E(eV)
   0   2.0000     -19.148704      -521.0627
   1   2.0000     -19.136814      -520.7392
   2   2.0000     -19.122693      -520.3549
   3   2.0000     -10.279495      -279.7193
   4   2.0000     -10.237014      -278.5633
   5   2.0000     -10.231633      -278.4169
   6   2.0000     -10.216456      -278.0039
   7   2.0000     -10.216240      -277.9980
   8   2.0000     -10.189110      -277.2598
   9   2.0000     -10.185906      -277.1726
  10   2.0000     -10.176994      -276.9301
  11   2.0000      -1.053832       -28.6762
  12   2.0000      -1.009815       -27.4785
  13   2.0000      -0.985774       -26.8243
  14   2.0000      -0.794015       -21.6063
  15   2.0000      -0.773965       -21.0607
  16   2.0000      -0.742133       -20.1945
  17   2.0000      -0.718277       -19.5453
  18   2.0000      -0.613681       -16.6991
  19   2.0000      -0.602777       -16.4024
  20   2.0000      -0.592195       -16.1144
  21   2.0000      -0.561056       -15.2671
  22   2.0000      -0.523714       -14.2510
  23   2.0000      -0.493036       -13.4162
  24   2.0000      -0.489903       -13.3309
  25   2.0000      -0.479876       -13.0581
  26   2.0000      -0.453427       -12.3384
  27   2.0000      -0.443247       -12.0614
  28   2.0000      -0.416981       -11.3466
  29   2.0000      -0.411678       -11.2023
  30   2.0000      -0.405833       -11.0433
  31   2.0000      -0.388210       -10.5637
  32   2.0000      -0.368357       -10.0235
  33   2.0000      -0.360668        -9.8143
  34   2.0000      -0.359434        -9.7807
  35   2.0000      -0.358766        -9.7625
  36   2.0000      -0.346838        -9.4379
  37   2.0000      -0.327985        -8.9249
  38   2.0000      -0.304262        -8.2794
  39   2.0000      -0.290973        -7.9178
  40   2.0000      -0.262348        -7.1388
  41   2.0000      -0.251898        -6.8545
  42   2.0000      -0.230398        -6.2695
  43   0.0000       0.072045         1.9604
  44   0.0000       0.098917         2.6917
  45   0.0000       0.101572         2.7639
  46   0.0000       0.106319         2.8931
  47   0.0000       0.118438         3.2229

MULLIKEN ATOMIC CHARGES
-----------------------
   0 C :    0.304209
   1 C :   -0.258818
   2 C :   -0.301461
   3 C :   -0.011945
   4 O :   -0.520094
   5 H :    0.150563
   6 H :    0.144358
   7 H :    0.164584
   8 H :    0.144493
   9 H :    0.158089
  10 H :    0.144403
  11 H :    0.148917
  12 C :    0.001735
  13 H :    0.122324
  14 C :    0.094520
  15 C :   -0.324698
  16 C :   -0.005333
  17 O :   -0.521108
  18 H :    0.166013
  19 O :   -0.539644
  20 H :    0.126895
  21 H :    0.195189
  22 H :    0.135955
  23 H :    0.136058
  24 H :    0.144793
Sum of atomic charges:   -0.0000000

LOEWDIN ATOMIC CHARGES
----------------------
   0 C :    0.179680
   1 C :   -0.213659
   2 C :   -0.216868
   3 C :   -0.030811
   4 O :   -0.328527
   5 H :    0.098598
   6 H :    0.113566
   7 H :    0.128168
   8 H :    0.115687
   9 H :    0.117100
  10 H :    0.102866
  11 H :    0.105603
  12 C :   -0.034798
  13 H :    0.089412
  14 C :    0.046166
  15 C :   -0.244282
  16 C :   -0.031865
  17 O :   -0.331650
  18 H :    0.121818
  19 O :   -0.334418
  20 H :    0.095942
  21 H :    0.138849
  22 H :    0.113310
  23 H :    0.098594
  24 H :    0.101519

  Mayer bond orders larger than 0.100000
B(  0-C ,  1-C ) :   0.9442 B(  0-C ,  4-O ) :   0.8857 B(  0-C ,  5-H ) :   0.9222
B(  0-C , 19-O ) :   0.8527 B(  1-C ,  2-C ) :   0.9538 B(  1-C ,  6-H ) :   0.9378
B(  1-C ,  7-H ) :   0.9353 B(  2-C ,  3-C ) :   0.9554 B(  2-C ,  8-H ) :   0.9445
B(  2-C ,  9-H ) :   0.9450 B(  3-C ,  4-O ) :   0.8302 B(  3-C , 10-H ) :   0.9351
B(  3-C , 11-H ) :   0.9401 B( 12-C , 13-H ) :   0.9149 B( 12-C , 14-C ) :   0.9317
B( 12-C , 17-O ) :   0.8701 B( 12-C , 18-H ) :   0.9303 B( 14-C , 15-C ) :   0.9390
B( 14-C , 19-O ) :   0.8221 B( 14-C , 20-H ) :   0.9258 B( 15-C , 16-C ) :   0.9418
B( 15-C , 21-H ) :   0.9131 B( 15-C , 22-H ) :   0.9382 B( 16-C , 17-O ) :   0.8569
B( 16-C , 23-H ) :   0.9330 B( 16-C , 24-H ) :   0.9363

FINAL SINGLE POINT ENERGY      -538.432495364176

DIPOLE MOMENT
-------------
                                X             Y             Z
Electronic contribution:     -1.82697      -1.59325      -2.04194
Nuclear contribution   :      2.57291       2.18336       2.91699
                        -----------------------------------------
Total Dipole Moment    :      0.74594       0.59011       0.87505
                        -----------------------------------------
Magnitude (a.u.)       :      1.29243
Magnitude (Debye)      :      3.28508

Rotational constants in cm-1:     0.083988     0.022058     0.020795
Rotational constants in MHz :  2517.898500   661.285067   623.409167

                             ****ORCA TERMINATED NORMALLY****
TOTAL RUN TIME: 0 days 0 hours 16 minutes 31 seconds 535 msec
