                         Program Version 4.2.0 -  RELEASE  -
|  1> # Test redundant internal optimization
|  2> #
|  3> ! RKS B3LYP  Opt TightSCF SmallPrint
|  4>
|  5> %basis
|  6>         Basis "6-31G"
|  7> end
|  8>
|  9> %geom
| 10> Constraints
| 11> { D 4  0  15  12  105.0   C } # D for Dihedral angle
| 12> { D 0  15  12  16  180.0   C } # D for Dihedral angle
| 13> { D 0  4  3  2   C } # D for Dihedral angle
| 14> { D 4  3  2  1   C } # D for Dihedral angle
| 15> { D 3  2  1  0   C } # D for Dihedral angle
| 16> { D 2  1  0  4   C } # D for Dihedral angle
| 17> { D 1  0  4  3   C } # D for Dihedral angle
| 18> { D 16  20  19  18   C } # D for Dihedral angle
| 19> { D 20  19  18  17   C } # D for Dihedral angle
| 20> { D 19  18  17  16   C } # D for Dihedral angle
| 21> { D 18  17  16  20   C } # D for Dihedral angle
| 22> { D 17  16  20  19   C } # D for Dihedral angle
| 23> { D 15  12  16  20   C } # D for Dihedral angle
| 24> end
| 25> end
| 26>
| 27>
| 28> #%pal
| 29> #nprocs 8
| 30> #end
| 31>
| 32> * xyz 0 1
| 33> C  -21.048   26.222   46.251
| 34> C  -20.361   27.558   45.944
| 35> C  -20.329   28.222   47.341
| 36> C  -20.110   27.022   48.296
| 37> O  -20.473   25.807   47.535
| 38> H  -20.833   25.428   45.533
| 39> H  -19.344   27.382   45.576
| 40> H  -20.898   28.157   45.201
| 41> H  -19.543   28.978   47.434
| 42> H  -21.289   28.710   47.548
| 43> H  -20.733   27.082   49.195
| 44> H  -19.064   26.913   48.597
| 45> C  -23.085   27.864   46.420
| 46> H  -22.633   28.373   47.281
| 47> H  -22.785   28.400   45.510
| 48> O  -22.586   26.394   46.375
| 49> C  -24.630   27.971   46.545
| 50> C  -25.122   27.396   47.877
| 51> C  -24.809   28.554   48.854
| 52> C  -25.066   29.818   47.994
| 53> O  -25.045   29.377   46.583
| 54> H  -25.091   27.525   45.662
| 55> O  -26.651   27.132   47.811
| 56> H  -24.623   26.460   48.153
| 57> H  -25.429   28.529   49.755
| 58> H  -23.759   28.508   49.168
| 59> H  -24.302   30.588   48.141
| 60> H  -26.050   30.256   48.181
| 61> H  -27.173   28.056   47.536
| 62> *
| 63>
| 64>                          ****END OF INPUT****
 Total Charge           Charge          ....    0
 Multiplicity           Mult            ....    1
 Number of Electrons    NEL             ....  102
FINAL SINGLE POINT ENERGY      -652.814852039643
FINAL SINGLE POINT ENERGY      -652.841799948090
FINAL SINGLE POINT ENERGY      -652.854868325530
FINAL SINGLE POINT ENERGY      -652.856851066559
FINAL SINGLE POINT ENERGY      -652.857195015803
FINAL SINGLE POINT ENERGY      -652.857240272623
FINAL SINGLE POINT ENERGY      -652.857238096844
                    ***********************HURRAY********************

CARTESIAN COORDINATES (ANGSTROEM)
---------------------------------
  C    -21.243331   26.367740   46.364152
  C    -20.241894   27.432983   45.900243
  C    -19.906054   28.164398   47.231393
  C    -19.949725   27.012956   48.266808
  O    -20.701984   25.909801   47.622823
  H    -21.266535   25.481282   45.728546
  H    -19.356600   26.921864   45.508672
  H    -20.627055   28.096654   45.121547
  H    -18.924828   28.648123   47.199888
  H    -20.646432   28.936882   47.454752
  H    -20.450425   27.291322   49.198978
  H    -18.954445   26.624205   48.500165
  C    -23.106381   28.111371   46.481998
  H    -22.695845   28.670156   47.333250
  H    -22.841444   28.642641   45.559575
  O    -22.638930   26.736344   46.464598
  C    -24.628318   28.034675   46.597749
  C    -25.150316   27.386348   47.886937
  C    -25.022928   28.553628   48.898509
  C    -25.346453   29.802672   48.041149
  O    -25.184458   29.392376   46.622045
  H    -25.035524   27.530488   45.717607
  O    -26.534403   26.967016   47.726203
  H    -24.596640   26.492468   48.167695
  H    -25.715155   28.418421   49.733021
  H    -24.005615   28.597810   49.302491
  H    -24.679590   30.645980   48.244685
  H    -26.380875   30.139045   48.161017
  H    -27.031816   27.672350   47.260503

 Multiplicity           Mult            ....    1
 Number of Electrons    NEL             ....  102
 Basis Dimension        Dim             ....  149

ORBITAL ENERGIES
----------------

  NO   OCC          E(Eh)            E(eV)
   0   2.0000     -19.147093      -521.0189
   1   2.0000     -19.145842      -520.9848
   2   2.0000     -19.141738      -520.8732
   3   2.0000     -19.132173      -520.6129
   4   2.0000     -10.282524      -279.8017
   5   2.0000     -10.236368      -278.5457
   6   2.0000     -10.232868      -278.4505
   7   2.0000     -10.232675      -278.4452
   8   2.0000     -10.232423      -278.4384
   9   2.0000     -10.231429      -278.4113
  10   2.0000     -10.198077      -277.5038
  11   2.0000     -10.197834      -277.4972
  12   2.0000     -10.186884      -277.1992
  13   2.0000      -1.053953       -28.6795
  14   2.0000      -1.035451       -28.1760
  15   2.0000      -1.002800       -27.2876
  16   2.0000      -0.999015       -27.1846
  17   2.0000      -0.793902       -21.6032
  18   2.0000      -0.782182       -21.2843
  19   2.0000      -0.771080       -20.9821
  20   2.0000      -0.734038       -19.9742
  21   2.0000      -0.681229       -18.5372
  22   2.0000      -0.608893       -16.5688
  23   2.0000      -0.603512       -16.4224
  24   2.0000      -0.597322       -16.2540
  25   2.0000      -0.576768       -15.6947
  26   2.0000      -0.522587       -14.2203
  27   2.0000      -0.516267       -14.0483
  28   2.0000      -0.506554       -13.7840
  29   2.0000      -0.492958       -13.4141
  30   2.0000      -0.473873       -12.8947
  31   2.0000      -0.457731       -12.4555
  32   2.0000      -0.452376       -12.3098
  33   2.0000      -0.438688       -11.9373
  34   2.0000      -0.431749       -11.7485
  35   2.0000      -0.415863       -11.3162
  36   2.0000      -0.410302       -11.1649
  37   2.0000      -0.391493       -10.6531
  38   2.0000      -0.387244       -10.5374
  39   2.0000      -0.368330       -10.0228
  40   2.0000      -0.365227        -9.9383
  41   2.0000      -0.361677        -9.8417
  42   2.0000      -0.351912        -9.5760
  43   2.0000      -0.331749        -9.0273
  44   2.0000      -0.317844        -8.6490
  45   2.0000      -0.305996        -8.3266
  46   2.0000      -0.297418        -8.0932
  47   2.0000      -0.273123        -7.4320
  48   2.0000      -0.267794        -7.2870
  49   2.0000      -0.256059        -6.9677
  50   2.0000      -0.247132        -6.7248
  51   0.0000       0.057716         1.5705
  52   0.0000       0.064966         1.7678
  53   0.0000       0.089011         2.4221
  54   0.0000       0.096302         2.6205
  55   0.0000       0.101162         2.7528

MULLIKEN ATOMIC CHARGES
-----------------------
   0 C :    0.312050
   1 C :   -0.295674
   2 C :   -0.310374
   3 C :   -0.007293
   4 O :   -0.496299
   5 H :    0.165928
   6 H :    0.160232
   7 H :    0.149893
   8 H :    0.147243
   9 H :    0.147943
  10 H :    0.143580
  11 H :    0.148379
  12 C :   -0.004834
  13 H :    0.127527
  14 H :    0.145864
  15 O :   -0.531870
  16 C :    0.062014
  17 C :    0.087259
  18 C :   -0.299212
  19 C :   -0.029319
  20 O :   -0.531630
  21 H :    0.167836
  22 O :   -0.601395
  23 H :    0.186435
  24 H :    0.164070
  25 H :    0.141508
  26 H :    0.143048
  27 H :    0.146282
  28 H :    0.360809
Sum of atomic charges:   -0.0000000

LOEWDIN ATOMIC CHARGES
----------------------
   0 C :    0.177837
   1 C :   -0.230248
   2 C :   -0.221807
   3 C :   -0.032106
   4 O :   -0.316886
   5 H :    0.111512
   6 H :    0.124945
   7 H :    0.117723
   8 H :    0.116974
   9 H :    0.108343
  10 H :    0.102812
  11 H :    0.105392
  12 C :   -0.038758
  13 H :    0.088739
  14 H :    0.102676
  15 O :   -0.326712
  16 C :    0.020424
  17 C :    0.038697
  18 C :   -0.241549
  19 C :   -0.038609
  20 O :   -0.332966
  21 H :    0.119717
  22 O :   -0.413405
  23 H :    0.132644
  24 H :    0.127668
  25 H :    0.111677
  26 H :    0.102127
  27 H :    0.102920
  28 H :    0.280218

  Mayer bond orders larger than 0.100000
B(  0-C ,  1-C ) :   0.9298 B(  0-C ,  4-O ) :   0.9102 B(  0-C ,  5-H ) :   0.9338
B(  0-C , 15-O ) :   0.8799 B(  1-C ,  2-C ) :   0.9507 B(  1-C ,  6-H ) :   0.9344
B(  1-C ,  7-H ) :   0.9322 B(  2-C ,  3-C ) :   0.9481 B(  2-C ,  8-H ) :   0.9449
B(  2-C ,  9-H ) :   0.9395 B(  3-C ,  4-O ) :   0.8482 B(  3-C , 10-H ) :   0.9348
B(  3-C , 11-H ) :   0.9388 B( 12-C , 13-H ) :   0.9069 B( 12-C , 14-H ) :   0.9145
B( 12-C , 15-O ) :   0.8269 B( 12-C , 16-C ) :   0.9007 B( 16-C , 17-C ) :   0.9139
B( 16-C , 20-O ) :   0.8438 B( 16-C , 21-H ) :   0.9251 B( 17-C , 18-C ) :   0.9113
B( 17-C , 22-O ) :   0.8888 B( 17-C , 23-H ) :   0.9204 B( 18-C , 19-C ) :   0.9411
B( 18-C , 24-H ) :   0.9374 B( 18-C , 25-H ) :   0.9350 B( 19-C , 20-O ) :   0.8433
B( 19-C , 26-H ) :   0.9360 B( 19-C , 27-H ) :   0.9384 B( 22-O , 28-H ) :   0.7965

FINAL SINGLE POINT ENERGY      -652.857236990429

DIPOLE MOMENT
-------------
                                X             Y             Z
Electronic contribution:     -4.53566      -4.20044      -2.09198
Nuclear contribution   :      5.67007       5.57554       2.19158
                        -----------------------------------------
Total Dipole Moment    :      1.13442       1.37510       0.09960
                        -----------------------------------------
Magnitude (a.u.)       :      1.78542
Magnitude (Debye)      :      4.53817

Rotational constants in cm-1:     0.051365     0.013460     0.013053
Rotational constants in MHz :  1539.875353   403.528103   391.313652

                             ****ORCA TERMINATED NORMALLY****
TOTAL RUN TIME: 0 days 0 hours 42 minutes 54 seconds 963 msec
