                         Program Version 4.2.1 -  RELEASE  -
|  1> # Test redundant internal optimization
|  2> #
|  3> ! RKS B3LYP  Opt TightSCF SmallPrint
|  4>
|  5> %basis
|  6>         Basis "6-31G"
|  7> end
|  8>
|  9> %geom
| 10> Constraints
| 11> { D 4  0  19  14  75.0   C } # D for Dihedral angle
| 12> { D 0  19  14  12  60.0   C } # D for Dihedral angle
| 13> { D 0  4  3  2   C } # D for Dihedral angle
| 14> { D 4  3  2  1   C } # D for Dihedral angle
| 15> { D 3  2  1  0   C } # D for Dihedral angle
| 16> { D 2  1  0  4   C } # D for Dihedral angle
| 17> { D 1  0  4  3   C } # D for Dihedral angle
| 18> { D 14  15  16  17   C } # D for Dihedral angle
| 19> { D 15  16  17  12   C } # D for Dihedral angle
| 20> { D 16  17  12  14   C } # D for Dihedral angle
| 21> { D 17  12  14  15   C } # D for Dihedral angle
| 22> { D 12  14  15  16   C } # D for Dihedral angle
| 23> end
| 24> end
| 25>
| 26>
| 27> #%pal
| 28> #nprocs 8
| 29> #end
| 30>
| 31> * xyz 0 1
| 32> C  -21.048   26.222   46.251
| 33> C  -20.361   27.558   45.944
| 34> C  -20.329   28.222   47.341
| 35> C  -20.110   27.022   48.296
| 36> O  -20.473   25.807   47.535
| 37> H  -20.833   25.428   45.533
| 38> H  -19.344   27.382   45.576
| 39> H  -20.898   28.157   45.201
| 40> H  -19.543   28.978   47.434
| 41> H  -21.289   28.710   47.548
| 42> H  -20.733   27.082   49.195
| 43> H  -19.064   26.913   48.597
| 44> C  -22.358   28.812   46.328
| 45> H  -22.400   29.704   46.972
| 46> C  -22.881   27.571   47.060
| 47> C  -24.411   27.766   46.955
| 48> C  -24.588   28.425   45.564
| 49> O  -23.264   28.964   45.183
| 50> H  -21.349   28.708   45.925
| 51> O  -22.472   26.381   46.366
| 52> H  -22.531   27.504   48.096
| 53> H  -24.967   26.827   47.045
| 54> H  -24.762   28.438   47.748
| 55> H  -25.318   29.242   45.576
| 56> H  -24.876   27.704   44.793
| 57> *
| 58>
| 59>                          ****END OF INPUT****
 Total Charge           Charge          ....    0
 Multiplicity           Mult            ....    1
 Number of Electrons    NEL             ....   86
FINAL SINGLE POINT ENERGY      -538.272746510446
FINAL SINGLE POINT ENERGY      -538.406996676895
FINAL SINGLE POINT ENERGY      -538.415484775776
FINAL SINGLE POINT ENERGY      -538.418882925708
FINAL SINGLE POINT ENERGY      -538.419941883926
FINAL SINGLE POINT ENERGY      -538.420460611629
FINAL SINGLE POINT ENERGY      -538.420565425109
FINAL SINGLE POINT ENERGY      -538.420584463588
FINAL SINGLE POINT ENERGY      -538.420588024807
                    ***********************HURRAY********************

CARTESIAN COORDINATES (ANGSTROEM)
---------------------------------
  C    -21.112680   26.330852   46.438542
  C    -20.112502   27.383295   45.931901
  C    -19.700113   28.110128   47.252089
  C    -19.719075   26.946774   48.280260
  O    -20.515988   25.863974   47.670803
  H    -21.151136   25.455355   45.788440
  H    -19.251781   26.856262   45.508579
  H    -20.533347   28.041086   45.167774
  H    -18.709929   28.570373   47.178551
  H    -20.406196   28.891482   47.533367
  H    -20.168561   27.228956   49.237706
  H    -18.719598   26.542141   48.465912
  C    -22.842067   29.169194   46.593759
  H    -23.234360   29.936726   47.279642
  C    -23.184744   27.786154   47.148412
  C    -24.664280   27.648570   46.744760
  C    -24.734941   28.371256   45.378758
  O    -23.525564   29.223325   45.296721
  H    -21.797003   29.372668   46.392654
  O    -22.517162   26.640591   46.536665
  H    -23.044261   27.740691   48.237404
  H    -24.943461   26.594808   46.690507
  H    -25.297128   28.144349   47.489637
  H    -25.623960   29.003591   45.281489
  H    -24.692162   27.674399   44.537667

 Multiplicity           Mult            ....    1
 Number of Electrons    NEL             ....   86
 Basis Dimension        Dim             ....  127

ORBITAL ENERGIES
----------------

  NO   OCC          E(Eh)            E(eV)
   0   2.0000     -19.139103      -520.8015
   1   2.0000     -19.139077      -520.8008
   2   2.0000     -19.131556      -520.5961
   3   2.0000     -10.278495      -279.6921
   4   2.0000     -10.244356      -278.7631
   5   2.0000     -10.228434      -278.3298
   6   2.0000     -10.226430      -278.2753
   7   2.0000     -10.220651      -278.1181
   8   2.0000     -10.193517      -277.3797
   9   2.0000     -10.190476      -277.2970
  10   2.0000     -10.184877      -277.1446
  11   2.0000      -1.048390       -28.5281
  12   2.0000      -1.015716       -27.6390
  13   2.0000      -0.989798       -26.9338
  14   2.0000      -0.790970       -21.5234
  15   2.0000      -0.785383       -21.3714
  16   2.0000      -0.740822       -20.1588
  17   2.0000      -0.726319       -19.7641
  18   2.0000      -0.626408       -17.0454
  19   2.0000      -0.604789       -16.4571
  20   2.0000      -0.598668       -16.2906
  21   2.0000      -0.564891       -15.3715
  22   2.0000      -0.510101       -13.8806
  23   2.0000      -0.503971       -13.7137
  24   2.0000      -0.495617       -13.4864
  25   2.0000      -0.487383       -13.2624
  26   2.0000      -0.453053       -12.3282
  27   2.0000      -0.442068       -12.0293
  28   2.0000      -0.438893       -11.9429
  29   2.0000      -0.415831       -11.3153
  30   2.0000      -0.407036       -11.0760
  31   2.0000      -0.389391       -10.5959
  32   2.0000      -0.374054       -10.1785
  33   2.0000      -0.366005        -9.9595
  34   2.0000      -0.361693        -9.8422
  35   2.0000      -0.359007        -9.7691
  36   2.0000      -0.345720        -9.4075
  37   2.0000      -0.316361        -8.6086
  38   2.0000      -0.305427        -8.3111
  39   2.0000      -0.293447        -7.9851
  40   2.0000      -0.265949        -7.2368
  41   2.0000      -0.250922        -6.8279
  42   2.0000      -0.237257        -6.4561
  43   0.0000       0.070497         1.9183
  44   0.0000       0.092992         2.5304
  45   0.0000       0.094942         2.5835
  46   0.0000       0.096941         2.6379
  47   0.0000       0.117316         3.1923

MULLIKEN ATOMIC CHARGES
-----------------------
   0 C :    0.316803
   1 C :   -0.294573
   2 C :   -0.316473
   3 C :   -0.009013
   4 O :   -0.505675
   5 H :    0.166872
   6 H :    0.156447
   7 H :    0.168446
   8 H :    0.146712
   9 H :    0.145968
  10 H :    0.140724
  11 H :    0.146566
  12 C :   -0.018993
  13 H :    0.127910
  14 C :    0.082885
  15 C :   -0.292451
  16 C :    0.001525
  17 O :   -0.528499
  18 H :    0.157965
  19 O :   -0.533942
  20 H :    0.136281
  21 H :    0.173860
  22 H :    0.141441
  23 H :    0.134219
  24 H :    0.154997
Sum of atomic charges:   -0.0000000

LOEWDIN ATOMIC CHARGES
----------------------
   0 C :    0.181153
   1 C :   -0.232108
   2 C :   -0.226727
   3 C :   -0.032821
   4 O :   -0.321303
   5 H :    0.113868
   6 H :    0.123849
   7 H :    0.125751
   8 H :    0.116543
   9 H :    0.107499
  10 H :    0.100045
  11 H :    0.103365
  12 C :   -0.056785
  13 H :    0.095114
  14 C :    0.043084
  15 C :   -0.222103
  16 C :   -0.027691
  17 O :   -0.334633
  18 H :    0.116116
  19 O :   -0.323882
  20 H :    0.098971
  21 H :    0.133852
  22 H :    0.111872
  23 H :    0.097999
  24 H :    0.108972

  Mayer bond orders larger than 0.100000
B(  0-C ,  1-C ) :   0.9157 B(  0-C ,  4-O ) :   0.8980 B(  0-C ,  5-H ) :   0.9358
B(  0-C , 19-O ) :   0.8992 B(  1-C ,  2-C ) :   0.9553 B(  1-C ,  6-H ) :   0.9323
B(  1-C ,  7-H ) :   0.9274 B(  2-C ,  3-C ) :   0.9435 B(  2-C ,  8-H ) :   0.9455
B(  2-C ,  9-H ) :   0.9319 B(  3-C ,  4-O ) :   0.8494 B(  3-C , 10-H ) :   0.9348
B(  3-C , 11-H ) :   0.9388 B( 12-C , 13-H ) :   0.9092 B( 12-C , 14-C ) :   0.9066
B( 12-C , 17-O ) :   0.8628 B( 12-C , 18-H ) :   0.9188 B( 14-C , 15-C ) :   0.9566
B( 14-C , 19-O ) :   0.8331 B( 14-C , 20-H ) :   0.9201 B( 15-C , 16-C ) :   0.9476
B( 15-C , 21-H ) :   0.9335 B( 15-C , 22-H ) :   0.9415 B( 16-C , 17-O ) :   0.8522
B( 16-C , 23-H ) :   0.9340 B( 16-C , 24-H ) :   0.9370

FINAL SINGLE POINT ENERGY      -538.420589221180

DIPOLE MOMENT
-------------
                                X             Y             Z
Electronic contribution:     -0.91330      -2.96210      -0.96837
Nuclear contribution   :      1.17169       3.58660       1.46180
                        -----------------------------------------
Total Dipole Moment    :      0.25839       0.62450       0.49344
                        -----------------------------------------
Magnitude (a.u.)       :      0.83680
Magnitude (Debye)      :      2.12699

Rotational constants in cm-1:     0.076680     0.023331     0.021405
Rotational constants in MHz :  2298.797813   699.433919   641.699467

                             ****ORCA TERMINATED NORMALLY****
TOTAL RUN TIME: 0 days 0 hours 23 minutes 7 seconds 290 msec
