                         Program Version 4.2.0 -  RELEASE  -
|  1> # Test redundant internal optimization
|  2> #
|  3> ! RKS B3LYP  Opt TightSCF SmallPrint
|  4>
|  5> %basis
|  6>         Basis "6-31G"
|  7> end
|  8>
|  9> %geom
| 10> Constraints
| 11> { D 4  0  15  12  240.0   C } # D for Dihedral angle
| 12> { D 0  15  12  16  210.0   C } # D for Dihedral angle
| 13> { D 0  4  3  2   C } # D for Dihedral angle
| 14> { D 4  3  2  1   C } # D for Dihedral angle
| 15> { D 3  2  1  0   C } # D for Dihedral angle
| 16> { D 2  1  0  4   C } # D for Dihedral angle
| 17> { D 1  0  4  3   C } # D for Dihedral angle
| 18> { D 16  20  19  18   C } # D for Dihedral angle
| 19> { D 20  19  18  17   C } # D for Dihedral angle
| 20> { D 19  18  17  16   C } # D for Dihedral angle
| 21> { D 18  17  16  20   C } # D for Dihedral angle
| 22> { D 17  16  20  19   C } # D for Dihedral angle
| 23> { D 15  12  16  20   C } # D for Dihedral angle
| 24> end
| 25> end
| 26>
| 27>
| 28> #%pal
| 29> #nprocs 8
| 30> #end
| 31>
| 32> * xyz 0 1
| 33> C  -21.048   26.222   46.251
| 34> C  -20.361   27.558   45.944
| 35> C  -20.329   28.222   47.341
| 36> C  -20.110   27.022   48.296
| 37> O  -20.473   25.807   47.535
| 38> H  -20.833   25.428   45.533
| 39> H  -19.344   27.382   45.576
| 40> H  -20.898   28.157   45.201
| 41> H  -19.543   28.978   47.434
| 42> H  -21.289   28.710   47.548
| 43> H  -20.733   27.082   49.195
| 44> H  -19.064   26.913   48.597
| 45> C  -23.430   25.483   45.442
| 46> H  -22.859   25.271   44.529
| 47> H  -23.652   24.528   45.936
| 48> O  -22.586   26.394   46.375
| 49> C  -24.782   26.130   45.033
| 50> C  -24.563   27.388   44.186
| 51> C  -24.257   26.780   42.796
| 52> C  -25.161   25.523   42.755
| 53> O  -25.536   25.229   44.155
| 54> H  -25.388   26.286   45.927
| 55> O  -25.866   28.232   44.141
| 56> H  -23.754   28.024   44.559
| 57> H  -24.468   27.472   41.975
| 58> H  -23.199   26.499   42.733
| 59> H  -24.650   24.652   42.331
| 60> H  -26.089   25.693   42.202
| 61> H  -26.693   27.616   43.768
| 62> *
| 63>
| 64>                          ****END OF INPUT****
 Total Charge           Charge          ....    0
 Multiplicity           Mult            ....    1
 Number of Electrons    NEL             ....  102
FINAL SINGLE POINT ENERGY      -652.835998954044
FINAL SINGLE POINT ENERGY      -652.858597962857
FINAL SINGLE POINT ENERGY      -652.862108754291
FINAL SINGLE POINT ENERGY      -652.862755516521
FINAL SINGLE POINT ENERGY      -652.862842051593
FINAL SINGLE POINT ENERGY      -652.862852783613
FINAL SINGLE POINT ENERGY      -652.862854977037
                    ***********************HURRAY********************

CARTESIAN COORDINATES (ANGSTROEM)
---------------------------------
  C    -21.079511   26.147954   46.202231
  C    -20.457520   27.506343   45.879573
  C    -20.528179   28.224476   47.249364
  C    -20.287566   27.075204   48.252438
  O    -20.552009   25.821611   47.501889
  H    -20.806762   25.330658   45.528416
  H    -19.415449   27.363704   45.568968
  H    -20.991808   28.034316   45.086538
  H    -19.788710   29.025068   47.344535
  H    -21.525037   28.653643   47.387167
  H    -20.955456   27.112350   49.116486
  H    -19.250604   27.020835   48.597112
  C    -23.328521   25.402060   45.432240
  H    -22.775171   25.113557   44.526755
  H    -23.583130   24.488263   45.981409
  O    -22.523809   26.288947   46.260392
  C    -24.613052   26.141081   45.056678
  C    -24.418802   27.406697   44.210044
  C    -24.220656   26.808567   42.792680
  C    -25.156995   25.574107   42.797233
  O    -25.446306   25.270073   44.220359
  H    -25.183474   26.364865   45.962389
  O    -25.596298   28.257391   44.273401
  H    -23.590318   28.025100   44.549967
  H    -24.484749   27.540401   42.025182
  H    -23.175338   26.516965   42.642529
  H    -24.705246   24.693763   42.329738
  H    -26.116801   25.772647   42.309946
  H    -26.400723   27.700355   44.208341

 Multiplicity           Mult            ....    1
 Number of Electrons    NEL             ....  102
 Basis Dimension        Dim             ....  149

ORBITAL ENERGIES
----------------

  NO   OCC          E(Eh)            E(eV)
   0   2.0000     -19.146894      -521.0135
   1   2.0000     -19.144876      -520.9586
   2   2.0000     -19.139517      -520.8127
   3   2.0000     -19.137649      -520.7619
   4   2.0000     -10.282750      -279.8079
   5   2.0000     -10.239025      -278.6180
   6   2.0000     -10.234646      -278.4989
   7   2.0000     -10.234468      -278.4940
   8   2.0000     -10.234159      -278.4856
   9   2.0000     -10.224471      -278.2220
  10   2.0000     -10.191219      -277.3172
  11   2.0000     -10.187655      -277.2202
  12   2.0000     -10.185855      -277.1712
  13   2.0000      -1.053779       -28.6748
  14   2.0000      -1.038356       -28.2551
  15   2.0000      -1.006732       -27.3946
  16   2.0000      -0.996761       -27.1232
  17   2.0000      -0.789467       -21.4825
  18   2.0000      -0.781037       -21.2531
  19   2.0000      -0.769625       -20.9426
  20   2.0000      -0.731389       -19.9021
  21   2.0000      -0.676450       -18.4071
  22   2.0000      -0.606612       -16.5068
  23   2.0000      -0.599281       -16.3073
  24   2.0000      -0.591443       -16.0940
  25   2.0000      -0.588227       -16.0065
  26   2.0000      -0.523863       -14.2550
  27   2.0000      -0.521423       -14.1886
  28   2.0000      -0.496016       -13.4973
  29   2.0000      -0.492149       -13.3920
  30   2.0000      -0.471957       -12.8426
  31   2.0000      -0.458169       -12.4674
  32   2.0000      -0.452708       -12.3188
  33   2.0000      -0.440244       -11.9797
  34   2.0000      -0.426155       -11.5963
  35   2.0000      -0.414850       -11.2886
  36   2.0000      -0.404194       -10.9987
  37   2.0000      -0.394386       -10.7318
  38   2.0000      -0.376531       -10.2459
  39   2.0000      -0.370465       -10.0809
  40   2.0000      -0.361613        -9.8400
  41   2.0000      -0.356842        -9.7102
  42   2.0000      -0.351764        -9.5720
  43   2.0000      -0.332893        -9.0585
  44   2.0000      -0.318452        -8.6655
  45   2.0000      -0.310996        -8.4626
  46   2.0000      -0.307026        -8.3546
  47   2.0000      -0.272409        -7.4126
  48   2.0000      -0.266903        -7.2628
  49   2.0000      -0.256656        -6.9840
  50   2.0000      -0.242329        -6.5941
  51   0.0000       0.061642         1.6774
  52   0.0000       0.068137         1.8541
  53   0.0000       0.084460         2.2983
  54   0.0000       0.093309         2.5391
  55   0.0000       0.103845         2.8258

MULLIKEN ATOMIC CHARGES
-----------------------
   0 C :    0.285725
   1 C :   -0.256805
   2 C :   -0.300758
   3 C :   -0.000839
   4 O :   -0.501050
   5 H :    0.139945
   6 H :    0.143952
   7 H :    0.144314
   8 H :    0.142318
   9 H :    0.165884
  10 H :    0.153518
  11 H :    0.141227
  12 C :   -0.003463
  13 H :    0.122802
  14 H :    0.160525
  15 O :   -0.523234
  16 C :    0.054779
  17 C :    0.087342
  18 C :   -0.299031
  19 C :   -0.032118
  20 O :   -0.525510
  21 H :    0.172478
  22 O :   -0.603401
  23 H :    0.167921
  24 H :    0.163537
  25 H :    0.140144
  26 H :    0.146644
  27 H :    0.149036
  28 H :    0.364118
Sum of atomic charges:   -0.0000000

LOEWDIN ATOMIC CHARGES
----------------------
   0 C :    0.176925
   1 C :   -0.221867
   2 C :   -0.216392
   3 C :   -0.026021
   4 O :   -0.314977
   5 H :    0.098600
   6 H :    0.112984
   7 H :    0.115058
   8 H :    0.114505
   9 H :    0.120839
  10 H :    0.108924
  11 H :    0.102103
  12 C :   -0.035130
  13 H :    0.090351
  14 H :    0.111439
  15 O :   -0.336735
  16 C :    0.015495
  17 C :    0.037744
  18 C :   -0.242649
  19 C :   -0.038752
  20 O :   -0.329180
  21 H :    0.120959
  22 O :   -0.414300
  23 H :    0.121589
  24 H :    0.127213
  25 H :    0.110849
  26 H :    0.104039
  27 H :    0.103836
  28 H :    0.282552

  Mayer bond orders larger than 0.100000
B(  0-C ,  1-C ) :   0.9408 B(  0-C ,  4-O ) :   0.9357 B(  0-C ,  5-H ) :   0.9206
B(  0-C , 15-O ) :   0.8375 B(  1-C ,  2-C ) :   0.9575 B(  1-C ,  6-H ) :   0.9363
B(  1-C ,  7-H ) :   0.9365 B(  2-C ,  3-C ) :   0.9539 B(  2-C ,  8-H ) :   0.9450
B(  2-C ,  9-H ) :   0.9429 B(  3-C ,  4-O ) :   0.8364 B(  3-C , 10-H ) :   0.9346
B(  3-C , 11-H ) :   0.9398 B( 12-C , 13-H ) :   0.9193 B( 12-C , 14-H ) :   0.9183
B( 12-C , 15-O ) :   0.8305 B( 12-C , 16-C ) :   0.9061 B( 16-C , 17-C ) :   0.9098
B( 16-C , 20-O ) :   0.8427 B( 16-C , 21-H ) :   0.9238 B( 17-C , 18-C ) :   0.9120
B( 17-C , 22-O ) :   0.8916 B( 17-C , 23-H ) :   0.9232 B( 18-C , 19-C ) :   0.9416
B( 18-C , 24-H ) :   0.9376 B( 18-C , 25-H ) :   0.9354 B( 19-C , 20-O ) :   0.8422
B( 19-C , 26-H ) :   0.9354 B( 19-C , 27-H ) :   0.9375 B( 22-O , 28-H ) :   0.7951

FINAL SINGLE POINT ENERGY      -652.862855231037

DIPOLE MOMENT
-------------
                                X             Y             Z
Electronic contribution:     -3.69628      -2.60865       2.01641
Nuclear contribution   :      4.38740       2.81889      -2.90454
                        -----------------------------------------
Total Dipole Moment    :      0.69112       0.21024      -0.88814
                        -----------------------------------------
Magnitude (a.u.)       :      1.14483
Magnitude (Debye)      :      2.90992

Rotational constants in cm-1:     0.057082     0.012592     0.011770
Rotational constants in MHz :  1711.272322   377.513485   352.868282

                             ****ORCA TERMINATED NORMALLY****
TOTAL RUN TIME: 0 days 0 hours 31 minutes 13 seconds 665 msec
