                         Program Version 4.2.0 -  RELEASE  -
|  1> # Test redundant internal optimization
|  2> #
|  3> ! RKS B3LYP  Opt TightSCF SmallPrint
|  4>
|  5> %basis
|  6>         Basis "6-31G"
|  7> end
|  8>
|  9> %geom
| 10> Constraints
| 11> { D 4  0  15  12  15.0   C } # D for Dihedral angle
| 12> { D 0  15  12  16  150.0   C } # D for Dihedral angle
| 13> { D 0  4  3  2   C } # D for Dihedral angle
| 14> { D 4  3  2  1   C } # D for Dihedral angle
| 15> { D 3  2  1  0   C } # D for Dihedral angle
| 16> { D 2  1  0  4   C } # D for Dihedral angle
| 17> { D 1  0  4  3   C } # D for Dihedral angle
| 18> { D 16  20  19  18   C } # D for Dihedral angle
| 19> { D 20  19  18  17   C } # D for Dihedral angle
| 20> { D 19  18  17  16   C } # D for Dihedral angle
| 21> { D 18  17  16  20   C } # D for Dihedral angle
| 22> { D 17  16  20  19   C } # D for Dihedral angle
| 23> { D 15  12  16  20   C } # D for Dihedral angle
| 24> end
| 25> end
| 26>
| 27>
| 28> #%pal
| 29> #nprocs 8
| 30> #end
| 31>
| 32> * xyz 0 1
| 33> C  -21.048   26.222   46.251
| 34> C  -20.361   27.558   45.944
| 35> C  -20.329   28.222   47.341
| 36> C  -20.110   27.022   48.296
| 37> O  -20.473   25.807   47.535
| 38> H  -20.833   25.428   45.533
| 39> H  -19.344   27.382   45.576
| 40> H  -20.898   28.157   45.201
| 41> H  -19.543   28.978   47.434
| 42> H  -21.289   28.710   47.548
| 43> H  -20.733   27.082   49.195
| 44> H  -19.064   26.913   48.597
| 45> C  -23.128   26.462   47.829
| 46> H  -23.360   25.448   48.177
| 47> H  -22.372   26.890   48.501
| 48> O  -22.586   26.394   46.375
| 49> C  -24.413   27.327   47.951
| 50> C  -24.853   27.467   49.413
| 51> C  -23.884   28.558   49.929
| 52> C  -23.710   29.483   48.698
| 53> O  -24.147   28.704   47.521
| 54> H  -25.179   26.925   47.285
| 55> H  -25.890   27.817   49.463
| 56> O  -24.745   26.140   50.212
| 57> H  -24.273   29.093   50.801
| 58> H  -22.925   28.107   50.211
| 59> H  -22.670   29.798   48.554
| 60> H  -24.345   30.372   48.751
| 61> H  -23.714   25.770   50.178
| 62> *
| 63>
| 64>                          ****END OF INPUT****
 Total Charge           Charge          ....    0
 Multiplicity           Mult            ....    1
 Number of Electrons    NEL             ....  102
FINAL SINGLE POINT ENERGY      -652.819813355098
FINAL SINGLE POINT ENERGY      -652.844302211965
FINAL SINGLE POINT ENERGY      -652.849897876244
FINAL SINGLE POINT ENERGY      -652.852465507895
FINAL SINGLE POINT ENERGY      -652.852677784412
FINAL SINGLE POINT ENERGY      -652.852748459062
FINAL SINGLE POINT ENERGY      -652.852754035803
FINAL SINGLE POINT ENERGY      -652.852745380465
                    ***********************HURRAY********************

CARTESIAN COORDINATES (ANGSTROEM)
---------------------------------
  C    -21.111511   26.268744   46.313319
  C    -20.454848   27.593924   45.919091
  C    -20.112928   28.201852   47.301273
  C    -19.747274   26.961636   48.148737
  O    -20.312546   25.791858   47.421858
  H    -21.053486   25.498748   45.540843
  H    -19.547066   27.389733   45.339450
  H    -21.128748   28.220198   45.331403
  H    -19.293716   28.925886   47.255775
  H    -20.996233   28.710883   47.700072
  H    -20.160546   26.985407   49.162306
  H    -18.667276   26.796678   48.212069
  C    -23.036407   26.420336   47.946906
  H    -23.302196   25.398583   48.249361
  H    -22.289899   26.798906   48.653839
  O    -22.527349   26.417835   46.590758
  C    -24.287382   27.296586   47.957013
  C    -24.958438   27.443156   49.334258
  C    -24.120894   28.590404   49.975435
  C    -23.796457   29.494812   48.766748
  O    -24.013873   28.672955   47.546506
  H    -24.978376   26.901461   47.206744
  H    -25.995254   27.758000   49.199523
  O    -25.047191   26.233255   50.122882
  H    -24.670354   29.111777   50.763855
  H    -23.208800   28.171603   50.421072
  H    -22.765257   29.861874   48.774459
  H    -24.472219   30.352199   48.697450
  H    -24.162475   25.966711   50.446995

 Multiplicity           Mult            ....    1
 Number of Electrons    NEL             ....  102
 Basis Dimension        Dim             ....  149

ORBITAL ENERGIES
----------------

  NO   OCC          E(Eh)            E(eV)
   0   2.0000     -19.150698      -521.1170
   1   2.0000     -19.149504      -521.0845
   2   2.0000     -19.139752      -520.8191
   3   2.0000     -19.134054      -520.6641
   4   2.0000     -10.276983      -279.6509
   5   2.0000     -10.246512      -278.8218
   6   2.0000     -10.234455      -278.4937
   7   2.0000     -10.233312      -278.4626
   8   2.0000     -10.230306      -278.3808
   9   2.0000     -10.229819      -278.3675
  10   2.0000     -10.197583      -277.4904
  11   2.0000     -10.190678      -277.3025
  12   2.0000     -10.181899      -277.0635
  13   2.0000      -1.053137       -28.6573
  14   2.0000      -1.034483       -28.1497
  15   2.0000      -1.016852       -27.6699
  16   2.0000      -0.991225       -26.9726
  17   2.0000      -0.789273       -21.4772
  18   2.0000      -0.784003       -21.3338
  19   2.0000      -0.771518       -20.9941
  20   2.0000      -0.733765       -19.9668
  21   2.0000      -0.680826       -18.5262
  22   2.0000      -0.613093       -16.6831
  23   2.0000      -0.603810       -16.4305
  24   2.0000      -0.593943       -16.1620
  25   2.0000      -0.573827       -15.6146
  26   2.0000      -0.529702       -14.4139
  27   2.0000      -0.512042       -13.9334
  28   2.0000      -0.501810       -13.6549
  29   2.0000      -0.493436       -13.4271
  30   2.0000      -0.470695       -12.8083
  31   2.0000      -0.458318       -12.4715
  32   2.0000      -0.449324       -12.2267
  33   2.0000      -0.436343       -11.8735
  34   2.0000      -0.428956       -11.6725
  35   2.0000      -0.416458       -11.3324
  36   2.0000      -0.405523       -11.0349
  37   2.0000      -0.401428       -10.9234
  38   2.0000      -0.381499       -10.3811
  39   2.0000      -0.370978       -10.0948
  40   2.0000      -0.360334        -9.8052
  41   2.0000      -0.356373        -9.6974
  42   2.0000      -0.346615        -9.4319
  43   2.0000      -0.338663        -9.2155
  44   2.0000      -0.324050        -8.8179
  45   2.0000      -0.315021        -8.5722
  46   2.0000      -0.308026        -8.3818
  47   2.0000      -0.271871        -7.3980
  48   2.0000      -0.263413        -7.1678
  49   2.0000      -0.250063        -6.8046
  50   2.0000      -0.237981        -6.4758
  51   0.0000       0.045081         1.2267
  52   0.0000       0.056996         1.5509
  53   0.0000       0.087177         2.3722
  54   0.0000       0.091382         2.4866
  55   0.0000       0.104411         2.8412

MULLIKEN ATOMIC CHARGES
-----------------------
   0 C :    0.297529
   1 C :   -0.253295
   2 C :   -0.326449
   3 C :   -0.019677
   4 O :   -0.510985
   5 H :    0.160200
   6 H :    0.142541
   7 H :    0.170730
   8 H :    0.146519
   9 H :    0.170112
  10 H :    0.133906
  11 H :    0.152388
  12 C :    0.001878
  13 H :    0.141338
  14 H :    0.119439
  15 O :   -0.531261
  16 C :    0.090326
  17 C :    0.079407
  18 C :   -0.318261
  19 C :   -0.016714
  20 O :   -0.506753
  21 H :    0.169415
  22 H :    0.171811
  23 O :   -0.597612
  24 H :    0.157992
  25 H :    0.129162
  26 H :    0.136664
  27 H :    0.152906
  28 H :    0.356744
Sum of atomic charges:    0.0000000

LOEWDIN ATOMIC CHARGES
----------------------
   0 C :    0.183991
   1 C :   -0.221682
   2 C :   -0.224465
   3 C :   -0.035904
   4 O :   -0.321079
   5 H :    0.107892
   6 H :    0.112920
   7 H :    0.131078
   8 H :    0.117252
   9 H :    0.117324
  10 H :    0.094626
  11 H :    0.107043
  12 C :   -0.041979
  13 H :    0.102892
  14 H :    0.089768
  15 O :   -0.327432
  16 C :    0.018588
  17 C :    0.034683
  18 C :   -0.241787
  19 C :   -0.033130
  20 O :   -0.315577
  21 H :    0.121876
  22 H :    0.121281
  23 O :   -0.405349
  24 H :    0.122952
  25 H :    0.102014
  26 H :    0.096685
  27 H :    0.107216
  28 H :    0.278302

  Mayer bond orders larger than 0.100000
B(  0-C ,  1-C ) :   0.9229 B(  0-C ,  4-O ) :   0.9083 B(  0-C ,  5-H ) :   0.9324
B(  0-C , 15-O ) :   0.8586 B(  1-C ,  2-C ) :   0.9536 B(  1-C ,  6-H ) :   0.9354
B(  1-C ,  7-H ) :   0.9335 B(  2-C ,  3-C ) :   0.9512 B(  2-C ,  8-H ) :   0.9448
B(  2-C ,  9-H ) :   0.9325 B(  3-C ,  4-O ) :   0.8361 B(  3-C , 10-H ) :   0.9293
B(  3-C , 11-H ) :   0.9390 B( 12-C , 13-H ) :   0.9106 B( 12-C , 14-H ) :   0.9115
B( 12-C , 15-O ) :   0.8370 B( 12-C , 16-C ) :   0.9023 B( 16-C , 17-C ) :   0.8756
B( 16-C , 20-O ) :   0.8627 B( 16-C , 21-H ) :   0.9270 B( 17-C , 18-C ) :   0.9207
B( 17-C , 22-H ) :   0.9320 B( 17-C , 23-O ) :   0.8993 B( 18-C , 19-C ) :   0.9402
B( 18-C , 24-H ) :   0.9418 B( 18-C , 25-H ) :   0.9414 B( 19-C , 20-O ) :   0.8550
B( 19-C , 26-H ) :   0.9250 B( 19-C , 27-H ) :   0.9373 B( 23-O , 28-H ) :   0.7974

FINAL SINGLE POINT ENERGY      -652.852742750290

DIPOLE MOMENT
-------------
                                X             Y             Z
Electronic contribution:     -3.50110      -4.39205      -2.39960
Nuclear contribution   :      4.40317       5.35250       3.26094
                        -----------------------------------------
Total Dipole Moment    :      0.90207       0.96045       0.86134
                        -----------------------------------------
Magnitude (a.u.)       :      1.57420
Magnitude (Debye)      :      4.00130

Rotational constants in cm-1:     0.045019     0.016250     0.015153
Rotational constants in MHz :  1349.622002   487.175450   454.288593

                             ****ORCA TERMINATED NORMALLY****
TOTAL RUN TIME: 0 days 0 hours 57 minutes 34 seconds 734 msec
