                         Program Version 4.2.0 -  RELEASE  -
|  1> # Test redundant internal optimization
|  2> #
|  3> ! RKS B3LYP  Opt TightSCF SmallPrint
|  4>
|  5> %basis
|  6>         Basis "6-31G"
|  7> end
|  8>
|  9> %geom
| 10> Constraints
| 11> { D 4  0  15  12  165.0   C } # D for Dihedral angle
| 12> { D 0  15  12  16  120.0   C } # D for Dihedral angle
| 13> { D 0  4  3  2   C } # D for Dihedral angle
| 14> { D 4  3  2  1   C } # D for Dihedral angle
| 15> { D 3  2  1  0   C } # D for Dihedral angle
| 16> { D 2  1  0  4   C } # D for Dihedral angle
| 17> { D 1  0  4  3   C } # D for Dihedral angle
| 18> { D 16  20  19  18   C } # D for Dihedral angle
| 19> { D 20  19  18  17   C } # D for Dihedral angle
| 20> { D 19  18  17  16   C } # D for Dihedral angle
| 21> { D 18  17  16  20   C } # D for Dihedral angle
| 22> { D 17  16  20  19   C } # D for Dihedral angle
| 23> { D 15  12  16  20   C } # D for Dihedral angle
| 24> end
| 25> end
| 26>
| 27>
| 28> #%pal
| 29> #nprocs 8
| 30> #end
| 31>
| 32> * xyz 0 1
| 33> C  -21.048   26.222   46.251
| 34> C  -20.361   27.558   45.944
| 35> C  -20.329   28.222   47.341
| 36> C  -20.110   27.022   48.296
| 37> O  -20.473   25.807   47.535
| 38> H  -20.833   25.428   45.533
| 39> H  -19.344   27.382   45.576
| 40> H  -20.898   28.157   45.201
| 41> H  -19.543   28.978   47.434
| 42> H  -21.289   28.710   47.548
| 43> H  -20.733   27.082   49.195
| 44> H  -19.064   26.913   48.597
| 45> C  -23.260   27.170   45.210
| 46> H  -23.749   28.068   45.609
| 47> H  -22.509   27.486   44.475
| 48> O  -22.586   26.394   46.375
| 49> C  -24.327   26.324   44.463
| 50> C  -24.887   27.078   43.252
| 51> C  -23.765   26.869   42.206
| 52> C  -23.253   25.441   42.521
| 53> O  -23.717   25.120   43.888
| 54> H  -25.083   25.990   45.177
| 55> H  -25.820   26.612   42.916
| 56> O  -25.166   28.578   43.542
| 57> H  -24.122   26.966   41.176
| 58> H  -22.969   27.607   42.356
| 59> H  -22.160   25.371   42.488
| 60> H  -23.678   24.688   41.852
| 61> H  -24.246   29.066   43.879
| 62> *
| 63>
| 64>                          ****END OF INPUT****
 Total Charge           Charge          ....    0
 Multiplicity           Mult            ....    1
 Number of Electrons    NEL             ....  102
FINAL SINGLE POINT ENERGY      -652.821363238629
FINAL SINGLE POINT ENERGY      -652.844846548282
FINAL SINGLE POINT ENERGY      -652.849577347433
FINAL SINGLE POINT ENERGY      -652.850299451298
FINAL SINGLE POINT ENERGY      -652.850420090225
FINAL SINGLE POINT ENERGY      -652.850448870867
FINAL SINGLE POINT ENERGY      -652.850453632803
                    ***********************HURRAY********************

CARTESIAN COORDINATES (ANGSTROEM)
---------------------------------
  C    -21.022684   26.275492   46.186159
  C    -20.204625   27.552626   45.994963
  C    -20.286446   28.204604   47.400836
  C    -20.277421   26.979382   48.338685
  O    -20.645161   25.818920   47.490689
  H    -20.810927   25.467627   45.481239
  H    -19.171673   27.270784   45.758954
  H    -20.560237   28.210867   45.198551
  H    -19.453041   28.886615   47.594061
  H    -21.221571   28.764247   47.501583
  H    -20.998705   27.057435   49.155937
  H    -19.285700   26.765763   48.748362
  C    -23.112496   27.271149   45.184073
  H    -23.605876   28.136058   45.645047
  H    -22.384423   27.637032   44.447760
  O    -22.464756   26.503363   46.230886
  C    -24.156555   26.383462   44.504277
  C    -24.906997   27.042303   43.335068
  C    -23.902291   26.845707   42.160829
  C    -23.270873   25.472058   42.476377
  O    -23.547500   25.194413   43.910299
  H    -24.835776   26.012982   45.276568
  H    -25.831871   26.494903   43.142301
  O    -25.333040   28.408600   43.556062
  H    -24.394738   26.875599   41.185451
  H    -23.152254   27.648335   42.184008
  H    -22.189202   25.449885   42.308591
  H    -23.730918   24.664077   41.900394
  H    -24.564243   29.014713   43.537989

 Multiplicity           Mult            ....    1
 Number of Electrons    NEL             ....  102
 Basis Dimension        Dim             ....  149

ORBITAL ENERGIES
----------------

  NO   OCC          E(Eh)            E(eV)
   0   2.0000     -19.151796      -521.1469
   1   2.0000     -19.139283      -520.8064
   2   2.0000     -19.136968      -520.7434
   3   2.0000     -19.133597      -520.6517
   4   2.0000     -10.276512      -279.6381
   5   2.0000     -10.246493      -278.8212
   6   2.0000     -10.233103      -278.4569
   7   2.0000     -10.232920      -278.4519
   8   2.0000     -10.229015      -278.3457
   9   2.0000     -10.223524      -278.1962
  10   2.0000     -10.198514      -277.5157
  11   2.0000     -10.190418      -277.2954
  12   2.0000     -10.189078      -277.2589
  13   2.0000      -1.049932       -28.5701
  14   2.0000      -1.035197       -28.1692
  15   2.0000      -1.017284       -27.6817
  16   2.0000      -0.988193       -26.8901
  17   2.0000      -0.787391       -21.4260
  18   2.0000      -0.784817       -21.3560
  19   2.0000      -0.768813       -20.9205
  20   2.0000      -0.731419       -19.9029
  21   2.0000      -0.684513       -18.6265
  22   2.0000      -0.613656       -16.6984
  23   2.0000      -0.603127       -16.4119
  24   2.0000      -0.592080       -16.1113
  25   2.0000      -0.572560       -15.5801
  26   2.0000      -0.530990       -14.4490
  27   2.0000      -0.506193       -13.7742
  28   2.0000      -0.504730       -13.7344
  29   2.0000      -0.493653       -13.4330
  30   2.0000      -0.471380       -12.8269
  31   2.0000      -0.460772       -12.5383
  32   2.0000      -0.444986       -12.1087
  33   2.0000      -0.440319       -11.9817
  34   2.0000      -0.429630       -11.6908
  35   2.0000      -0.415406       -11.3038
  36   2.0000      -0.408652       -11.1200
  37   2.0000      -0.399666       -10.8755
  38   2.0000      -0.381971       -10.3940
  39   2.0000      -0.376704       -10.2506
  40   2.0000      -0.362247        -9.8572
  41   2.0000      -0.354503        -9.6465
  42   2.0000      -0.350730        -9.5438
  43   2.0000      -0.333230        -9.0676
  44   2.0000      -0.316221        -8.6048
  45   2.0000      -0.310659        -8.4535
  46   2.0000      -0.295792        -8.0489
  47   2.0000      -0.272320        -7.4102
  48   2.0000      -0.259563        -7.0631
  49   2.0000      -0.255698        -6.9579
  50   2.0000      -0.234879        -6.3914
  51   0.0000       0.045482         1.2376
  52   0.0000       0.068709         1.8697
  53   0.0000       0.086222         2.3462
  54   0.0000       0.093681         2.5492
  55   0.0000       0.104010         2.8303

MULLIKEN ATOMIC CHARGES
-----------------------
   0 C :    0.310559
   1 C :   -0.289472
   2 C :   -0.299886
   3 C :    0.001158
   4 O :   -0.496356
   5 H :    0.157639
   6 H :    0.150448
   7 H :    0.136647
   8 H :    0.142345
   9 H :    0.155273
  10 H :    0.154828
  11 H :    0.141455
  12 C :   -0.024321
  13 H :    0.140343
  14 H :    0.110102
  15 O :   -0.507454
  16 C :    0.097962
  17 C :    0.083428
  18 C :   -0.321771
  19 C :   -0.014659
  20 O :   -0.505646
  21 H :    0.171275
  22 H :    0.170707
  23 O :   -0.597492
  24 H :    0.157102
  25 H :    0.129743
  26 H :    0.140058
  27 H :    0.153365
  28 H :    0.352619
Sum of atomic charges:   -0.0000000

LOEWDIN ATOMIC CHARGES
----------------------
   0 C :    0.186554
   1 C :   -0.235608
   2 C :   -0.217442
   3 C :   -0.025701
   4 O :   -0.299891
   5 H :    0.105432
   6 H :    0.117688
   7 H :    0.109233
   8 H :    0.114226
   9 H :    0.114471
  10 H :    0.109738
  11 H :    0.102371
  12 C :   -0.051875
  13 H :    0.104409
  14 H :    0.085483
  15 O :   -0.326799
  16 C :    0.016334
  17 C :    0.034247
  18 C :   -0.241836
  19 C :   -0.032416
  20 O :   -0.315269
  21 H :    0.123224
  22 H :    0.121005
  23 O :   -0.405977
  24 H :    0.122815
  25 H :    0.101667
  26 H :    0.100283
  27 H :    0.107904
  28 H :    0.275732

  Mayer bond orders larger than 0.100000
B(  0-C ,  1-C ) :   0.9288 B(  0-C ,  4-O ) :   0.9355 B(  0-C ,  5-H ) :   0.9195
B(  0-C , 15-O ) :   0.8352 B(  1-C ,  2-C ) :   0.9483 B(  1-C ,  6-H ) :   0.9338
B(  1-C ,  7-H ) :   0.9292 B(  2-C ,  3-C ) :   0.9559 B(  2-C ,  8-H ) :   0.9451
B(  2-C ,  9-H ) :   0.9461 B(  3-C ,  4-O ) :   0.8380 B(  3-C , 10-H ) :   0.9342
B(  3-C , 11-H ) :   0.9398 B( 12-C , 13-H ) :   0.9159 B( 12-C , 14-H ) :   0.9145
B( 12-C , 15-O ) :   0.8617 B( 12-C , 16-C ) :   0.8922 B( 16-C , 17-C ) :   0.8702
B( 16-C , 20-O ) :   0.8652 B( 16-C , 21-H ) :   0.9289 B( 17-C , 18-C ) :   0.9201
B( 17-C , 22-H ) :   0.9319 B( 17-C , 23-O ) :   0.8961 B( 18-C , 19-C ) :   0.9402
B( 18-C , 24-H ) :   0.9425 B( 18-C , 25-H ) :   0.9412 B( 19-C , 20-O ) :   0.8527
B( 19-C , 26-H ) :   0.9317 B( 19-C , 27-H ) :   0.9371 B( 23-O , 28-H ) :   0.8000

FINAL SINGLE POINT ENERGY      -652.850454615771

DIPOLE MOMENT
-------------
                                X             Y             Z
Electronic contribution:     -3.55345      -4.17103       1.76256
Nuclear contribution   :      4.47874       5.58380      -2.86330
                        -----------------------------------------
Total Dipole Moment    :      0.92529       1.41277      -1.10074
                        -----------------------------------------
Magnitude (a.u.)       :      2.01587
Magnitude (Debye)      :      5.12392

Rotational constants in cm-1:     0.055651     0.012894     0.011974
Rotational constants in MHz :  1668.381362   386.547956   358.974941

                             ****ORCA TERMINATED NORMALLY****
TOTAL RUN TIME: 0 days 1 hours 56 minutes 43 seconds 314 msec
