                         Program Version 4.2.0 -  RELEASE  -
|  1> # Test redundant internal optimization
|  2> #
|  3> ! RKS B3LYP  Opt TightSCF SmallPrint
|  4>
|  5> %basis
|  6>         Basis "6-31G"
|  7> end
|  8>
|  9> %geom
| 10> Constraints
| 11> { D 4  0  15  12  255.0   C } # D for Dihedral angle
| 12> { D 0  15  12  16  255.0   C } # D for Dihedral angle
| 13> { D 0  4  3  2   C } # D for Dihedral angle
| 14> { D 4  3  2  1   C } # D for Dihedral angle
| 15> { D 3  2  1  0   C } # D for Dihedral angle
| 16> { D 2  1  0  4   C } # D for Dihedral angle
| 17> { D 1  0  4  3   C } # D for Dihedral angle
| 18> { D 16  20  19  18   C } # D for Dihedral angle
| 19> { D 20  19  18  17   C } # D for Dihedral angle
| 20> { D 19  18  17  16   C } # D for Dihedral angle
| 21> { D 18  17  16  20   C } # D for Dihedral angle
| 22> { D 17  16  20  19   C } # D for Dihedral angle
| 23> { D 15  12  16  20   C } # D for Dihedral angle
| 24> end
| 25> end
| 26>
| 27>
| 28> #%pal
| 29> #nprocs 8
| 30> #end
| 31>
| 32> * xyz 0 1
| 33> C  -21.048   26.222   46.251
| 34> C  -20.361   27.558   45.944
| 35> C  -20.329   28.222   47.341
| 36> C  -20.110   27.022   48.296
| 37> O  -20.473   25.807   47.535
| 38> H  -20.833   25.428   45.533
| 39> H  -19.344   27.382   45.576
| 40> H  -20.898   28.157   45.201
| 41> H  -19.543   28.978   47.434
| 42> H  -21.289   28.710   47.548
| 43> H  -20.733   27.082   49.195
| 44> H  -19.064   26.913   48.597
| 45> C  -23.431   25.260   45.734
| 46> H  -22.787   24.392   45.542
| 47> H  -24.234   24.947   46.414
| 48> O  -22.586   26.394   46.375
| 49> C  -24.088   25.686   44.392
| 50> C  -24.936   26.952   44.564
| 51> C  -23.853   28.057   44.562
| 52> C  -22.802   27.517   43.560
| 53> O  -23.062   26.068   43.417
| 54> H  -24.628   24.835   43.971
| 55> H  -25.611   27.071   43.710
| 56> O  -25.787   26.945   45.863
| 57> H  -24.245   29.036   44.269
| 58> H  -23.416   28.158   45.563
| 59> H  -21.774   27.665   43.909
| 60> H  -22.906   27.963   42.566
| 61> H  -25.130   26.826   46.732
| 62> *
| 63>
| 64>                          ****END OF INPUT****
 Total Charge           Charge          ....    0
 Multiplicity           Mult            ....    1
 Number of Electrons    NEL             ....  102
FINAL SINGLE POINT ENERGY      -652.828892636978
FINAL SINGLE POINT ENERGY      -652.852284482798
FINAL SINGLE POINT ENERGY      -652.859823377346
FINAL SINGLE POINT ENERGY      -652.862891476344
FINAL SINGLE POINT ENERGY      -652.863223381224
FINAL SINGLE POINT ENERGY      -652.863267582136
FINAL SINGLE POINT ENERGY      -652.863272194576
                    ***********************HURRAY********************

CARTESIAN COORDINATES (ANGSTROEM)
---------------------------------
  C    -20.988875   26.168432   46.275316
  C    -20.342611   27.534443   46.038432
  C    -20.342036   28.142968   47.464603
  C    -20.094544   26.906869   48.358947
  O    -20.419999   25.728130   47.523620
  H    -20.769049   25.403134   45.527576
  H    -19.317135   27.387829   45.679426
  H    -20.885483   28.140466   45.313376
  H    -19.575721   28.912785   47.594738
  H    -21.319486   28.586113   47.678792
  H    -20.724843   26.890259   49.251603
  H    -19.046489   26.802697   48.655584
  C    -23.280030   25.323124   45.795860
  H    -22.688698   24.416512   45.612350
  H    -24.053448   25.074893   46.531250
  O    -22.426446   26.340948   46.400951
  C    -23.970741   25.730804   44.496610
  C    -24.935701   26.925587   44.602819
  C    -23.975550   28.134477   44.383717
  C    -22.961121   27.578744   43.361861
  O    -23.077849   26.097825   43.405084
  H    -24.508201   24.836521   44.155371
  H    -25.684945   26.869364   43.810363
  O    -25.695390   26.977949   45.831915
  H    -24.500083   29.021835   44.019601
  H    -23.488164   28.368832   45.334616
  H    -21.928349   27.862247   43.576714
  H    -23.199800   27.880734   42.337048
  H    -25.100211   27.208477   46.575857

 Multiplicity           Mult            ....    1
 Number of Electrons    NEL             ....  102
 Basis Dimension        Dim             ....  149

ORBITAL ENERGIES
----------------

  NO   OCC          E(Eh)            E(eV)
   0   2.0000     -19.148915      -521.0685
   1   2.0000     -19.141945      -520.8788
   2   2.0000     -19.141548      -520.8680
   3   2.0000     -19.140102      -520.8287
   4   2.0000     -10.282366      -279.7974
   5   2.0000     -10.239579      -278.6331
   6   2.0000     -10.232283      -278.4346
   7   2.0000     -10.231920      -278.4247
   8   2.0000     -10.229311      -278.3537
   9   2.0000     -10.226563      -278.2789
  10   2.0000     -10.189240      -277.2633
  11   2.0000     -10.189017      -277.2573
  12   2.0000     -10.185555      -277.1631
  13   2.0000      -1.055428       -28.7197
  14   2.0000      -1.031053       -28.0564
  15   2.0000      -1.013758       -27.5858
  16   2.0000      -0.996306       -27.1109
  17   2.0000      -0.790419       -21.5084
  18   2.0000      -0.776139       -21.1198
  19   2.0000      -0.769313       -20.9341
  20   2.0000      -0.733545       -19.9608
  21   2.0000      -0.681413       -18.5422
  22   2.0000      -0.607182       -16.5223
  23   2.0000      -0.602002       -16.3813
  24   2.0000      -0.597902       -16.2697
  25   2.0000      -0.575448       -15.6587
  26   2.0000      -0.527554       -14.3555
  27   2.0000      -0.510045       -13.8790
  28   2.0000      -0.502079       -13.6623
  29   2.0000      -0.490332       -13.3426
  30   2.0000      -0.466445       -12.6926
  31   2.0000      -0.461757       -12.5651
  32   2.0000      -0.447958       -12.1896
  33   2.0000      -0.434848       -11.8328
  34   2.0000      -0.424112       -11.5407
  35   2.0000      -0.418819       -11.3966
  36   2.0000      -0.408660       -11.1202
  37   2.0000      -0.395536       -10.7631
  38   2.0000      -0.386114       -10.5067
  39   2.0000      -0.364809        -9.9270
  40   2.0000      -0.359375        -9.7791
  41   2.0000      -0.356174        -9.6920
  42   2.0000      -0.349903        -9.5214
  43   2.0000      -0.331375        -9.0172
  44   2.0000      -0.322063        -8.7638
  45   2.0000      -0.311865        -8.4863
  46   2.0000      -0.307907        -8.3786
  47   2.0000      -0.276710        -7.5297
  48   2.0000      -0.265098        -7.2137
  49   2.0000      -0.255719        -6.9585
  50   2.0000      -0.239362        -6.5134
  51   0.0000       0.063619         1.7312
  52   0.0000       0.074698         2.0326
  53   0.0000       0.084327         2.2947
  54   0.0000       0.095568         2.6005
  55   0.0000       0.100321         2.7299

MULLIKEN ATOMIC CHARGES
-----------------------
   0 C :    0.288108
   1 C :   -0.266265
   2 C :   -0.303365
   3 C :    0.000963
   4 O :   -0.502783
   5 H :    0.159028
   6 H :    0.148741
   7 H :    0.151088
   8 H :    0.143191
   9 H :    0.156387
  10 H :    0.149397
  11 H :    0.142597
  12 C :   -0.042351
  13 H :    0.151664
  14 H :    0.157336
  15 O :   -0.534904
  16 C :    0.099768
  17 C :    0.088474
  18 C :   -0.313596
  19 C :   -0.010670
  20 O :   -0.525624
  21 H :    0.148494
  22 H :    0.163986
  23 O :   -0.606645
  24 H :    0.146124
  25 H :    0.158886
  26 H :    0.139512
  27 H :    0.144910
  28 H :    0.367547
Sum of atomic charges:   -0.0000000

LOEWDIN ATOMIC CHARGES
----------------------
   0 C :    0.177144
   1 C :   -0.219388
   2 C :   -0.217092
   3 C :   -0.026602
   4 O :   -0.318935
   5 H :    0.107276
   6 H :    0.116229
   7 H :    0.116295
   8 H :    0.114447
   9 H :    0.115244
  10 H :    0.106605
  11 H :    0.102710
  12 C :   -0.047614
  13 H :    0.109604
  14 H :    0.115130
  15 O :   -0.343181
  16 C :    0.008779
  17 C :    0.036959
  18 C :   -0.241610
  19 C :   -0.027039
  20 O :   -0.325979
  21 H :    0.114950
  22 H :    0.116996
  23 O :   -0.409450
  24 H :    0.116950
  25 H :    0.116728
  26 H :    0.097447
  27 H :    0.102714
  28 H :    0.284681

  Mayer bond orders larger than 0.100000
B(  0-C ,  1-C ) :   0.9460 B(  0-C ,  4-O ) :   0.9240 B(  0-C ,  5-H ) :   0.9150
B(  0-C , 15-O ) :   0.8358 B(  1-C ,  2-C ) :   0.9537 B(  1-C ,  6-H ) :   0.9383
B(  1-C ,  7-H ) :   0.9260 B(  2-C ,  3-C ) :   0.9535 B(  2-C ,  8-H ) :   0.9450
B(  2-C ,  9-H ) :   0.9450 B(  3-C ,  4-O ) :   0.8387 B(  3-C , 10-H ) :   0.9352
B(  3-C , 11-H ) :   0.9398 B( 12-C , 13-H ) :   0.9243 B( 12-C , 14-H ) :   0.9166
B( 12-C , 15-O ) :   0.8510 B( 12-C , 16-C ) :   0.8957 B( 16-C , 17-C ) :   0.8861
B( 16-C , 20-O ) :   0.8709 B( 16-C , 21-H ) :   0.9222 B( 17-C , 18-C ) :   0.9291
B( 17-C , 22-H ) :   0.9358 B( 17-C , 23-O ) :   0.9051 B( 18-C , 19-C ) :   0.9440
B( 18-C , 24-H ) :   0.9414 B( 18-C , 25-H ) :   0.9275 B( 19-C , 20-O ) :   0.8413
B( 19-C , 26-H ) :   0.9199 B( 19-C , 27-H ) :   0.9369 B( 23-O , 28-H ) :   0.7911

FINAL SINGLE POINT ENERGY      -652.863271162184

DIPOLE MOMENT
-------------
                                X             Y             Z
Electronic contribution:     -2.66229      -4.61425      -0.42602
Nuclear contribution   :      3.25608       5.57409       0.43354
                        -----------------------------------------
Total Dipole Moment    :      0.59378       0.95984       0.00752
                        -----------------------------------------
Magnitude (a.u.)       :      1.12868
Magnitude (Debye)      :      2.86888

Rotational constants in cm-1:     0.046962     0.015904     0.015218
Rotational constants in MHz :  1407.892714   476.783640   456.213616

                             ****ORCA TERMINATED NORMALLY****
TOTAL RUN TIME: 0 days 0 hours 19 minutes 5 seconds 941 msec
