                         Program Version 4.2.0 -  RELEASE  -
|  1> # Test redundant internal optimization
|  2> #
|  3> ! RKS B3LYP  Opt TightSCF SmallPrint
|  4>
|  5> %basis
|  6>         Basis "6-31G"
|  7> end
|  8>
|  9> %geom
| 10> Constraints
| 11> { D 4  0  15  12  195.0   C } # D for Dihedral angle
| 12> { D 0  15  12  16  30.0   C } # D for Dihedral angle
| 13> { D 0  4  3  2   C } # D for Dihedral angle
| 14> { D 4  3  2  1   C } # D for Dihedral angle
| 15> { D 3  2  1  0   C } # D for Dihedral angle
| 16> { D 2  1  0  4   C } # D for Dihedral angle
| 17> { D 1  0  4  3   C } # D for Dihedral angle
| 18> { D 16  20  19  18   C } # D for Dihedral angle
| 19> { D 20  19  18  17   C } # D for Dihedral angle
| 20> { D 19  18  17  16   C } # D for Dihedral angle
| 21> { D 18  17  16  20   C } # D for Dihedral angle
| 22> { D 17  16  20  19   C } # D for Dihedral angle
| 23> { D 15  12  16  20   C } # D for Dihedral angle
| 24> end
| 25> end
| 26>
| 27>
| 28> #%pal
| 29> #nprocs 8
| 30> #end
| 31>
| 32> * xyz 0 1
| 33> C  -21.048   26.222   46.251
| 34> C  -20.361   27.558   45.944
| 35> C  -20.329   28.222   47.341
| 36> C  -20.110   27.022   48.296
| 37> O  -20.473   25.807   47.535
| 38> H  -20.833   25.428   45.533
| 39> H  -19.344   27.382   45.576
| 40> H  -20.898   28.157   45.201
| 41> H  -19.543   28.978   47.434
| 42> H  -21.289   28.710   47.548
| 43> H  -20.733   27.082   49.195
| 44> H  -19.064   26.913   48.597
| 45> C  -23.353   26.472   45.026
| 46> H  -24.365   26.072   45.162
| 47> H  -23.437   27.514   44.692
| 48> O  -22.586   26.394   46.375
| 49> C  -22.658   25.668   43.893
| 50> C  -23.376   25.861   42.553
| 51> C  -22.843   27.244   42.108
| 52> C  -21.384   27.242   42.628
| 53> O  -21.305   26.182   43.655
| 54> H  -22.555   24.626   44.205
| 55> O  -22.940   24.757   41.550
| 56> H  -24.467   25.835   42.642
| 57> H  -22.900   27.392   41.025
| 58> H  -23.423   28.042   42.587
| 59> H  -21.098   28.199   43.078
| 60> H  -20.662   26.989   41.846
| 61> H  -21.849   24.765   41.445
| 62> *
| 63>
| 64>                          ****END OF INPUT****
 Total Charge           Charge          ....    0
 Multiplicity           Mult            ....    1
 Number of Electrons    NEL             ....  102
FINAL SINGLE POINT ENERGY      -652.824946516482
FINAL SINGLE POINT ENERGY      -652.847465388564
FINAL SINGLE POINT ENERGY      -652.853812152229
FINAL SINGLE POINT ENERGY      -652.856055806675
FINAL SINGLE POINT ENERGY      -652.856395655609
FINAL SINGLE POINT ENERGY      -652.856455484792
                    ***********************HURRAY********************

CARTESIAN COORDINATES (ANGSTROEM)
---------------------------------
  C    -20.883832   26.226512   46.255684
  C    -20.193791   27.576775   46.072086
  C    -20.391448   28.231194   47.461556
  C    -20.292124   27.026721   48.422270
  O    -20.509453   25.823222   47.581252
  H    -20.572334   25.444565   45.566614
  H    -19.130868   27.412785   45.859180
  H    -20.619207   28.163725   45.255677
  H    -19.643061   28.999856   47.677102
  H    -21.384326   28.687073   47.518037
  H    -21.046531   27.042046   49.213457
  H    -19.299107   26.920821   48.870275
  C    -23.117294   26.453817   45.041988
  H    -24.093113   26.026389   45.296423
  H    -23.268975   27.515776   44.791749
  O    -22.340509   26.369858   46.266879
  C    -22.568435   25.722655   43.812045
  C    -23.436608   25.892356   42.555454
  C    -22.930878   27.253281   42.004688
  C    -21.420173   27.232864   42.351818
  O    -21.241839   26.198289   43.401164
  H    -22.446115   24.660079   44.048549
  O    -23.213542   24.809452   41.613653
  H    -24.508875   25.880399   42.754989
  H    -23.120911   27.330264   40.931399
  H    -23.443846   28.080670   42.506455
  H    -21.059891   28.192737   42.733429
  H    -20.795510   26.939425   41.502576
  H    -22.253402   24.621395   41.554551

 Multiplicity           Mult            ....    1
 Number of Electrons    NEL             ....  102
 Basis Dimension        Dim             ....  149

ORBITAL ENERGIES
----------------

  NO   OCC          E(Eh)            E(eV)
   0   2.0000     -19.157295      -521.2965
   1   2.0000     -19.147167      -521.0209
   2   2.0000     -19.131257      -520.5880
   3   2.0000     -19.129850      -520.5497
   4   2.0000     -10.266911      -279.3769
   5   2.0000     -10.253035      -278.9993
   6   2.0000     -10.244445      -278.7655
   7   2.0000     -10.242665      -278.7171
   8   2.0000     -10.235785      -278.5299
   9   2.0000     -10.216454      -278.0038
  10   2.0000     -10.199489      -277.5422
  11   2.0000     -10.177942      -276.9559
  12   2.0000     -10.175152      -276.8800
  13   2.0000      -1.050582       -28.5878
  14   2.0000      -1.039889       -28.2968
  15   2.0000      -1.016811       -27.6688
  16   2.0000      -0.983154       -26.7530
  17   2.0000      -0.794318       -21.6145
  18   2.0000      -0.777473       -21.1561
  19   2.0000      -0.771922       -21.0051
  20   2.0000      -0.728885       -19.8340
  21   2.0000      -0.677845       -18.4451
  22   2.0000      -0.614942       -16.7334
  23   2.0000      -0.608121       -16.5478
  24   2.0000      -0.589699       -16.0465
  25   2.0000      -0.567339       -15.4381
  26   2.0000      -0.534787       -14.5523
  27   2.0000      -0.512278       -13.9398
  28   2.0000      -0.494871       -13.4661
  29   2.0000      -0.486102       -13.2275
  30   2.0000      -0.477280       -12.9875
  31   2.0000      -0.458645       -12.4804
  32   2.0000      -0.450025       -12.2458
  33   2.0000      -0.442640       -12.0448
  34   2.0000      -0.428157       -11.6508
  35   2.0000      -0.409210       -11.1352
  36   2.0000      -0.405258       -11.0276
  37   2.0000      -0.396930       -10.8010
  38   2.0000      -0.383007       -10.4221
  39   2.0000      -0.370783       -10.0895
  40   2.0000      -0.362419        -9.8619
  41   2.0000      -0.350990        -9.5509
  42   2.0000      -0.346261        -9.4222
  43   2.0000      -0.338816        -9.2196
  44   2.0000      -0.322651        -8.7798
  45   2.0000      -0.304213        -8.2781
  46   2.0000      -0.299130        -8.1397
  47   2.0000      -0.281601        -7.6628
  48   2.0000      -0.258090        -7.0230
  49   2.0000      -0.250006        -6.8030
  50   2.0000      -0.238718        -6.4958
  51   0.0000       0.051202         1.3933
  52   0.0000       0.077502         2.1089
  53   0.0000       0.086325         2.3490
  54   0.0000       0.091070         2.4781
  55   0.0000       0.099821         2.7163

MULLIKEN ATOMIC CHARGES
-----------------------
   0 C :    0.305711
   1 C :   -0.257206
   2 C :   -0.302161
   3 C :    0.000780
   4 O :   -0.506305
   5 H :    0.164582
   6 H :    0.142874
   7 H :    0.137050
   8 H :    0.136219
   9 H :    0.154675
  10 H :    0.150330
  11 H :    0.137997
  12 C :    0.019148
  13 H :    0.153420
  14 H :    0.121201
  15 O :   -0.527889
  16 C :    0.025245
  17 C :    0.078843
  18 C :   -0.294095
  19 C :   -0.032314
  20 O :   -0.526281
  21 H :    0.174260
  22 O :   -0.597620
  23 H :    0.160093
  24 H :    0.166368
  25 H :    0.147050
  26 H :    0.148085
  27 H :    0.153938
  28 H :    0.366004
Sum of atomic charges:    0.0000000

LOEWDIN ATOMIC CHARGES
----------------------
   0 C :    0.184158
   1 C :   -0.223396
   2 C :   -0.220146
   3 C :   -0.025588
   4 O :   -0.305904
   5 H :    0.108425
   6 H :    0.114182
   7 H :    0.110918
   8 H :    0.111276
   9 H :    0.115159
  10 H :    0.106862
  11 H :    0.100164
  12 C :   -0.038897
  13 H :    0.117324
  14 H :    0.088117
  15 O :   -0.337721
  16 C :   -0.001160
  17 C :    0.039456
  18 C :   -0.240275
  19 C :   -0.038255
  20 O :   -0.331062
  21 H :    0.119586
  22 O :   -0.410714
  23 H :    0.119417
  24 H :    0.128950
  25 H :    0.114753
  26 H :    0.104046
  27 H :    0.106042
  28 H :    0.284282

  Mayer bond orders larger than 0.100000
B(  0-C ,  1-C ) :   0.9339 B(  0-C ,  4-O ) :   0.9214 B(  0-C ,  5-H ) :   0.9134
B(  0-C , 15-O ) :   0.8157 B(  1-C ,  2-C ) :   0.9481 B(  1-C ,  6-H ) :   0.9369
B(  1-C ,  7-H ) :   0.9367 B(  2-C ,  3-C ) :   0.9547 B(  2-C ,  8-H ) :   0.9456
B(  2-C ,  9-H ) :   0.9454 B(  3-C ,  4-O ) :   0.8394 B(  3-C , 10-H ) :   0.9352
B(  3-C , 11-H ) :   0.9402 B( 12-C , 13-H ) :   0.9232 B( 12-C , 14-H ) :   0.9179
B( 12-C , 15-O ) :   0.8653 B( 12-C , 16-C ) :   0.8959 B( 16-C , 17-C ) :   0.8981
B( 16-C , 20-O ) :   0.8386 B( 16-C , 21-H ) :   0.9194 B( 17-C , 18-C ) :   0.9110
B( 17-C , 22-O ) :   0.8986 B( 17-C , 23-H ) :   0.9324 B( 18-C , 19-C ) :   0.9425
B( 18-C , 24-H ) :   0.9365 B( 18-C , 25-H ) :   0.9324 B( 19-C , 20-O ) :   0.8375
B( 19-C , 26-H ) :   0.9313 B( 19-C , 27-H ) :   0.9372 B( 22-O , 28-H ) :   0.7938

FINAL SINGLE POINT ENERGY      -652.856460761846

DIPOLE MOMENT
-------------
                                X             Y             Z
Electronic contribution:     -0.90772      -5.97910       0.10944
Nuclear contribution   :      1.01762       7.33700      -0.93799
                        -----------------------------------------
Total Dipole Moment    :      0.10990       1.35789      -0.82855
                        -----------------------------------------
Magnitude (a.u.)       :      1.59451
Magnitude (Debye)      :      4.05291

Rotational constants in cm-1:     0.065127     0.013380     0.012587
Rotational constants in MHz :  1952.443516   401.107339   377.337623

                             ****ORCA TERMINATED NORMALLY****
TOTAL RUN TIME: 0 days 0 hours 23 minutes 14 seconds 448 msec
