                         Program Version 4.2.0 -  RELEASE  -
|  1> # Test redundant internal optimization
|  2> #
|  3> ! RKS B3LYP  Opt TightSCF SmallPrint
|  4>
|  5> %basis
|  6>         Basis "6-31G"
|  7> end
|  8>
|  9> %geom
| 10> Constraints
| 11> { D 4  0  15  12  255.0   C } # D for Dihedral angle
| 12> { D 0  15  12  16  210.0   C } # D for Dihedral angle
| 13> { D 0  4  3  2   C } # D for Dihedral angle
| 14> { D 4  3  2  1   C } # D for Dihedral angle
| 15> { D 3  2  1  0   C } # D for Dihedral angle
| 16> { D 2  1  0  4   C } # D for Dihedral angle
| 17> { D 1  0  4  3   C } # D for Dihedral angle
| 18> { D 16  20  19  18   C } # D for Dihedral angle
| 19> { D 20  19  18  17   C } # D for Dihedral angle
| 20> { D 19  18  17  16   C } # D for Dihedral angle
| 21> { D 18  17  16  20   C } # D for Dihedral angle
| 22> { D 17  16  20  19   C } # D for Dihedral angle
| 23> { D 15  12  16  20   C } # D for Dihedral angle
| 24> end
| 25> end
| 26>
| 27>
| 28> #%pal
| 29> #nprocs 8
| 30> #end
| 31>
| 32> * xyz 0 1
| 33> C  -21.048   26.222   46.251
| 34> C  -20.361   27.558   45.944
| 35> C  -20.329   28.222   47.341
| 36> C  -20.110   27.022   48.296
| 37> O  -20.473   25.807   47.535
| 38> H  -20.833   25.428   45.533
| 39> H  -19.344   27.382   45.576
| 40> H  -20.898   28.157   45.201
| 41> H  -19.543   28.978   47.434
| 42> H  -21.289   28.710   47.548
| 43> H  -20.733   27.082   49.195
| 44> H  -19.064   26.913   48.597
| 45> C  -23.431   25.260   45.734
| 46> H  -22.879   24.831   44.888
| 47> H  -23.617   24.460   46.462
| 48> O  -22.586   26.394   46.375
| 49> C  -24.809   25.757   45.215
| 50> C  -25.661   24.594   44.696
| 51> C  -26.202   23.988   46.013
| 52> C  -26.402   25.231   46.915
| 53> O  -25.599   26.319   46.317
| 54> H  -24.651   26.560   44.493
| 55> O  -26.826   25.135   43.822
| 56> H  -25.089   23.874   44.101
| 57> H  -27.128   23.422   45.871
| 58> H  -25.458   23.310   46.448
| 59> H  -26.065   25.061   47.944
| 60> H  -27.441   25.571   46.934
| 61> H  -27.413   25.858   44.398
| 62> *
| 63>
| 64>                          ****END OF INPUT****
 Total Charge           Charge          ....    0
 Multiplicity           Mult            ....    1
 Number of Electrons    NEL             ....  102
FINAL SINGLE POINT ENERGY      -652.832901924275
FINAL SINGLE POINT ENERGY      -652.856215755260
FINAL SINGLE POINT ENERGY      -652.860291157956
FINAL SINGLE POINT ENERGY      -652.860985472728
FINAL SINGLE POINT ENERGY      -652.861061742859
FINAL SINGLE POINT ENERGY      -652.861072423253
FINAL SINGLE POINT ENERGY      -652.861074581003
                    ***********************HURRAY********************

CARTESIAN COORDINATES (ANGSTROEM)
---------------------------------
  C    -21.074156   26.138249   46.193885
  C    -20.541993   27.541869   45.903157
  C    -20.573363   28.191873   47.307354
  C    -20.218063   27.013753   48.241312
  O    -20.457272   25.781150   47.450296
  H    -20.796537   25.364740   45.471167
  H    -19.513880   27.470424   45.528478
  H    -21.154118   28.069305   45.168930
  H    -19.871803   29.026080   47.401999
  H    -21.582371   28.558138   47.517256
  H    -20.838258   26.979169   49.140327
  H    -19.162151   27.001630   48.528529
  C    -23.303593   25.146070   45.760858
  H    -22.793108   24.708905   44.888081
  H    -23.431696   24.356178   46.513266
  O    -22.512178   26.226734   46.318002
  C    -24.649487   25.711795   45.316264
  C    -25.608564   24.657230   44.746345
  C    -26.230207   24.062168   46.038313
  C    -26.316512   25.289374   46.979677
  O    -25.395094   26.311009   46.425660
  H    -24.469680   26.517389   44.598320
  O    -26.615726   25.280112   43.902019
  H    -25.125693   23.909858   44.114908
  H    -27.204694   23.616010   45.825728
  H    -25.577900   23.285159   46.452536
  H    -26.015123   25.058635   48.005756
  H    -27.316738   25.733279   47.000472
  H    -26.932041   26.099717   44.338104

 Multiplicity           Mult            ....    1
 Number of Electrons    NEL             ....  102
 Basis Dimension        Dim             ....  149

ORBITAL ENERGIES
----------------

  NO   OCC          E(Eh)            E(eV)
   0   2.0000     -19.140811      -520.8479
   1   2.0000     -19.140542      -520.8406
   2   2.0000     -19.140356      -520.8356
   3   2.0000     -19.134273      -520.6700
   4   2.0000     -10.277155      -279.6556
   5   2.0000     -10.244750      -278.7738
   6   2.0000     -10.235167      -278.5130
   7   2.0000     -10.234795      -278.5029
   8   2.0000     -10.230029      -278.3732
   9   2.0000     -10.219947      -278.0989
  10   2.0000     -10.190620      -277.3009
  11   2.0000     -10.181225      -277.0452
  12   2.0000     -10.180008      -277.0121
  13   2.0000      -1.050601       -28.5883
  14   2.0000      -1.036464       -28.2036
  15   2.0000      -1.006900       -27.3992
  16   2.0000      -0.991680       -26.9850
  17   2.0000      -0.788841       -21.4654
  18   2.0000      -0.780075       -21.2269
  19   2.0000      -0.767217       -20.8770
  20   2.0000      -0.728214       -19.8157
  21   2.0000      -0.673871       -18.3370
  22   2.0000      -0.605728       -16.4827
  23   2.0000      -0.594725       -16.1833
  24   2.0000      -0.591393       -16.0926
  25   2.0000      -0.583904       -15.8888
  26   2.0000      -0.527612       -14.3571
  27   2.0000      -0.511436       -13.9169
  28   2.0000      -0.494088       -13.4448
  29   2.0000      -0.486634       -13.2420
  30   2.0000      -0.474086       -12.9005
  31   2.0000      -0.457961       -12.4618
  32   2.0000      -0.450481       -12.2582
  33   2.0000      -0.439802       -11.9676
  34   2.0000      -0.426322       -11.6008
  35   2.0000      -0.407548       -11.0899
  36   2.0000      -0.396719       -10.7953
  37   2.0000      -0.394195       -10.7266
  38   2.0000      -0.373529       -10.1642
  39   2.0000      -0.369214       -10.0468
  40   2.0000      -0.361452        -9.8356
  41   2.0000      -0.352186        -9.5835
  42   2.0000      -0.346085        -9.4174
  43   2.0000      -0.330935        -9.0052
  44   2.0000      -0.317068        -8.6279
  45   2.0000      -0.309116        -8.4115
  46   2.0000      -0.300319        -8.1721
  47   2.0000      -0.272662        -7.4195
  48   2.0000      -0.264693        -7.2027
  49   2.0000      -0.252138        -6.8610
  50   2.0000      -0.238164        -6.4808
  51   0.0000       0.065367         1.7787
  52   0.0000       0.080481         2.1900
  53   0.0000       0.089238         2.4283
  54   0.0000       0.099432         2.7057
  55   0.0000       0.102342         2.7849

MULLIKEN ATOMIC CHARGES
-----------------------
   0 C :    0.280090
   1 C :   -0.252801
   2 C :   -0.299913
   3 C :   -0.000170
   4 O :   -0.506576
   5 H :    0.136608
   6 H :    0.141109
   7 H :    0.149759
   8 H :    0.138307
   9 H :    0.170321
  10 H :    0.150361
  11 H :    0.138955
  12 C :    0.008255
  13 H :    0.120669
  14 H :    0.141828
  15 O :   -0.507370
  16 C :    0.067986
  17 C :    0.074090
  18 C :   -0.296105
  19 C :   -0.030449
  20 O :   -0.508411
  21 H :    0.162600
  22 O :   -0.602017
  23 H :    0.150157
  24 H :    0.163144
  25 H :    0.145174
  26 H :    0.152463
  27 H :    0.145277
  28 H :    0.366659
Sum of atomic charges:   -0.0000000

LOEWDIN ATOMIC CHARGES
----------------------
   0 C :    0.173339
   1 C :   -0.218414
   2 C :   -0.216255
   3 C :   -0.026490
   4 O :   -0.323972
   5 H :    0.095889
   6 H :    0.111615
   7 H :    0.120208
   8 H :    0.112441
   9 H :    0.123213
  10 H :    0.107254
  11 H :    0.100696
  12 C :   -0.037051
  13 H :    0.093611
  14 H :    0.100059
  15 O :   -0.318995
  16 C :    0.015924
  17 C :    0.034804
  18 C :   -0.241414
  19 C :   -0.038208
  20 O :   -0.320167
  21 H :    0.118038
  22 O :   -0.414585
  23 H :    0.114511
  24 H :    0.126940
  25 H :    0.113310
  26 H :    0.107399
  27 H :    0.102010
  28 H :    0.284289

  Mayer bond orders larger than 0.100000
B(  0-C ,  1-C ) :   0.9447 B(  0-C ,  4-O ) :   0.9249 B(  0-C ,  5-H ) :   0.9181
B(  0-C , 15-O ) :   0.8546 B(  1-C ,  2-C ) :   0.9586 B(  1-C ,  6-H ) :   0.9388
B(  1-C ,  7-H ) :   0.9377 B(  2-C ,  3-C ) :   0.9547 B(  2-C ,  8-H ) :   0.9453
B(  2-C ,  9-H ) :   0.9422 B(  3-C ,  4-O ) :   0.8379 B(  3-C , 10-H ) :   0.9352
B(  3-C , 11-H ) :   0.9401 B( 12-C , 13-H ) :   0.9111 B( 12-C , 14-H ) :   0.9190
B( 12-C , 15-O ) :   0.8451 B( 12-C , 16-C ) :   0.8990 B( 16-C , 17-C ) :   0.8986
B( 16-C , 20-O ) :   0.8687 B( 16-C , 21-H ) :   0.9247 B( 17-C , 18-C ) :   0.9113
B( 17-C , 22-O ) :   0.8955 B( 17-C , 23-H ) :   0.9334 B( 18-C , 19-C ) :   0.9398
B( 18-C , 24-H ) :   0.9372 B( 18-C , 25-H ) :   0.9335 B( 19-C , 20-O ) :   0.8505
B( 19-C , 26-H ) :   0.9335 B( 19-C , 27-H ) :   0.9377 B( 22-O , 28-H ) :   0.7925

FINAL SINGLE POINT ENERGY      -652.861074738517

DIPOLE MOMENT
-------------
                                X             Y             Z
Electronic contribution:     -1.79108      -0.62589      -1.32306
Nuclear contribution   :      1.98511       0.53544       1.34004
                        -----------------------------------------
Total Dipole Moment    :      0.19403      -0.09045       0.01697
                        -----------------------------------------
Magnitude (a.u.)       :      0.21475
Magnitude (Debye)      :      0.54585

Rotational constants in cm-1:     0.064597     0.011176     0.010867
Rotational constants in MHz :  1936.573817   335.033276   325.775405

                             ****ORCA TERMINATED NORMALLY****
TOTAL RUN TIME: 0 days 1 hours 14 minutes 18 seconds 920 msec
