                         Program Version 4.2.0 -  RELEASE  -
|  1> # Test redundant internal optimization
|  2> #
|  3> ! RKS B3LYP  Opt TightSCF SmallPrint
|  4>
|  5> %basis
|  6>         Basis "6-31G"
|  7> end
|  8>
|  9> %geom
| 10> Constraints
| 11> { D 4  0  15  12  315.0   C } # D for Dihedral angle
| 12> { D 0  15  12  16  210.0   C } # D for Dihedral angle
| 13> { D 0  4  3  2   C } # D for Dihedral angle
| 14> { D 4  3  2  1   C } # D for Dihedral angle
| 15> { D 3  2  1  0   C } # D for Dihedral angle
| 16> { D 2  1  0  4   C } # D for Dihedral angle
| 17> { D 1  0  4  3   C } # D for Dihedral angle
| 18> { D 16  20  19  18   C } # D for Dihedral angle
| 19> { D 20  19  18  17   C } # D for Dihedral angle
| 20> { D 19  18  17  16   C } # D for Dihedral angle
| 21> { D 18  17  16  20   C } # D for Dihedral angle
| 22> { D 17  16  20  19   C } # D for Dihedral angle
| 23> { D 15  12  16  20   C } # D for Dihedral angle
| 24> end
| 25> end
| 26>
| 27>
| 28> #%pal
| 29> #nprocs 8
| 30> #end
| 31>
| 32> * xyz 0 1
| 33> C  -21.048   26.222   46.251
| 34> C  -20.361   27.558   45.944
| 35> C  -20.329   28.222   47.341
| 36> C  -20.110   27.022   48.296
| 37> O  -20.473   25.807   47.535
| 38> H  -20.833   25.428   45.533
| 39> H  -19.344   27.382   45.576
| 40> H  -20.898   28.157   45.201
| 41> H  -19.543   28.978   47.434
| 42> H  -21.289   28.710   47.548
| 43> H  -20.733   27.082   49.195
| 44> H  -19.064   26.913   48.597
| 45> C  -23.319   25.255   47.135
| 46> H  -22.766   24.316   47.001
| 47> H  -23.363   25.476   48.209
| 48> O  -22.586   26.394   46.375
| 49> C  -24.775   25.040   46.636
| 50> C  -25.504   23.991   47.483
| 51> C  -25.890   24.812   48.736
| 52> C  -26.192   26.217   48.156
| 53> O  -25.564   26.262   46.818
| 54> H  -24.758   24.825   45.566
| 55> O  -26.774   23.494   46.740
| 56> H  -24.881   23.121   47.721
| 57> H  -26.746   24.390   49.273
| 58> H  -25.045   24.855   49.433
| 59> H  -25.779   27.023   48.774
| 60> H  -27.262   26.390   48.017
| 61> H  -27.413   24.349   46.492
| 62> *
| 63>
| 64>                          ****END OF INPUT****
 Total Charge           Charge          ....    0
 Multiplicity           Mult            ....    1
 Number of Electrons    NEL             ....  102
FINAL SINGLE POINT ENERGY      -652.835481286961
FINAL SINGLE POINT ENERGY      -652.859534025889
FINAL SINGLE POINT ENERGY      -652.863534842713
FINAL SINGLE POINT ENERGY      -652.864267325176
FINAL SINGLE POINT ENERGY      -652.864370465058
FINAL SINGLE POINT ENERGY      -652.864382519579
                    ***********************HURRAY********************

CARTESIAN COORDINATES (ANGSTROEM)
---------------------------------
  C    -21.136764   26.145417   46.284692
  C    -20.558119   27.517596   45.940882
  C    -20.460684   28.174351   47.334323
  C    -20.099581   26.992920   48.261735
  O    -20.452683   25.760585   47.503864
  H    -20.933507   25.341298   45.568944
  H    -19.567560   27.388277   45.490278
  H    -21.197716   28.069697   45.249136
  H    -19.713344   28.973158   47.371845
  H    -21.432420   28.595738   47.607058
  H    -20.654520   26.999607   49.203652
  H    -19.028552   26.929470   48.475641
  C    -23.214824   25.243449   47.224194
  H    -22.689573   24.287511   47.084087
  H    -23.179996   25.489580   48.292012
  O    -22.561168   26.298785   46.463273
  C    -24.648263   25.110223   46.720172
  C    -25.473432   24.055112   47.471858
  C    -25.936852   24.848250   48.722544
  C    -26.151433   26.278723   48.167477
  O    -25.416108   26.348296   46.882912
  H    -24.624542   24.905254   45.645803
  O    -26.600614   23.610814   46.667459
  H    -24.919343   23.147761   47.716731
  H    -26.845604   24.410320   49.142215
  H    -25.157246   24.831460   49.492744
  H    -25.770956   27.054623   48.838961
  H    -27.203304   26.491320   47.951180
  H    -27.013295   24.391403   46.240326

 Multiplicity           Mult            ....    1
 Number of Electrons    NEL             ....  102
 Basis Dimension        Dim             ....  149

ORBITAL ENERGIES
----------------

  NO   OCC          E(Eh)            E(eV)
   0   2.0000     -19.143018      -520.9080
   1   2.0000     -19.140317      -520.8345
   2   2.0000     -19.138435      -520.7833
   3   2.0000     -19.137997      -520.7714
   4   2.0000     -10.276896      -279.6486
   5   2.0000     -10.241997      -278.6989
   6   2.0000     -10.231769      -278.4206
   7   2.0000     -10.228953      -278.3440
   8   2.0000     -10.228620      -278.3349
   9   2.0000     -10.226979      -278.2903
  10   2.0000     -10.189051      -277.2582
  11   2.0000     -10.184593      -277.1369
  12   2.0000     -10.183616      -277.1103
  13   2.0000      -1.054527       -28.6951
  14   2.0000      -1.034545       -28.1514
  15   2.0000      -1.004927       -27.3455
  16   2.0000      -0.991148       -26.9705
  17   2.0000      -0.790692       -21.5158
  18   2.0000      -0.780822       -21.2472
  19   2.0000      -0.766026       -20.8446
  20   2.0000      -0.730137       -19.8680
  21   2.0000      -0.671563       -18.2742
  22   2.0000      -0.603897       -16.4329
  23   2.0000      -0.600005       -16.3270
  24   2.0000      -0.591056       -16.0834
  25   2.0000      -0.577440       -15.7129
  26   2.0000      -0.527370       -14.3505
  27   2.0000      -0.507195       -13.8015
  28   2.0000      -0.494250       -13.4492
  29   2.0000      -0.490307       -13.3419
  30   2.0000      -0.474052       -12.8996
  31   2.0000      -0.458029       -12.4636
  32   2.0000      -0.450679       -12.2636
  33   2.0000      -0.440427       -11.9846
  34   2.0000      -0.416028       -11.3207
  35   2.0000      -0.410229       -11.1629
  36   2.0000      -0.401934       -10.9372
  37   2.0000      -0.392802       -10.6887
  38   2.0000      -0.371670       -10.1137
  39   2.0000      -0.367264        -9.9938
  40   2.0000      -0.359628        -9.7860
  41   2.0000      -0.356460        -9.6998
  42   2.0000      -0.346835        -9.4379
  43   2.0000      -0.338652        -9.2152
  44   2.0000      -0.323802        -8.8111
  45   2.0000      -0.306444        -8.3388
  46   2.0000      -0.298026        -8.1097
  47   2.0000      -0.270384        -7.3575
  48   2.0000      -0.263640        -7.1740
  49   2.0000      -0.256430        -6.9778
  50   2.0000      -0.240138        -6.5345
  51   0.0000       0.066585         1.8119
  52   0.0000       0.083191         2.2638
  53   0.0000       0.091721         2.4959
  54   0.0000       0.101092         2.7508
  55   0.0000       0.104064         2.8317

MULLIKEN ATOMIC CHARGES
-----------------------
   0 C :    0.286436
   1 C :   -0.261484
   2 C :   -0.300252
   3 C :   -0.009314
   4 O :   -0.516458
   5 H :    0.144581
   6 H :    0.143802
   7 H :    0.165050
   8 H :    0.141862
   9 H :    0.165271
  10 H :    0.142616
  11 H :    0.145626
  12 C :    0.011231
  13 H :    0.137883
  14 H :    0.136843
  15 O :   -0.516695
  16 C :    0.067613
  17 C :    0.074558
  18 C :   -0.297230
  19 C :   -0.030058
  20 O :   -0.510507
  21 H :    0.162777
  22 O :   -0.601578
  23 H :    0.152002
  24 H :    0.161473
  25 H :    0.145647
  26 H :    0.147781
  27 H :    0.145018
  28 H :    0.365507
Sum of atomic charges:   -0.0000000

LOEWDIN ATOMIC CHARGES
----------------------
   0 C :    0.173602
   1 C :   -0.214151
   2 C :   -0.216755
   3 C :   -0.029807
   4 O :   -0.332032
   5 H :    0.095376
   6 H :    0.113558
   7 H :    0.128352
   8 H :    0.114049
   9 H :    0.120671
  10 H :    0.102560
  11 H :    0.104005
  12 C :   -0.038972
  13 H :    0.104122
  14 H :    0.099273
  15 O :   -0.321931
  16 C :    0.016168
  17 C :    0.034835
  18 C :   -0.241870
  19 C :   -0.038790
  20 O :   -0.321448
  21 H :    0.118661
  22 O :   -0.414308
  23 H :    0.115470
  24 H :    0.126179
  25 H :    0.113171
  26 H :    0.104683
  27 H :    0.101701
  28 H :    0.283628

  Mayer bond orders larger than 0.100000
B(  0-C ,  1-C ) :   0.9507 B(  0-C ,  4-O ) :   0.8915 B(  0-C ,  5-H ) :   0.9192
B(  0-C , 15-O ) :   0.8654 B(  1-C ,  2-C ) :   0.9543 B(  1-C ,  6-H ) :   0.9391
B(  1-C ,  7-H ) :   0.9346 B(  2-C ,  3-C ) :   0.9560 B(  2-C ,  8-H ) :   0.9449
B(  2-C ,  9-H ) :   0.9437 B(  3-C ,  4-O ) :   0.8354 B(  3-C , 10-H ) :   0.9359
B(  3-C , 11-H ) :   0.9404 B( 12-C , 13-H ) :   0.9117 B( 12-C , 14-H ) :   0.9248
B( 12-C , 15-O ) :   0.8240 B( 12-C , 16-C ) :   0.8987 B( 16-C , 17-C ) :   0.8986
B( 16-C , 20-O ) :   0.8619 B( 16-C , 21-H ) :   0.9248 B( 17-C , 18-C ) :   0.9117
B( 17-C , 22-O ) :   0.8943 B( 17-C , 23-H ) :   0.9333 B( 18-C , 19-C ) :   0.9389
B( 18-C , 24-H ) :   0.9376 B( 18-C , 25-H ) :   0.9340 B( 19-C , 20-O ) :   0.8530
B( 19-C , 26-H ) :   0.9342 B( 19-C , 27-H ) :   0.9378 B( 22-O , 28-H ) :   0.7936

FINAL SINGLE POINT ENERGY      -652.864384068206

DIPOLE MOMENT
-------------
                                X             Y             Z
Electronic contribution:     -2.39730      -2.74513      -3.25512
Nuclear contribution   :      2.83489       3.27719       3.92307
                        -----------------------------------------
Total Dipole Moment    :      0.43759       0.53205       0.66794
                        -----------------------------------------
Magnitude (a.u.)       :      0.95954
Magnitude (Debye)      :      2.43896

Rotational constants in cm-1:     0.061717     0.011796     0.011572
Rotational constants in MHz :  1850.218317   353.631656   346.919807

                             ****ORCA TERMINATED NORMALLY****
TOTAL RUN TIME: 0 days 0 hours 21 minutes 22 seconds 704 msec
