                         Program Version 4.2.1 -  RELEASE  -
|  1> # Test redundant internal optimization
|  2> #
|  3> ! RKS B3LYP  Opt TightSCF SmallPrint
|  4>
|  5> %basis
|  6>         Basis "6-31G"
|  7> end
|  8>
|  9> %geom
| 10> Constraints
| 11> { D 4  0  19  14  270.0   C } # D for Dihedral angle
| 12> { D 0  19  14  12  195.0   C } # D for Dihedral angle
| 13> { D 0  4  3  2   C } # D for Dihedral angle
| 14> { D 4  3  2  1   C } # D for Dihedral angle
| 15> { D 3  2  1  0   C } # D for Dihedral angle
| 16> { D 2  1  0  4   C } # D for Dihedral angle
| 17> { D 1  0  4  3   C } # D for Dihedral angle
| 18> { D 14  15  16  17   C } # D for Dihedral angle
| 19> { D 15  16  17  12   C } # D for Dihedral angle
| 20> { D 16  17  12  14   C } # D for Dihedral angle
| 21> { D 17  12  14  15   C } # D for Dihedral angle
| 22> { D 12  14  15  16   C } # D for Dihedral angle
| 23> end
| 24> end
| 25>
| 26>
| 27> #%pal
| 28> #nprocs 8
| 29> #end
| 30>
| 31> * xyz 0 1
| 32> C  -21.048   26.222   46.251
| 33> C  -20.361   27.558   45.944
| 34> C  -20.329   28.222   47.341
| 35> C  -20.110   27.022   48.296
| 36> O  -20.473   25.807   47.535
| 37> H  -20.833   25.428   45.533
| 38> H  -19.344   27.382   45.576
| 39> H  -20.898   28.157   45.201
| 40> H  -19.543   28.978   47.434
| 41> H  -21.289   28.710   47.548
| 42> H  -20.733   27.082   49.195
| 43> H  -19.064   26.913   48.597
| 44> C  -24.702   25.543   45.866
| 45> H  -25.342   24.650   45.936
| 46> C  -23.226   25.191   46.082
| 47> C  -22.835   24.613   44.703
| 48> C  -23.668   25.466   43.714
| 49> O  -24.745   26.098   44.508
| 50> H  -25.087   26.313   46.537
| 51> O  -22.472   26.381   46.366
| 52> H  -23.069   24.480   46.901
| 53> H  -21.760   24.675   44.505
| 54> H  -23.126   23.556   44.640
| 55> H  -24.116   24.866   42.914
| 56> H  -23.083   26.275   43.264
| 57> *
| 58>
| 59>                          ****END OF INPUT****
 Total Charge           Charge          ....    0
 Multiplicity           Mult            ....    1
 Number of Electrons    NEL             ....   86
FINAL SINGLE POINT ENERGY      -538.426133598399
FINAL SINGLE POINT ENERGY      -538.432909111785
FINAL SINGLE POINT ENERGY      -538.433962774428
FINAL SINGLE POINT ENERGY      -538.434147883497
FINAL SINGLE POINT ENERGY      -538.434158925302
FINAL SINGLE POINT ENERGY      -538.434163582703
                    ***********************HURRAY********************

CARTESIAN COORDINATES (ANGSTROEM)
---------------------------------
  C    -20.917610   26.210884   46.218234
  C    -20.387021   27.625874   45.979050
  C    -20.443828   28.230709   47.402170
  C    -20.097846   27.025518   48.306148
  O    -20.317211   25.815174   47.477153
  H    -20.609832   25.462898   45.486523
  H    -19.353529   27.569804   45.617879
  H    -20.992856   28.172159   45.253634
  H    -19.746719   29.063540   47.534400
  H    -21.456895   28.588493   47.606640
  H    -20.729632   26.964098   49.196096
  H    -19.046414   27.011137   48.609445
  C    -24.604392   25.678595   45.867269
  H    -25.346807   24.878124   45.999095
  C    -23.185682   25.137793   46.038910
  C    -22.934231   24.483035   44.669541
  C    -23.682520   25.412454   43.684639
  O    -24.631101   26.202265   44.497952
  H    -24.819220   26.506522   46.543451
  O    -22.349928   26.307344   46.319812
  H    -23.093712   24.423055   46.866147
  H    -21.877933   24.359734   44.419420
  H    -23.381246   23.482156   44.681913
  H    -24.236325   24.853839   42.921909
  H    -23.013510   26.122798   43.189569

 Multiplicity           Mult            ....    1
 Number of Electrons    NEL             ....   86
 Basis Dimension        Dim             ....  127

ORBITAL ENERGIES
----------------

  NO   OCC          E(Eh)            E(eV)
   0   2.0000     -19.141672      -520.8714
   1   2.0000     -19.134553      -520.6777
   2   2.0000     -19.128771      -520.5203
   3   2.0000     -10.276365      -279.6341
   4   2.0000     -10.241106      -278.6747
   5   2.0000     -10.223889      -278.2062
   6   2.0000     -10.221640      -278.1450
   7   2.0000     -10.221172      -278.1322
   8   2.0000     -10.191827      -277.3337
   9   2.0000     -10.181706      -277.0583
  10   2.0000     -10.181234      -277.0455
  11   2.0000      -1.050985       -28.5988
  12   2.0000      -1.013727       -27.5849
  13   2.0000      -0.987356       -26.8673
  14   2.0000      -0.791491       -21.5376
  15   2.0000      -0.775534       -21.1034
  16   2.0000      -0.745460       -20.2850
  17   2.0000      -0.717599       -19.5269
  18   2.0000      -0.613697       -16.6995
  19   2.0000      -0.600614       -16.3435
  20   2.0000      -0.593588       -16.1523
  21   2.0000      -0.567576       -15.4445
  22   2.0000      -0.527613       -14.3571
  23   2.0000      -0.499845       -13.6015
  24   2.0000      -0.485161       -13.2019
  25   2.0000      -0.477081       -12.9820
  26   2.0000      -0.456608       -12.4249
  27   2.0000      -0.435551       -11.8519
  28   2.0000      -0.427754       -11.6398
  29   2.0000      -0.419245       -11.4082
  30   2.0000      -0.399284       -10.8651
  31   2.0000      -0.384413       -10.4604
  32   2.0000      -0.376702       -10.2506
  33   2.0000      -0.366237        -9.9658
  34   2.0000      -0.360600        -9.8124
  35   2.0000      -0.352458        -9.5909
  36   2.0000      -0.342136        -9.3100
  37   2.0000      -0.321038        -8.7359
  38   2.0000      -0.302610        -8.2344
  39   2.0000      -0.296662        -8.0726
  40   2.0000      -0.267406        -7.2765
  41   2.0000      -0.245885        -6.6909
  42   2.0000      -0.235951        -6.4205
  43   0.0000       0.077729         2.1151
  44   0.0000       0.095060         2.5867
  45   0.0000       0.100766         2.7420
  46   0.0000       0.114126         3.1055
  47   0.0000       0.116877         3.1804

MULLIKEN ATOMIC CHARGES
-----------------------
   0 C :    0.284521
   1 C :   -0.255764
   2 C :   -0.297061
   3 C :   -0.001358
   4 O :   -0.512786
   5 H :    0.137936
   6 H :    0.140910
   7 H :    0.158038
   8 H :    0.138725
   9 H :    0.164161
  10 H :    0.146302
  11 H :    0.139577
  12 C :   -0.003075
  13 H :    0.125984
  14 C :    0.087140
  15 C :   -0.325323
  16 C :    0.010016
  17 O :   -0.518347
  18 H :    0.170102
  19 O :   -0.520284
  20 H :    0.145892
  21 H :    0.152620
  22 H :    0.151102
  23 H :    0.135740
  24 H :    0.145233
Sum of atomic charges:   -0.0000000

LOEWDIN ATOMIC CHARGES
----------------------
   0 C :    0.170941
   1 C :   -0.216045
   2 C :   -0.215601
   3 C :   -0.027645
   4 O :   -0.330798
   5 H :    0.095274
   6 H :    0.111525
   7 H :    0.124364
   8 H :    0.112489
   9 H :    0.120090
  10 H :    0.104841
  11 H :    0.100988
  12 C :   -0.033893
  13 H :    0.091934
  14 C :    0.041990
  15 C :   -0.240685
  16 C :   -0.027977
  17 O :   -0.329007
  18 H :    0.124404
  19 O :   -0.320613
  20 H :    0.104385
  21 H :    0.118049
  22 H :    0.118744
  23 H :    0.098907
  24 H :    0.103340

  Mayer bond orders larger than 0.100000
B(  0-C ,  1-C ) :   0.9476 B(  0-C ,  4-O ) :   0.9095 B(  0-C ,  5-H ) :   0.9118
B(  0-C , 19-O ) :   0.8617 B(  1-C ,  2-C ) :   0.9581 B(  1-C ,  6-H ) :   0.9405
B(  1-C ,  7-H ) :   0.9355 B(  2-C ,  3-C ) :   0.9544 B(  2-C ,  8-H ) :   0.9454
B(  2-C ,  9-H ) :   0.9437 B(  3-C ,  4-O ) :   0.8401 B(  3-C , 10-H ) :   0.9357
B(  3-C , 11-H ) :   0.9403 B( 12-C , 13-H ) :   0.9160 B( 12-C , 14-C ) :   0.9331
B( 12-C , 17-O ) :   0.8687 B( 12-C , 18-H ) :   0.9296 B( 14-C , 15-C ) :   0.9354
B( 14-C , 19-O ) :   0.8312 B( 14-C , 20-H ) :   0.9213 B( 15-C , 16-C ) :   0.9413
B( 15-C , 21-H ) :   0.9298 B( 15-C , 22-H ) :   0.9353 B( 16-C , 17-O ) :   0.8631
B( 16-C , 23-H ) :   0.9334 B( 16-C , 24-H ) :   0.9370

FINAL SINGLE POINT ENERGY      -538.434163778821

DIPOLE MOMENT
-------------
                                X             Y             Z
Electronic contribution:     -1.69051      -1.00114       0.54057
Nuclear contribution   :      2.21671       0.72013      -0.61788
                        -----------------------------------------
Total Dipole Moment    :      0.52619      -0.28101      -0.07731
                        -----------------------------------------
Magnitude (a.u.)       :      0.60152
Magnitude (Debye)      :      1.52894

Rotational constants in cm-1:     0.082927     0.020137     0.019815
Rotational constants in MHz :  2486.090771   603.679629   594.048900

                             ****ORCA TERMINATED NORMALLY****
TOTAL RUN TIME: 0 days 0 hours 7 minutes 3 seconds 722 msec
