                         Program Version 4.2.0 -  RELEASE  -
|  1> # Test redundant internal optimization
|  2> #
|  3> ! RKS B3LYP  Opt TightSCF SmallPrint
|  4>
|  5> %basis
|  6>         Basis "6-31G"
|  7> end
|  8>
|  9> %geom
| 10> Constraints
| 11> { D 4  0  15  12  285.0   C } # D for Dihedral angle
| 12> { D 0  15  12  16  120.0   C } # D for Dihedral angle
| 13> { D 0  4  3  2   C } # D for Dihedral angle
| 14> { D 4  3  2  1   C } # D for Dihedral angle
| 15> { D 3  2  1  0   C } # D for Dihedral angle
| 16> { D 2  1  0  4   C } # D for Dihedral angle
| 17> { D 1  0  4  3   C } # D for Dihedral angle
| 18> { D 16  20  19  18   C } # D for Dihedral angle
| 19> { D 20  19  18  17   C } # D for Dihedral angle
| 20> { D 19  18  17  16   C } # D for Dihedral angle
| 21> { D 18  17  16  20   C } # D for Dihedral angle
| 22> { D 17  16  20  19   C } # D for Dihedral angle
| 23> { D 15  12  16  20   C } # D for Dihedral angle
| 24> end
| 25> end
| 26>
| 27>
| 28> #%pal
| 29> #nprocs 8
| 30> #end
| 31>
| 32> * xyz 0 1
| 33> C  -21.048   26.222   46.251
| 34> C  -20.361   27.558   45.944
| 35> C  -20.329   28.222   47.341
| 36> C  -20.110   27.022   48.296
| 37> O  -20.473   25.807   47.535
| 38> H  -20.833   25.428   45.533
| 39> H  -19.344   27.382   45.576
| 40> H  -20.898   28.157   45.201
| 41> H  -19.543   28.978   47.434
| 42> H  -21.289   28.710   47.548
| 43> H  -20.733   27.082   49.195
| 44> H  -19.064   26.913   48.597
| 45> C  -23.396   25.070   46.435
| 46> H  -24.090   25.031   45.586
| 47> H  -22.723   24.205   46.368
| 48> O  -22.586   26.394   46.375
| 49> C  -24.219   24.928   47.746
| 50> C  -23.323   25.063   48.983
| 51> C  -23.148   26.598   49.077
| 52> C  -24.519   27.138   48.598
| 53> O  -25.177   26.031   47.871
| 54> H  -24.798   24.004   47.707
| 55> O  -24.060   24.519   50.236
| 56> H  -22.370   24.533   48.885
| 57> H  -22.896   26.936   50.087
| 58> H  -22.347   26.928   48.404
| 59> H  -24.421   27.999   47.929
| 60> H  -25.174   27.411   49.431
| 61> H  -25.018   25.036   50.355
| 62> *
| 63>
| 64>                          ****END OF INPUT****
 Total Charge           Charge          ....    0
 Multiplicity           Mult            ....    1
 Number of Electrons    NEL             ....  102
FINAL SINGLE POINT ENERGY      -652.830684921401
FINAL SINGLE POINT ENERGY      -652.854588985934
FINAL SINGLE POINT ENERGY      -652.860908541352
FINAL SINGLE POINT ENERGY      -652.864123481255
FINAL SINGLE POINT ENERGY      -652.864513357895
FINAL SINGLE POINT ENERGY      -652.864570938123
FINAL SINGLE POINT ENERGY      -652.864575690900
                    ***********************HURRAY********************

CARTESIAN COORDINATES (ANGSTROEM)
---------------------------------
  C    -21.042985   26.189488   46.274101
  C    -20.363072   27.487171   45.831430
  C    -20.230687   28.248513   47.172105
  C    -19.963825   27.118268   48.193599
  O    -20.398636   25.859364   47.528400
  H    -20.839181   25.332474   45.622060
  H    -19.378316   27.248530   45.416000
  H    -20.949316   28.024594   45.083738
  H    -19.425921   28.990105   47.160035
  H    -21.168609   28.766782   47.397410
  H    -20.506896   27.240058   49.132725
  H    -18.899332   26.994627   48.414148
  C    -23.262527   25.159148   46.473415
  H    -23.929693   25.143123   45.604407
  H    -22.600462   24.283929   46.425292
  O    -22.471378   26.388712   46.340500
  C    -24.138833   25.041572   47.720273
  C    -23.446910   25.057728   49.089607
  C    -23.327877   26.577646   49.365579
  C    -24.623997   27.148427   48.735624
  O    -25.130656   26.114210   47.807606
  H    -24.702340   24.106928   47.604951
  O    -24.263948   24.378021   50.084547
  H    -22.484127   24.548041   49.099199
  H    -23.242541   26.778043   50.436830
  H    -22.458846   26.968008   48.843582
  H    -24.442782   28.067280   48.171157
  H    -25.411867   27.333976   49.473661
  H    -25.184436   24.710234   50.022020

 Multiplicity           Mult            ....    1
 Number of Electrons    NEL             ....  102
 Basis Dimension        Dim             ....  149

ORBITAL ENERGIES
----------------

  NO   OCC          E(Eh)            E(eV)
   0   2.0000     -19.152687      -521.1711
   1   2.0000     -19.150755      -521.1185
   2   2.0000     -19.136376      -520.7273
   3   2.0000     -19.131255      -520.5879
   4   2.0000     -10.284209      -279.8475
   5   2.0000     -10.232580      -278.4427
   6   2.0000     -10.232533      -278.4414
   7   2.0000     -10.231426      -278.4113
   8   2.0000     -10.231213      -278.4054
   9   2.0000     -10.222153      -278.1589
  10   2.0000     -10.192588      -277.3544
  11   2.0000     -10.190780      -277.3052
  12   2.0000     -10.176233      -276.9094
  13   2.0000      -1.058429       -28.8013
  14   2.0000      -1.030580       -28.0435
  15   2.0000      -1.003834       -27.3157
  16   2.0000      -0.997046       -27.1310
  17   2.0000      -0.794231       -21.6121
  18   2.0000      -0.775013       -21.0892
  19   2.0000      -0.764058       -20.7911
  20   2.0000      -0.736061       -20.0292
  21   2.0000      -0.674623       -18.3574
  22   2.0000      -0.605939       -16.4884
  23   2.0000      -0.599098       -16.3023
  24   2.0000      -0.595198       -16.1962
  25   2.0000      -0.578196       -15.7335
  26   2.0000      -0.524188       -14.2639
  27   2.0000      -0.505982       -13.7685
  28   2.0000      -0.501164       -13.6374
  29   2.0000      -0.490281       -13.3412
  30   2.0000      -0.471334       -12.8256
  31   2.0000      -0.458577       -12.4785
  32   2.0000      -0.444758       -12.1025
  33   2.0000      -0.441612       -12.0169
  34   2.0000      -0.424009       -11.5379
  35   2.0000      -0.411814       -11.2060
  36   2.0000      -0.407632       -11.0922
  37   2.0000      -0.385738       -10.4965
  38   2.0000      -0.370762       -10.0890
  39   2.0000      -0.365154        -9.9364
  40   2.0000      -0.363905        -9.9024
  41   2.0000      -0.358790        -9.7632
  42   2.0000      -0.348231        -9.4758
  43   2.0000      -0.335528        -9.1302
  44   2.0000      -0.323991        -8.8163
  45   2.0000      -0.307388        -8.3644
  46   2.0000      -0.300815        -8.1856
  47   2.0000      -0.278786        -7.5862
  48   2.0000      -0.263824        -7.1790
  49   2.0000      -0.261751        -7.1226
  50   2.0000      -0.237788        -6.4706
  51   0.0000       0.065389         1.7793
  52   0.0000       0.083129         2.2620
  53   0.0000       0.088982         2.4213
  54   0.0000       0.103235         2.8092
  55   0.0000       0.108151         2.9429

MULLIKEN ATOMIC CHARGES
-----------------------
   0 C :    0.284923
   1 C :   -0.262711
   2 C :   -0.305873
   3 C :   -0.011658
   4 O :   -0.515128
   5 H :    0.146074
   6 H :    0.149501
   7 H :    0.161541
   8 H :    0.146670
   9 H :    0.161248
  10 H :    0.143465
  11 H :    0.147911
  12 C :   -0.006870
  13 H :    0.158150
  14 H :    0.135376
  15 O :   -0.515947
  16 C :    0.073967
  17 C :    0.075540
  18 C :   -0.306078
  19 C :   -0.021230
  20 O :   -0.527156
  21 H :    0.152685
  22 O :   -0.604597
  23 H :    0.169051
  24 H :    0.147052
  25 H :    0.175377
  26 H :    0.150550
  27 H :    0.136792
  28 H :    0.361377
Sum of atomic charges:   -0.0000000

LOEWDIN ATOMIC CHARGES
----------------------
   0 C :    0.169256
   1 C :   -0.213425
   2 C :   -0.217432
   3 C :   -0.033303
   4 O :   -0.331325
   5 H :    0.094667
   6 H :    0.116796
   7 H :    0.126701
   8 H :    0.116313
   9 H :    0.116654
  10 H :    0.101996
  11 H :    0.105724
  12 C :   -0.038464
  13 H :    0.114895
  14 H :    0.105004
  15 O :   -0.325399
  16 C :    0.010608
  17 C :    0.037257
  18 C :   -0.242757
  19 C :   -0.034100
  20 O :   -0.331002
  21 H :    0.116242
  22 O :   -0.417686
  23 H :    0.124014
  24 H :    0.119228
  25 H :    0.125719
  26 H :    0.106704
  27 H :    0.096327
  28 H :    0.280787

  Mayer bond orders larger than 0.100000
B(  0-C ,  1-C ) :   0.9432 B(  0-C ,  4-O ) :   0.8944 B(  0-C ,  5-H ) :   0.9204
B(  0-C , 15-O ) :   0.8768 B(  1-C ,  2-C ) :   0.9564 B(  1-C ,  6-H ) :   0.9400
B(  1-C ,  7-H ) :   0.9360 B(  2-C ,  3-C ) :   0.9545 B(  2-C ,  8-H ) :   0.9451
B(  2-C ,  9-H ) :   0.9437 B(  3-C ,  4-O ) :   0.8333 B(  3-C , 10-H ) :   0.9248
B(  3-C , 11-H ) :   0.9405 B( 12-C , 13-H ) :   0.9295 B( 12-C , 14-H ) :   0.9103
B( 12-C , 15-O ) :   0.8449 B( 12-C , 16-C ) :   0.9030 B( 16-C , 17-C ) :   0.9094
B( 16-C , 20-O ) :   0.8695 B( 16-C , 21-H ) :   0.9169 B( 17-C , 18-C ) :   0.9254
B( 17-C , 22-O ) :   0.8844 B( 17-C , 23-H ) :   0.9266 B( 18-C , 19-C ) :   0.9438
B( 18-C , 24-H ) :   0.9391 B( 18-C , 25-H ) :   0.9054 B( 19-C , 20-O ) :   0.8411
B( 19-C , 26-H ) :   0.9340 B( 19-C , 27-H ) :   0.9369 B( 22-O , 28-H ) :   0.7969

FINAL SINGLE POINT ENERGY      -652.864573741803

DIPOLE MOMENT
-------------
                                X             Y             Z
Electronic contribution:     -3.82104      -4.23919      -0.23273
Nuclear contribution   :      4.60031       5.04147      -0.18320
                        -----------------------------------------
Total Dipole Moment    :      0.77927       0.80229      -0.41593
                        -----------------------------------------
Magnitude (a.u.)       :      1.19328
Magnitude (Debye)      :      3.03308

Rotational constants in cm-1:     0.046550     0.017168     0.016145
Rotational constants in MHz :  1395.539130   514.690303   484.025212

                             ****ORCA TERMINATED NORMALLY****
TOTAL RUN TIME: 0 days 0 hours 26 minutes 36 seconds 728 msec
