                         Program Version 4.2.1 -  RELEASE  -
|  1> # Test redundant internal optimization
|  2> #
|  3> ! RKS B3LYP  Opt TightSCF SmallPrint
|  4>
|  5> %basis
|  6>         Basis "6-31G"
|  7> end
|  8>
|  9> %geom
| 10> Constraints
| 11> { D 4  0  19  14  60.0   C } # D for Dihedral angle
| 12> { D 0  19  14  12  75.0   C } # D for Dihedral angle
| 13> { D 0  4  3  2   C } # D for Dihedral angle
| 14> { D 4  3  2  1   C } # D for Dihedral angle
| 15> { D 3  2  1  0   C } # D for Dihedral angle
| 16> { D 2  1  0  4   C } # D for Dihedral angle
| 17> { D 1  0  4  3   C } # D for Dihedral angle
| 18> { D 14  15  16  17   C } # D for Dihedral angle
| 19> { D 15  16  17  12   C } # D for Dihedral angle
| 20> { D 16  17  12  14   C } # D for Dihedral angle
| 21> { D 17  12  14  15   C } # D for Dihedral angle
| 22> { D 12  14  15  16   C } # D for Dihedral angle
| 23> end
| 24> end
| 25>
| 26>
| 27> #%pal
| 28> #nprocs 8
| 29> #end
| 30>
| 31> * xyz 0 1
| 32> C  -21.048   26.222   46.251
| 33> C  -20.361   27.558   45.944
| 34> C  -20.329   28.222   47.341
| 35> C  -20.110   27.022   48.296
| 36> O  -20.473   25.807   47.535
| 37> H  -20.833   25.428   45.533
| 38> H  -19.344   27.382   45.576
| 39> H  -20.898   28.157   45.201
| 40> H  -19.543   28.978   47.434
| 41> H  -21.289   28.710   47.548
| 42> H  -20.733   27.082   49.195
| 43> H  -19.064   26.913   48.597
| 44> C  -22.645   28.773   46.779
| 45> H  -22.672   29.528   47.581
| 46> C  -22.882   27.363   47.331
| 47> C  -24.419   27.348   47.506
| 48> C  -24.918   28.202   46.314
| 49> O  -23.754   28.985   45.841
| 50> H  -21.721   28.888   46.211
| 51> O  -22.472   26.381   46.366
| 52> H  -22.346   27.172   48.267
| 53> H  -24.838   26.337   47.500
| 54> H  -24.694   27.818   48.459
| 55> H  -25.722   28.890   46.596
| 56> H  -25.255   27.589   45.473
| 57> *
| 58>
| 59>                          ****END OF INPUT****
 Total Charge           Charge          ....    0
 Multiplicity           Mult            ....    1
 Number of Electrons    NEL             ....   86
FINAL SINGLE POINT ENERGY      -538.340106700349
FINAL SINGLE POINT ENERGY      -538.415089828390
FINAL SINGLE POINT ENERGY      -538.421451567787
FINAL SINGLE POINT ENERGY      -538.423074801087
FINAL SINGLE POINT ENERGY      -538.423366634268
FINAL SINGLE POINT ENERGY      -538.423477243848
FINAL SINGLE POINT ENERGY      -538.423490645954
FINAL SINGLE POINT ENERGY      -538.423490490001
                    ***********************HURRAY********************

CARTESIAN COORDINATES (ANGSTROEM)
---------------------------------
  C    -21.103654   26.328635   46.434328
  C    -20.176209   27.440685   45.915358
  C    -19.767134   28.171261   47.233418
  C    -19.693566   26.997417   48.246310
  O    -20.448634   25.878691   47.643128
  H    -21.112419   25.465536   45.766211
  H    -19.302474   26.970328   45.453832
  H    -20.661286   28.088496   45.181058
  H    -18.804694   28.684120   47.139948
  H    -20.504836   28.912325   47.538330
  H    -20.130509   27.241276   49.219837
  H    -18.669072   26.644447   48.397369
  C    -23.059519   28.989195   47.052921
  H    -23.353833   29.631241   47.898378
  C    -23.160594   27.520783   47.464609
  C    -24.674992   27.267118   47.341318
  C    -25.088553   28.136935   46.130159
  O    -23.999484   29.121430   45.934999
  H    -22.096547   29.315042   46.673065
  O    -22.519573   26.569654   46.566337
  H    -22.795047   27.351748   48.486513
  H    -24.871821   26.203410   47.194918
  H    -25.176939   27.597549   48.257495
  H    -26.029172   28.672659   46.297325
  H    -25.162438   27.555016   45.207836

 Multiplicity           Mult            ....    1
 Number of Electrons    NEL             ....   86
 Basis Dimension        Dim             ....  127

ORBITAL ENERGIES
----------------

  NO   OCC          E(Eh)            E(eV)
   0   2.0000     -19.142710      -520.8996
   1   2.0000     -19.140609      -520.8425
   2   2.0000     -19.129296      -520.5346
   3   2.0000     -10.278829      -279.7011
   4   2.0000     -10.242569      -278.7145
   5   2.0000     -10.230607      -278.3890
   6   2.0000     -10.224748      -278.2295
   7   2.0000     -10.219188      -278.0782
   8   2.0000     -10.193887      -277.3898
   9   2.0000     -10.190453      -277.2963
  10   2.0000     -10.184356      -277.1304
  11   2.0000      -1.051252       -28.6060
  12   2.0000      -1.014943       -27.6180
  13   2.0000      -0.991238       -26.9730
  14   2.0000      -0.791039       -21.5253
  15   2.0000      -0.785156       -21.3652
  16   2.0000      -0.740614       -20.1531
  17   2.0000      -0.725801       -19.7500
  18   2.0000      -0.624815       -17.0021
  19   2.0000      -0.606107       -16.4930
  20   2.0000      -0.597809       -16.2672
  21   2.0000      -0.564804       -15.3691
  22   2.0000      -0.513177       -13.9643
  23   2.0000      -0.504698       -13.7335
  24   2.0000      -0.493789       -13.4367
  25   2.0000      -0.486167       -13.2293
  26   2.0000      -0.453396       -12.3375
  27   2.0000      -0.441311       -12.0087
  28   2.0000      -0.438582       -11.9344
  29   2.0000      -0.416936       -11.3454
  30   2.0000      -0.408843       -11.1252
  31   2.0000      -0.388650       -10.5757
  32   2.0000      -0.373409       -10.1610
  33   2.0000      -0.365284        -9.9399
  34   2.0000      -0.361613        -9.8400
  35   2.0000      -0.359392        -9.7795
  36   2.0000      -0.345444        -9.4000
  37   2.0000      -0.317353        -8.6356
  38   2.0000      -0.305055        -8.3010
  39   2.0000      -0.300302        -8.1716
  40   2.0000      -0.265095        -7.2136
  41   2.0000      -0.253258        -6.8915
  42   2.0000      -0.234894        -6.3918
  43   0.0000       0.069345         1.8870
  44   0.0000       0.092313         2.5120
  45   0.0000       0.094584         2.5738
  46   0.0000       0.098014         2.6671
  47   0.0000       0.115617         3.1461

MULLIKEN ATOMIC CHARGES
-----------------------
   0 C :    0.311947
   1 C :   -0.281234
   2 C :   -0.318018
   3 C :   -0.011550
   4 O :   -0.508975
   5 H :    0.166325
   6 H :    0.155160
   7 H :    0.162585
   8 H :    0.147204
   9 H :    0.145964
  10 H :    0.140801
  11 H :    0.148111
  12 C :   -0.013427
  13 H :    0.126155
  14 C :    0.079778
  15 C :   -0.289250
  16 C :    0.002617
  17 O :   -0.527490
  18 H :    0.158608
  19 O :   -0.528659
  20 H :    0.134713
  21 H :    0.171747
  22 H :    0.139324
  23 H :    0.133898
  24 H :    0.153668
Sum of atomic charges:   -0.0000000

LOEWDIN ATOMIC CHARGES
----------------------
   0 C :    0.179609
   1 C :   -0.229972
   2 C :   -0.226799
   3 C :   -0.033527
   4 O :   -0.321583
   5 H :    0.113580
   6 H :    0.122820
   7 H :    0.124285
   8 H :    0.116722
   9 H :    0.108409
  10 H :    0.099626
  11 H :    0.104193
  12 C :   -0.055364
  13 H :    0.093546
  14 C :    0.040742
  15 C :   -0.220615
  16 C :   -0.027296
  17 O :   -0.333208
  18 H :    0.115145
  19 O :   -0.319964
  20 H :    0.099234
  21 H :    0.132834
  22 H :    0.111526
  23 H :    0.097499
  24 H :    0.108557

  Mayer bond orders larger than 0.100000
B(  0-C ,  1-C ) :   0.9137 B(  0-C ,  4-O ) :   0.8963 B(  0-C ,  5-H ) :   0.9362
B(  0-C , 19-O ) :   0.9008 B(  1-C ,  2-C ) :   0.9564 B(  1-C ,  6-H ) :   0.9328
B(  1-C ,  7-H ) :   0.9317 B(  2-C ,  3-C ) :   0.9448 B(  2-C ,  8-H ) :   0.9453
B(  2-C ,  9-H ) :   0.9315 B(  3-C ,  4-O ) :   0.8461 B(  3-C , 10-H ) :   0.9341
B(  3-C , 11-H ) :   0.9390 B( 12-C , 13-H ) :   0.9088 B( 12-C , 14-C ) :   0.9072
B( 12-C , 17-O ) :   0.8636 B( 12-C , 18-H ) :   0.9205 B( 14-C , 15-C ) :   0.9565
B( 14-C , 19-O ) :   0.8298 B( 14-C , 20-H ) :   0.9196 B( 15-C , 16-C ) :   0.9469
B( 15-C , 21-H ) :   0.9347 B( 15-C , 22-H ) :   0.9431 B( 16-C , 17-O ) :   0.8523
B( 16-C , 23-H ) :   0.9336 B( 16-C , 24-H ) :   0.9371

FINAL SINGLE POINT ENERGY      -538.423488285560

DIPOLE MOMENT
-------------
                                X             Y             Z
Electronic contribution:     -1.02223      -2.74898      -1.33314
Nuclear contribution   :      1.42685       3.22075       1.91760
                        -----------------------------------------
Total Dipole Moment    :      0.40462       0.47177       0.58446
                        -----------------------------------------
Magnitude (a.u.)       :      0.85316
Magnitude (Debye)      :      2.16855

Rotational constants in cm-1:     0.076257     0.023221     0.021478
Rotational constants in MHz :  2286.119447   696.143116   643.896459

                             ****ORCA TERMINATED NORMALLY****
TOTAL RUN TIME: 0 days 0 hours 9 minutes 43 seconds 444 msec
