                         Program Version 4.2.0 -  RELEASE  -
|  1> # Test redundant internal optimization
|  2> #
|  3> ! RKS B3LYP  Opt TightSCF SmallPrint
|  4>
|  5> %basis
|  6>         Basis "6-31G"
|  7> end
|  8>
|  9> %geom
| 10> Constraints
| 11> { D 4  0  15  12  75.0   C } # D for Dihedral angle
| 12> { D 0  15  12  16  255.0   C } # D for Dihedral angle
| 13> { D 0  4  3  2   C } # D for Dihedral angle
| 14> { D 4  3  2  1   C } # D for Dihedral angle
| 15> { D 3  2  1  0   C } # D for Dihedral angle
| 16> { D 2  1  0  4   C } # D for Dihedral angle
| 17> { D 1  0  4  3   C } # D for Dihedral angle
| 18> { D 16  20  19  18   C } # D for Dihedral angle
| 19> { D 20  19  18  17   C } # D for Dihedral angle
| 20> { D 19  18  17  16   C } # D for Dihedral angle
| 21> { D 18  17  16  20   C } # D for Dihedral angle
| 22> { D 17  16  20  19   C } # D for Dihedral angle
| 23> { D 15  12  16  20   C } # D for Dihedral angle
| 24> end
| 25> end
| 26>
| 27>
| 28> #%pal
| 29> #nprocs 8
| 30> #end
| 31>
| 32> * xyz 0 1
| 33> C  -21.048   26.222   46.251
| 34> C  -20.361   27.558   45.944
| 35> C  -20.329   28.222   47.341
| 36> C  -20.110   27.022   48.296
| 37> O  -20.473   25.807   47.535
| 38> H  -20.833   25.428   45.533
| 39> H  -19.344   27.382   45.576
| 40> H  -20.898   28.157   45.201
| 41> H  -19.543   28.978   47.434
| 42> H  -21.289   28.710   47.548
| 43> H  -20.733   27.082   49.195
| 44> H  -19.064   26.913   48.597
| 45> C  -23.049   27.675   47.122
| 46> H  -22.208   28.376   47.194
| 47> H  -23.861   28.168   46.572
| 48> O  -22.586   26.394   46.375
| 49> C  -23.563   27.380   48.558
| 50> C  -24.684   26.334   48.545
| 51> C  -23.884   25.018   48.395
| 52> C  -22.595   25.296   49.208
| 53> O  -22.505   26.764   49.365
| 54> H  -23.829   28.320   49.044
| 55> H  -25.225   26.351   49.497
| 56> O  -25.707   26.550   47.396
| 57> H  -24.430   24.144   48.764
| 58> H  -23.644   24.842   47.339
| 59> H  -21.694   24.932   48.704
| 60> H  -22.635   24.867   50.214
| 61> H  -25.187   26.537   46.432
| 62> *
| 63>
| 64>                          ****END OF INPUT****
 Total Charge           Charge          ....    0
 Multiplicity           Mult            ....    1
 Number of Electrons    NEL             ....  102
FINAL SINGLE POINT ENERGY      -652.773061272307
FINAL SINGLE POINT ENERGY      -652.830204783501
FINAL SINGLE POINT ENERGY      -652.851674336247
FINAL SINGLE POINT ENERGY      -652.857106686070
FINAL SINGLE POINT ENERGY      -652.859324406923
FINAL SINGLE POINT ENERGY      -652.859803447586
FINAL SINGLE POINT ENERGY      -652.859959383789
FINAL SINGLE POINT ENERGY      -652.859990640203
FINAL SINGLE POINT ENERGY      -652.860003783500
FINAL SINGLE POINT ENERGY      -652.860005424937
                    ***********************HURRAY********************

CARTESIAN COORDINATES (ANGSTROEM)
---------------------------------
  C    -21.095033   26.456304   46.296574
  C    -20.250425   27.673496   45.888126
  C    -19.898142   28.307537   47.269580
  C    -19.740506   27.059759   48.176360
  O    -20.416770   25.945746   47.460465
  H    -21.060807   25.651601   45.559725
  H    -19.344458   27.315037   45.389177
  H    -20.779156   28.352176   45.213247
  H    -18.972493   28.890822   47.226049
  H    -20.685698   28.972102   47.629114
  H    -20.219356   27.176813   49.150022
  H    -18.695191   26.763391   48.299824
  C    -23.163859   27.717099   47.184519
  H    -22.481239   28.555316   47.334262
  H    -23.989845   28.066536   46.554410
  O    -22.524743   26.635695   46.437540
  C    -23.749894   27.293450   48.532045
  C    -24.849678   26.219566   48.451530
  C    -24.013064   24.903685   48.456909
  C    -22.831229   25.250911   49.386241
  O    -22.786451   26.742826   49.472207
  H    -24.140894   28.209983   48.993697
  H    -25.494958   26.282982   49.330366
  O    -25.741063   26.361033   47.319040
  H    -24.593176   24.047451   48.812842
  H    -23.659974   24.705821   47.441379
  H    -21.872752   24.908680   48.997320
  H    -22.982508   24.888963   50.407957
  H    -25.277638   26.074219   46.504473

 Multiplicity           Mult            ....    1
 Number of Electrons    NEL             ....  102
 Basis Dimension        Dim             ....  149

ORBITAL ENERGIES
----------------

  NO   OCC          E(Eh)            E(eV)
   0   2.0000     -19.148632      -521.0608
   1   2.0000     -19.144266      -520.9420
   2   2.0000     -19.136522      -520.7312
   3   2.0000     -19.132536      -520.6228
   4   2.0000     -10.283596      -279.8309
   5   2.0000     -10.232353      -278.4365
   6   2.0000     -10.231031      -278.4005
   7   2.0000     -10.227011      -278.2911
   8   2.0000     -10.224204      -278.2147
   9   2.0000     -10.210877      -277.8521
  10   2.0000     -10.194195      -277.3981
  11   2.0000     -10.193165      -277.3701
  12   2.0000     -10.173945      -276.8471
  13   2.0000      -1.052856       -28.6497
  14   2.0000      -1.022793       -27.8316
  15   2.0000      -1.005506       -27.3612
  16   2.0000      -0.996531       -27.1170
  17   2.0000      -0.789130       -21.4733
  18   2.0000      -0.773246       -21.0411
  19   2.0000      -0.762404       -20.7461
  20   2.0000      -0.732062       -19.9204
  21   2.0000      -0.678794       -18.4709
  22   2.0000      -0.606744       -16.5103
  23   2.0000      -0.599738       -16.3197
  24   2.0000      -0.595804       -16.2127
  25   2.0000      -0.558685       -15.2026
  26   2.0000      -0.526312       -14.3217
  27   2.0000      -0.507008       -13.7964
  28   2.0000      -0.495685       -13.4883
  29   2.0000      -0.491694       -13.3797
  30   2.0000      -0.461400       -12.5553
  31   2.0000      -0.457742       -12.4558
  32   2.0000      -0.441029       -12.0010
  33   2.0000      -0.427897       -11.6437
  34   2.0000      -0.420259       -11.4358
  35   2.0000      -0.413253       -11.2452
  36   2.0000      -0.402591       -10.9551
  37   2.0000      -0.392597       -10.6831
  38   2.0000      -0.387154       -10.5350
  39   2.0000      -0.366394        -9.9701
  40   2.0000      -0.358808        -9.7637
  41   2.0000      -0.350483        -9.5371
  42   2.0000      -0.347107        -9.4453
  43   2.0000      -0.323464        -8.8019
  44   2.0000      -0.314422        -8.5558
  45   2.0000      -0.305233        -8.3058
  46   2.0000      -0.303255        -8.2520
  47   2.0000      -0.276137        -7.5141
  48   2.0000      -0.260123        -7.0783
  49   2.0000      -0.255191        -6.9441
  50   2.0000      -0.232337        -6.3222
  51   0.0000       0.066677         1.8144
  52   0.0000       0.085433         2.3248
  53   0.0000       0.092350         2.5130
  54   0.0000       0.098355         2.6764
  55   0.0000       0.107329         2.9206

MULLIKEN ATOMIC CHARGES
-----------------------
   0 C :    0.312988
   1 C :   -0.284044
   2 C :   -0.319596
   3 C :   -0.014091
   4 O :   -0.506085
   5 H :    0.163517
   6 H :    0.157531
   7 H :    0.149304
   8 H :    0.145355
   9 H :    0.158082
  10 H :    0.177664
  11 H :    0.142642
  12 C :   -0.041996
  13 H :    0.135983
  14 H :    0.155516
  15 O :   -0.541116
  16 C :    0.107051
  17 C :    0.090308
  18 C :   -0.313479
  19 C :   -0.019127
  20 O :   -0.530788
  21 H :    0.140032
  22 H :    0.158766
  23 O :   -0.610787
  24 H :    0.140848
  25 H :    0.163701
  26 H :    0.180816
  27 H :    0.133819
  28 H :    0.367189
Sum of atomic charges:    0.0000000

LOEWDIN ATOMIC CHARGES
----------------------
   0 C :    0.176500
   1 C :   -0.228411
   2 C :   -0.222315
   3 C :   -0.034820
   4 O :   -0.317445
   5 H :    0.111100
   6 H :    0.123184
   7 H :    0.118483
   8 H :    0.115454
   9 H :    0.110534
  10 H :    0.120218
  11 H :    0.102585
  12 C :   -0.052845
  13 H :    0.102245
  14 H :    0.113971
  15 O :   -0.334828
  16 C :    0.012076
  17 C :    0.037016
  18 C :   -0.240304
  19 C :   -0.032606
  20 O :   -0.329087
  21 H :    0.110471
  22 H :    0.114588
  23 O :   -0.413215
  24 H :    0.114034
  25 H :    0.120718
  26 H :    0.120909
  27 H :    0.097475
  28 H :    0.284314

  Mayer bond orders larger than 0.100000
B(  0-C ,  1-C ) :   0.9237 B(  0-C ,  4-O ) :   0.9054 B(  0-C ,  5-H ) :   0.9370
B(  0-C , 15-O ) :   0.8813 B(  1-C ,  2-C ) :   0.9554 B(  1-C ,  6-H ) :   0.9347
B(  1-C ,  7-H ) :   0.9368 B(  2-C ,  3-C ) :   0.9511 B(  2-C ,  8-H ) :   0.9446
B(  2-C ,  9-H ) :   0.9333 B(  3-C ,  4-O ) :   0.8254 B(  3-C , 10-H ) :   0.9190
B(  3-C , 11-H ) :   0.9386 B( 12-C , 13-H ) :   0.9123 B( 12-C , 14-H ) :   0.9170
B( 12-C , 15-O ) :   0.8422 B( 12-C , 16-C ) :   0.8947 B( 16-C , 17-C ) :   0.8886
B( 16-C , 20-O ) :   0.8816 B( 16-C , 21-H ) :   0.9232 B( 17-C , 18-C ) :   0.9332
B( 17-C , 22-H ) :   0.9370 B( 17-C , 23-O ) :   0.8980 B( 18-C , 19-C ) :   0.9487
B( 18-C , 24-H ) :   0.9421 B( 18-C , 25-H ) :   0.9276 B( 19-C , 20-O ) :   0.8187
B( 19-C , 26-H ) :   0.9099 B( 19-C , 27-H ) :   0.9386 B( 23-O , 28-H ) :   0.7921

FINAL SINGLE POINT ENERGY      -652.860004177731

DIPOLE MOMENT
-------------
                                X             Y             Z
Electronic contribution:     -3.12888      -1.78716       0.04457
Nuclear contribution   :      3.99371       2.27692      -0.49392
                        -----------------------------------------
Total Dipole Moment    :      0.86483       0.48976      -0.44936
                        -----------------------------------------
Magnitude (a.u.)       :      1.09074
Magnitude (Debye)      :      2.77244

Rotational constants in cm-1:     0.048575     0.018967     0.016967
Rotational constants in MHz :  1456.246648   568.631011   508.662828

                             ****ORCA TERMINATED NORMALLY****
TOTAL RUN TIME: 0 days 0 hours 32 minutes 17 seconds 972 msec
