                         Program Version 4.2.0 -  RELEASE  -
|  1> # Test redundant internal optimization
|  2> #
|  3> ! RKS B3LYP  Opt TightSCF SmallPrint
|  4>
|  5> %basis
|  6>         Basis "6-31G"
|  7> end
|  8>
|  9> %geom
| 10> Constraints
| 11> { D 4  0  15  12  285.0   C } # D for Dihedral angle
| 12> { D 0  15  12  16  300.0   C } # D for Dihedral angle
| 13> { D 0  4  3  2   C } # D for Dihedral angle
| 14> { D 4  3  2  1   C } # D for Dihedral angle
| 15> { D 3  2  1  0   C } # D for Dihedral angle
| 16> { D 2  1  0  4   C } # D for Dihedral angle
| 17> { D 1  0  4  3   C } # D for Dihedral angle
| 18> { D 16  20  19  18   C } # D for Dihedral angle
| 19> { D 20  19  18  17   C } # D for Dihedral angle
| 20> { D 19  18  17  16   C } # D for Dihedral angle
| 21> { D 18  17  16  20   C } # D for Dihedral angle
| 22> { D 17  16  20  19   C } # D for Dihedral angle
| 23> { D 15  12  16  20   C } # D for Dihedral angle
| 24> end
| 25> end
| 26>
| 27>
| 28> #%pal
| 29> #nprocs 8
| 30> #end
| 31>
| 32> * xyz 0 1
| 33> C  -21.048   26.222   46.251
| 34> C  -20.361   27.558   45.944
| 35> C  -20.329   28.222   47.341
| 36> C  -20.110   27.022   48.296
| 37> O  -20.473   25.807   47.535
| 38> H  -20.833   25.428   45.533
| 39> H  -19.344   27.382   45.576
| 40> H  -20.898   28.157   45.201
| 41> H  -19.543   28.978   47.434
| 42> H  -21.289   28.710   47.548
| 43> H  -20.733   27.082   49.195
| 44> H  -19.064   26.913   48.597
| 45> C  -23.396   25.070   46.435
| 46> H  -23.079   24.492   47.312
| 47> H  -24.469   25.280   46.532
| 48> O  -22.586   26.394   46.375
| 49> C  -23.200   24.188   45.171
| 50> C  -23.538   24.963   43.893
| 51> C  -22.257   25.808   43.691
| 52> C  -21.132   24.866   44.187
| 53> O  -21.787   23.827   45.012
| 54> H  -23.755   23.257   45.295
| 55> O  -23.737   23.978   42.709
| 56> H  -24.441   25.577   43.987
| 57> H  -22.113   26.119   42.651
| 58> H  -22.302   26.714   44.307
| 59> H  -20.385   25.388   44.794
| 60> H  -20.625   24.352   43.365
| 61> H  -22.844   23.353   42.596
| 62> *
| 63>
| 64>                          ****END OF INPUT****
 Total Charge           Charge          ....    0
 Multiplicity           Mult            ....    1
 Number of Electrons    NEL             ....  102
FINAL SINGLE POINT ENERGY      -652.715107551417
FINAL SINGLE POINT ENERGY      -652.827383239820
FINAL SINGLE POINT ENERGY      -652.849201175812
FINAL SINGLE POINT ENERGY      -652.854997638602
FINAL SINGLE POINT ENERGY      -652.856377621949
FINAL SINGLE POINT ENERGY      -652.857057026843
FINAL SINGLE POINT ENERGY      -652.857481696826
FINAL SINGLE POINT ENERGY      -652.857833980006
FINAL SINGLE POINT ENERGY      -652.857937004150
FINAL SINGLE POINT ENERGY      -652.857956379425
                    ***********************HURRAY********************

CARTESIAN COORDINATES (ANGSTROEM)
---------------------------------
  C    -20.871327   26.410343   46.386860
  C    -20.339958   27.841352   46.293114
  C    -20.464665   28.321440   47.757463
  C    -20.152111   27.045564   48.571637
  O    -20.325880   25.909099   47.633677
  H    -20.539117   25.710639   45.629651
  H    -19.291739   27.816134   45.974128
  H    -20.913568   28.450848   45.591610
  H    -19.778445   29.141049   47.990719
  H    -21.487519   28.659403   47.946150
  H    -20.822396   26.908581   49.424342
  H    -19.115378   27.008648   48.920167
  C    -23.106136   25.284545   46.355839
  H    -22.867705   24.671415   47.235371
  H    -24.140428   25.629820   46.446693
  O    -22.312088   26.504065   46.442366
  C    -23.034541   24.356750   45.126645
  C    -23.565159   24.900853   43.790982
  C    -22.274392   25.481622   43.149844
  C    -21.176529   24.495799   43.622350
  O    -21.743790   23.759078   44.781466
  H    -23.671022   23.509914   45.419821
  O    -24.139681   23.832829   42.986448
  H    -24.360287   25.638126   43.901049
  H    -22.364099   25.534806   42.061956
  H    -22.096073   26.488152   43.542684
  H    -20.247845   24.992069   43.916117
  H    -20.933555   23.743398   42.865439
  H    -23.535567   23.060658   42.998411

 Multiplicity           Mult            ....    1
 Number of Electrons    NEL             ....  102
 Basis Dimension        Dim             ....  149

ORBITAL ENERGIES
----------------

  NO   OCC          E(Eh)            E(eV)
   0   2.0000     -19.151838      -521.1480
   1   2.0000     -19.144563      -520.9500
   2   2.0000     -19.140153      -520.8300
   3   2.0000     -19.134731      -520.6825
   4   2.0000     -10.273605      -279.5590
   5   2.0000     -10.242961      -278.7251
   6   2.0000     -10.239481      -278.6304
   7   2.0000     -10.236431      -278.5474
   8   2.0000     -10.232433      -278.4387
   9   2.0000     -10.221412      -278.1387
  10   2.0000     -10.190859      -277.3074
  11   2.0000     -10.184413      -277.1320
  12   2.0000     -10.182817      -277.0885
  13   2.0000      -1.051461       -28.6117
  14   2.0000      -1.039848       -28.2957
  15   2.0000      -1.009342       -27.4656
  16   2.0000      -0.990275       -26.9467
  17   2.0000      -0.789339       -21.4790
  18   2.0000      -0.780844       -21.2478
  19   2.0000      -0.771096       -20.9826
  20   2.0000      -0.731203       -19.8971
  21   2.0000      -0.678772       -18.4703
  22   2.0000      -0.607779       -16.5385
  23   2.0000      -0.606626       -16.5071
  24   2.0000      -0.595386       -16.2013
  25   2.0000      -0.571624       -15.5547
  26   2.0000      -0.528524       -14.3819
  27   2.0000      -0.507961       -13.8223
  28   2.0000      -0.501480       -13.6460
  29   2.0000      -0.482449       -13.1281
  30   2.0000      -0.470818       -12.8116
  31   2.0000      -0.461733       -12.5644
  32   2.0000      -0.447039       -12.1645
  33   2.0000      -0.444701       -12.1009
  34   2.0000      -0.420561       -11.4440
  35   2.0000      -0.413572       -11.2539
  36   2.0000      -0.398895       -10.8545
  37   2.0000      -0.396466       -10.7884
  38   2.0000      -0.377461       -10.2712
  39   2.0000      -0.371553       -10.1105
  40   2.0000      -0.364147        -9.9090
  41   2.0000      -0.354239        -9.6393
  42   2.0000      -0.344012        -9.3611
  43   2.0000      -0.336193        -9.1483
  44   2.0000      -0.324519        -8.8306
  45   2.0000      -0.310556        -8.4507
  46   2.0000      -0.300234        -8.1698
  47   2.0000      -0.275224        -7.4892
  48   2.0000      -0.271770        -7.3952
  49   2.0000      -0.250028        -6.8036
  50   2.0000      -0.242784        -6.6065
  51   0.0000       0.058945         1.6040
  52   0.0000       0.082592         2.2474
  53   0.0000       0.089921         2.4469
  54   0.0000       0.100681         2.7397
  55   0.0000       0.106411         2.8956

MULLIKEN ATOMIC CHARGES
-----------------------
   0 C :    0.274295
   1 C :   -0.260870
   2 C :   -0.295674
   3 C :   -0.003086
   4 O :   -0.511198
   5 H :    0.168665
   6 H :    0.141741
   7 H :    0.151246
   8 H :    0.138510
   9 H :    0.162185
  10 H :    0.146594
  11 H :    0.140429
  12 C :   -0.011753
  13 H :    0.158141
  14 H :    0.148941
  15 O :   -0.528890
  16 C :    0.060224
  17 C :    0.077909
  18 C :   -0.295757
  19 C :   -0.041468
  20 O :   -0.520355
  21 H :    0.163508
  22 O :   -0.599749
  23 H :    0.158258
  24 H :    0.162975
  25 H :    0.157846
  26 H :    0.144222
  27 H :    0.149121
  28 H :    0.363989
Sum of atomic charges:    0.0000000

LOEWDIN ATOMIC CHARGES
----------------------
   0 C :    0.167738
   1 C :   -0.216301
   2 C :   -0.215334
   3 C :   -0.028365
   4 O :   -0.325615
   5 H :    0.108990
   6 H :    0.112343
   7 H :    0.120234
   8 H :    0.112178
   9 H :    0.119063
  10 H :    0.104697
  11 H :    0.101542
  12 C :   -0.042436
  13 H :    0.110286
  14 H :    0.117943
  15 O :   -0.329721
  16 C :    0.000925
  17 C :    0.036165
  18 C :   -0.242339
  19 C :   -0.041846
  20 O :   -0.327171
  21 H :    0.120068
  22 O :   -0.414699
  23 H :    0.118772
  24 H :    0.126563
  25 H :    0.120458
  26 H :    0.099569
  27 H :    0.103864
  28 H :    0.282431

  Mayer bond orders larger than 0.100000
B(  0-C ,  1-C ) :   0.9460 B(  0-C ,  4-O ) :   0.9040 B(  0-C ,  5-H ) :   0.8959
B(  0-C , 15-O ) :   0.8465 B(  1-C ,  2-C ) :   0.9564 B(  1-C ,  6-H ) :   0.9415
B(  1-C ,  7-H ) :   0.9361 B(  2-C ,  3-C ) :   0.9544 B(  2-C ,  8-H ) :   0.9458
B(  2-C ,  9-H ) :   0.9442 B(  3-C ,  4-O ) :   0.8411 B(  3-C , 10-H ) :   0.9358
B(  3-C , 11-H ) :   0.9402 B( 12-C , 13-H ) :   0.9188 B( 12-C , 14-H ) :   0.9301
B( 12-C , 15-O ) :   0.8682 B( 12-C , 16-C ) :   0.8901 B( 16-C , 17-C ) :   0.9008
B( 16-C , 20-O ) :   0.8603 B( 16-C , 21-H ) :   0.9125 B( 17-C , 18-C ) :   0.9208
B( 17-C , 22-O ) :   0.8954 B( 17-C , 23-H ) :   0.9343 B( 18-C , 19-C ) :   0.9415
B( 18-C , 24-H ) :   0.9358 B( 18-C , 25-H ) :   0.9277 B( 19-C , 20-O ) :   0.8408
B( 19-C , 26-H ) :   0.9194 B( 19-C , 27-H ) :   0.9389 B( 22-O , 28-H ) :   0.7955

FINAL SINGLE POINT ENERGY      -652.857957400013

DIPOLE MOMENT
-------------
                                X             Y             Z
Electronic contribution:     -2.34801      -4.94487      -0.48487
Nuclear contribution   :      2.76423       5.75157       0.30105
                        -----------------------------------------
Total Dipole Moment    :      0.41622       0.80671      -0.18382
                        -----------------------------------------
Magnitude (a.u.)       :      0.92618
Magnitude (Debye)      :      2.35415

Rotational constants in cm-1:     0.061764     0.013936     0.013645
Rotational constants in MHz :  1851.643698   417.800612   409.080095

                             ****ORCA TERMINATED NORMALLY****
TOTAL RUN TIME: 0 days 1 hours 13 minutes 2 seconds 778 msec
