                         Program Version 4.2.0 -  RELEASE  -
|  1> # Test redundant internal optimization
|  2> #
|  3> ! RKS B3LYP  Opt TightSCF SmallPrint
|  4>
|  5> %basis
|  6>         Basis "6-31G"
|  7> end
|  8>
|  9> %geom
| 10> Constraints
| 11> { D 4  0  15  12  165.0   C } # D for Dihedral angle
| 12> { D 0  15  12  16  285.0   C } # D for Dihedral angle
| 13> { D 0  4  3  2   C } # D for Dihedral angle
| 14> { D 4  3  2  1   C } # D for Dihedral angle
| 15> { D 3  2  1  0   C } # D for Dihedral angle
| 16> { D 2  1  0  4   C } # D for Dihedral angle
| 17> { D 1  0  4  3   C } # D for Dihedral angle
| 18> { D 16  20  19  18   C } # D for Dihedral angle
| 19> { D 20  19  18  17   C } # D for Dihedral angle
| 20> { D 19  18  17  16   C } # D for Dihedral angle
| 21> { D 18  17  16  20   C } # D for Dihedral angle
| 22> { D 17  16  20  19   C } # D for Dihedral angle
| 23> { D 15  12  16  20   C } # D for Dihedral angle
| 24> end
| 25> end
| 26>
| 27>
| 28> #%pal
| 29> #nprocs 8
| 30> #end
| 31>
| 32> * xyz 0 1
| 33> C  -21.048   26.222   46.251
| 34> C  -20.361   27.558   45.944
| 35> C  -20.329   28.222   47.341
| 36> C  -20.110   27.022   48.296
| 37> O  -20.473   25.807   47.535
| 38> H  -20.833   25.428   45.533
| 39> H  -19.344   27.382   45.576
| 40> H  -20.898   28.157   45.201
| 41> H  -19.543   28.978   47.434
| 42> H  -21.289   28.710   47.548
| 43> H  -20.733   27.082   49.195
| 44> H  -19.064   26.913   48.597
| 45> C  -23.260   27.170   45.210
| 46> H  -22.870   26.798   44.254
| 47> H  -24.346   27.014   45.222
| 48> O  -22.586   26.394   46.375
| 49> C  -23.002   28.701   45.280
| 50> C  -23.774   29.446   44.186
| 51> C  -25.198   29.502   44.790
| 52> C  -24.930   29.666   46.307
| 53> O  -23.528   29.253   46.533
| 54> H  -21.925   28.883   45.277
| 55> O  -23.198   30.877   44.006
| 56> H  -23.744   28.937   43.216
| 57> H  -25.800   30.320   44.382
| 58> H  -25.729   28.564   44.591
| 59> H  -25.591   29.043   46.919
| 60> H  -25.017   30.706   46.636
| 61> H  -23.218   31.405   44.966
| 62> *
| 63>
| 64>                          ****END OF INPUT****
 Total Charge           Charge          ....    0
 Multiplicity           Mult            ....    1
 Number of Electrons    NEL             ....  102
FINAL SINGLE POINT ENERGY      -652.806646918257
FINAL SINGLE POINT ENERGY      -652.832291720141
FINAL SINGLE POINT ENERGY      -652.847758642018
FINAL SINGLE POINT ENERGY      -652.850263178364
FINAL SINGLE POINT ENERGY      -652.850761795465
FINAL SINGLE POINT ENERGY      -652.850814860318
FINAL SINGLE POINT ENERGY      -652.850822764471
                    ***********************HURRAY********************

CARTESIAN COORDINATES (ANGSTROEM)
---------------------------------
  C    -20.996372   26.281556   46.173713
  C    -20.114458   27.515690   45.984650
  C    -20.194527   28.189386   47.380424
  C    -20.263683   26.978030   48.332603
  O    -20.668600   25.825202   47.490992
  H    -20.783593   25.462635   45.478703
  H    -19.093302   27.162939   45.792562
  H    -20.393835   28.163469   45.154042
  H    -19.330561   28.829994   47.581624
  H    -21.104581   28.792575   47.458571
  H    -21.000764   27.102081   49.129634
  H    -19.293541   26.720784   48.768306
  C    -23.171671   27.255848   45.197371
  H    -22.901185   26.909988   44.183766
  H    -24.211119   26.969430   45.379243
  O    -22.442808   26.504935   46.198710
  C    -23.046426   28.785948   45.226171
  C    -23.928044   29.464316   44.165770
  C    -25.316395   29.474050   44.866180
  C    -24.950016   29.695383   46.356519
  O    -23.514311   29.351672   46.494526
  H    -22.013706   29.110103   45.109923
  O    -23.454314   30.810367   43.886659
  H    -23.933994   28.957164   43.200315
  H    -25.946755   30.267939   44.458209
  H    -25.827373   28.516607   44.716722
  H    -25.531683   29.064469   47.034284
  H    -25.063456   30.738902   46.666039
  H    -23.249929   31.258538   44.734770

 Multiplicity           Mult            ....    1
 Number of Electrons    NEL             ....  102
 Basis Dimension        Dim             ....  149

ORBITAL ENERGIES
----------------

  NO   OCC          E(Eh)            E(eV)
   0   2.0000     -19.148567      -521.0590
   1   2.0000     -19.145552      -520.9770
   2   2.0000     -19.134611      -520.6792
   3   2.0000     -19.133915      -520.6603
   4   2.0000     -10.277729      -279.6712
   5   2.0000     -10.249383      -278.8999
   6   2.0000     -10.238925      -278.6153
   7   2.0000     -10.236295      -278.5438
   8   2.0000     -10.236082      -278.5379
   9   2.0000     -10.219247      -278.0798
  10   2.0000     -10.195892      -277.4443
  11   2.0000     -10.187289      -277.2102
  12   2.0000     -10.180806      -277.0338
  13   2.0000      -1.048836       -28.5403
  14   2.0000      -1.041775       -28.3482
  15   2.0000      -1.012483       -27.5511
  16   2.0000      -0.986538       -26.8451
  17   2.0000      -0.790242       -21.5036
  18   2.0000      -0.782840       -21.3022
  19   2.0000      -0.771349       -20.9895
  20   2.0000      -0.734083       -19.9754
  21   2.0000      -0.678266       -18.4566
  22   2.0000      -0.610971       -16.6254
  23   2.0000      -0.604526       -16.4500
  24   2.0000      -0.595560       -16.2060
  25   2.0000      -0.577490       -15.7143
  26   2.0000      -0.526760       -14.3339
  27   2.0000      -0.510846       -13.9008
  28   2.0000      -0.498078       -13.5534
  29   2.0000      -0.493432       -13.4270
  30   2.0000      -0.473040       -12.8721
  31   2.0000      -0.457832       -12.4582
  32   2.0000      -0.453190       -12.3319
  33   2.0000      -0.445778       -12.1302
  34   2.0000      -0.428751       -11.6669
  35   2.0000      -0.412347       -11.2205
  36   2.0000      -0.404179       -10.9983
  37   2.0000      -0.399299       -10.8655
  38   2.0000      -0.378056       -10.2874
  39   2.0000      -0.376765       -10.2523
  40   2.0000      -0.362023        -9.8511
  41   2.0000      -0.355325        -9.6689
  42   2.0000      -0.349014        -9.4972
  43   2.0000      -0.338011        -9.1978
  44   2.0000      -0.314210        -8.5501
  45   2.0000      -0.305669        -8.3177
  46   2.0000      -0.290444        -7.9034
  47   2.0000      -0.277081        -7.5398
  48   2.0000      -0.266684        -7.2568
  49   2.0000      -0.252774        -6.8783
  50   2.0000      -0.239037        -6.5045
  51   0.0000       0.060427         1.6443
  52   0.0000       0.083171         2.2632
  53   0.0000       0.084270         2.2931
  54   0.0000       0.088404         2.4056
  55   0.0000       0.097597         2.6557

MULLIKEN ATOMIC CHARGES
-----------------------
   0 C :    0.312347
   1 C :   -0.291603
   2 C :   -0.319040
   3 C :    0.000982
   4 O :   -0.496504
   5 H :    0.141727
   6 H :    0.147828
   7 H :    0.138753
   8 H :    0.138042
   9 H :    0.191615
  10 H :    0.156925
  11 H :    0.139271
  12 C :    0.004197
  13 H :    0.113558
  14 H :    0.156719
  15 O :   -0.511439
  16 C :    0.047349
  17 C :    0.075695
  18 C :   -0.301294
  19 C :   -0.027111
  20 O :   -0.518551
  21 H :    0.165391
  22 O :   -0.600847
  23 H :    0.154752
  24 H :    0.166842
  25 H :    0.147025
  26 H :    0.157574
  27 H :    0.145253
  28 H :    0.364544
Sum of atomic charges:    0.0000000

LOEWDIN ATOMIC CHARGES
----------------------
   0 C :    0.186947
   1 C :   -0.234230
   2 C :   -0.223991
   3 C :   -0.024069
   4 O :   -0.301616
   5 H :    0.097004
   6 H :    0.117233
   7 H :    0.109843
   8 H :    0.112727
   9 H :    0.129771
  10 H :    0.110828
  11 H :    0.100725
  12 C :   -0.038390
  13 H :    0.088735
  14 H :    0.116438
  15 O :   -0.330116
  16 C :   -0.001499
  17 C :    0.035916
  18 C :   -0.241593
  19 C :   -0.036740
  20 O :   -0.328087
  21 H :    0.113267
  22 O :   -0.413563
  23 H :    0.116401
  24 H :    0.128157
  25 H :    0.114487
  26 H :    0.109811
  27 H :    0.102552
  28 H :    0.283052

  Mayer bond orders larger than 0.100000
B(  0-C ,  1-C ) :   0.9275 B(  0-C ,  4-O ) :   0.9415 B(  0-C ,  5-H ) :   0.9231
B(  0-C , 15-O ) :   0.8390 B(  1-C ,  2-C ) :   0.9502 B(  1-C ,  6-H ) :   0.9317
B(  1-C ,  7-H ) :   0.9226 B(  2-C ,  3-C ) :   0.9535 B(  2-C ,  8-H ) :   0.9451
B(  2-C ,  9-H ) :   0.9254 B(  3-C ,  4-O ) :   0.8328 B(  3-C , 10-H ) :   0.9344
B(  3-C , 11-H ) :   0.9402 B( 12-C , 13-H ) :   0.9117 B( 12-C , 14-H ) :   0.9370
B( 12-C , 15-O ) :   0.8767 B( 12-C , 16-C ) :   0.8698 B( 16-C , 17-C ) :   0.8940
B( 16-C , 20-O ) :   0.8495 B( 16-C , 21-H ) :   0.9102 B( 17-C , 18-C ) :   0.9145
B( 17-C , 22-O ) :   0.8902 B( 17-C , 23-H ) :   0.9323 B( 18-C , 19-C ) :   0.9388
B( 18-C , 24-H ) :   0.9368 B( 18-C , 25-H ) :   0.9326 B( 19-C , 20-O ) :   0.8426
B( 19-C , 26-H ) :   0.9330 B( 19-C , 27-H ) :   0.9384 B( 22-O , 28-H ) :   0.7945

FINAL SINGLE POINT ENERGY      -652.850824055152

DIPOLE MOMENT
-------------
                                X             Y             Z
Electronic contribution:     -0.09257      -2.22931       0.32889
Nuclear contribution   :     -0.12227       2.96802      -0.77420
                        -----------------------------------------
Total Dipole Moment    :     -0.21484       0.73871      -0.44531
                        -----------------------------------------
Magnitude (a.u.)       :      0.88890
Magnitude (Debye)      :      2.25941

Rotational constants in cm-1:     0.054033     0.014079     0.013876
Rotational constants in MHz :  1619.875978   422.091175   415.994253

                             ****ORCA TERMINATED NORMALLY****
TOTAL RUN TIME: 0 days 2 hours 6 minutes 13 seconds 33 msec
