                         Program Version 4.2.1 -  RELEASE  -
|  1> # Test redundant internal optimization
|  2> #
|  3> ! RKS B3LYP  Opt TightSCF SmallPrint
|  4>
|  5> %basis
|  6>         Basis "6-31G"
|  7> end
|  8>
|  9> %geom
| 10> Constraints
| 11> { D 4  0  19  14  225.0   C } # D for Dihedral angle
| 12> { D 0  19  14  12  90.0   C } # D for Dihedral angle
| 13> { D 0  4  3  2   C } # D for Dihedral angle
| 14> { D 4  3  2  1   C } # D for Dihedral angle
| 15> { D 3  2  1  0   C } # D for Dihedral angle
| 16> { D 2  1  0  4   C } # D for Dihedral angle
| 17> { D 1  0  4  3   C } # D for Dihedral angle
| 18> { D 14  15  16  17   C } # D for Dihedral angle
| 19> { D 15  16  17  12   C } # D for Dihedral angle
| 20> { D 16  17  12  14   C } # D for Dihedral angle
| 21> { D 17  12  14  15   C } # D for Dihedral angle
| 22> { D 12  14  15  16   C } # D for Dihedral angle
| 23> end
| 24> end
| 25>
| 26>
| 27> #%pal
| 28> #nprocs 8
| 29> #end
| 30>
| 31> * xyz 0 1
| 32> C  -21.048   26.222   46.251
| 33> C  -20.361   27.558   45.944
| 34> C  -20.329   28.222   47.341
| 35> C  -20.110   27.022   48.296
| 36> O  -20.473   25.807   47.535
| 37> H  -20.833   25.428   45.533
| 38> H  -19.344   27.382   45.576
| 39> H  -20.898   28.157   45.201
| 40> H  -19.543   28.978   47.434
| 41> H  -21.289   28.710   47.548
| 42> H  -20.733   27.082   49.195
| 43> H  -19.064   26.913   48.597
| 44> C  -23.576   24.346   45.617
| 45> H  -23.886   23.794   44.715
| 46> C  -23.222   25.800   45.287
| 47> C  -24.622   26.449   45.183
| 48> C  -25.441   25.693   46.259
| 49> O  -24.695   24.452   46.561
| 50> H  -22.785   23.790   46.121
| 51> O  -22.472   26.381   46.366
| 52> H  -22.637   25.902   44.366
| 53> H  -24.603   27.530   45.355
| 54> H  -25.044   26.277   44.185
| 55> H  -26.447   25.431   45.914
| 56> H  -25.522   26.255   47.194
| 57> *
| 58>
| 59>                          ****END OF INPUT****
 Total Charge           Charge          ....    0
 Multiplicity           Mult            ....    1
 Number of Electrons    NEL             ....   86
FINAL SINGLE POINT ENERGY      -538.428859031671
FINAL SINGLE POINT ENERGY      -538.430878203804
FINAL SINGLE POINT ENERGY      -538.431150818059
FINAL SINGLE POINT ENERGY      -538.431185224761
FINAL SINGLE POINT ENERGY      -538.431195717401
                    ***********************HURRAY********************

CARTESIAN COORDINATES (ANGSTROEM)
---------------------------------
  C    -20.992565   26.199099   46.236735
  C    -20.340280   27.549749   45.946798
  C    -20.388269   28.232965   47.334405
  C    -20.170864   27.053212   48.306911
  O    -20.468651   25.826514   47.523210
  H    -20.739178   25.394870   45.539356
  H    -19.303507   27.394051   45.624489
  H    -20.868651   28.110846   45.171742
  H    -19.630206   29.013766   47.446677
  H    -21.374905   28.680133   47.487981
  H    -20.834426   27.082016   49.174368
  H    -19.133881   26.964986   48.644417
  C    -23.613035   24.317166   45.569047
  H    -23.974589   23.801868   44.665496
  C    -23.217733   25.756380   45.243664
  C    -24.588596   26.459295   45.217600
  C    -25.387215   25.722609   46.319632
  O    -24.675866   24.449353   46.564165
  H    -22.810224   23.735076   46.026655
  O    -22.436695   26.358809   46.317505
  H    -22.683287   25.846275   44.287845
  H    -24.480672   27.529303   45.409489
  H    -25.052152   26.323143   44.233269
  H    -26.418265   25.507107   46.018065
  H    -25.393290   26.272410   47.264481

 Multiplicity           Mult            ....    1
 Number of Electrons    NEL             ....   86
 Basis Dimension        Dim             ....  127

ORBITAL ENERGIES
----------------

  NO   OCC          E(Eh)            E(eV)
   0   2.0000     -19.138872      -520.7952
   1   2.0000     -19.137512      -520.7582
   2   2.0000     -19.125079      -520.4199
   3   2.0000     -10.279197      -279.7112
   4   2.0000     -10.242161      -278.7034
   5   2.0000     -10.222670      -278.1730
   6   2.0000     -10.219705      -278.0923
   7   2.0000     -10.217836      -278.0414
   8   2.0000     -10.186080      -277.1773
   9   2.0000     -10.185430      -277.1596
  10   2.0000     -10.184772      -277.1417
  11   2.0000      -1.051584       -28.6151
  12   2.0000      -1.012628       -27.5550
  13   2.0000      -0.988902       -26.9094
  14   2.0000      -0.789479       -21.4828
  15   2.0000      -0.777532       -21.1577
  16   2.0000      -0.736490       -20.0409
  17   2.0000      -0.722387       -19.6572
  18   2.0000      -0.609728       -16.5915
  19   2.0000      -0.597392       -16.2559
  20   2.0000      -0.594015       -16.1640
  21   2.0000      -0.576717       -15.6933
  22   2.0000      -0.523055       -14.2330
  23   2.0000      -0.501067       -13.6347
  24   2.0000      -0.485487       -13.2108
  25   2.0000      -0.476105       -12.9555
  26   2.0000      -0.447765       -12.1843
  27   2.0000      -0.440192       -11.9782
  28   2.0000      -0.437708       -11.9106
  29   2.0000      -0.412946       -11.2368
  30   2.0000      -0.406429       -11.0595
  31   2.0000      -0.380954       -10.3663
  32   2.0000      -0.369942       -10.0666
  33   2.0000      -0.363157        -9.8820
  34   2.0000      -0.356161        -9.6916
  35   2.0000      -0.355587        -9.6760
  36   2.0000      -0.347594        -9.4585
  37   2.0000      -0.314431        -8.5561
  38   2.0000      -0.307561        -8.3692
  39   2.0000      -0.300668        -8.1816
  40   2.0000      -0.262279        -7.1370
  41   2.0000      -0.246796        -6.7156
  42   2.0000      -0.230393        -6.2693
  43   0.0000       0.076539         2.0827
  44   0.0000       0.094921         2.5829
  45   0.0000       0.100133         2.7248
  46   0.0000       0.115740         3.1494
  47   0.0000       0.119910         3.2629

MULLIKEN ATOMIC CHARGES
-----------------------
   0 C :    0.289054
   1 C :   -0.254766
   2 C :   -0.300102
   3 C :   -0.000293
   4 O :   -0.501421
   5 H :    0.135550
   6 H :    0.141784
   7 H :    0.142059
   8 H :    0.141015
   9 H :    0.161368
  10 H :    0.155228
  11 H :    0.140389
  12 C :    0.005492
  13 H :    0.120109
  14 C :    0.051799
  15 C :   -0.292251
  16 C :    0.005598
  17 O :   -0.515936
  18 H :    0.168735
  19 O :   -0.505364
  20 H :    0.122505
  21 H :    0.160936
  22 H :    0.139254
  23 H :    0.134430
  24 H :    0.154827
Sum of atomic charges:    0.0000000

LOEWDIN ATOMIC CHARGES
----------------------
   0 C :    0.176386
   1 C :   -0.223825
   2 C :   -0.216730
   3 C :   -0.025243
   4 O :   -0.309964
   5 H :    0.095984
   6 H :    0.111787
   7 H :    0.115361
   8 H :    0.113824
   9 H :    0.118847
  10 H :    0.109877
  11 H :    0.101699
  12 C :   -0.046039
  13 H :    0.089306
  14 C :    0.035859
  15 C :   -0.225192
  16 C :   -0.026901
  17 O :   -0.326073
  18 H :    0.121562
  19 O :   -0.328058
  20 H :    0.093023
  21 H :    0.126602
  22 H :    0.111366
  23 H :    0.097483
  24 H :    0.109061

  Mayer bond orders larger than 0.100000
B(  0-C ,  1-C ) :   0.9381 B(  0-C ,  4-O ) :   0.9339 B(  0-C ,  5-H ) :   0.9187
B(  0-C , 19-O ) :   0.8370 B(  1-C ,  2-C ) :   0.9561 B(  1-C ,  6-H ) :   0.9353
B(  1-C ,  7-H ) :   0.9390 B(  2-C ,  3-C ) :   0.9546 B(  2-C ,  8-H ) :   0.9451
B(  2-C ,  9-H ) :   0.9437 B(  3-C ,  4-O ) :   0.8373 B(  3-C , 10-H ) :   0.9341
B(  3-C , 11-H ) :   0.9397 B( 12-C , 13-H ) :   0.9086 B( 12-C , 14-C ) :   0.9129
B( 12-C , 17-O ) :   0.8750 B( 12-C , 18-H ) :   0.9294 B( 14-C , 15-C ) :   0.9574
B( 14-C , 19-O ) :   0.8407 B( 14-C , 20-H ) :   0.9197 B( 15-C , 16-C ) :   0.9469
B( 15-C , 21-H ) :   0.9368 B( 15-C , 22-H ) :   0.9419 B( 16-C , 17-O ) :   0.8557
B( 16-C , 23-H ) :   0.9327 B( 16-C , 24-H ) :   0.9358

FINAL SINGLE POINT ENERGY      -538.431197076162

DIPOLE MOMENT
-------------
                                X             Y             Z
Electronic contribution:     -0.38421      -3.92753       1.66626
Nuclear contribution   :      0.77186       5.04676      -2.78802
                        -----------------------------------------
Total Dipole Moment    :      0.38765       1.11923      -1.12177
                        -----------------------------------------
Magnitude (a.u.)       :      1.63135
Magnitude (Debye)      :      4.14657

Rotational constants in cm-1:     0.079689     0.020187     0.019333
Rotational constants in MHz :  2389.018972   605.203326   579.603198

                             ****ORCA TERMINATED NORMALLY****
TOTAL RUN TIME: 0 days 0 hours 12 minutes 35 seconds 689 msec
