                         Program Version 4.2.0 -  RELEASE  -
|  1> # Test redundant internal optimization
|  2> #
|  3> ! RKS B3LYP  Opt TightSCF SmallPrint
|  4>
|  5> %basis
|  6>         Basis "6-31G"
|  7> end
|  8>
|  9> %geom
| 10> Constraints
| 11> { D 4  0  15  12  195.0   C } # D for Dihedral angle
| 12> { D 0  15  12  16  225.0   C } # D for Dihedral angle
| 13> { D 0  4  3  2   C } # D for Dihedral angle
| 14> { D 4  3  2  1   C } # D for Dihedral angle
| 15> { D 3  2  1  0   C } # D for Dihedral angle
| 16> { D 2  1  0  4   C } # D for Dihedral angle
| 17> { D 1  0  4  3   C } # D for Dihedral angle
| 18> { D 16  20  19  18   C } # D for Dihedral angle
| 19> { D 20  19  18  17   C } # D for Dihedral angle
| 20> { D 19  18  17  16   C } # D for Dihedral angle
| 21> { D 18  17  16  20   C } # D for Dihedral angle
| 22> { D 17  16  20  19   C } # D for Dihedral angle
| 23> { D 15  12  16  20   C } # D for Dihedral angle
| 24> end
| 25> end
| 26>
| 27>
| 28> #%pal
| 29> #nprocs 8
| 30> #end
| 31>
| 32> * xyz 0 1
| 33> C  -21.048   26.222   46.251
| 34> C  -20.361   27.558   45.944
| 35> C  -20.329   28.222   47.341
| 36> C  -20.110   27.022   48.296
| 37> O  -20.473   25.807   47.535
| 38> H  -20.833   25.428   45.533
| 39> H  -19.344   27.382   45.576
| 40> H  -20.898   28.157   45.201
| 41> H  -19.543   28.978   47.434
| 42> H  -21.289   28.710   47.548
| 43> H  -20.733   27.082   49.195
| 44> H  -19.064   26.913   48.597
| 45> C  -23.353   26.472   45.026
| 46> H  -22.638   26.649   44.213
| 47> H  -23.874   25.527   44.825
| 48> O  -22.586   26.394   46.375
| 49> C  -24.411   27.610   45.002
| 50> C  -25.396   27.478   46.170
| 51> C  -24.571   28.062   47.342
| 52> C  -23.747   29.187   46.668
| 53> O  -23.770   28.911   45.214
| 54> H  -24.880   27.641   44.017
| 55> H  -26.285   28.090   45.981
| 56> O  -25.851   26.016   46.423
| 57> H  -25.198   28.435   48.158
| 58> H  -23.908   27.292   47.755
| 59> H  -22.708   29.211   47.013
| 60> H  -24.192   30.175   46.814
| 61> H  -24.976   25.385   46.614
| 62> *
| 63>
| 64>                          ****END OF INPUT****
 Total Charge           Charge          ....    0
 Multiplicity           Mult            ....    1
 Number of Electrons    NEL             ....  102
FINAL SINGLE POINT ENERGY      -652.829019928348
FINAL SINGLE POINT ENERGY      -652.851748361883
FINAL SINGLE POINT ENERGY      -652.856934751970
FINAL SINGLE POINT ENERGY      -652.860397614051
FINAL SINGLE POINT ENERGY      -652.860745483516
FINAL SINGLE POINT ENERGY      -652.860795715466
FINAL SINGLE POINT ENERGY      -652.860798752159
                    ***********************HURRAY********************

CARTESIAN COORDINATES (ANGSTROEM)
---------------------------------
  C    -21.034940   26.211230   46.190326
  C    -20.321024   27.529303   45.899492
  C    -20.249860   28.174221   47.305475
  C    -20.049002   26.956077   48.230989
  O    -20.465086   25.773737   47.428352
  H    -20.851760   25.419476   45.456023
  H    -19.317661   27.314817   45.514228
  H    -20.850945   28.157968   45.178749
  H    -19.437562   28.902207   47.390943
  H    -21.189524   28.681180   47.529817
  H    -20.657653   26.992889   49.137688
  H    -19.002227   26.793349   48.502749
  C    -23.217433   26.471318   45.096724
  H    -22.518676   26.660130   44.272258
  H    -23.724459   25.517040   44.899863
  O    -22.481340   26.367337   46.356750
  C    -24.264213   27.579882   45.087769
  C    -25.382249   27.429435   46.134859
  C    -24.754819   28.134726   47.375688
  C    -23.938399   29.278229   46.741514
  O    -23.755485   28.927294   45.306467
  H    -24.687196   27.582039   44.075148
  H    -26.282333   27.947067   45.797071
  O    -25.799293   26.064728   46.371290
  H    -25.513998   28.491816   48.076946
  H    -24.095683   27.424563   47.884389
  H    -22.960620   29.414202   47.205488
  H    -24.473917   30.232698   46.759695
  H    -25.091640   25.587042   46.854250

 Multiplicity           Mult            ....    1
 Number of Electrons    NEL             ....  102
 Basis Dimension        Dim             ....  149

ORBITAL ENERGIES
----------------

  NO   OCC          E(Eh)            E(eV)
   0   2.0000     -19.148025      -521.0443
   1   2.0000     -19.145908      -520.9866
   2   2.0000     -19.141725      -520.8728
   3   2.0000     -19.139516      -520.8127
   4   2.0000     -10.283671      -279.8329
   5   2.0000     -10.237903      -278.5875
   6   2.0000     -10.233797      -278.4758
   7   2.0000     -10.233443      -278.4661
   8   2.0000     -10.229223      -278.3513
   9   2.0000     -10.227007      -278.2910
  10   2.0000     -10.189562      -277.2721
  11   2.0000     -10.187408      -277.2135
  12   2.0000     -10.182297      -277.0744
  13   2.0000      -1.056939       -28.7608
  14   2.0000      -1.030025       -28.0284
  15   2.0000      -1.011768       -27.5316
  16   2.0000      -0.998322       -27.1657
  17   2.0000      -0.789251       -21.4766
  18   2.0000      -0.775465       -21.1015
  19   2.0000      -0.768904       -20.9229
  20   2.0000      -0.735262       -20.0075
  21   2.0000      -0.681395       -18.5417
  22   2.0000      -0.606750       -16.5105
  23   2.0000      -0.603357       -16.4182
  24   2.0000      -0.595500       -16.2044
  25   2.0000      -0.573457       -15.6046
  26   2.0000      -0.528804       -14.3895
  27   2.0000      -0.508067       -13.8252
  28   2.0000      -0.496551       -13.5118
  29   2.0000      -0.492968       -13.4143
  30   2.0000      -0.475041       -12.9265
  31   2.0000      -0.462230       -12.5779
  32   2.0000      -0.444892       -12.1061
  33   2.0000      -0.436727       -11.8839
  34   2.0000      -0.426175       -11.5968
  35   2.0000      -0.414239       -11.2720
  36   2.0000      -0.404860       -11.0168
  37   2.0000      -0.399306       -10.8657
  38   2.0000      -0.377633       -10.2759
  39   2.0000      -0.376291       -10.2394
  40   2.0000      -0.358014        -9.7421
  41   2.0000      -0.356975        -9.7138
  42   2.0000      -0.352230        -9.5847
  43   2.0000      -0.329301        -8.9607
  44   2.0000      -0.318907        -8.6779
  45   2.0000      -0.313230        -8.5234
  46   2.0000      -0.305950        -8.3253
  47   2.0000      -0.268572        -7.3082
  48   2.0000      -0.265862        -7.2345
  49   2.0000      -0.259338        -7.0569
  50   2.0000      -0.241044        -6.5591
  51   0.0000       0.066018         1.7965
  52   0.0000       0.073968         2.0128
  53   0.0000       0.090608         2.4656
  54   0.0000       0.094613         2.5745
  55   0.0000       0.103783         2.8241

MULLIKEN ATOMIC CHARGES
-----------------------
   0 C :    0.300991
   1 C :   -0.278100
   2 C :   -0.315488
   3 C :   -0.003892
   4 O :   -0.506210
   5 H :    0.143654
   6 H :    0.145638
   7 H :    0.168428
   8 H :    0.145494
   9 H :    0.169644
  10 H :    0.150009
  11 H :    0.145342
  12 C :   -0.039728
  13 H :    0.141517
  14 H :    0.149740
  15 O :   -0.527005
  16 C :    0.102310
  17 C :    0.087635
  18 C :   -0.317272
  19 C :   -0.013068
  20 O :   -0.525867
  21 H :    0.147509
  22 H :    0.161400
  23 O :   -0.606676
  24 H :    0.147189
  25 H :    0.170244
  26 H :    0.143898
  27 H :    0.143013
  28 H :    0.369650
Sum of atomic charges:   -0.0000000

LOEWDIN ATOMIC CHARGES
----------------------
   0 C :    0.180949
   1 C :   -0.231501
   2 C :   -0.217500
   3 C :   -0.025651
   4 O :   -0.303662
   5 H :    0.096869
   6 H :    0.115242
   7 H :    0.126628
   8 H :    0.116584
   9 H :    0.115030
  10 H :    0.107066
  11 H :    0.104122
  12 C :   -0.052278
  13 H :    0.104175
  14 H :    0.108070
  15 O :   -0.350865
  16 C :    0.016106
  17 C :    0.037596
  18 C :   -0.242902
  19 C :   -0.025662
  20 O :   -0.325735
  21 H :    0.114209
  22 H :    0.115688
  23 O :   -0.409971
  24 H :    0.117203
  25 H :    0.124140
  26 H :    0.098466
  27 H :    0.101461
  28 H :    0.286123

  Mayer bond orders larger than 0.100000
B(  0-C ,  1-C ) :   0.9278 B(  0-C ,  4-O ) :   0.9412 B(  0-C ,  5-H ) :   0.9211
B(  0-C , 15-O ) :   0.8208 B(  1-C ,  2-C ) :   0.9541 B(  1-C ,  6-H ) :   0.9325
B(  1-C ,  7-H ) :   0.9252 B(  2-C ,  3-C ) :   0.9544 B(  2-C ,  8-H ) :   0.9451
B(  2-C ,  9-H ) :   0.9250 B(  3-C ,  4-O ) :   0.8339 B(  3-C , 10-H ) :   0.9351
B(  3-C , 11-H ) :   0.9395 B( 12-C , 13-H ) :   0.9212 B( 12-C , 14-H ) :   0.9084
B( 12-C , 15-O ) :   0.8406 B( 12-C , 16-C ) :   0.9043 B( 16-C , 17-C ) :   0.8859
B( 16-C , 20-O ) :   0.8779 B( 16-C , 21-H ) :   0.9251 B( 17-C , 18-C ) :   0.9341
B( 17-C , 22-H ) :   0.9367 B( 17-C , 23-O ) :   0.9058 B( 18-C , 19-C ) :   0.9446
B( 18-C , 24-H ) :   0.9409 B( 18-C , 25-H ) :   0.9262 B( 19-C , 20-O ) :   0.8406
B( 19-C , 26-H ) :   0.9136 B( 19-C , 27-H ) :   0.9379 B( 23-O , 28-H ) :   0.7890

FINAL SINGLE POINT ENERGY      -652.860796934036

DIPOLE MOMENT
-------------
                                X             Y             Z
Electronic contribution:     -2.58626      -3.65471      -1.47491
Nuclear contribution   :      3.28919       4.33475       1.55952
                        -----------------------------------------
Total Dipole Moment    :      0.70294       0.68004       0.08461
                        -----------------------------------------
Magnitude (a.u.)       :      0.98170
Magnitude (Debye)      :      2.49529

Rotational constants in cm-1:     0.045047     0.017275     0.015955
Rotational constants in MHz :  1350.488025   517.904871   478.308400

                             ****ORCA TERMINATED NORMALLY****
TOTAL RUN TIME: 0 days 0 hours 27 minutes 17 seconds 86 msec
