                         Program Version 4.2.0 -  RELEASE  -
|  1> # Test redundant internal optimization
|  2> #
|  3> ! RKS B3LYP  Opt TightSCF SmallPrint
|  4>
|  5> %basis
|  6>         Basis "6-31G"
|  7> end
|  8>
|  9> %geom
| 10> Constraints
| 11> { D 4  0  15  12  180.0   C } # D for Dihedral angle
| 12> { D 0  15  12  16  330.0   C } # D for Dihedral angle
| 13> { D 0  4  3  2   C } # D for Dihedral angle
| 14> { D 4  3  2  1   C } # D for Dihedral angle
| 15> { D 3  2  1  0   C } # D for Dihedral angle
| 16> { D 2  1  0  4   C } # D for Dihedral angle
| 17> { D 1  0  4  3   C } # D for Dihedral angle
| 18> { D 16  20  19  18   C } # D for Dihedral angle
| 19> { D 20  19  18  17   C } # D for Dihedral angle
| 20> { D 19  18  17  16   C } # D for Dihedral angle
| 21> { D 18  17  16  20   C } # D for Dihedral angle
| 22> { D 17  16  20  19   C } # D for Dihedral angle
| 23> { D 15  12  16  20   C } # D for Dihedral angle
| 24> end
| 25> end
| 26>
| 27>
| 28> #%pal
| 29> #nprocs 8
| 30> #end
| 31>
| 32> * xyz 0 1
| 33> C  -21.048   26.222   46.251
| 34> C  -20.361   27.558   45.944
| 35> C  -20.329   28.222   47.341
| 36> C  -20.110   27.022   48.296
| 37> O  -20.473   25.807   47.535
| 38> H  -20.833   25.428   45.533
| 39> H  -19.344   27.382   45.576
| 40> H  -20.898   28.157   45.201
| 41> H  -19.543   28.978   47.434
| 42> H  -21.289   28.710   47.548
| 43> H  -20.733   27.082   49.195
| 44> H  -19.064   26.913   48.597
| 45> C  -23.309   26.834   45.072
| 46> H  -23.617   25.943   44.511
| 47> H  -24.207   27.417   45.310
| 48> O  -22.586   26.394   46.375
| 49> C  -22.409   27.704   44.151
| 50> C  -23.188   28.215   42.934
| 51> C  -23.978   29.399   43.542
| 52> C  -22.993   29.978   44.588
| 53> O  -21.990   28.924   44.849
| 54> H  -21.503   27.147   43.906
| 55> H  -22.494   28.568   42.163
| 56> O  -24.112   27.136   42.304
| 57> H  -24.274   30.140   42.792
| 58> H  -24.889   29.033   44.030
| 59> H  -23.488   30.242   45.529
| 60> H  -22.452   30.852   44.213
| 61> H  -24.817   26.768   43.057
| 62> *
| 63>
| 64>                          ****END OF INPUT****
 Total Charge           Charge          ....    0
 Multiplicity           Mult            ....    1
 Number of Electrons    NEL             ....  102
FINAL SINGLE POINT ENERGY      -652.773470789700
FINAL SINGLE POINT ENERGY      -652.820017387466
FINAL SINGLE POINT ENERGY      -652.841309224535
FINAL SINGLE POINT ENERGY      -652.845699392574
FINAL SINGLE POINT ENERGY      -652.846457124477
FINAL SINGLE POINT ENERGY      -652.846663390925
FINAL SINGLE POINT ENERGY      -652.846678766057
FINAL SINGLE POINT ENERGY      -652.846682564884
                    ***********************HURRAY********************

CARTESIAN COORDINATES (ANGSTROEM)
---------------------------------
  C    -20.868387   26.214968   46.238496
  C    -20.011120   27.471610   46.094397
  C    -20.199849   28.152119   47.474512
  C    -20.296544   26.947712   48.432534
  O    -20.613632   25.776655   47.580681
  H    -20.599698   25.392192   45.567239
  H    -18.969886   27.148448   45.965301
  H    -20.283488   28.136301   45.278723
  H    -19.374453   28.824900   47.725827
  H    -21.130333   28.726847   47.466834
  H    -21.083666   27.053325   49.184167
  H    -19.347948   26.723773   48.930956
  C    -23.083920   26.884470   45.048914
  H    -23.438940   25.993932   44.505511
  H    -23.954158   27.371839   45.502824
  O    -22.318317   26.431322   46.199896
  C    -22.462389   27.801930   43.994164
  C    -23.461338   28.199909   42.890485
  C    -24.207324   29.403647   43.551209
  C    -23.089334   30.083043   44.374026
  O    -22.001191   29.081101   44.528217
  H    -21.579709   27.320676   43.561843
  H    -22.904246   28.539137   42.014397
  O    -24.311120   27.144781   42.391626
  H    -24.652163   30.068505   42.806615
  H    -25.011301   29.029734   44.198098
  H    -23.420711   30.398756   45.367189
  H    -22.657280   30.942730   43.854546
  H    -24.998558   26.910637   43.047775

 Multiplicity           Mult            ....    1
 Number of Electrons    NEL             ....  102
 Basis Dimension        Dim             ....  149

ORBITAL ENERGIES
----------------

  NO   OCC          E(Eh)            E(eV)
   0   2.0000     -19.157677      -521.3069
   1   2.0000     -19.152415      -521.1637
   2   2.0000     -19.129426      -520.5382
   3   2.0000     -19.128748      -520.5197
   4   2.0000     -10.271270      -279.4955
   5   2.0000     -10.255477      -279.0657
   6   2.0000     -10.242291      -278.7069
   7   2.0000     -10.241454      -278.6841
   8   2.0000     -10.232583      -278.4427
   9   2.0000     -10.213847      -277.9329
  10   2.0000     -10.204470      -277.6777
  11   2.0000     -10.172883      -276.8182
  12   2.0000     -10.167551      -276.6731
  13   2.0000      -1.046174       -28.4678
  14   2.0000      -1.038950       -28.2713
  15   2.0000      -1.027161       -27.9505
  16   2.0000      -0.979237       -26.6464
  17   2.0000      -0.792676       -21.5698
  18   2.0000      -0.774106       -21.0645
  19   2.0000      -0.771222       -20.9860
  20   2.0000      -0.729983       -19.8639
  21   2.0000      -0.682703       -18.5773
  22   2.0000      -0.621962       -16.9244
  23   2.0000      -0.604002       -16.4357
  24   2.0000      -0.587233       -15.9794
  25   2.0000      -0.564322       -15.3560
  26   2.0000      -0.533466       -14.5163
  27   2.0000      -0.516087       -14.0434
  28   2.0000      -0.490919       -13.3586
  29   2.0000      -0.484990       -13.1972
  30   2.0000      -0.467347       -12.7172
  31   2.0000      -0.453272       -12.3342
  32   2.0000      -0.447503       -12.1772
  33   2.0000      -0.436658       -11.8821
  34   2.0000      -0.436340       -11.8734
  35   2.0000      -0.418597       -11.3906
  36   2.0000      -0.412034       -11.2120
  37   2.0000      -0.398039       -10.8312
  38   2.0000      -0.387105       -10.5337
  39   2.0000      -0.364910        -9.9297
  40   2.0000      -0.361610        -9.8399
  41   2.0000      -0.350454        -9.5363
  42   2.0000      -0.338630        -9.2146
  43   2.0000      -0.333801        -9.0832
  44   2.0000      -0.322991        -8.7890
  45   2.0000      -0.303443        -8.2571
  46   2.0000      -0.289582        -7.8799
  47   2.0000      -0.282031        -7.6745
  48   2.0000      -0.257582        -7.0092
  49   2.0000      -0.246967        -6.7203
  50   2.0000      -0.238286        -6.4841
  51   0.0000       0.046426         1.2633
  52   0.0000       0.068238         1.8568
  53   0.0000       0.080276         2.1844
  54   0.0000       0.094444         2.5700
  55   0.0000       0.103131         2.8063

MULLIKEN ATOMIC CHARGES
-----------------------
   0 C :    0.300068
   1 C :   -0.290588
   2 C :   -0.297760
   3 C :    0.000315
   4 O :   -0.500322
   5 H :    0.135208
   6 H :    0.132878
   7 H :    0.196687
   8 H :    0.134771
   9 H :    0.158448
  10 H :    0.147602
  11 H :    0.137418
  12 C :    0.009706
  13 H :    0.132295
  14 H :    0.136748
  15 O :   -0.526593
  16 C :    0.059756
  17 C :    0.090381
  18 C :   -0.326123
  19 C :   -0.005053
  20 O :   -0.523277
  21 H :    0.156364
  22 H :    0.169894
  23 O :   -0.595370
  24 H :    0.162711
  25 H :    0.138937
  26 H :    0.151053
  27 H :    0.153775
  28 H :    0.360072
Sum of atomic charges:   -0.0000000

LOEWDIN ATOMIC CHARGES
----------------------
   0 C :    0.187209
   1 C :   -0.240389
   2 C :   -0.214710
   3 C :   -0.027322
   4 O :   -0.303904
   5 H :    0.093139
   6 H :    0.109200
   7 H :    0.137936
   8 H :    0.111358
   9 H :    0.116732
  10 H :    0.105706
  11 H :    0.099728
  12 C :   -0.047114
  13 H :    0.098401
  14 H :    0.104173
  15 O :   -0.338343
  16 C :    0.001685
  17 C :    0.039594
  18 C :   -0.240949
  19 C :   -0.027584
  20 O :   -0.323297
  21 H :    0.112328
  22 H :    0.120244
  23 O :   -0.401958
  24 H :    0.125197
  25 H :    0.107069
  26 H :    0.106670
  27 H :    0.108457
  28 H :    0.280747

  Mayer bond orders larger than 0.100000
B(  0-C ,  1-C ) :   0.9318 B(  0-C ,  4-O ) :   0.9368 B(  0-C ,  5-H ) :   0.9227
B(  0-C , 15-O ) :   0.8229 B(  1-C ,  2-C ) :   0.9534 B(  1-C ,  6-H ) :   0.9312
B(  1-C ,  7-H ) :   0.8983 B(  2-C ,  3-C ) :   0.9557 B(  2-C ,  8-H ) :   0.9457
B(  2-C ,  9-H ) :   0.9425 B(  3-C ,  4-O ) :   0.8344 B(  3-C , 10-H ) :   0.9360
B(  3-C , 11-H ) :   0.9398 B( 12-C , 13-H ) :   0.9003 B( 12-C , 14-H ) :   0.9352
B( 12-C , 15-O ) :   0.8722 B( 12-C , 16-C ) :   0.8905 B( 16-C , 17-C ) :   0.8705
B( 16-C , 20-O ) :   0.8335 B( 16-C , 21-H ) :   0.9294 B( 17-C , 18-C ) :   0.9219
B( 17-C , 22-H ) :   0.9327 B( 17-C , 23-O ) :   0.9081 B( 18-C , 19-C ) :   0.9407
B( 18-C , 24-H ) :   0.9411 B( 18-C , 25-H ) :   0.9397 B( 19-C , 20-O ) :   0.8320
B( 19-C , 26-H ) :   0.9318 B( 19-C , 27-H ) :   0.9382 B( 23-O , 28-H ) :   0.7950

FINAL SINGLE POINT ENERGY      -652.846682599968

DIPOLE MOMENT
-------------
                                X             Y             Z
Electronic contribution:     -0.57876      -4.42837      -0.89807
Nuclear contribution   :      0.06183       5.82249       0.40160
                        -----------------------------------------
Total Dipole Moment    :     -0.51693       1.39413      -0.49648
                        -----------------------------------------
Magnitude (a.u.)       :      1.56757
Magnitude (Debye)      :      3.98446

Rotational constants in cm-1:     0.055457     0.014660     0.012843
Rotational constants in MHz :  1662.552375   439.498805   385.037611

                             ****ORCA TERMINATED NORMALLY****
TOTAL RUN TIME: 0 days 0 hours 25 minutes 26 seconds 344 msec
