                         Program Version 4.2.0 -  RELEASE  -
|  1> # Test redundant internal optimization
|  2> #
|  3> ! RKS B3LYP  Opt TightSCF SmallPrint
|  4>
|  5> %basis
|  6>         Basis "6-31G"
|  7> end
|  8>
|  9> %geom
| 10> Constraints
| 11> { D 4  0  15  12  30.0   C } # D for Dihedral angle
| 12> { D 0  15  12  16  255.0   C } # D for Dihedral angle
| 13> { D 0  4  3  2   C } # D for Dihedral angle
| 14> { D 4  3  2  1   C } # D for Dihedral angle
| 15> { D 3  2  1  0   C } # D for Dihedral angle
| 16> { D 2  1  0  4   C } # D for Dihedral angle
| 17> { D 1  0  4  3   C } # D for Dihedral angle
| 18> { D 16  20  19  18   C } # D for Dihedral angle
| 19> { D 20  19  18  17   C } # D for Dihedral angle
| 20> { D 19  18  17  16   C } # D for Dihedral angle
| 21> { D 18  17  16  20   C } # D for Dihedral angle
| 22> { D 17  16  20  19   C } # D for Dihedral angle
| 23> { D 15  12  16  20   C } # D for Dihedral angle
| 24> end
| 25> end
| 26>
| 27>
| 28> #%pal
| 29> #nprocs 8
| 30> #end
| 31>
| 32> * xyz 0 1
| 33> C  -21.048   26.222   46.251
| 34> C  -20.361   27.558   45.944
| 35> C  -20.329   28.222   47.341
| 36> C  -20.110   27.022   48.296
| 37> O  -20.473   25.807   47.535
| 38> H  -20.833   25.428   45.533
| 39> H  -19.344   27.382   45.576
| 40> H  -20.898   28.157   45.201
| 41> H  -19.543   28.978   47.434
| 42> H  -21.289   28.710   47.548
| 43> H  -20.733   27.082   49.195
| 44> H  -19.064   26.913   48.597
| 45> C  -23.091   26.824   47.779
| 46> H  -22.245   27.198   48.370
| 47> H  -23.831   27.630   47.691
| 48> O  -22.586   26.394   46.375
| 49> C  -23.755   25.657   48.562
| 50> C  -24.344   26.143   49.891
| 51> C  -25.670   26.792   49.429
| 52> C  -26.112   25.888   48.251
| 53> O  -24.911   25.137   47.824
| 54> H  -23.041   24.837   48.657
| 55> H  -24.541   25.290   50.550
| 56> O  -23.417   27.137   50.642
| 57> H  -26.421   26.837   50.224
| 58> H  -25.487   27.816   49.082
| 59> H  -26.495   26.464   47.401
| 60> H  -26.864   25.151   48.548
| 61> H  -23.207   28.001   50.002
| 62> *
| 63>
| 64>                          ****END OF INPUT****
 Total Charge           Charge          ....    0
 Multiplicity           Mult            ....    1
 Number of Electrons    NEL             ....  102
FINAL SINGLE POINT ENERGY      -652.816672354620
FINAL SINGLE POINT ENERGY      -652.841176721716
FINAL SINGLE POINT ENERGY      -652.848373989841
FINAL SINGLE POINT ENERGY      -652.850908926599
FINAL SINGLE POINT ENERGY      -652.851324110708
FINAL SINGLE POINT ENERGY      -652.851444777503
FINAL SINGLE POINT ENERGY      -652.851448312696
FINAL SINGLE POINT ENERGY      -652.851448706371
                    ***********************HURRAY********************

CARTESIAN COORDINATES (ANGSTROEM)
---------------------------------
  C    -21.133101   26.281410   46.385768
  C    -20.367109   27.520850   45.907585
  C    -20.058239   28.244744   47.247116
  C    -19.823400   27.067678   48.226075
  O    -20.426561   25.872205   47.579300
  H    -21.075136   25.444074   45.688322
  H    -19.441841   27.200595   45.415880
  H    -20.952834   28.123829   45.210332
  H    -19.184804   28.900551   47.180009
  H    -20.912020   28.858054   47.554588
  H    -20.285548   27.211617   49.207617
  H    -18.760863   26.846465   48.363846
  C    -23.105138   26.916408   47.828191
  H    -22.338676   27.323719   48.491648
  H    -23.826585   27.706584   47.588613
  O    -22.558485   26.482172   46.552552
  C    -23.789148   25.750500   48.544897
  C    -24.434885   26.144679   49.883748
  C    -25.808839   26.716582   49.422339
  C    -26.156421   25.823622   48.210115
  O    -24.892065   25.178827   47.778137
  H    -23.053516   24.950325   48.660272
  H    -24.577530   25.251866   50.496619
  O    -23.646236   27.040435   50.711197
  H    -26.563288   26.675848   50.213426
  H    -25.687669   27.767384   49.124058
  H    -26.575234   26.388896   47.371148
  H    -26.851891   25.021245   48.474493
  H    -23.755937   27.965839   50.411107

 Multiplicity           Mult            ....    1
 Number of Electrons    NEL             ....  102
 Basis Dimension        Dim             ....  149

ORBITAL ENERGIES
----------------

  NO   OCC          E(Eh)            E(eV)
   0   2.0000     -19.150184      -521.1030
   1   2.0000     -19.146346      -520.9986
   2   2.0000     -19.134501      -520.6762
   3   2.0000     -19.132046      -520.6094
   4   2.0000     -10.275176      -279.6018
   5   2.0000     -10.242915      -278.7239
   6   2.0000     -10.231254      -278.4066
   7   2.0000     -10.227539      -278.3055
   8   2.0000     -10.227485      -278.3040
   9   2.0000     -10.222259      -278.1618
  10   2.0000     -10.195740      -277.4402
  11   2.0000     -10.193280      -277.3733
  12   2.0000     -10.185379      -277.1583
  13   2.0000      -1.051187       -28.6042
  14   2.0000      -1.031524       -28.0692
  15   2.0000      -1.012199       -27.5433
  16   2.0000      -0.989893       -26.9364
  17   2.0000      -0.788574       -21.4582
  18   2.0000      -0.780815       -21.2471
  19   2.0000      -0.767405       -20.8821
  20   2.0000      -0.731964       -19.9178
  21   2.0000      -0.678676       -18.4677
  22   2.0000      -0.610149       -16.6030
  23   2.0000      -0.603436       -16.4203
  24   2.0000      -0.597764       -16.2660
  25   2.0000      -0.564998       -15.3744
  26   2.0000      -0.521563       -14.1925
  27   2.0000      -0.514545       -14.0015
  28   2.0000      -0.501401       -13.6438
  29   2.0000      -0.492855       -13.4113
  30   2.0000      -0.465733       -12.6732
  31   2.0000      -0.459063       -12.4917
  32   2.0000      -0.438410       -11.9297
  33   2.0000      -0.431634       -11.7454
  34   2.0000      -0.423400       -11.5213
  35   2.0000      -0.418002       -11.3744
  36   2.0000      -0.413092       -11.2408
  37   2.0000      -0.398106       -10.8330
  38   2.0000      -0.377314       -10.2672
  39   2.0000      -0.373603       -10.1663
  40   2.0000      -0.360211        -9.8018
  41   2.0000      -0.353161        -9.6100
  42   2.0000      -0.347405        -9.4534
  43   2.0000      -0.325977        -8.8703
  44   2.0000      -0.323924        -8.8144
  45   2.0000      -0.314994        -8.5714
  46   2.0000      -0.304037        -8.2733
  47   2.0000      -0.269845        -7.3428
  48   2.0000      -0.261213        -7.1080
  49   2.0000      -0.254560        -6.9269
  50   2.0000      -0.228350        -6.2137
  51   0.0000       0.048665         1.3243
  52   0.0000       0.074678         2.0321
  53   0.0000       0.084399         2.2966
  54   0.0000       0.092524         2.5177
  55   0.0000       0.103519         2.8169

MULLIKEN ATOMIC CHARGES
-----------------------
   0 C :    0.292647
   1 C :   -0.257887
   2 C :   -0.311721
   3 C :   -0.025710
   4 O :   -0.508993
   5 H :    0.166418
   6 H :    0.147384
   7 H :    0.155408
   8 H :    0.147569
   9 H :    0.144985
  10 H :    0.155119
  11 H :    0.151024
  12 C :   -0.026825
  13 H :    0.138325
  14 H :    0.131529
  15 O :   -0.514784
  16 C :    0.097773
  17 C :    0.078491
  18 C :   -0.333031
  19 C :   -0.009018
  20 O :   -0.502217
  21 H :    0.176461
  22 H :    0.169918
  23 O :   -0.601466
  24 H :    0.159162
  25 H :    0.131310
  26 H :    0.144680
  27 H :    0.149672
  28 H :    0.353777
Sum of atomic charges:   -0.0000000

LOEWDIN ATOMIC CHARGES
----------------------
   0 C :    0.178885
   1 C :   -0.225417
   2 C :   -0.223252
   3 C :   -0.038156
   4 O :   -0.320525
   5 H :    0.112485
   6 H :    0.116212
   7 H :    0.122632
   8 H :    0.117154
   9 H :    0.107972
  10 H :    0.104691
  11 H :    0.106989
  12 C :   -0.051268
  13 H :    0.104214
  14 H :    0.099397
  15 O :   -0.317674
  16 C :    0.014368
  17 C :    0.033186
  18 C :   -0.243947
  19 C :   -0.030137
  20 O :   -0.312248
  21 H :    0.125324
  22 H :    0.120068
  23 O :   -0.411091
  24 H :    0.122427
  25 H :    0.102482
  26 H :    0.103194
  27 H :    0.105894
  28 H :    0.276142

  Mayer bond orders larger than 0.100000
B(  0-C ,  1-C ) :   0.9168 B(  0-C ,  4-O ) :   0.9010 B(  0-C ,  5-H ) :   0.9335
B(  0-C , 15-O ) :   0.8806 B(  1-C ,  2-C ) :   0.9537 B(  1-C ,  6-H ) :   0.9349
B(  1-C ,  7-H ) :   0.9375 B(  2-C ,  3-C ) :   0.9489 B(  2-C ,  8-H ) :   0.9449
B(  2-C ,  9-H ) :   0.9443 B(  3-C ,  4-O ) :   0.8361 B(  3-C , 10-H ) :   0.9261
B(  3-C , 11-H ) :   0.9386 B( 12-C , 13-H ) :   0.8941 B( 12-C , 14-H ) :   0.9368
B( 12-C , 15-O ) :   0.8510 B( 12-C , 16-C ) :   0.8911 B( 16-C , 17-C ) :   0.8693
B( 16-C , 20-O ) :   0.8686 B( 16-C , 21-H ) :   0.9261 B( 17-C , 18-C ) :   0.9280
B( 17-C , 22-H ) :   0.9318 B( 17-C , 23-O ) :   0.8887 B( 18-C , 19-C ) :   0.9387
B( 18-C , 24-H ) :   0.9411 B( 18-C , 25-H ) :   0.9400 B( 19-C , 20-O ) :   0.8555
B( 19-C , 26-H ) :   0.9313 B( 19-C , 27-H ) :   0.9372 B( 23-O , 28-H ) :   0.8003

FINAL SINGLE POINT ENERGY      -652.851448818638

DIPOLE MOMENT
-------------
                                X             Y             Z
Electronic contribution:     -0.78559      -4.87065      -0.54769
Nuclear contribution   :      0.72605       6.46335       0.78948
                        -----------------------------------------
Total Dipole Moment    :     -0.05954       1.59270       0.24179
                        -----------------------------------------
Magnitude (a.u.)       :      1.61205
Magnitude (Debye)      :      4.09750

Rotational constants in cm-1:     0.051056     0.014887     0.013084
Rotational constants in MHz :  1530.624716   446.289467   392.238605

                             ****ORCA TERMINATED NORMALLY****
TOTAL RUN TIME: 0 days 0 hours 28 minutes 11 seconds 863 msec
