                         Program Version 4.2.0 -  RELEASE  -
|  1> # Test redundant internal optimization
|  2> #
|  3> ! RKS B3LYP  Opt TightSCF SmallPrint
|  4>
|  5> %basis
|  6>         Basis "6-31G"
|  7> end
|  8>
|  9> %geom
| 10> Constraints
| 11> { D 4  0  15  12  30.0   C } # D for Dihedral angle
| 12> { D 0  15  12  16  105.0   C } # D for Dihedral angle
| 13> { D 0  4  3  2   C } # D for Dihedral angle
| 14> { D 4  3  2  1   C } # D for Dihedral angle
| 15> { D 3  2  1  0   C } # D for Dihedral angle
| 16> { D 2  1  0  4   C } # D for Dihedral angle
| 17> { D 1  0  4  3   C } # D for Dihedral angle
| 18> { D 16  20  19  18   C } # D for Dihedral angle
| 19> { D 20  19  18  17   C } # D for Dihedral angle
| 20> { D 19  18  17  16   C } # D for Dihedral angle
| 21> { D 18  17  16  20   C } # D for Dihedral angle
| 22> { D 17  16  20  19   C } # D for Dihedral angle
| 23> { D 15  12  16  20   C } # D for Dihedral angle
| 24> end
| 25> end
| 26>
| 27>
| 28> #%pal
| 29> #nprocs 8
| 30> #end
| 31>
| 32> * xyz 0 1
| 33> C  -21.048   26.222   46.251
| 34> C  -20.361   27.558   45.944
| 35> C  -20.329   28.222   47.341
| 36> C  -20.110   27.022   48.296
| 37> O  -20.473   25.807   47.535
| 38> H  -20.833   25.428   45.533
| 39> H  -19.344   27.382   45.576
| 40> H  -20.898   28.157   45.201
| 41> H  -19.543   28.978   47.434
| 42> H  -21.289   28.710   47.548
| 43> H  -20.733   27.082   49.195
| 44> H  -19.064   26.913   48.597
| 45> C  -23.091   26.824   47.779
| 46> H  -23.956   26.209   48.057
| 47> H  -22.307   26.673   48.533
| 48> O  -22.586   26.394   46.375
| 49> C  -23.517   28.318   47.833
| 50> C  -24.727   28.584   46.931
| 51> C  -25.891   28.061   47.806
| 52> C  -25.441   28.423   49.244
| 53> O  -23.984   28.669   49.178
| 54> H  -22.648   28.945   47.623
| 55> H  -24.832   29.661   46.752
| 56> O  -24.635   27.865   45.558
| 57> H  -26.854   28.512   47.545
| 58> H  -25.988   26.975   47.692
| 59> H  -25.637   27.617   49.959
| 60> H  -25.907   29.341   49.609
| 61> H  -24.529   26.786   45.714
| 62> *
| 63>
| 64>                          ****END OF INPUT****
 Total Charge           Charge          ....    0
 Multiplicity           Mult            ....    1
 Number of Electrons    NEL             ....  102
FINAL SINGLE POINT ENERGY      -652.812316407199
FINAL SINGLE POINT ENERGY      -652.840104514003
FINAL SINGLE POINT ENERGY      -652.855238280047
FINAL SINGLE POINT ENERGY      -652.858711083531
FINAL SINGLE POINT ENERGY      -652.860157806556
FINAL SINGLE POINT ENERGY      -652.860961539230
FINAL SINGLE POINT ENERGY      -652.861242129288
FINAL SINGLE POINT ENERGY      -652.861309271632
FINAL SINGLE POINT ENERGY      -652.861317278494
                    ***********************HURRAY********************

CARTESIAN COORDINATES (ANGSTROEM)
---------------------------------
  C    -21.159184   26.270805   46.423156
  C    -20.420822   27.515098   45.919903
  C    -20.058464   28.234652   47.248288
  C    -19.776755   27.057202   48.209857
  O    -20.405514   25.861367   47.576767
  H    -21.120832   25.439158   45.717044
  H    -19.517956   27.192391   45.390813
  H    -21.031713   28.123019   45.248100
  H    -19.188286   28.889560   47.141664
  H    -20.889825   28.849468   47.600032
  H    -20.202254   27.195189   49.207412
  H    -18.710857   26.831195   48.301047
  C    -23.172675   26.808302   47.940385
  H    -24.012443   26.126365   48.102527
  H    -22.450482   26.648025   48.744989
  O    -22.595783   26.420789   46.647763
  C    -23.650502   28.265627   47.928768
  C    -24.791481   28.554455   46.938790
  C    -26.027407   28.020445   47.719270
  C    -25.688947   28.353820   49.186635
  O    -24.213827   28.595732   49.237021
  H    -22.807484   28.943011   47.777921
  H    -24.884849   29.638210   46.810488
  O    -24.629420   27.991729   45.622069
  H    -26.953815   28.490968   47.380570
  H    -26.119817   26.942118   47.550171
  H    -25.934232   27.547434   49.884578
  H    -26.166072   29.276083   49.530242
  H    -23.973297   27.255784   45.652731

 Multiplicity           Mult            ....    1
 Number of Electrons    NEL             ....  102
 Basis Dimension        Dim             ....  149

ORBITAL ENERGIES
----------------

  NO   OCC          E(Eh)            E(eV)
   0   2.0000     -19.159297      -521.3510
   1   2.0000     -19.159257      -521.3499
   2   2.0000     -19.142389      -520.8909
   3   2.0000     -19.117148      -520.2040
   4   2.0000     -10.291462      -280.0449
   5   2.0000     -10.239794      -278.6390
   6   2.0000     -10.236946      -278.5615
   7   2.0000     -10.234736      -278.5013
   8   2.0000     -10.232343      -278.4362
   9   2.0000     -10.228336      -278.3272
  10   2.0000     -10.199661      -277.5469
  11   2.0000     -10.196268      -277.4546
  12   2.0000     -10.180666      -277.0300
  13   2.0000      -1.064715       -28.9724
  14   2.0000      -1.027107       -27.9490
  15   2.0000      -1.007534       -27.4164
  16   2.0000      -0.994482       -27.0612
  17   2.0000      -0.797969       -21.7138
  18   2.0000      -0.778068       -21.1723
  19   2.0000      -0.770207       -20.9584
  20   2.0000      -0.739568       -20.1247
  21   2.0000      -0.682268       -18.5655
  22   2.0000      -0.613244       -16.6872
  23   2.0000      -0.602477       -16.3942
  24   2.0000      -0.598154       -16.2766
  25   2.0000      -0.578143       -15.7321
  26   2.0000      -0.535897       -14.5825
  27   2.0000      -0.511389       -13.9156
  28   2.0000      -0.508033       -13.8243
  29   2.0000      -0.489911       -13.3312
  30   2.0000      -0.476175       -12.9574
  31   2.0000      -0.460282       -12.5249
  32   2.0000      -0.450004       -12.2452
  33   2.0000      -0.430367       -11.7109
  34   2.0000      -0.425607       -11.5814
  35   2.0000      -0.422066       -11.4850
  36   2.0000      -0.414070       -11.2674
  37   2.0000      -0.390370       -10.6225
  38   2.0000      -0.386947       -10.5294
  39   2.0000      -0.369440       -10.0530
  40   2.0000      -0.368234       -10.0202
  41   2.0000      -0.357041        -9.7156
  42   2.0000      -0.353554        -9.6207
  43   2.0000      -0.345164        -9.3924
  44   2.0000      -0.328408        -8.9364
  45   2.0000      -0.322365        -8.7720
  46   2.0000      -0.288324        -7.8457
  47   2.0000      -0.279377        -7.6022
  48   2.0000      -0.272360        -7.4113
  49   2.0000      -0.249679        -6.7941
  50   2.0000      -0.240006        -6.5309
  51   0.0000       0.058178         1.5831
  52   0.0000       0.067700         1.8422
  53   0.0000       0.084706         2.3050
  54   0.0000       0.094102         2.5606
  55   0.0000       0.101542         2.7631

MULLIKEN ATOMIC CHARGES
-----------------------
   0 C :    0.313863
   1 C :   -0.270522
   2 C :   -0.323053
   3 C :   -0.024361
   4 O :   -0.506118
   5 H :    0.170000
   6 H :    0.155757
   7 H :    0.162695
   8 H :    0.153664
   9 H :    0.161173
  10 H :    0.155046
  11 H :    0.156819
  12 C :   -0.042820
  13 H :    0.160837
  14 H :    0.173612
  15 O :   -0.563728
  16 C :    0.045114
  17 C :    0.118505
  18 C :   -0.301748
  19 C :   -0.023162
  20 O :   -0.521630
  21 H :    0.155880
  22 H :    0.148568
  23 O :   -0.638784
  24 H :    0.150521
  25 H :    0.147658
  26 H :    0.145802
  27 H :    0.149742
  28 H :    0.390672
Sum of atomic charges:   -0.0000000

LOEWDIN ATOMIC CHARGES
----------------------
   0 C :    0.184220
   1 C :   -0.226541
   2 C :   -0.223879
   3 C :   -0.033466
   4 O :   -0.311751
   5 H :    0.113329
   6 H :    0.121427
   7 H :    0.125950
   8 H :    0.120844
   9 H :    0.112869
  10 H :    0.106916
  11 H :    0.109528
  12 C :   -0.047748
  13 H :    0.113446
  14 H :    0.120272
  15 O :   -0.343503
  16 C :    0.005299
  17 C :    0.041147
  18 C :   -0.237780
  19 C :   -0.032479
  20 O :   -0.326367
  21 H :    0.105886
  22 H :    0.105964
  23 O :   -0.432963
  24 H :    0.121407
  25 H :    0.112420
  26 H :    0.103387
  27 H :    0.106237
  28 H :    0.285929

  Mayer bond orders larger than 0.100000
B(  0-C ,  1-C ) :   0.9206 B(  0-C ,  4-O ) :   0.9269 B(  0-C ,  5-H ) :   0.9339
B(  0-C , 15-O ) :   0.8222 B(  1-C ,  2-C ) :   0.9543 B(  1-C ,  6-H ) :   0.9326
B(  1-C ,  7-H ) :   0.9337 B(  2-C ,  3-C ) :   0.9499 B(  2-C ,  8-H ) :   0.9434
B(  2-C ,  9-H ) :   0.9256 B(  3-C ,  4-O ) :   0.8261 B(  3-C , 10-H ) :   0.9307
B(  3-C , 11-H ) :   0.9394 B( 12-C , 13-H ) :   0.9345 B( 12-C , 14-H ) :   0.9180
B( 12-C , 15-O ) :   0.7914 B( 12-C , 16-C ) :   0.8858 B( 16-C , 17-C ) :   0.9092
B( 16-C , 20-O ) :   0.8530 B( 16-C , 21-H ) :   0.9116 B( 17-C , 18-C ) :   0.9016
B( 17-C , 22-H ) :   0.9320 B( 17-C , 23-O ) :   0.9342 B( 18-C , 19-C ) :   0.9381
B( 18-C , 24-H ) :   0.9448 B( 18-C , 25-H ) :   0.9426 B( 19-C , 20-O ) :   0.8308
B( 19-C , 26-H ) :   0.9336 B( 19-C , 27-H ) :   0.9385 B( 23-O , 28-H ) :   0.7259

FINAL SINGLE POINT ENERGY      -652.861318532607

DIPOLE MOMENT
-------------
                                X             Y             Z
Electronic contribution:     -0.45493      -2.50620      -0.87260
Nuclear contribution   :      1.09640       2.81654       1.18039
                        -----------------------------------------
Total Dipole Moment    :      0.64147       0.31034       0.30779
                        -----------------------------------------
Magnitude (a.u.)       :      0.77623
Magnitude (Debye)      :      1.97302

Rotational constants in cm-1:     0.050349     0.015820     0.014285
Rotational constants in MHz :  1509.428833   474.283119   428.250682

                             ****ORCA TERMINATED NORMALLY****
TOTAL RUN TIME: 0 days 0 hours 41 minutes 54 seconds 426 msec
