                         Program Version 4.2.0 -  RELEASE  -
|  1> # Test redundant internal optimization
|  2> #
|  3> ! RKS B3LYP  Opt TightSCF SmallPrint
|  4>
|  5> %basis
|  6>         Basis "6-31G"
|  7> end
|  8>
|  9> %geom
| 10> Constraints
| 11> { D 4  0  15  12  255.0   C } # D for Dihedral angle
| 12> { D 0  15  12  16  105.0   C } # D for Dihedral angle
| 13> { D 0  4  3  2   C } # D for Dihedral angle
| 14> { D 4  3  2  1   C } # D for Dihedral angle
| 15> { D 3  2  1  0   C } # D for Dihedral angle
| 16> { D 2  1  0  4   C } # D for Dihedral angle
| 17> { D 1  0  4  3   C } # D for Dihedral angle
| 18> { D 16  20  19  18   C } # D for Dihedral angle
| 19> { D 20  19  18  17   C } # D for Dihedral angle
| 20> { D 19  18  17  16   C } # D for Dihedral angle
| 21> { D 18  17  16  20   C } # D for Dihedral angle
| 22> { D 17  16  20  19   C } # D for Dihedral angle
| 23> { D 15  12  16  20   C } # D for Dihedral angle
| 24> end
| 25> end
| 26>
| 27>
| 28> #%pal
| 29> #nprocs 8
| 30> #end
| 31>
| 32> * xyz 0 1
| 33> C  -21.048   26.222   46.251
| 34> C  -20.361   27.558   45.944
| 35> C  -20.329   28.222   47.341
| 36> C  -20.110   27.022   48.296
| 37> O  -20.473   25.807   47.535
| 38> H  -20.833   25.428   45.533
| 39> H  -19.344   27.382   45.576
| 40> H  -20.898   28.157   45.201
| 41> H  -19.543   28.978   47.434
| 42> H  -21.289   28.710   47.548
| 43> H  -20.733   27.082   49.195
| 44> H  -19.064   26.913   48.597
| 45> C  -23.431   25.260   45.734
| 46> H  -24.247   25.703   45.149
| 47> H  -22.813   24.656   45.056
| 48> O  -22.586   26.394   46.375
| 49> C  -24.050   24.302   46.789
| 50> C  -24.779   23.132   46.119
| 51> C  -23.600   22.203   45.741
| 52> C  -22.605   22.404   46.911
| 53> O  -22.995   23.663   47.582
| 54> H  -24.665   24.881   47.481
| 55> H  -25.443   22.639   46.838
| 56> O  -25.624   23.563   44.889
| 57> H  -23.903   21.157   45.626
| 58> H  -23.153   22.528   44.794
| 59> H  -21.567   22.487   46.569
| 60> H  -22.670   21.607   47.657
| 61> H  -24.980   24.057   44.154
| 62> *
| 63>
| 64>                          ****END OF INPUT****
 Total Charge           Charge          ....    0
 Multiplicity           Mult            ....    1
 Number of Electrons    NEL             ....  102
FINAL SINGLE POINT ENERGY      -652.826965933400
FINAL SINGLE POINT ENERGY      -652.850214707933
FINAL SINGLE POINT ENERGY      -652.854875392868
FINAL SINGLE POINT ENERGY      -652.855613120087
FINAL SINGLE POINT ENERGY      -652.855718543867
FINAL SINGLE POINT ENERGY      -652.855746950004
FINAL SINGLE POINT ENERGY      -652.855751613856
                    ***********************HURRAY********************

CARTESIAN COORDINATES (ANGSTROEM)
---------------------------------
  C    -20.999828   26.203299   46.203261
  C    -20.430810   27.602010   45.966384
  C    -20.456691   28.204844   47.392499
  C    -20.137973   26.984838   48.285120
  O    -20.402883   25.790056   47.447163
  H    -20.733605   25.447751   45.457434
  H    -19.400623   27.518187   45.599612
  H    -21.020987   28.170557   45.244933
  H    -19.735535   29.017639   47.520645
  H    -21.457743   28.589578   47.608789
  H    -20.764646   26.930623   49.178349
  H    -19.084415   26.936218   48.577582
  C    -23.267153   25.303527   45.680915
  H    -24.071090   25.822558   45.147014
  H    -22.670504   24.734148   44.950287
  O    -22.440363   26.327868   46.288060
  C    -23.887994   24.372805   46.724341
  C    -24.741910   23.245349   46.121137
  C    -23.661479   22.178409   45.768881
  C    -22.637785   22.341520   46.913427
  O    -22.894221   23.670288   47.526278
  H    -24.454895   24.988392   47.428503
  H    -25.424288   22.860364   46.881913
  O    -25.604162   23.632724   45.022114
  H    -24.081017   21.170788   45.710231
  H    -23.215938   22.414850   44.793069
  H    -21.599314   22.303026   46.571480
  H    -22.776170   21.595116   47.701745
  H    -25.081978   23.759669   44.203833

 Multiplicity           Mult            ....    1
 Number of Electrons    NEL             ....  102
 Basis Dimension        Dim             ....  149

ORBITAL ENERGIES
----------------

  NO   OCC          E(Eh)            E(eV)
   0   2.0000     -19.149443      -521.0828
   1   2.0000     -19.137768      -520.7651
   2   2.0000     -19.133007      -520.6356
   3   2.0000     -19.128539      -520.5140
   4   2.0000     -10.273984      -279.5693
   5   2.0000     -10.243545      -278.7410
   6   2.0000     -10.231269      -278.4070
   7   2.0000     -10.226935      -278.2891
   8   2.0000     -10.225468      -278.2491
   9   2.0000     -10.215685      -277.9829
  10   2.0000     -10.194348      -277.4023
  11   2.0000     -10.178677      -276.9759
  12   2.0000     -10.178267      -276.9647
  13   2.0000      -1.045563       -28.4512
  14   2.0000      -1.031483       -28.0681
  15   2.0000      -1.012638       -27.5553
  16   2.0000      -0.988572       -26.9004
  17   2.0000      -0.782985       -21.3061
  18   2.0000      -0.778838       -21.1933
  19   2.0000      -0.762897       -20.7595
  20   2.0000      -0.725738       -19.7483
  21   2.0000      -0.677669       -18.4403
  22   2.0000      -0.609814       -16.5939
  23   2.0000      -0.590840       -16.0776
  24   2.0000      -0.588442       -16.0123
  25   2.0000      -0.576583       -15.6896
  26   2.0000      -0.526634       -14.3305
  27   2.0000      -0.509333       -13.8597
  28   2.0000      -0.495136       -13.4733
  29   2.0000      -0.482418       -13.1272
  30   2.0000      -0.462722       -12.5913
  31   2.0000      -0.452983       -12.3263
  32   2.0000      -0.447092       -12.1660
  33   2.0000      -0.427956       -11.6453
  34   2.0000      -0.425529       -11.5792
  35   2.0000      -0.416001       -11.3200
  36   2.0000      -0.404224       -10.9995
  37   2.0000      -0.391384       -10.6501
  38   2.0000      -0.379263       -10.3203
  39   2.0000      -0.364838        -9.9277
  40   2.0000      -0.349710        -9.5161
  41   2.0000      -0.348313        -9.4781
  42   2.0000      -0.342643        -9.3238
  43   2.0000      -0.329546        -8.9674
  44   2.0000      -0.312415        -8.5013
  45   2.0000      -0.311425        -8.4743
  46   2.0000      -0.298746        -8.1293
  47   2.0000      -0.269207        -7.3255
  48   2.0000      -0.262824        -7.1518
  49   2.0000      -0.247995        -6.7483
  50   2.0000      -0.228542        -6.2190
  51   0.0000       0.049941         1.3590
  52   0.0000       0.071325         1.9409
  53   0.0000       0.091262         2.4834
  54   0.0000       0.099387         2.7045
  55   0.0000       0.108837         2.9616

MULLIKEN ATOMIC CHARGES
-----------------------
   0 C :    0.295049
   1 C :   -0.255846
   2 C :   -0.299801
   3 C :    0.000214
   4 O :   -0.491828
   5 H :    0.131878
   6 H :    0.139574
   7 H :    0.146785
   8 H :    0.137459
   9 H :    0.162725
  10 H :    0.153293
  11 H :    0.136618
  12 C :   -0.017655
  13 H :    0.148139
  14 H :    0.105813
  15 O :   -0.514812
  16 C :    0.104005
  17 C :    0.078662
  18 C :   -0.317292
  19 C :   -0.013175
  20 O :   -0.496930
  21 H :    0.162685
  22 H :    0.168740
  23 O :   -0.600691
  24 H :    0.155574
  25 H :    0.127562
  26 H :    0.148494
  27 H :    0.150421
  28 H :    0.354338
Sum of atomic charges:    0.0000000

LOEWDIN ATOMIC CHARGES
----------------------
   0 C :    0.177958
   1 C :   -0.220009
   2 C :   -0.216696
   3 C :   -0.026548
   4 O :   -0.311299
   5 H :    0.093155
   6 H :    0.110701
   7 H :    0.118486
   8 H :    0.111695
   9 H :    0.119343
  10 H :    0.108753
  11 H :    0.099676
  12 C :   -0.045065
  13 H :    0.110020
  14 H :    0.083489
  15 O :   -0.321981
  16 C :    0.012963
  17 C :    0.033049
  18 C :   -0.240444
  19 C :   -0.030508
  20 O :   -0.308384
  21 H :    0.119193
  22 H :    0.119938
  23 O :   -0.408712
  24 H :    0.121887
  25 H :    0.101018
  26 H :    0.105093
  27 H :    0.106450
  28 H :    0.276778

  Mayer bond orders larger than 0.100000
B(  0-C ,  1-C ) :   0.9439 B(  0-C ,  4-O ) :   0.9337 B(  0-C ,  5-H ) :   0.9193
B(  0-C , 15-O ) :   0.8445 B(  1-C ,  2-C ) :   0.9594 B(  1-C ,  6-H ) :   0.9391
B(  1-C ,  7-H ) :   0.9383 B(  2-C ,  3-C ) :   0.9533 B(  2-C ,  8-H ) :   0.9456
B(  2-C ,  9-H ) :   0.9440 B(  3-C ,  4-O ) :   0.8419 B(  3-C , 10-H ) :   0.9342
B(  3-C , 11-H ) :   0.9401 B( 12-C , 13-H ) :   0.9198 B( 12-C , 14-H ) :   0.9214
B( 12-C , 15-O ) :   0.8683 B( 12-C , 16-C ) :   0.8875 B( 16-C , 17-C ) :   0.8668
B( 16-C , 20-O ) :   0.8787 B( 16-C , 21-H ) :   0.9311 B( 17-C , 18-C ) :   0.9238
B( 17-C , 22-H ) :   0.9328 B( 17-C , 23-O ) :   0.8939 B( 18-C , 19-C ) :   0.9364
B( 18-C , 24-H ) :   0.9424 B( 18-C , 25-H ) :   0.9412 B( 19-C , 20-O ) :   0.8521
B( 19-C , 26-H ) :   0.9307 B( 19-C , 27-H ) :   0.9375 B( 23-O , 28-H ) :   0.7992

FINAL SINGLE POINT ENERGY      -652.855752766318

DIPOLE MOMENT
-------------
                                X             Y             Z
Electronic contribution:     -2.78848      -1.40569       1.13392
Nuclear contribution   :      3.30395       1.28910      -2.11529
                        -----------------------------------------
Total Dipole Moment    :      0.51547      -0.11659      -0.98137
                        -----------------------------------------
Magnitude (a.u.)       :      1.11462
Magnitude (Debye)      :      2.83314

Rotational constants in cm-1:     0.058119     0.013654     0.012196
Rotational constants in MHz :  1742.353623   409.346160   365.623510

                             ****ORCA TERMINATED NORMALLY****
TOTAL RUN TIME: 0 days 0 hours 37 minutes 32 seconds 737 msec
