                         Program Version 4.2.0 -  RELEASE  -
|  1> # Test redundant internal optimization
|  2> #
|  3> ! RKS B3LYP  Opt TightSCF SmallPrint
|  4>
|  5> %basis
|  6>         Basis "6-31G"
|  7> end
|  8>
|  9> %geom
| 10> Constraints
| 11> { D 4  0  15  12  225.0   C } # D for Dihedral angle
| 12> { D 0  15  12  16  75.0   C } # D for Dihedral angle
| 13> { D 0  4  3  2   C } # D for Dihedral angle
| 14> { D 4  3  2  1   C } # D for Dihedral angle
| 15> { D 3  2  1  0   C } # D for Dihedral angle
| 16> { D 2  1  0  4   C } # D for Dihedral angle
| 17> { D 1  0  4  3   C } # D for Dihedral angle
| 18> { D 16  20  19  18   C } # D for Dihedral angle
| 19> { D 20  19  18  17   C } # D for Dihedral angle
| 20> { D 19  18  17  16   C } # D for Dihedral angle
| 21> { D 18  17  16  20   C } # D for Dihedral angle
| 22> { D 17  16  20  19   C } # D for Dihedral angle
| 23> { D 15  12  16  20   C } # D for Dihedral angle
| 24> end
| 25> end
| 26>
| 27>
| 28> #%pal
| 29> #nprocs 8
| 30> #end
| 31>
| 32> * xyz 0 1
| 33> C  -21.048   26.222   46.251
| 34> C  -20.361   27.558   45.944
| 35> C  -20.329   28.222   47.341
| 36> C  -20.110   27.022   48.296
| 37> O  -20.473   25.807   47.535
| 38> H  -20.833   25.428   45.533
| 39> H  -19.344   27.382   45.576
| 40> H  -20.898   28.157   45.201
| 41> H  -19.543   28.978   47.434
| 42> H  -21.289   28.710   47.548
| 43> H  -20.733   27.082   49.195
| 44> H  -19.064   26.913   48.597
| 45> C  -23.415   25.773   45.218
| 46> H  -24.435   26.176   45.246
| 47> H  -22.972   26.029   44.247
| 48> O  -22.586   26.394   46.375
| 49> C  -23.501   24.224   45.304
| 50> C  -24.225   23.637   44.088
| 51> C  -23.113   23.670   43.013
| 52> C  -21.829   23.370   43.828
| 53> O  -22.160   23.633   45.245
| 54> H  -23.932   23.942   46.267
| 55> H  -24.534   22.606   44.293
| 56> O  -25.483   24.451   43.677
| 57> H  -23.276   22.945   42.210
| 58> H  -23.057   24.667   42.559
| 59> H  -20.987   24.006   43.532
| 60> H  -21.525   22.322   43.756
| 61> H  -25.200   25.488   43.464
| 62> *
| 63>
| 64>                          ****END OF INPUT****
 Total Charge           Charge          ....    0
 Multiplicity           Mult            ....    1
 Number of Electrons    NEL             ....  102
FINAL SINGLE POINT ENERGY      -652.826985387070
FINAL SINGLE POINT ENERGY      -652.850057448878
FINAL SINGLE POINT ENERGY      -652.854846777014
FINAL SINGLE POINT ENERGY      -652.855566061179
FINAL SINGLE POINT ENERGY      -652.855669941116
FINAL SINGLE POINT ENERGY      -652.855687493141
FINAL SINGLE POINT ENERGY      -652.855688222278
                    ***********************HURRAY********************

CARTESIAN COORDINATES (ANGSTROEM)
---------------------------------
  C    -20.966170   26.235962   46.203651
  C    -20.342344   27.612388   45.980065
  C    -20.428826   28.236959   47.393467
  C    -20.198295   27.023541   48.319492
  O    -20.453552   25.823924   47.482427
  H    -20.710490   25.455743   45.489239
  H    -19.297126   27.493934   45.668779
  H    -20.870900   28.194642   45.220362
  H    -19.692763   29.031003   47.551059
  H    -21.428937   28.652824   47.547857
  H    -20.875006   27.002738   49.177459
  H    -19.164714   26.946974   48.671023
  C    -23.242518   25.831836   45.238518
  H    -24.230668   26.275370   45.392561
  H    -22.865701   26.164626   44.255706
  O    -22.418179   26.380883   46.295025
  C    -23.378126   24.306824   45.276428
  C    -24.232344   23.721109   44.137903
  C    -23.193085   23.614777   42.980710
  C    -21.888874   23.252842   43.724792
  O    -22.098045   23.608524   45.155161
  H    -23.762980   24.030618   46.262278
  H    -24.587809   22.729661   44.424601
  O    -25.434790   24.460490   43.817255
  H    -23.479008   22.868079   42.235282
  H    -23.108853   24.584663   42.472237
  H    -21.016778   23.795247   43.345757
  H    -21.675868   22.180814   43.694110
  H    -25.212253   25.297003   43.359797

 Multiplicity           Mult            ....    1
 Number of Electrons    NEL             ....  102
 Basis Dimension        Dim             ....  149

ORBITAL ENERGIES
----------------

  NO   OCC          E(Eh)            E(eV)
   0   2.0000     -19.153025      -521.1803
   1   2.0000     -19.144821      -520.9571
   2   2.0000     -19.133430      -520.6471
   3   2.0000     -19.128425      -520.5109
   4   2.0000     -10.266017      -279.3525
   5   2.0000     -10.248481      -278.8753
   6   2.0000     -10.235950      -278.5344
   7   2.0000     -10.233386      -278.4646
   8   2.0000     -10.231180      -278.4045
   9   2.0000     -10.215543      -277.9790
  10   2.0000     -10.200026      -277.5568
  11   2.0000     -10.178208      -276.9631
  12   2.0000     -10.178062      -276.9592
  13   2.0000      -1.044204       -28.4142
  14   2.0000      -1.035652       -28.1815
  15   2.0000      -1.019823       -27.7508
  16   2.0000      -0.985417       -26.8146
  17   2.0000      -0.787216       -21.4212
  18   2.0000      -0.779277       -21.2052
  19   2.0000      -0.765951       -20.8426
  20   2.0000      -0.726525       -19.7698
  21   2.0000      -0.680528       -18.5181
  22   2.0000      -0.615943       -16.7607
  23   2.0000      -0.595094       -16.1933
  24   2.0000      -0.589017       -16.0280
  25   2.0000      -0.570966       -15.5368
  26   2.0000      -0.531893       -14.4735
  27   2.0000      -0.508830       -13.8460
  28   2.0000      -0.498944       -13.5770
  29   2.0000      -0.482128       -13.1194
  30   2.0000      -0.467053       -12.7092
  31   2.0000      -0.454906       -12.3786
  32   2.0000      -0.443691       -12.0734
  33   2.0000      -0.434934       -11.8352
  34   2.0000      -0.429700       -11.6927
  35   2.0000      -0.419348       -11.4111
  36   2.0000      -0.406766       -11.0687
  37   2.0000      -0.390669       -10.6306
  38   2.0000      -0.384635       -10.4664
  39   2.0000      -0.365521        -9.9463
  40   2.0000      -0.359205        -9.7745
  41   2.0000      -0.348974        -9.4961
  42   2.0000      -0.344324        -9.3695
  43   2.0000      -0.333363        -9.0713
  44   2.0000      -0.318790        -8.6747
  45   2.0000      -0.304980        -8.2989
  46   2.0000      -0.299059        -8.1378
  47   2.0000      -0.274802        -7.4777
  48   2.0000      -0.265377        -7.2213
  49   2.0000      -0.250681        -6.8214
  50   2.0000      -0.228873        -6.2280
  51   0.0000       0.046620         1.2686
  52   0.0000       0.067309         1.8316
  53   0.0000       0.088647         2.4122
  54   0.0000       0.098117         2.6699
  55   0.0000       0.104510         2.8439

MULLIKEN ATOMIC CHARGES
-----------------------
   0 C :    0.282946
   1 C :   -0.255242
   2 C :   -0.299067
   3 C :   -0.000113
   4 O :   -0.497846
   5 H :    0.167497
   6 H :    0.138995
   7 H :    0.136656
   8 H :    0.136857
   9 H :    0.160591
  10 H :    0.150112
  11 H :    0.137245
  12 C :   -0.029061
  13 H :    0.157892
  14 H :    0.104855
  15 O :   -0.517977
  16 C :    0.097683
  17 C :    0.086232
  18 C :   -0.324168
  19 C :   -0.013769
  20 O :   -0.507635
  21 H :    0.169685
  22 H :    0.170777
  23 O :   -0.598648
  24 H :    0.161919
  25 H :    0.132742
  26 H :    0.138675
  27 H :    0.155620
  28 H :    0.356548
Sum of atomic charges:   -0.0000000

LOEWDIN ATOMIC CHARGES
----------------------
   0 C :    0.175007
   1 C :   -0.225437
   2 C :   -0.217257
   3 C :   -0.027071
   4 O :   -0.304823
   5 H :    0.112249
   6 H :    0.110091
   7 H :    0.112622
   8 H :    0.111522
   9 H :    0.118461
  10 H :    0.107039
  11 H :    0.099942
  12 C :   -0.048925
  13 H :    0.119119
  14 H :    0.078778
  15 O :   -0.331006
  16 C :    0.009479
  17 C :    0.036123
  18 C :   -0.242170
  19 C :   -0.031920
  20 O :   -0.315565
  21 H :    0.122708
  22 H :    0.121281
  23 O :   -0.405486
  24 H :    0.124473
  25 H :    0.103655
  26 H :    0.099559
  27 H :    0.109446
  28 H :    0.278108

  Mayer bond orders larger than 0.100000
B(  0-C ,  1-C ) :   0.9345 B(  0-C ,  4-O ) :   0.9322 B(  0-C ,  5-H ) :   0.9070
B(  0-C , 15-O ) :   0.8142 B(  1-C ,  2-C ) :   0.9551 B(  1-C ,  6-H ) :   0.9369
B(  1-C ,  7-H ) :   0.9397 B(  2-C ,  3-C ) :   0.9549 B(  2-C ,  8-H ) :   0.9458
B(  2-C ,  9-H ) :   0.9437 B(  3-C ,  4-O ) :   0.8430 B(  3-C , 10-H ) :   0.9346
B(  3-C , 11-H ) :   0.9399 B( 12-C , 13-H ) :   0.9229 B( 12-C , 14-H ) :   0.9222
B( 12-C , 15-O ) :   0.8801 B( 12-C , 16-C ) :   0.8894 B( 16-C , 17-C ) :   0.8663
B( 16-C , 20-O ) :   0.8546 B( 16-C , 21-H ) :   0.9285 B( 17-C , 18-C ) :   0.9227
B( 17-C , 22-H ) :   0.9321 B( 17-C , 23-O ) :   0.8995 B( 18-C , 19-C ) :   0.9387
B( 18-C , 24-H ) :   0.9413 B( 18-C , 25-H ) :   0.9402 B( 19-C , 20-O ) :   0.8456
B( 19-C , 26-H ) :   0.9313 B( 19-C , 27-H ) :   0.9380 B( 23-O , 28-H ) :   0.7978

FINAL SINGLE POINT ENERGY      -652.855678714833

DIPOLE MOMENT
-------------
                                X             Y             Z
Electronic contribution:     -2.61371      -3.48674       2.07986
Nuclear contribution   :      2.93739       4.18083      -3.48513
                        -----------------------------------------
Total Dipole Moment    :      0.32368       0.69408      -1.40527
                        -----------------------------------------
Magnitude (a.u.)       :      1.60040
Magnitude (Debye)      :      4.06790

Rotational constants in cm-1:     0.059590     0.013061     0.012156
Rotational constants in MHz :  1786.456074   391.560435   364.440501

                             ****ORCA TERMINATED NORMALLY****
TOTAL RUN TIME: 0 days 0 hours 23 minutes 23 seconds 547 msec
