                         Program Version 4.2.0 -  RELEASE  -
|  1> # Test redundant internal optimization
|  2> #
|  3> ! RKS B3LYP  Opt TightSCF SmallPrint
|  4>
|  5> %basis
|  6>         Basis "6-31G"
|  7> end
|  8>
|  9> %geom
| 10> Constraints
| 11> { D 4  0  15  12  150.0   C } # D for Dihedral angle
| 12> { D 0  15  12  16  45.0   C } # D for Dihedral angle
| 13> { D 0  4  3  2   C } # D for Dihedral angle
| 14> { D 4  3  2  1   C } # D for Dihedral angle
| 15> { D 3  2  1  0   C } # D for Dihedral angle
| 16> { D 2  1  0  4   C } # D for Dihedral angle
| 17> { D 1  0  4  3   C } # D for Dihedral angle
| 18> { D 16  20  19  18   C } # D for Dihedral angle
| 19> { D 20  19  18  17   C } # D for Dihedral angle
| 20> { D 19  18  17  16   C } # D for Dihedral angle
| 21> { D 18  17  16  20   C } # D for Dihedral angle
| 22> { D 17  16  20  19   C } # D for Dihedral angle
| 23> { D 15  12  16  20   C } # D for Dihedral angle
| 24> end
| 25> end
| 26>
| 27>
| 28> #%pal
| 29> #nprocs 8
| 30> #end
| 31>
| 32> * xyz 0 1
| 33> C  -21.048   26.222   46.251
| 34> C  -20.361   27.558   45.944
| 35> C  -20.329   28.222   47.341
| 36> C  -20.110   27.022   48.296
| 37> O  -20.473   25.807   47.535
| 38> H  -20.833   25.428   45.533
| 39> H  -19.344   27.382   45.576
| 40> H  -20.898   28.157   45.201
| 41> H  -19.543   28.978   47.434
| 42> H  -21.289   28.710   47.548
| 43> H  -20.733   27.082   49.195
| 44> H  -19.064   26.913   48.597
| 45> C  -23.210   27.459   45.431
| 46> H  -24.298   27.325   45.404
| 47> H  -22.997   28.470   45.801
| 48> O  -22.586   26.394   46.375
| 49> C  -22.669   27.363   43.978
| 50> C  -23.072   26.038   43.321
| 51> C  -24.540   26.319   42.921
| 52> C  -24.518   27.820   42.537
| 53> O  -23.290   28.388   43.132
| 54> H  -21.596   27.559   43.982
| 55> O  -22.199   25.782   42.061
| 56> H  -22.970   25.177   43.990
| 57> H  -24.885   25.683   42.100
| 58> H  -25.202   26.147   43.778
| 59> H  -25.388   28.363   42.922
| 60> H  -24.455   27.973   41.457
| 61> H  -22.285   26.632   41.374
| 62> *
| 63>
| 64>                          ****END OF INPUT****
 Total Charge           Charge          ....    0
 Multiplicity           Mult            ....    1
 Number of Electrons    NEL             ....  102
FINAL SINGLE POINT ENERGY      -652.819228711025
FINAL SINGLE POINT ENERGY      -652.843921315124
FINAL SINGLE POINT ENERGY      -652.849869090774
FINAL SINGLE POINT ENERGY      -652.851794484692
FINAL SINGLE POINT ENERGY      -652.852039739806
FINAL SINGLE POINT ENERGY      -652.852082443376
FINAL SINGLE POINT ENERGY      -652.852088379269
                    ***********************HURRAY********************

CARTESIAN COORDINATES (ANGSTROEM)
---------------------------------
  C    -21.021457   26.238074   46.273278
  C    -20.134296   27.453408   45.991105
  C    -20.211102   28.235064   47.334245
  C    -20.283719   27.094368   48.372219
  O    -20.691673   25.885089   47.623512
  H    -20.828376   25.360233   45.654051
  H    -19.112559   27.097679   45.813768
  H    -20.426184   28.063976   45.137941
  H    -19.345002   28.885725   47.486199
  H    -21.114846   28.852263   47.363596
  H    -21.014548   27.279136   49.163715
  H    -19.311822   26.871180   48.822569
  C    -23.123555   27.455414   45.377544
  H    -24.185361   27.222242   45.491642
  H    -22.969251   28.487523   45.723369
  O    -22.460376   26.514495   46.269802
  C    -22.720933   27.406523   43.895164
  C    -23.048278   26.089893   43.174594
  C    -24.564419   26.254765   42.893177
  C    -24.710425   27.771419   42.613266
  O    -23.492574   28.420758   43.166071
  H    -21.671583   27.663024   43.750300
  O    -22.271989   25.961860   41.952143
  H    -22.816618   25.203292   43.764966
  H    -24.868376   25.633581   42.046735
  H    -25.148420   25.950362   43.767696
  H    -25.592212   28.210046   43.088772
  H    -24.738628   28.002627   41.543972
  H    -22.306418   26.808983   41.459590

 Multiplicity           Mult            ....    1
 Number of Electrons    NEL             ....  102
 Basis Dimension        Dim             ....  149

ORBITAL ENERGIES
----------------

  NO   OCC          E(Eh)            E(eV)
   0   2.0000     -19.151305      -521.1335
   1   2.0000     -19.141845      -520.8761
   2   2.0000     -19.139191      -520.8039
   3   2.0000     -19.137871      -520.7679
   4   2.0000     -10.282209      -279.7931
   5   2.0000     -10.243531      -278.7407
   6   2.0000     -10.239029      -278.6181
   7   2.0000     -10.236908      -278.5604
   8   2.0000     -10.234353      -278.4909
   9   2.0000     -10.225541      -278.2511
  10   2.0000     -10.192936      -277.3639
  11   2.0000     -10.191809      -277.3332
  12   2.0000     -10.191014      -277.3116
  13   2.0000      -1.051668       -28.6173
  14   2.0000      -1.041728       -28.3468
  15   2.0000      -1.010919       -27.5085
  16   2.0000      -0.990292       -26.9472
  17   2.0000      -0.788476       -21.4555
  18   2.0000      -0.784735       -21.3537
  19   2.0000      -0.771023       -20.9806
  20   2.0000      -0.738562       -20.0973
  21   2.0000      -0.680690       -18.5225
  22   2.0000      -0.609140       -16.5755
  23   2.0000      -0.606594       -16.5063
  24   2.0000      -0.602644       -16.3988
  25   2.0000      -0.575532       -15.6610
  26   2.0000      -0.530848       -14.4451
  27   2.0000      -0.510746       -13.8981
  28   2.0000      -0.502723       -13.6798
  29   2.0000      -0.489868       -13.3300
  30   2.0000      -0.477771       -13.0008
  31   2.0000      -0.463287       -12.6067
  32   2.0000      -0.450225       -12.2512
  33   2.0000      -0.441647       -12.0178
  34   2.0000      -0.425514       -11.5788
  35   2.0000      -0.418595       -11.3906
  36   2.0000      -0.407004       -11.0751
  37   2.0000      -0.398382       -10.8405
  38   2.0000      -0.383363       -10.4318
  39   2.0000      -0.374052       -10.1785
  40   2.0000      -0.367675       -10.0049
  41   2.0000      -0.356992        -9.7142
  42   2.0000      -0.353912        -9.6304
  43   2.0000      -0.336877        -9.1669
  44   2.0000      -0.314965        -8.5706
  45   2.0000      -0.312260        -8.4970
  46   2.0000      -0.299783        -8.1575
  47   2.0000      -0.273340        -7.4380
  48   2.0000      -0.266158        -7.2425
  49   2.0000      -0.255712        -6.9583
  50   2.0000      -0.242927        -6.6104
  51   0.0000       0.059029         1.6063
  52   0.0000       0.070153         1.9089
  53   0.0000       0.081836         2.2269
  54   0.0000       0.093080         2.5328
  55   0.0000       0.097782         2.6608

MULLIKEN ATOMIC CHARGES
-----------------------
   0 C :    0.315275
   1 C :   -0.302332
   2 C :   -0.301645
   3 C :    0.000534
   4 O :   -0.496673
   5 H :    0.154320
   6 H :    0.154720
   7 H :    0.150890
   8 H :    0.145075
   9 H :    0.156544
  10 H :    0.153152
  11 H :    0.143691
  12 C :    0.000375
  13 H :    0.154313
  14 H :    0.139846
  15 O :   -0.531684
  16 C :    0.025754
  17 C :    0.088031
  18 C :   -0.306171
  19 C :   -0.030757
  20 O :   -0.525481
  21 H :    0.163526
  22 O :   -0.603131
  23 H :    0.170456
  24 H :    0.166305
  25 H :    0.155795
  26 H :    0.149086
  27 H :    0.147684
  28 H :    0.362500
Sum of atomic charges:   -0.0000000

LOEWDIN ATOMIC CHARGES
----------------------
   0 C :    0.185280
   1 C :   -0.235231
   2 C :   -0.216585
   3 C :   -0.026612
   4 O :   -0.302155
   5 H :    0.103636
   6 H :    0.120959
   7 H :    0.115527
   8 H :    0.115997
   9 H :    0.113824
  10 H :    0.108647
  11 H :    0.103327
  12 C :   -0.040759
  13 H :    0.115374
  14 H :    0.098777
  15 O :   -0.341566
  16 C :   -0.002333
  17 C :    0.035686
  18 C :   -0.241618
  19 C :   -0.038083
  20 O :   -0.329294
  21 H :    0.110075
  22 O :   -0.414678
  23 H :    0.123384
  24 H :    0.128512
  25 H :    0.118848
  26 H :    0.105893
  27 H :    0.103384
  28 H :    0.281785

  Mayer bond orders larger than 0.100000
B(  0-C ,  1-C ) :   0.9306 B(  0-C ,  4-O ) :   0.9311 B(  0-C ,  5-H ) :   0.9230
B(  0-C , 15-O ) :   0.8330 B(  1-C ,  2-C ) :   0.9464 B(  1-C ,  6-H ) :   0.9339
B(  1-C ,  7-H ) :   0.9197 B(  2-C ,  3-C ) :   0.9533 B(  2-C ,  8-H ) :   0.9450
B(  2-C ,  9-H ) :   0.9444 B(  3-C ,  4-O ) :   0.8361 B(  3-C , 10-H ) :   0.9347
B(  3-C , 11-H ) :   0.9394 B( 12-C , 13-H ) :   0.9355 B( 12-C , 14-H ) :   0.9121
B( 12-C , 15-O ) :   0.8458 B( 12-C , 16-C ) :   0.8794 B( 16-C , 17-C ) :   0.9023
B( 16-C , 20-O ) :   0.8358 B( 16-C , 21-H ) :   0.9110 B( 17-C , 18-C ) :   0.9144
B( 17-C , 22-O ) :   0.8878 B( 17-C , 23-H ) :   0.9267 B( 18-C , 19-C ) :   0.9409
B( 18-C , 24-H ) :   0.9366 B( 18-C , 25-H ) :   0.9326 B( 19-C , 20-O ) :   0.8419
B( 19-C , 26-H ) :   0.9353 B( 19-C , 27-H ) :   0.9380 B( 22-O , 28-H ) :   0.7966

FINAL SINGLE POINT ENERGY      -652.852089356100

DIPOLE MOMENT
-------------
                                X             Y             Z
Electronic contribution:     -0.10395      -2.72808      -0.75356
Nuclear contribution   :     -0.04941       3.66124       0.43007
                        -----------------------------------------
Total Dipole Moment    :     -0.15335       0.93315      -0.32349
                        -----------------------------------------
Magnitude (a.u.)       :      0.99947
Magnitude (Debye)      :      2.54045

Rotational constants in cm-1:     0.059707     0.013068     0.012675
Rotational constants in MHz :  1789.973741   391.778015   379.996136

                             ****ORCA TERMINATED NORMALLY****
TOTAL RUN TIME: 0 days 0 hours 16 minutes 46 seconds 927 msec
