                         Program Version 4.2.0 -  RELEASE  -
|  1> # Test redundant internal optimization
|  2> #
|  3> ! RKS B3LYP  Opt TightSCF SmallPrint
|  4>
|  5> %basis
|  6>         Basis "6-31G"
|  7> end
|  8>
|  9> %geom
| 10> Constraints
| 11> { D 4  0  15  12  330.0   C } # D for Dihedral angle
| 12> { D 0  15  12  16  45.0   C } # D for Dihedral angle
| 13> { D 0  4  3  2   C } # D for Dihedral angle
| 14> { D 4  3  2  1   C } # D for Dihedral angle
| 15> { D 3  2  1  0   C } # D for Dihedral angle
| 16> { D 2  1  0  4   C } # D for Dihedral angle
| 17> { D 1  0  4  3   C } # D for Dihedral angle
| 18> { D 16  20  19  18   C } # D for Dihedral angle
| 19> { D 20  19  18  17   C } # D for Dihedral angle
| 20> { D 19  18  17  16   C } # D for Dihedral angle
| 21> { D 18  17  16  20   C } # D for Dihedral angle
| 22> { D 17  16  20  19   C } # D for Dihedral angle
| 23> { D 15  12  16  20   C } # D for Dihedral angle
| 24> end
| 25> end
| 26>
| 27>
| 28> #%pal
| 29> #nprocs 8
| 30> #end
| 31>
| 32> * xyz 0 1
| 33> C  -21.048   26.222   46.251
| 34> C  -20.361   27.558   45.944
| 35> C  -20.329   28.222   47.341
| 36> C  -20.110   27.022   48.296
| 37> O  -20.473   25.807   47.535
| 38> H  -20.833   25.428   45.533
| 39> H  -19.344   27.382   45.576
| 40> H  -20.898   28.157   45.201
| 41> H  -19.543   28.978   47.434
| 42> H  -21.289   28.710   47.548
| 43> H  -20.733   27.082   49.195
| 44> H  -19.064   26.913   48.597
| 45> C  -23.271   25.476   47.424
| 46> H  -24.285   25.845   47.621
| 47> H  -23.347   24.449   47.044
| 48> O  -22.586   26.394   46.375
| 49> C  -22.500   25.425   48.772
| 50> C  -22.492   26.794   49.461
| 51> C  -23.904   26.835   50.093
| 52> C  -24.152   25.360   50.495
| 53> O  -23.188   24.546   49.723
| 54> H  -21.509   24.998   48.602
| 55> H  -21.720   26.819   50.238
| 56> O  -22.236   27.970   48.478
| 57> H  -23.966   27.517   50.947
| 58> H  -24.639   27.163   49.348
| 59> H  -25.169   25.027   50.262
| 60> H  -23.954   25.177   51.554
| 61> H  -22.999   27.964   47.691
| 62> *
| 63>
| 64>                          ****END OF INPUT****
 Total Charge           Charge          ....    0
 Multiplicity           Mult            ....    1
 Number of Electrons    NEL             ....  102
FINAL SINGLE POINT ENERGY      -652.730248679704
FINAL SINGLE POINT ENERGY      -652.821475773778
FINAL SINGLE POINT ENERGY      -652.845279821203
FINAL SINGLE POINT ENERGY      -652.852124296493
FINAL SINGLE POINT ENERGY      -652.853378415761
FINAL SINGLE POINT ENERGY      -652.853773200901
FINAL SINGLE POINT ENERGY      -652.853904599649
FINAL SINGLE POINT ENERGY      -652.853934843997
FINAL SINGLE POINT ENERGY      -652.853946583825
FINAL SINGLE POINT ENERGY      -652.853949117190
                    ***********************HURRAY********************

CARTESIAN COORDINATES (ANGSTROEM)
---------------------------------
  C    -21.030589   26.294140   46.363523
  C    -20.466203   27.589728   45.772737
  C    -20.070197   28.375967   47.050086
  C    -19.591014   27.268593   48.013811
  O    -20.150547   25.988991   47.456723
  H    -20.880584   25.447870   45.678622
  H    -19.585403   27.333115   45.175857
  H    -21.186878   28.114923   45.141250
  H    -19.279144   29.106336   46.849057
  H    -20.920418   28.912165   47.472428
  H    -19.961060   27.408127   49.027000
  H    -18.504890   27.137574   48.009663
  C    -23.170299   25.476196   47.568185
  H    -24.179176   25.895178   47.588691
  H    -23.244867   24.458037   47.161928
  O    -22.486936   26.322183   46.562513
  C    -22.609011   25.341440   48.996426
  C    -22.678727   26.667484   49.782402
  C    -24.199201   26.744685   50.158279
  C    -24.553432   25.259297   50.392676
  O    -23.490185   24.451983   49.743280
  H    -21.618749   24.891983   48.988473
  H    -22.052112   26.629531   50.675438
  O    -22.273893   27.847141   49.048864
  H    -24.367670   27.368238   51.039761
  H    -24.753242   27.182757   49.322475
  H    -25.521598   24.972647   49.970121
  H    -24.544126   24.992824   51.453955
  H    -22.571850   27.760868   48.114777

 Multiplicity           Mult            ....    1
 Number of Electrons    NEL             ....  102
 Basis Dimension        Dim             ....  149

ORBITAL ENERGIES
----------------

  NO   OCC          E(Eh)            E(eV)
   0   2.0000     -19.155114      -521.2372
   1   2.0000     -19.151655      -521.1430
   2   2.0000     -19.141853      -520.8763
   3   2.0000     -19.136943      -520.7427
   4   2.0000     -10.282013      -279.7878
   5   2.0000     -10.239176      -278.6221
   6   2.0000     -10.234370      -278.4914
   7   2.0000     -10.231163      -278.4041
   8   2.0000     -10.228871      -278.3417
   9   2.0000     -10.221891      -278.1518
  10   2.0000     -10.189474      -277.2697
  11   2.0000     -10.186766      -277.1960
  12   2.0000     -10.183500      -277.1071
  13   2.0000      -1.052082       -28.6286
  14   2.0000      -1.030909       -28.0525
  15   2.0000      -1.012482       -27.5510
  16   2.0000      -0.997525       -27.1440
  17   2.0000      -0.790031       -21.4978
  18   2.0000      -0.773737       -21.0544
  19   2.0000      -0.764581       -20.8053
  20   2.0000      -0.733786       -19.9673
  21   2.0000      -0.679645       -18.4941
  22   2.0000      -0.604119       -16.4389
  23   2.0000      -0.601064       -16.3558
  24   2.0000      -0.598124       -16.2758
  25   2.0000      -0.571697       -15.5567
  26   2.0000      -0.528612       -14.3843
  27   2.0000      -0.508751       -13.8438
  28   2.0000      -0.496980       -13.5235
  29   2.0000      -0.487485       -13.2652
  30   2.0000      -0.466694       -12.6994
  31   2.0000      -0.457821       -12.4580
  32   2.0000      -0.439846       -11.9688
  33   2.0000      -0.433009       -11.7828
  34   2.0000      -0.425242       -11.5714
  35   2.0000      -0.409661       -11.1474
  36   2.0000      -0.404635       -11.0107
  37   2.0000      -0.399035       -10.8583
  38   2.0000      -0.378944       -10.3116
  39   2.0000      -0.365208        -9.9378
  40   2.0000      -0.360296        -9.8041
  41   2.0000      -0.355308        -9.6684
  42   2.0000      -0.351113        -9.5543
  43   2.0000      -0.341434        -9.2909
  44   2.0000      -0.332477        -9.0472
  45   2.0000      -0.309105        -8.4112
  46   2.0000      -0.304693        -8.2911
  47   2.0000      -0.272435        -7.4133
  48   2.0000      -0.262675        -7.1477
  49   2.0000      -0.255078        -6.9410
  50   2.0000      -0.241503        -6.5716
  51   0.0000       0.057911         1.5758
  52   0.0000       0.079471         2.1625
  53   0.0000       0.090039         2.4501
  54   0.0000       0.095372         2.5952
  55   0.0000       0.108678         2.9573

MULLIKEN ATOMIC CHARGES
-----------------------
   0 C :    0.308626
   1 C :   -0.277632
   2 C :   -0.314889
   3 C :   -0.021216
   4 O :   -0.516929
   5 H :    0.150881
   6 H :    0.156272
   7 H :    0.157940
   8 H :    0.141862
   9 H :    0.169394
  10 H :    0.178616
  11 H :    0.144213
  12 C :   -0.041669
  13 H :    0.153656
  14 H :    0.160612
  15 O :   -0.551002
  16 C :    0.052502
  17 C :    0.101962
  18 C :   -0.311506
  19 C :   -0.014998
  20 O :   -0.518101
  21 H :    0.194230
  22 H :    0.156040
  23 O :   -0.627382
  24 H :    0.154148
  25 H :    0.145650
  26 H :    0.141582
  27 H :    0.149202
  28 H :    0.377938
Sum of atomic charges:   -0.0000000

LOEWDIN ATOMIC CHARGES
----------------------
   0 C :    0.173196
   1 C :   -0.215914
   2 C :   -0.220661
   3 C :   -0.035927
   4 O :   -0.318991
   5 H :    0.094226
   6 H :    0.120455
   7 H :    0.124539
   8 H :    0.114480
   9 H :    0.121794
  10 H :    0.119770
  11 H :    0.102399
  12 C :   -0.052357
  13 H :    0.111026
  14 H :    0.111419
  15 O :   -0.346774
  16 C :    0.004954
  17 C :    0.036883
  18 C :   -0.238745
  19 C :   -0.033413
  20 O :   -0.318164
  21 H :    0.131678
  22 H :    0.112973
  23 O :   -0.417253
  24 H :    0.122426
  25 H :    0.110508
  26 H :    0.101542
  27 H :    0.106027
  28 H :    0.277902

  Mayer bond orders larger than 0.100000
B(  0-C ,  1-C ) :   0.9346 B(  0-C ,  4-O ) :   0.9161 B(  0-C ,  5-H ) :   0.9310
B(  0-C , 15-O ) :   0.8226 B(  1-C ,  2-C ) :   0.9585 B(  1-C ,  6-H ) :   0.9373
B(  1-C ,  7-H ) :   0.9366 B(  2-C ,  3-C ) :   0.9587 B(  2-C ,  8-H ) :   0.9442
B(  2-C ,  9-H ) :   0.9321 B(  3-C ,  4-O ) :   0.8112 B(  3-C , 10-H ) :   0.9185
B(  3-C , 11-H ) :   0.9378 B( 12-C , 13-H ) :   0.9368 B( 12-C , 14-H ) :   0.9260
B( 12-C , 15-O ) :   0.8092 B( 12-C , 16-C ) :   0.8819 B( 16-C , 17-C ) :   0.9039
B( 16-C , 20-O ) :   0.8318 B( 16-C , 21-H ) :   0.9123 B( 17-C , 18-C ) :   0.9107
B( 17-C , 22-H ) :   0.9342 B( 17-C , 23-O ) :   0.8866 B( 18-C , 19-C ) :   0.9386
B( 18-C , 24-H ) :   0.9442 B( 18-C , 25-H ) :   0.9423 B( 19-C , 20-O ) :   0.8343
B( 19-C , 26-H ) :   0.9340 B( 19-C , 27-H ) :   0.9391 B( 23-O , 28-H ) :   0.7341

FINAL SINGLE POINT ENERGY      -652.853944450144

DIPOLE MOMENT
-------------
                                X             Y             Z
Electronic contribution:      0.02454      -3.70985      -0.20585
Nuclear contribution   :     -0.14178       4.35924       0.10148
                        -----------------------------------------
Total Dipole Moment    :     -0.11724       0.64939      -0.10438
                        -----------------------------------------
Magnitude (a.u.)       :      0.66809
Magnitude (Debye)      :      1.69814

Rotational constants in cm-1:     0.054146     0.017462     0.016046
Rotational constants in MHz :  1623.260273   523.485029   481.051023

                             ****ORCA TERMINATED NORMALLY****
TOTAL RUN TIME: 0 days 0 hours 31 minutes 54 seconds 108 msec
