                         Program Version 4.2.0 -  RELEASE  -
|  1> # Test redundant internal optimization
|  2> #
|  3> ! RKS B3LYP  Opt TightSCF SmallPrint
|  4>
|  5> %basis
|  6>         Basis "6-31G"
|  7> end
|  8>
|  9> %geom
| 10> Constraints
| 11> { D 4  0  15  12  45.0   C } # D for Dihedral angle
| 12> { D 0  15  12  16  120.0   C } # D for Dihedral angle
| 13> { D 0  4  3  2   C } # D for Dihedral angle
| 14> { D 4  3  2  1   C } # D for Dihedral angle
| 15> { D 3  2  1  0   C } # D for Dihedral angle
| 16> { D 2  1  0  4   C } # D for Dihedral angle
| 17> { D 1  0  4  3   C } # D for Dihedral angle
| 18> { D 16  20  19  18   C } # D for Dihedral angle
| 19> { D 20  19  18  17   C } # D for Dihedral angle
| 20> { D 19  18  17  16   C } # D for Dihedral angle
| 21> { D 18  17  16  20   C } # D for Dihedral angle
| 22> { D 17  16  20  19   C } # D for Dihedral angle
| 23> { D 15  12  16  20   C } # D for Dihedral angle
| 24> end
| 25> end
| 26>
| 27>
| 28> #%pal
| 29> #nprocs 8
| 30> #end
| 31>
| 32> * xyz 0 1
| 33> C  -21.048   26.222   46.251
| 34> C  -20.361   27.558   45.944
| 35> C  -20.329   28.222   47.341
| 36> C  -20.110   27.022   48.296
| 37> O  -20.473   25.807   47.535
| 38> H  -20.833   25.428   45.533
| 39> H  -19.344   27.382   45.576
| 40> H  -20.898   28.157   45.201
| 41> H  -19.543   28.978   47.434
| 42> H  -21.289   28.710   47.548
| 43> H  -20.733   27.082   49.195
| 44> H  -19.064   26.913   48.597
| 45> C  -23.065   27.161   47.638
| 46> H  -23.711   26.507   48.236
| 47> H  -22.208   27.455   48.257
| 48> O  -22.586   26.394   46.375
| 49> C  -23.861   28.450   47.291
| 50> C  -24.217   29.241   48.555
| 51> C  -22.883   29.962   48.860
| 52> C  -22.316   30.264   47.450
| 53> O  -23.030   29.372   46.511
| 54> H  -24.717   28.185   46.667
| 55> O  -25.338   30.270   48.242
| 56> H  -24.554   28.604   49.380
| 57> H  -23.018   30.869   49.458
| 58> H  -22.211   29.294   49.411
| 59> H  -21.240   30.071   47.380
| 60> H  -22.513   31.292   47.132
| 61> H  -25.022   30.919   47.418
| 62> *
| 63>
| 64>                          ****END OF INPUT****
 Total Charge           Charge          ....    0
 Multiplicity           Mult            ....    1
 Number of Electrons    NEL             ....  102
FINAL SINGLE POINT ENERGY      -652.783965658875
FINAL SINGLE POINT ENERGY      -652.827634657486
FINAL SINGLE POINT ENERGY      -652.848493401708
FINAL SINGLE POINT ENERGY      -652.853469050737
FINAL SINGLE POINT ENERGY      -652.854325178294
FINAL SINGLE POINT ENERGY      -652.854520238168
FINAL SINGLE POINT ENERGY      -652.854551087981
FINAL SINGLE POINT ENERGY      -652.854558834691
FINAL SINGLE POINT ENERGY      -652.854558412141
                    ***********************HURRAY********************

CARTESIAN COORDINATES (ANGSTROEM)
---------------------------------
  C    -21.173829   26.274823   46.336799
  C    -20.277189   27.433180   45.885670
  C    -19.806418   28.022731   47.241892
  C    -19.678622   26.763693   48.135341
  O    -20.465245   25.702154   47.460780
  H    -21.245219   25.482838   45.589213
  H    -19.433173   27.025491   45.318508
  H    -20.819342   28.156671   45.274291
  H    -18.860967   28.568418   47.164617
  H    -20.563402   28.705563   47.626543
  H    -20.065647   26.905916   49.149669
  H    -18.648396   26.400211   48.199562
  C    -23.086582   27.238513   47.752089
  H    -23.830022   26.566679   48.198085
  H    -22.301483   27.409439   48.498139
  O    -22.565327   26.577668   46.570677
  C    -23.791225   28.536769   47.348420
  C    -24.447235   29.333352   48.487260
  C    -23.270416   30.221028   48.968027
  C    -22.503177   30.530836   47.659459
  O    -22.942782   29.518087   46.663409
  H    -24.549549   28.257464   46.608385
  O    -25.555222   30.132761   47.991932
  H    -24.869661   28.712499   49.278650
  H    -23.640699   31.118720   49.468410
  H    -22.642661   29.665759   49.675578
  H    -21.418061   30.482586   47.778641
  H    -22.761599   31.511224   47.247351
  H    -25.301849   30.535928   47.134603

 Multiplicity           Mult            ....    1
 Number of Electrons    NEL             ....  102
 Basis Dimension        Dim             ....  149

ORBITAL ENERGIES
----------------

  NO   OCC          E(Eh)            E(eV)
   0   2.0000     -19.152550      -521.1674
   1   2.0000     -19.143251      -520.9143
   2   2.0000     -19.143027      -520.9083
   3   2.0000     -19.137204      -520.7498
   4   2.0000     -10.275507      -279.6108
   5   2.0000     -10.248279      -278.8698
   6   2.0000     -10.238393      -278.6008
   7   2.0000     -10.236864      -278.5592
   8   2.0000     -10.236746      -278.5560
   9   2.0000     -10.230039      -278.3735
  10   2.0000     -10.196511      -277.4612
  11   2.0000     -10.188924      -277.2547
  12   2.0000     -10.179904      -277.0093
  13   2.0000      -1.050724       -28.5916
  14   2.0000      -1.041381       -28.3374
  15   2.0000      -1.011868       -27.5343
  16   2.0000      -0.992882       -27.0177
  17   2.0000      -0.791047       -21.5255
  18   2.0000      -0.784745       -21.3540
  19   2.0000      -0.775032       -21.0897
  20   2.0000      -0.734772       -19.9942
  21   2.0000      -0.680515       -18.5177
  22   2.0000      -0.611197       -16.6315
  23   2.0000      -0.603598       -16.4247
  24   2.0000      -0.599387       -16.3102
  25   2.0000      -0.577297       -15.7090
  26   2.0000      -0.527174       -14.3451
  27   2.0000      -0.514664       -14.0047
  28   2.0000      -0.503299       -13.6955
  29   2.0000      -0.488365       -13.2891
  30   2.0000      -0.477666       -12.9979
  31   2.0000      -0.463269       -12.6062
  32   2.0000      -0.452650       -12.3172
  33   2.0000      -0.447137       -12.1672
  34   2.0000      -0.421230       -11.4623
  35   2.0000      -0.416352       -11.3295
  36   2.0000      -0.406742       -11.0680
  37   2.0000      -0.400327       -10.8935
  38   2.0000      -0.379551       -10.3281
  39   2.0000      -0.374918       -10.2020
  40   2.0000      -0.363240        -9.8843
  41   2.0000      -0.355672        -9.6783
  42   2.0000      -0.345198        -9.3933
  43   2.0000      -0.337979        -9.1969
  44   2.0000      -0.318468        -8.6660
  45   2.0000      -0.314571        -8.5599
  46   2.0000      -0.304701        -8.2913
  47   2.0000      -0.276956        -7.5364
  48   2.0000      -0.264365        -7.1937
  49   2.0000      -0.260136        -7.0787
  50   2.0000      -0.240096        -6.5333
  51   0.0000       0.052401         1.4259
  52   0.0000       0.075619         2.0577
  53   0.0000       0.087310         2.3758
  54   0.0000       0.093670         2.5489
  55   0.0000       0.098775         2.6878

MULLIKEN ATOMIC CHARGES
-----------------------
   0 C :    0.302919
   1 C :   -0.262022
   2 C :   -0.328365
   3 C :   -0.016352
   4 O :   -0.509590
   5 H :    0.164891
   6 H :    0.143955
   7 H :    0.174324
   8 H :    0.141311
   9 H :    0.160183
  10 H :    0.137958
  11 H :    0.148273
  12 C :   -0.011045
  13 H :    0.151972
  14 H :    0.130777
  15 O :   -0.523582
  16 C :    0.073198
  17 C :    0.077125
  18 C :   -0.296766
  19 C :   -0.031905
  20 O :   -0.520278
  21 H :    0.173170
  22 O :   -0.600888
  23 H :    0.154715
  24 H :    0.167322
  25 H :    0.140628
  26 H :    0.143829
  27 H :    0.146993
  28 H :    0.367248
Sum of atomic charges:   -0.0000000

LOEWDIN ATOMIC CHARGES
----------------------
   0 C :    0.182626
   1 C :   -0.226787
   2 C :   -0.225663
   3 C :   -0.036476
   4 O :   -0.321544
   5 H :    0.112529
   6 H :    0.114972
   7 H :    0.132460
   8 H :    0.115108
   9 H :    0.112058
  10 H :    0.096862
  11 H :    0.104712
  12 C :   -0.036791
  13 H :    0.112388
  14 H :    0.096913
  15 O :   -0.322943
  16 C :    0.008917
  17 C :    0.035891
  18 C :   -0.240478
  19 C :   -0.041437
  20 O :   -0.326279
  21 H :    0.120869
  22 O :   -0.412910
  23 H :    0.117080
  24 H :    0.129005
  25 H :    0.111047
  26 H :    0.100162
  27 H :    0.103258
  28 H :    0.284454

  Mayer bond orders larger than 0.100000
B(  0-C ,  1-C ) :   0.9177 B(  0-C ,  4-O ) :   0.9043 B(  0-C ,  5-H ) :   0.9357
B(  0-C , 15-O ) :   0.8818 B(  1-C ,  2-C ) :   0.9591 B(  1-C ,  6-H ) :   0.9335
B(  1-C ,  7-H ) :   0.9279 B(  2-C ,  3-C ) :   0.9481 B(  2-C ,  8-H ) :   0.9464
B(  2-C ,  9-H ) :   0.9246 B(  3-C ,  4-O ) :   0.8420 B(  3-C , 10-H ) :   0.9317
B(  3-C , 11-H ) :   0.9386 B( 12-C , 13-H ) :   0.9215 B( 12-C , 14-H ) :   0.9179
B( 12-C , 15-O ) :   0.8444 B( 12-C , 16-C ) :   0.8934 B( 16-C , 17-C ) :   0.8932
B( 16-C , 20-O ) :   0.8554 B( 16-C , 21-H ) :   0.9217 B( 17-C , 18-C ) :   0.9097
B( 17-C , 22-O ) :   0.8943 B( 17-C , 23-H ) :   0.9335 B( 18-C , 19-C ) :   0.9424
B( 18-C , 24-H ) :   0.9367 B( 18-C , 25-H ) :   0.9352 B( 19-C , 20-O ) :   0.8464
B( 19-C , 26-H ) :   0.9217 B( 19-C , 27-H ) :   0.9391 B( 22-O , 28-H ) :   0.7936

FINAL SINGLE POINT ENERGY      -652.854556563321

DIPOLE MOMENT
-------------
                                X             Y             Z
Electronic contribution:     -4.47675      -3.28031      -2.67258
Nuclear contribution   :      5.39998       4.25883       3.25507
                        -----------------------------------------
Total Dipole Moment    :      0.92323       0.97852       0.58248
                        -----------------------------------------
Magnitude (a.u.)       :      1.46600
Magnitude (Debye)      :      3.72627

Rotational constants in cm-1:     0.052551     0.015750     0.014545
Rotational constants in MHz :  1575.435608   472.165647   436.042573

                             ****ORCA TERMINATED NORMALLY****
TOTAL RUN TIME: 0 days 0 hours 29 minutes 15 seconds 758 msec
