                         Program Version 4.2.0 -  RELEASE  -
|  1> # Test redundant internal optimization
|  2> #
|  3> ! RKS B3LYP  Opt TightSCF SmallPrint
|  4>
|  5> %basis
|  6>         Basis "6-31G"
|  7> end
|  8>
|  9> %geom
| 10> Constraints
| 11> { D 4  0  15  12  0.0   C } # D for Dihedral angle
| 12> { D 0  15  12  16  135.0   C } # D for Dihedral angle
| 13> { D 0  4  3  2   C } # D for Dihedral angle
| 14> { D 4  3  2  1   C } # D for Dihedral angle
| 15> { D 3  2  1  0   C } # D for Dihedral angle
| 16> { D 2  1  0  4   C } # D for Dihedral angle
| 17> { D 1  0  4  3   C } # D for Dihedral angle
| 18> { D 16  20  19  18   C } # D for Dihedral angle
| 19> { D 20  19  18  17   C } # D for Dihedral angle
| 20> { D 19  18  17  16   C } # D for Dihedral angle
| 21> { D 18  17  16  20   C } # D for Dihedral angle
| 22> { D 17  16  20  19   C } # D for Dihedral angle
| 23> { D 15  12  16  20   C } # D for Dihedral angle
| 24> end
| 25> end
| 26>
| 27>
| 28> #%pal
| 29> #nprocs 8
| 30> #end
| 31>
| 32> * xyz 0 1
| 33> C  -21.048   26.222   46.251
| 34> C  -20.361   27.558   45.944
| 35> C  -20.329   28.222   47.341
| 36> C  -20.110   27.022   48.296
| 37> O  -20.473   25.807   47.535
| 38> H  -20.833   25.428   45.533
| 39> H  -19.344   27.382   45.576
| 40> H  -20.898   28.157   45.201
| 41> H  -19.543   28.978   47.434
| 42> H  -21.289   28.710   47.548
| 43> H  -20.733   27.082   49.195
| 44> H  -19.064   26.913   48.597
| 45> C  -23.172   26.101   47.783
| 46> H  -23.674   25.125   47.770
| 47> H  -22.371   26.064   48.533
| 48> O  -22.586   26.394   46.375
| 49> C  -24.199   27.173   48.242
| 50> C  -25.440   27.176   47.342
| 51> C  -26.228   25.963   47.892
| 52> C  -25.922   26.004   49.410
| 53> O  -24.719   26.848   49.574
| 54> H  -23.696   28.139   48.322
| 55> O  -26.242   28.490   47.546
| 56> H  -25.201   27.080   46.278
| 57> H  -27.300   26.023   47.681
| 58> H  -25.850   25.036   47.446
| 59> H  -25.722   25.010   49.825
| 60> H  -26.725   26.472   49.986
| 61> H  -26.494   28.607   48.607
| 62> *
| 63>
| 64>                          ****END OF INPUT****
 Total Charge           Charge          ....    0
 Multiplicity           Mult            ....    1
 Number of Electrons    NEL             ....  102
FINAL SINGLE POINT ENERGY      -652.834795141314
FINAL SINGLE POINT ENERGY      -652.857573644978
FINAL SINGLE POINT ENERGY      -652.861402146320
FINAL SINGLE POINT ENERGY      -652.862233308244
FINAL SINGLE POINT ENERGY      -652.862326987679
FINAL SINGLE POINT ENERGY      -652.862344924147
                    ***********************HURRAY********************

CARTESIAN COORDINATES (ANGSTROEM)
---------------------------------
  C    -21.142224   26.241807   46.366679
  C    -20.583254   27.615420   45.992922
  C    -20.360893   28.256463   47.383827
  C    -19.932047   27.058671   48.259091
  O    -20.363106   25.840420   47.511421
  H    -20.993310   25.468463   45.609337
  H    -19.633234   27.484754   45.462006
  H    -21.271593   28.181096   45.361355
  H    -19.603499   29.046153   47.366036
  H    -21.294956   28.695492   47.748505
  H    -20.399531   27.050051   49.247336
  H    -18.847182   26.980317   48.373145
  C    -23.140630   25.998270   47.908317
  H    -23.610877   25.007361   47.864410
  H    -22.366287   25.961200   48.676834
  O    -22.581774   26.315404   46.601277
  C    -24.169219   27.073858   48.252800
  C    -25.373585   27.149606   47.303826
  C    -26.257540   25.990667   47.829044
  C    -26.010079   26.019470   49.358309
  O    -24.758079   26.790510   49.567124
  H    -23.674500   28.047268   48.325309
  O    -26.044829   28.436749   47.420505
  H    -25.094667   27.053943   46.256067
  H    -27.305306   26.151698   47.563601
  H    -25.935285   25.039602   47.391861
  H    -25.887702   25.020892   49.788446
  H    -26.803202   26.539780   49.904465
  H    -26.127610   28.670615   48.369147

 Multiplicity           Mult            ....    1
 Number of Electrons    NEL             ....  102
 Basis Dimension        Dim             ....  149

ORBITAL ENERGIES
----------------

  NO   OCC          E(Eh)            E(eV)
   0   2.0000     -19.153552      -521.1946
   1   2.0000     -19.143360      -520.9173
   2   2.0000     -19.140231      -520.8322
   3   2.0000     -19.133940      -520.6610
   4   2.0000     -10.281712      -279.7796
   5   2.0000     -10.234537      -278.4959
   6   2.0000     -10.233070      -278.4560
   7   2.0000     -10.230471      -278.3853
   8   2.0000     -10.230066      -278.3742
   9   2.0000     -10.226189      -278.2688
  10   2.0000     -10.192926      -277.3636
  11   2.0000     -10.187577      -277.2181
  12   2.0000     -10.185245      -277.1546
  13   2.0000      -1.056665       -28.7533
  14   2.0000      -1.034005       -28.1367
  15   2.0000      -1.002317       -27.2744
  16   2.0000      -0.994188       -27.0532
  17   2.0000      -0.793069       -21.5805
  18   2.0000      -0.778499       -21.1840
  19   2.0000      -0.767853       -20.8944
  20   2.0000      -0.733488       -19.9592
  21   2.0000      -0.672467       -18.2988
  22   2.0000      -0.605784       -16.4842
  23   2.0000      -0.601986       -16.3809
  24   2.0000      -0.594229       -16.1698
  25   2.0000      -0.575437       -15.6584
  26   2.0000      -0.525369       -14.2960
  27   2.0000      -0.510149       -13.8819
  28   2.0000      -0.501015       -13.6333
  29   2.0000      -0.492820       -13.4103
  30   2.0000      -0.473933       -12.8964
  31   2.0000      -0.456367       -12.4184
  32   2.0000      -0.449734       -12.2379
  33   2.0000      -0.436001       -11.8642
  34   2.0000      -0.422311       -11.4917
  35   2.0000      -0.417044       -11.3484
  36   2.0000      -0.400253       -10.8914
  37   2.0000      -0.389929       -10.6105
  38   2.0000      -0.377105       -10.2616
  39   2.0000      -0.365375        -9.9424
  40   2.0000      -0.362541        -9.8652
  41   2.0000      -0.355203        -9.6656
  42   2.0000      -0.351917        -9.5761
  43   2.0000      -0.341564        -9.2944
  44   2.0000      -0.324083        -8.8188
  45   2.0000      -0.311264        -8.4699
  46   2.0000      -0.299904        -8.1608
  47   2.0000      -0.271967        -7.4006
  48   2.0000      -0.267761        -7.2861
  49   2.0000      -0.255812        -6.9610
  50   2.0000      -0.239775        -6.5246
  51   0.0000       0.066580         1.8117
  52   0.0000       0.067986         1.8500
  53   0.0000       0.091780         2.4975
  54   0.0000       0.095975         2.6116
  55   0.0000       0.101158         2.7527

MULLIKEN ATOMIC CHARGES
-----------------------
   0 C :    0.307351
   1 C :   -0.259323
   2 C :   -0.311172
   3 C :   -0.025513
   4 O :   -0.510663
   5 H :    0.157013
   6 H :    0.146404
   7 H :    0.162475
   8 H :    0.150013
   9 H :    0.158131
  10 H :    0.151764
  11 H :    0.154474
  12 C :   -0.010553
  13 H :    0.132788
  14 H :    0.168610
  15 O :   -0.549217
  16 C :    0.057272
  17 C :    0.089094
  18 C :   -0.294802
  19 C :   -0.033760
  20 O :   -0.529549
  21 H :    0.155343
  22 O :   -0.605484
  23 H :    0.177311
  24 H :    0.160541
  25 H :    0.146337
  26 H :    0.147728
  27 H :    0.146301
  28 H :    0.361085
Sum of atomic charges:   -0.0000000

LOEWDIN ATOMIC CHARGES
----------------------
   0 C :    0.185279
   1 C :   -0.220960
   2 C :   -0.219874
   3 C :   -0.033862
   4 O :   -0.317228
   5 H :    0.104654
   6 H :    0.114822
   7 H :    0.126589
   8 H :    0.118810
   9 H :    0.114047
  10 H :    0.105176
  11 H :    0.108620
  12 C :   -0.037979
  13 H :    0.096439
  14 H :    0.116977
  15 O :   -0.347768
  16 C :    0.012363
  17 C :    0.037272
  18 C :   -0.240060
  19 C :   -0.039076
  20 O :   -0.333480
  21 H :    0.109919
  22 O :   -0.417108
  23 H :    0.128349
  24 H :    0.125972
  25 H :    0.114869
  26 H :    0.104500
  27 H :    0.102192
  28 H :    0.280548

  Mayer bond orders larger than 0.100000
B(  0-C ,  1-C ) :   0.9307 B(  0-C ,  4-O ) :   0.9171 B(  0-C ,  5-H ) :   0.9299
B(  0-C , 15-O ) :   0.8352 B(  1-C ,  2-C ) :   0.9532 B(  1-C ,  6-H ) :   0.9350
B(  1-C ,  7-H ) :   0.9355 B(  2-C ,  3-C ) :   0.9524 B(  2-C ,  8-H ) :   0.9441
B(  2-C ,  9-H ) :   0.9407 B(  3-C ,  4-O ) :   0.8270 B(  3-C , 10-H ) :   0.9308
B(  3-C , 11-H ) :   0.9403 B( 12-C , 13-H ) :   0.9301 B( 12-C , 14-H ) :   0.9072
B( 12-C , 15-O ) :   0.8198 B( 12-C , 16-C ) :   0.8940 B( 16-C , 17-C ) :   0.9136
B( 16-C , 20-O ) :   0.8399 B( 16-C , 21-H ) :   0.9236 B( 17-C , 18-C ) :   0.9134
B( 17-C , 22-O ) :   0.8873 B( 17-C , 23-H ) :   0.9238 B( 18-C , 19-C ) :   0.9412
B( 18-C , 24-H ) :   0.9379 B( 18-C , 25-H ) :   0.9346 B( 19-C , 20-O ) :   0.8442
B( 19-C , 26-H ) :   0.9353 B( 19-C , 27-H ) :   0.9375 B( 22-O , 28-H ) :   0.7968

FINAL SINGLE POINT ENERGY      -652.862347253534

DIPOLE MOMENT
-------------
                                X             Y             Z
Electronic contribution:     -1.08673      -0.91974      -0.15161
Nuclear contribution   :      1.45586       0.94261       0.33267
                        -----------------------------------------
Total Dipole Moment    :      0.36913       0.02288       0.18107
                        -----------------------------------------
Magnitude (a.u.)       :      0.41178
Magnitude (Debye)      :      1.04666

Rotational constants in cm-1:     0.053722     0.013630     0.013041
Rotational constants in MHz :  1610.532645   408.610750   390.968054

                             ****ORCA TERMINATED NORMALLY****
TOTAL RUN TIME: 0 days 0 hours 20 minutes 53 seconds 328 msec
