                         Program Version 4.2.0 -  RELEASE  -
|  1> # Test redundant internal optimization
|  2> #
|  3> ! RKS B3LYP  Opt TightSCF SmallPrint
|  4>
|  5> %basis
|  6>         Basis "6-31G"
|  7> end
|  8>
|  9> %geom
| 10> Constraints
| 11> { D 4  0  15  12  195.0   C } # D for Dihedral angle
| 12> { D 0  15  12  16  75.0   C } # D for Dihedral angle
| 13> { D 0  4  3  2   C } # D for Dihedral angle
| 14> { D 4  3  2  1   C } # D for Dihedral angle
| 15> { D 3  2  1  0   C } # D for Dihedral angle
| 16> { D 2  1  0  4   C } # D for Dihedral angle
| 17> { D 1  0  4  3   C } # D for Dihedral angle
| 18> { D 16  20  19  18   C } # D for Dihedral angle
| 19> { D 20  19  18  17   C } # D for Dihedral angle
| 20> { D 19  18  17  16   C } # D for Dihedral angle
| 21> { D 18  17  16  20   C } # D for Dihedral angle
| 22> { D 17  16  20  19   C } # D for Dihedral angle
| 23> { D 15  12  16  20   C } # D for Dihedral angle
| 24> end
| 25> end
| 26>
| 27>
| 28> #%pal
| 29> #nprocs 8
| 30> #end
| 31>
| 32> * xyz 0 1
| 33> C  -21.048   26.222   46.251
| 34> C  -20.361   27.558   45.944
| 35> C  -20.329   28.222   47.341
| 36> C  -20.110   27.022   48.296
| 37> O  -20.473   25.807   47.535
| 38> H  -20.833   25.428   45.533
| 39> H  -19.344   27.382   45.576
| 40> H  -20.898   28.157   45.201
| 41> H  -19.543   28.978   47.434
| 42> H  -21.289   28.710   47.548
| 43> H  -20.733   27.082   49.195
| 44> H  -19.064   26.913   48.597
| 45> C  -23.353   26.472   45.026
| 46> H  -24.362   26.864   45.206
| 47> H  -22.840   27.150   44.332
| 48> O  -22.586   26.394   46.375
| 49> C  -23.482   25.090   44.328
| 50> C  -24.336   24.125   45.159
| 51> C  -25.769   24.603   44.820
| 52> C  -25.654   25.034   43.336
| 53> O  -24.213   25.222   43.063
| 54> H  -22.486   24.717   44.085
| 55> H  -24.181   23.096   44.816
| 56> O  -24.024   24.187   46.679
| 57> H  -26.523   23.825   44.971
| 58> H  -26.038   25.458   45.451
| 59> H  -26.183   25.970   43.129
| 60> H  -26.015   24.264   42.649
| 61> H  -24.172   25.209   47.044
| 62> *
| 63>
| 64>                          ****END OF INPUT****
 Total Charge           Charge          ....    0
 Multiplicity           Mult            ....    1
 Number of Electrons    NEL             ....  102
FINAL SINGLE POINT ENERGY      -652.828624052354
FINAL SINGLE POINT ENERGY      -652.853697960729
FINAL SINGLE POINT ENERGY      -652.860154540231
FINAL SINGLE POINT ENERGY      -652.862557029402
FINAL SINGLE POINT ENERGY      -652.863748241260
FINAL SINGLE POINT ENERGY      -652.864329375327
FINAL SINGLE POINT ENERGY      -652.864491871196
FINAL SINGLE POINT ENERGY      -652.864525798097
FINAL SINGLE POINT ENERGY      -652.864528275945
                    ***********************HURRAY********************

CARTESIAN COORDINATES (ANGSTROEM)
---------------------------------
  C    -21.086242   26.204057   46.196520
  C    -20.339877   27.505383   45.917263
  C    -20.407234   28.214311   47.290386
  C    -20.307570   27.044690   48.289318
  O    -20.647938   25.823371   47.503609
  H    -20.870780   25.375568   45.518792
  H    -19.304634   27.272301   45.642476
  H    -20.783281   28.095858   45.110484
  H    -19.604205   28.945448   47.422678
  H    -21.366034   28.730271   47.393571
  H    -21.007252   27.123587   49.124264
  H    -19.295171   26.891359   48.672643
  C    -23.276471   26.508514   45.008534
  H    -24.234685   26.959286   45.275190
  H    -22.771570   27.172318   44.295583
  O    -22.535130   26.436717   46.276192
  C    -23.470381   25.125454   44.373272
  C    -24.324178   24.157881   45.210887
  C    -25.764579   24.653537   44.891483
  C    -25.668231   25.093432   43.416745
  O    -24.212544   25.273849   43.121962
  H    -22.504385   24.688552   44.103620
  H    -24.194804   23.143324   44.817370
  O    -24.020582   24.102496   46.616827
  H    -26.506381   23.866787   45.052513
  H    -26.011704   25.486996   45.558270
  H    -26.186155   26.034694   43.207657
  H    -26.031050   24.329774   42.722771
  H    -23.508951   24.901185   46.889118

 Multiplicity           Mult            ....    1
 Number of Electrons    NEL             ....  102
 Basis Dimension        Dim             ....  149

ORBITAL ENERGIES
----------------

  NO   OCC          E(Eh)            E(eV)
   0   2.0000     -19.162703      -521.4436
   1   2.0000     -19.151388      -521.1357
   2   2.0000     -19.142534      -520.8948
   3   2.0000     -19.112936      -520.0894
   4   2.0000     -10.291764      -280.0531
   5   2.0000     -10.240359      -278.6543
   6   2.0000     -10.236154      -278.5399
   7   2.0000     -10.232506      -278.4406
   8   2.0000     -10.231308      -278.4080
   9   2.0000     -10.228477      -278.3310
  10   2.0000     -10.196252      -277.4541
  11   2.0000     -10.193569      -277.3811
  12   2.0000     -10.180398      -277.0227
  13   2.0000      -1.066000       -29.0073
  14   2.0000      -1.026754       -27.9394
  15   2.0000      -1.007024       -27.4025
  16   2.0000      -0.991895       -26.9908
  17   2.0000      -0.795368       -21.6431
  18   2.0000      -0.773690       -21.0532
  19   2.0000      -0.767873       -20.8949
  20   2.0000      -0.740227       -20.1426
  21   2.0000      -0.682295       -18.5662
  22   2.0000      -0.609747       -16.5921
  23   2.0000      -0.606463       -16.5027
  24   2.0000      -0.596309       -16.2264
  25   2.0000      -0.574263       -15.6265
  26   2.0000      -0.531900       -14.4737
  27   2.0000      -0.523046       -14.2328
  28   2.0000      -0.499872       -13.6022
  29   2.0000      -0.488820       -13.3015
  30   2.0000      -0.471760       -12.8372
  31   2.0000      -0.463342       -12.6082
  32   2.0000      -0.450911       -12.2699
  33   2.0000      -0.429386       -11.6842
  34   2.0000      -0.426104       -11.5949
  35   2.0000      -0.418772       -11.3954
  36   2.0000      -0.409147       -11.1334
  37   2.0000      -0.390809       -10.6344
  38   2.0000      -0.383571       -10.4375
  39   2.0000      -0.372863       -10.1461
  40   2.0000      -0.364627        -9.9220
  41   2.0000      -0.363665        -9.8958
  42   2.0000      -0.349498        -9.5103
  43   2.0000      -0.339552        -9.2397
  44   2.0000      -0.325738        -8.8638
  45   2.0000      -0.319420        -8.6919
  46   2.0000      -0.292925        -7.9709
  47   2.0000      -0.276138        -7.5141
  48   2.0000      -0.268168        -7.2972
  49   2.0000      -0.247061        -6.7229
  50   2.0000      -0.239832        -6.5261
  51   0.0000       0.057050         1.5524
  52   0.0000       0.077093         2.0978
  53   0.0000       0.089741         2.4420
  54   0.0000       0.091892         2.5005
  55   0.0000       0.103441         2.8148

MULLIKEN ATOMIC CHARGES
-----------------------
   0 C :    0.292928
   1 C :   -0.269775
   2 C :   -0.298099
   3 C :   -0.005702
   4 O :   -0.501037
   5 H :    0.154611
   6 H :    0.152231
   7 H :    0.148164
   8 H :    0.146182
   9 H :    0.162741
  10 H :    0.159319
  11 H :    0.147856
  12 C :   -0.051358
  13 H :    0.164760
  14 H :    0.153497
  15 O :   -0.532030
  16 C :    0.050579
  17 C :    0.124484
  18 C :   -0.310982
  19 C :   -0.022006
  20 O :   -0.521756
  21 H :    0.151346
  22 H :    0.148393
  23 O :   -0.637529
  24 H :    0.155662
  25 H :    0.147720
  26 H :    0.141545
  27 H :    0.152563
  28 H :    0.395695
Sum of atomic charges:   -0.0000000

LOEWDIN ATOMIC CHARGES
----------------------
   0 C :    0.177182
   1 C :   -0.226226
   2 C :   -0.216010
   3 C :   -0.024295
   4 O :   -0.300799
   5 H :    0.102664
   6 H :    0.117850
   7 H :    0.116630
   8 H :    0.116618
   9 H :    0.119420
  10 H :    0.112230
  11 H :    0.105967
  12 C :   -0.054422
  13 H :    0.117847
  14 H :    0.106619
  15 O :   -0.337770
  16 C :    0.005213
  17 C :    0.042333
  18 C :   -0.239665
  19 C :   -0.032634
  20 O :   -0.325190
  21 H :    0.108405
  22 H :    0.106211
  23 O :   -0.431120
  24 H :    0.123096
  25 H :    0.111847
  26 H :    0.101798
  27 H :    0.107417
  28 H :    0.288783

  Mayer bond orders larger than 0.100000
B(  0-C ,  1-C ) :   0.9352 B(  0-C ,  4-O ) :   0.9448 B(  0-C ,  5-H ) :   0.9158
B(  0-C , 15-O ) :   0.7898 B(  1-C ,  2-C ) :   0.9504 B(  1-C ,  6-H ) :   0.9340
B(  1-C ,  7-H ) :   0.9333 B(  2-C ,  3-C ) :   0.9557 B(  2-C ,  8-H ) :   0.9444
B(  2-C ,  9-H ) :   0.9441 B(  3-C ,  4-O ) :   0.8270 B(  3-C , 10-H ) :   0.9343
B(  3-C , 11-H ) :   0.9395 B( 12-C , 13-H ) :   0.9370 B( 12-C , 14-H ) :   0.9212
B( 12-C , 15-O ) :   0.8112 B( 12-C , 16-C ) :   0.8799 B( 16-C , 17-C ) :   0.9090
B( 16-C , 20-O ) :   0.8525 B( 16-C , 21-H ) :   0.9291 B( 17-C , 18-C ) :   0.9000
B( 17-C , 22-H ) :   0.9316 B( 17-C , 23-O ) :   0.9392 B( 18-C , 19-C ) :   0.9396
B( 18-C , 24-H ) :   0.9436 B( 18-C , 25-H ) :   0.9428 B( 19-C , 20-O ) :   0.8294
B( 19-C , 26-H ) :   0.9345 B( 19-C , 27-H ) :   0.9380 B( 23-O , 28-H ) :   0.7219

FINAL SINGLE POINT ENERGY      -652.864529069971

DIPOLE MOMENT
-------------
                                X             Y             Z
Electronic contribution:      0.09641      -3.73583       0.17678
Nuclear contribution   :      0.27053       5.09211      -0.56830
                        -----------------------------------------
Total Dipole Moment    :      0.36694       1.35627      -0.39152
                        -----------------------------------------
Magnitude (a.u.)       :      1.45856
Magnitude (Debye)      :      3.70738

Rotational constants in cm-1:     0.062618     0.013435     0.012098
Rotational constants in MHz :  1877.243120   402.763089   362.698503

                             ****ORCA TERMINATED NORMALLY****
TOTAL RUN TIME: 0 days 0 hours 29 minutes 18 seconds 937 msec
