                         Program Version 4.2.0 -  RELEASE  -
|  1> # Test redundant internal optimization
|  2> #
|  3> ! RKS B3LYP  Opt TightSCF SmallPrint
|  4>
|  5> %basis
|  6>         Basis "6-31G"
|  7> end
|  8>
|  9> %geom
| 10> Constraints
| 11> { D 4  0  15  12  285.0   C } # D for Dihedral angle
| 12> { D 0  15  12  16  165.0   C } # D for Dihedral angle
| 13> { D 0  4  3  2   C } # D for Dihedral angle
| 14> { D 4  3  2  1   C } # D for Dihedral angle
| 15> { D 3  2  1  0   C } # D for Dihedral angle
| 16> { D 2  1  0  4   C } # D for Dihedral angle
| 17> { D 1  0  4  3   C } # D for Dihedral angle
| 18> { D 16  20  19  18   C } # D for Dihedral angle
| 19> { D 20  19  18  17   C } # D for Dihedral angle
| 20> { D 19  18  17  16   C } # D for Dihedral angle
| 21> { D 18  17  16  20   C } # D for Dihedral angle
| 22> { D 17  16  20  19   C } # D for Dihedral angle
| 23> { D 15  12  16  20   C } # D for Dihedral angle
| 24> end
| 25> end
| 26>
| 27>
| 28> #%pal
| 29> #nprocs 8
| 30> #end
| 31>
| 32> * xyz 0 1
| 33> C  -21.048   26.222   46.251
| 34> C  -20.361   27.558   45.944
| 35> C  -20.329   28.222   47.341
| 36> C  -20.110   27.022   48.296
| 37> O  -20.473   25.807   47.535
| 38> H  -20.833   25.428   45.533
| 39> H  -19.344   27.382   45.576
| 40> H  -20.898   28.157   45.201
| 41> H  -19.543   28.978   47.434
| 42> H  -21.289   28.710   47.548
| 43> H  -20.733   27.082   49.195
| 44> H  -19.064   26.913   48.597
| 45> C  -23.396   25.070   46.435
| 46> H  -23.429   24.620   45.435
| 47> H  -22.915   24.356   47.116
| 48> O  -22.586   26.394   46.375
| 49> C  -24.855   25.280   46.925
| 50> C  -25.657   26.134   45.936
| 51> C  -26.010   25.098   44.842
| 52> C  -26.219   23.792   45.650
| 53> O  -25.573   24.002   46.963
| 54> H  -24.838   25.667   47.946
| 55> H  -26.566   26.513   46.417
| 56> O  -24.854   27.344   45.384
| 57> H  -26.896   25.377   44.264
| 58> H  -25.173   24.990   44.142
| 59> H  -25.767   22.921   45.163
| 60> H  -27.275   23.583   45.839
| 61> H  -23.940   26.987   44.897
| 62> *
| 63>
| 64>                          ****END OF INPUT****
 Total Charge           Charge          ....    0
 Multiplicity           Mult            ....    1
 Number of Electrons    NEL             ....  102
FINAL SINGLE POINT ENERGY      -652.835105278812
FINAL SINGLE POINT ENERGY      -652.860600659087
FINAL SINGLE POINT ENERGY      -652.867116039675
FINAL SINGLE POINT ENERGY      -652.869487165202
FINAL SINGLE POINT ENERGY      -652.870835847345
FINAL SINGLE POINT ENERGY      -652.871583603493
FINAL SINGLE POINT ENERGY      -652.871828714123
FINAL SINGLE POINT ENERGY      -652.871881745550
FINAL SINGLE POINT ENERGY      -652.871886681081
                    ***********************HURRAY********************

CARTESIAN COORDINATES (ANGSTROEM)
---------------------------------
  C    -21.076460   26.114109   46.228336
  C    -20.492929   27.490753   45.914581
  C    -20.538455   28.177208   47.298773
  C    -20.245070   27.018175   48.275013
  O    -20.505294   25.769528   47.506626
  H    -20.818429   25.306682   45.537334
  H    -19.460591   27.369072   45.568159
  H    -21.060894   28.022334   45.147952
  H    -19.810400   28.989039   47.387582
  H    -21.536502   28.588874   47.474540
  H    -20.886605   27.025112   49.159221
  H    -19.197799   26.975471   48.586696
  C    -23.266019   24.992226   46.407345
  H    -23.259638   24.490190   45.430518
  H    -22.792577   24.340259   47.147878
  O    -22.518257   26.254095   46.311047
  C    -24.690322   25.327492   46.859754
  C    -25.502330   26.194269   45.882064
  C    -25.952925   25.141724   44.827273
  C    -26.179444   23.873135   45.674932
  O    -25.457541   24.088922   46.964247
  H    -24.650891   25.764502   47.860977
  H    -26.383476   26.578872   46.407848
  O    -24.813784   27.325877   45.314246
  H    -26.851417   25.462324   44.293412
  H    -25.153163   25.010378   44.090527
  H    -25.794059   22.962384   45.206309
  H    -27.231649   23.718947   45.930802
  H    -23.847082   27.237047   45.486008

 Multiplicity           Mult            ....    1
 Number of Electrons    NEL             ....  102
 Basis Dimension        Dim             ....  149

ORBITAL ENERGIES
----------------

  NO   OCC          E(Eh)            E(eV)
   0   2.0000     -19.166183      -521.5384
   1   2.0000     -19.150545      -521.1128
   2   2.0000     -19.139102      -520.8014
   3   2.0000     -19.113568      -520.1066
   4   2.0000     -10.291986      -280.0592
   5   2.0000     -10.235682      -278.5271
   6   2.0000     -10.233249      -278.4609
   7   2.0000     -10.232862      -278.4503
   8   2.0000     -10.229546      -278.3601
   9   2.0000     -10.225614      -278.2531
  10   2.0000     -10.195331      -277.4291
  11   2.0000     -10.192657      -277.3563
  12   2.0000     -10.178521      -276.9716
  13   2.0000      -1.068071       -29.0637
  14   2.0000      -1.024974       -27.8910
  15   2.0000      -1.007661       -27.4199
  16   2.0000      -0.992535       -27.0082
  17   2.0000      -0.797842       -21.7104
  18   2.0000      -0.772406       -21.0182
  19   2.0000      -0.767170       -20.8757
  20   2.0000      -0.735361       -20.0102
  21   2.0000      -0.677576       -18.4378
  22   2.0000      -0.607705       -16.5365
  23   2.0000      -0.600884       -16.3509
  24   2.0000      -0.592861       -16.1326
  25   2.0000      -0.580994       -15.8096
  26   2.0000      -0.530027       -14.4228
  27   2.0000      -0.520868       -14.1735
  28   2.0000      -0.501572       -13.6485
  29   2.0000      -0.485252       -13.2044
  30   2.0000      -0.474032       -12.8991
  31   2.0000      -0.462030       -12.5725
  32   2.0000      -0.440681       -11.9915
  33   2.0000      -0.429757       -11.6943
  34   2.0000      -0.424929       -11.5629
  35   2.0000      -0.423643       -11.5279
  36   2.0000      -0.408469       -11.1150
  37   2.0000      -0.387444       -10.5429
  38   2.0000      -0.382571       -10.4103
  39   2.0000      -0.368079       -10.0159
  40   2.0000      -0.365068        -9.9340
  41   2.0000      -0.357213        -9.7203
  42   2.0000      -0.351171        -9.5558
  43   2.0000      -0.344443        -9.3728
  44   2.0000      -0.326328        -8.8798
  45   2.0000      -0.314225        -8.5505
  46   2.0000      -0.292765        -7.9665
  47   2.0000      -0.279888        -7.6162
  48   2.0000      -0.263682        -7.1751
  49   2.0000      -0.249674        -6.7940
  50   2.0000      -0.241768        -6.5788
  51   0.0000       0.057771         1.5720
  52   0.0000       0.083667         2.2767
  53   0.0000       0.090172         2.4537
  54   0.0000       0.096765         2.6331
  55   0.0000       0.107344         2.9210

MULLIKEN ATOMIC CHARGES
-----------------------
   0 C :    0.296671
   1 C :   -0.268003
   2 C :   -0.300508
   3 C :   -0.005193
   4 O :   -0.507242
   5 H :    0.150910
   6 H :    0.152499
   7 H :    0.157971
   8 H :    0.146852
   9 H :    0.166171
  10 H :    0.153768
  11 H :    0.147755
  12 C :   -0.016995
  13 H :    0.135130
  14 H :    0.181534
  15 O :   -0.559058
  16 C :    0.047988
  17 C :    0.120967
  18 C :   -0.303075
  19 C :   -0.017719
  20 O :   -0.520998
  21 H :    0.160646
  22 H :    0.146281
  23 O :   -0.641300
  24 H :    0.150798
  25 H :    0.145202
  26 H :    0.139358
  27 H :    0.149283
  28 H :    0.390308
Sum of atomic charges:   -0.0000000

LOEWDIN ATOMIC CHARGES
----------------------
   0 C :    0.175604
   1 C :   -0.215440
   2 C :   -0.215724
   3 C :   -0.026486
   4 O :   -0.322836
   5 H :    0.102266
   6 H :    0.118170
   7 H :    0.123668
   8 H :    0.116719
   9 H :    0.120703
  10 H :    0.109114
  11 H :    0.105753
  12 C :   -0.046896
  13 H :    0.096131
  14 H :    0.122838
  15 O :   -0.339137
  16 C :    0.018809
  17 C :    0.041802
  18 C :   -0.237212
  19 C :   -0.031815
  20 O :   -0.322849
  21 H :    0.116395
  22 H :    0.105014
  23 O :   -0.436399
  24 H :    0.120924
  25 H :    0.110662
  26 H :    0.100852
  27 H :    0.106024
  28 H :    0.283346

  Mayer bond orders larger than 0.100000
B(  0-C ,  1-C ) :   0.9499 B(  0-C ,  4-O ) :   0.9257 B(  0-C ,  5-H ) :   0.9207
B(  0-C , 15-O ) :   0.8182 B(  1-C ,  2-C ) :   0.9544 B(  1-C ,  6-H ) :   0.9389
B(  1-C ,  7-H ) :   0.9356 B(  2-C ,  3-C ) :   0.9545 B(  2-C ,  8-H ) :   0.9446
B(  2-C ,  9-H ) :   0.9437 B(  3-C ,  4-O ) :   0.8286 B(  3-C , 10-H ) :   0.9353
B(  3-C , 11-H ) :   0.9400 B( 12-C , 13-H ) :   0.9218 B( 12-C , 14-H ) :   0.9168
B( 12-C , 15-O ) :   0.7789 B( 12-C , 16-C ) :   0.9108 B( 16-C , 17-C ) :   0.9125
B( 16-C , 20-O ) :   0.8555 B( 16-C , 21-H ) :   0.9289 B( 17-C , 18-C ) :   0.9018
B( 17-C , 22-H ) :   0.9301 B( 17-C , 23-O ) :   0.9329 B( 18-C , 19-C ) :   0.9381
B( 18-C , 24-H ) :   0.9449 B( 18-C , 25-H ) :   0.9437 B( 19-C , 20-O ) :   0.8323
B( 19-C , 26-H ) :   0.9350 B( 19-C , 27-H ) :   0.9387 B( 23-O , 28-H ) :   0.7245

FINAL SINGLE POINT ENERGY      -652.871888300480

DIPOLE MOMENT
-------------
                                X             Y             Z
Electronic contribution:     -1.07465      -1.82223       1.52061
Nuclear contribution   :      1.91689       1.97360      -1.84938
                        -----------------------------------------
Total Dipole Moment    :      0.84224       0.15137      -0.32876
                        -----------------------------------------
Magnitude (a.u.)       :      0.91672
Magnitude (Debye)      :      2.33011

Rotational constants in cm-1:     0.059007     0.013363     0.012142
Rotational constants in MHz :  1768.997265   400.612371   364.010617

                             ****ORCA TERMINATED NORMALLY****
TOTAL RUN TIME: 0 days 0 hours 42 minutes 34 seconds 296 msec
