                         Program Version 4.2.0 -  RELEASE  -
|  1> # Test redundant internal optimization
|  2> #
|  3> ! RKS B3LYP  Opt TightSCF SmallPrint
|  4>
|  5> %basis
|  6>         Basis "6-31G"
|  7> end
|  8>
|  9> %geom
| 10> Constraints
| 11> { D 4  0  15  12  195.0   C } # D for Dihedral angle
| 12> { D 0  15  12  16  300.0   C } # D for Dihedral angle
| 13> { D 0  4  3  2   C } # D for Dihedral angle
| 14> { D 4  3  2  1   C } # D for Dihedral angle
| 15> { D 3  2  1  0   C } # D for Dihedral angle
| 16> { D 2  1  0  4   C } # D for Dihedral angle
| 17> { D 1  0  4  3   C } # D for Dihedral angle
| 18> { D 16  20  19  18   C } # D for Dihedral angle
| 19> { D 20  19  18  17   C } # D for Dihedral angle
| 20> { D 19  18  17  16   C } # D for Dihedral angle
| 21> { D 18  17  16  20   C } # D for Dihedral angle
| 22> { D 17  16  20  19   C } # D for Dihedral angle
| 23> { D 15  12  16  20   C } # D for Dihedral angle
| 24> end
| 25> end
| 26>
| 27>
| 28> #%pal
| 29> #nprocs 8
| 30> #end
| 31>
| 32> * xyz 0 1
| 33> C  -21.048   26.222   46.251
| 34> C  -20.361   27.558   45.944
| 35> C  -20.329   28.222   47.341
| 36> C  -20.110   27.022   48.296
| 37> O  -20.473   25.807   47.535
| 38> H  -20.833   25.428   45.533
| 39> H  -19.344   27.382   45.576
| 40> H  -20.898   28.157   45.201
| 41> H  -19.543   28.978   47.434
| 42> H  -21.289   28.710   47.548
| 43> H  -20.733   27.082   49.195
| 44> H  -19.064   26.913   48.597
| 45> C  -23.353   26.472   45.026
| 46> H  -23.191   25.544   44.464
| 47> H  -24.430   26.583   45.203
| 48> O  -22.586   26.394   46.375
| 49> C  -22.894   27.665   44.143
| 50> C  -21.434   27.503   43.704
| 51> C  -21.566   26.492   42.541
| 52> C  -22.915   26.884   41.887
| 53> O  -23.648   27.691   42.885
| 54> H  -23.108   28.600   44.664
| 55> O  -20.878   28.860   43.192
| 56> H  -20.780   27.145   44.507
| 57> H  -20.730   26.544   41.836
| 58> H  -21.609   25.470   42.934
| 59> H  -23.519   26.011   41.618
| 60> H  -22.783   27.509   41.000
| 61> H  -21.518   29.239   42.385
| 62> *
| 63>
| 64>                          ****END OF INPUT****
 Total Charge           Charge          ....    0
 Multiplicity           Mult            ....    1
 Number of Electrons    NEL             ....  102
FINAL SINGLE POINT ENERGY      -652.743291869618
FINAL SINGLE POINT ENERGY      -652.818797726749
FINAL SINGLE POINT ENERGY      -652.840442559772
FINAL SINGLE POINT ENERGY      -652.845046810815
FINAL SINGLE POINT ENERGY      -652.845775774227
FINAL SINGLE POINT ENERGY      -652.845918967933
FINAL SINGLE POINT ENERGY      -652.845938496979
FINAL SINGLE POINT ENERGY      -652.845950319685
FINAL SINGLE POINT ENERGY      -652.845955225909
                    ***********************HURRAY********************

CARTESIAN COORDINATES (ANGSTROEM)
---------------------------------
  C    -20.838763   26.205232   46.363110
  C    -20.004465   27.486849   46.276647
  C    -20.284863   28.158482   47.654938
  C    -20.402339   26.935578   48.589304
  O    -20.643138   25.770173   47.712689
  H    -20.538017   25.390284   45.695451
  H    -18.944218   27.219255   46.186525
  H    -20.262430   28.156248   45.460941
  H    -19.487655   28.844812   47.953506
  H    -21.228858   28.707979   47.611262
  H    -21.231349   27.013368   49.297553
  H    -19.476862   26.729950   49.136591
  C    -23.035781   26.648975   45.023909
  H    -23.041993   25.688835   44.481228
  H    -24.050463   26.811334   45.392738
  O    -22.264772   26.473615   46.247138
  C    -22.767255   27.752237   43.971251
  C    -21.437325   27.700264   43.195152
  C    -21.690987   26.527544   42.195906
  C    -23.199368   26.688614   41.873639
  O    -23.781531   27.527985   42.938882
  H    -22.935054   28.748679   44.389239
  O    -21.199134   28.959915   42.509745
  H    -20.552976   27.531343   43.795584
  H    -21.052794   26.629790   41.315744
  H    -21.478450   25.565641   42.673389
  H    -23.732843   25.734166   41.843410
  H    -23.367248   27.209764   40.925633
  H    -22.036069   29.270092   42.103894

 Multiplicity           Mult            ....    1
 Number of Electrons    NEL             ....  102
 Basis Dimension        Dim             ....  149

ORBITAL ENERGIES
----------------

  NO   OCC          E(Eh)            E(eV)
   0   2.0000     -19.153840      -521.2025
   1   2.0000     -19.146381      -520.9995
   2   2.0000     -19.139963      -520.8249
   3   2.0000     -19.138045      -520.7727
   4   2.0000     -10.284733      -279.8618
   5   2.0000     -10.247759      -278.8557
   6   2.0000     -10.243399      -278.7371
   7   2.0000     -10.238464      -278.6028
   8   2.0000     -10.234771      -278.5023
   9   2.0000     -10.223947      -278.2077
  10   2.0000     -10.195989      -277.4470
  11   2.0000     -10.186947      -277.2009
  12   2.0000     -10.186252      -277.1820
  13   2.0000      -1.053645       -28.6711
  14   2.0000      -1.047370       -28.5004
  15   2.0000      -1.015645       -27.6371
  16   2.0000      -0.989910       -26.9368
  17   2.0000      -0.785895       -21.3853
  18   2.0000      -0.784901       -21.3583
  19   2.0000      -0.772577       -21.0229
  20   2.0000      -0.738807       -20.1040
  21   2.0000      -0.678819       -18.4716
  22   2.0000      -0.615670       -16.7532
  23   2.0000      -0.606663       -16.5081
  24   2.0000      -0.597866       -16.2688
  25   2.0000      -0.579373       -15.7656
  26   2.0000      -0.529051       -14.3962
  27   2.0000      -0.520893       -14.1742
  28   2.0000      -0.503740       -13.7075
  29   2.0000      -0.484859       -13.1937
  30   2.0000      -0.479823       -13.0566
  31   2.0000      -0.461178       -12.5493
  32   2.0000      -0.452958       -12.3256
  33   2.0000      -0.438151       -11.9227
  34   2.0000      -0.426991       -11.6190
  35   2.0000      -0.420122       -11.4321
  36   2.0000      -0.409865       -11.1530
  37   2.0000      -0.398618       -10.8469
  38   2.0000      -0.381355       -10.3772
  39   2.0000      -0.377045       -10.2599
  40   2.0000      -0.366658        -9.9773
  41   2.0000      -0.356939        -9.7128
  42   2.0000      -0.349756        -9.5173
  43   2.0000      -0.337969        -9.1966
  44   2.0000      -0.315922        -8.5967
  45   2.0000      -0.312107        -8.4929
  46   2.0000      -0.296705        -8.0738
  47   2.0000      -0.279281        -7.5996
  48   2.0000      -0.265783        -7.2323
  49   2.0000      -0.258231        -7.0268
  50   2.0000      -0.242840        -6.6080
  51   0.0000       0.060261         1.6398
  52   0.0000       0.066031         1.7968
  53   0.0000       0.084834         2.3084
  54   0.0000       0.094232         2.5642
  55   0.0000       0.098625         2.6837

MULLIKEN ATOMIC CHARGES
-----------------------
   0 C :    0.302178
   1 C :   -0.282727
   2 C :   -0.304810
   3 C :    0.001982
   4 O :   -0.496884
   5 H :    0.134411
   6 H :    0.145997
   7 H :    0.163110
   8 H :    0.143549
   9 H :    0.160830
  10 H :    0.154799
  11 H :    0.142372
  12 C :    0.003409
  13 H :    0.123108
  14 H :    0.176092
  15 O :   -0.524465
  16 C :    0.032775
  17 C :    0.082646
  18 C :   -0.298535
  19 C :   -0.026662
  20 O :   -0.521874
  21 H :    0.161008
  22 O :   -0.605840
  23 H :    0.157676
  24 H :    0.166406
  25 H :    0.143286
  26 H :    0.152131
  27 H :    0.147019
  28 H :    0.367014
Sum of atomic charges:   -0.0000000

LOEWDIN ATOMIC CHARGES
----------------------
   0 C :    0.184949
   1 C :   -0.237617
   2 C :   -0.216530
   3 C :   -0.025313
   4 O :   -0.300199
   5 H :    0.094426
   6 H :    0.115187
   7 H :    0.120486
   8 H :    0.115349
   9 H :    0.117776
  10 H :    0.109483
  11 H :    0.102157
  12 C :   -0.041525
  13 H :    0.090868
  14 H :    0.128844
  15 O :   -0.341042
  16 C :    0.004056
  17 C :    0.027708
  18 C :   -0.240486
  19 C :   -0.038449
  20 O :   -0.323206
  21 H :    0.114505
  22 O :   -0.414494
  23 H :    0.117165
  24 H :    0.128753
  25 H :    0.112788
  26 H :    0.106624
  27 H :    0.103406
  28 H :    0.284332

  Mayer bond orders larger than 0.100000
B(  0-C ,  1-C ) :   0.9270 B(  0-C ,  4-O ) :   0.9422 B(  0-C ,  5-H ) :   0.9191
B(  0-C , 15-O ) :   0.8267 B(  1-C ,  2-C ) :   0.9446 B(  1-C ,  6-H ) :   0.9333
B(  1-C ,  7-H ) :   0.9182 B(  2-C ,  3-C ) :   0.9542 B(  2-C ,  8-H ) :   0.9440
B(  2-C ,  9-H ) :   0.9441 B(  3-C ,  4-O ) :   0.8305 B(  3-C , 10-H ) :   0.9351
B(  3-C , 11-H ) :   0.9393 B( 12-C , 13-H ) :   0.9224 B( 12-C , 14-H ) :   0.9315
B( 12-C , 15-O ) :   0.8574 B( 12-C , 16-C ) :   0.8657 B( 16-C , 17-C ) :   0.9091
B( 16-C , 20-O ) :   0.8236 B( 16-C , 21-H ) :   0.9252 B( 17-C , 18-C ) :   0.9074
B( 17-C , 22-O ) :   0.8883 B( 17-C , 23-H ) :   0.9135 B( 18-C , 19-C ) :   0.9416
B( 18-C , 24-H ) :   0.9369 B( 18-C , 25-H ) :   0.9342 B( 19-C , 20-O ) :   0.8355
B( 19-C , 26-H ) :   0.9345 B( 19-C , 27-H ) :   0.9383 B( 22-O , 28-H ) :   0.7931

FINAL SINGLE POINT ENERGY      -652.845960719260

DIPOLE MOMENT
-------------
                                X             Y             Z
Electronic contribution:     -2.65935      -0.60902       0.23108
Nuclear contribution   :      3.04588       0.80022      -0.87904
                        -----------------------------------------
Total Dipole Moment    :      0.38652       0.19120      -0.64796
                        -----------------------------------------
Magnitude (a.u.)       :      0.77833
Magnitude (Debye)      :      1.97837

Rotational constants in cm-1:     0.055222     0.014009     0.012851
Rotational constants in MHz :  1655.524102   419.982794   385.258837

                             ****ORCA TERMINATED NORMALLY****
TOTAL RUN TIME: 0 days 0 hours 39 minutes 15 seconds 253 msec
