                         Program Version 4.2.0 -  RELEASE  -
|  1> # Test redundant internal optimization
|  2> #
|  3> ! RKS B3LYP  Opt TightSCF SmallPrint
|  4>
|  5> %basis
|  6>         Basis "6-31G"
|  7> end
|  8>
|  9> %geom
| 10> Constraints
| 11> { D 4  0  15  12  255.0   C } # D for Dihedral angle
| 12> { D 0  15  12  16  195.0   C } # D for Dihedral angle
| 13> { D 0  4  3  2   C } # D for Dihedral angle
| 14> { D 4  3  2  1   C } # D for Dihedral angle
| 15> { D 3  2  1  0   C } # D for Dihedral angle
| 16> { D 2  1  0  4   C } # D for Dihedral angle
| 17> { D 1  0  4  3   C } # D for Dihedral angle
| 18> { D 16  20  19  18   C } # D for Dihedral angle
| 19> { D 20  19  18  17   C } # D for Dihedral angle
| 20> { D 19  18  17  16   C } # D for Dihedral angle
| 21> { D 18  17  16  20   C } # D for Dihedral angle
| 22> { D 17  16  20  19   C } # D for Dihedral angle
| 23> { D 15  12  16  20   C } # D for Dihedral angle
| 24> end
| 25> end
| 26>
| 27>
| 28> #%pal
| 29> #nprocs 8
| 30> #end
| 31>
| 32> * xyz 0 1
| 33> C  -21.048   26.222   46.251
| 34> C  -20.361   27.558   45.944
| 35> C  -20.329   28.222   47.341
| 36> C  -20.110   27.022   48.296
| 37> O  -20.473   25.807   47.535
| 38> H  -20.833   25.428   45.533
| 39> H  -19.344   27.382   45.576
| 40> H  -20.898   28.157   45.201
| 41> H  -19.543   28.978   47.434
| 42> H  -21.289   28.710   47.548
| 43> H  -20.733   27.082   49.195
| 44> H  -19.064   26.913   48.597
| 45> C  -23.431   25.260   45.734
| 46> H  -23.019   25.014   44.747
| 47> H  -23.395   24.355   46.355
| 48> O  -22.586   26.394   46.375
| 49> C  -24.924   25.651   45.555
| 50> C  -25.082   26.807   44.561
| 51> C  -24.952   26.074   43.204
| 52> C  -25.628   24.706   43.478
| 53> O  -25.674   24.547   44.947
| 54> H  -25.366   25.835   46.536
| 55> H  -26.076   27.258   44.663
| 56> O  -24.017   27.922   44.748
| 57> H  -25.427   26.617   42.381
| 58> H  -23.894   25.938   42.950
| 59> H  -25.071   23.869   43.043
| 60> H  -26.659   24.671   43.116
| 61> H  -23.014   27.493   44.649
| 62> *
| 63>
| 64>                          ****END OF INPUT****
 Total Charge           Charge          ....    0
 Multiplicity           Mult            ....    1
 Number of Electrons    NEL             ....  102
FINAL SINGLE POINT ENERGY      -652.828782219691
FINAL SINGLE POINT ENERGY      -652.853995515830
FINAL SINGLE POINT ENERGY      -652.860461230970
FINAL SINGLE POINT ENERGY      -652.863190575516
FINAL SINGLE POINT ENERGY      -652.864852613808
FINAL SINGLE POINT ENERGY      -652.866106385433
FINAL SINGLE POINT ENERGY      -652.866863072273
FINAL SINGLE POINT ENERGY      -652.867161459740
FINAL SINGLE POINT ENERGY      -652.867211989302
FINAL SINGLE POINT ENERGY      -652.867220216147
                    ***********************HURRAY********************

CARTESIAN COORDINATES (ANGSTROEM)
---------------------------------
  C    -21.059018   26.127179   46.216049
  C    -20.438421   27.482614   45.881743
  C    -20.481763   28.200254   47.251804
  C    -20.227389   27.052668   48.252326
  O    -20.510749   25.797925   47.504424
  H    -20.810527   25.306885   45.538366
  H    -19.403611   27.330751   45.553948
  H    -20.980347   28.009678   45.092599
  H    -19.734855   28.995715   47.331024
  H    -21.469985   28.642467   47.410851
  H    -20.879198   27.090732   49.128172
  H    -19.184770   26.991484   48.576676
  C    -23.317220   25.190108   45.727340
  H    -22.894828   24.876438   44.763622
  H    -23.311873   24.334447   46.410206
  O    -22.507816   26.284596   46.283269
  C    -24.750548   25.701606   45.550585
  C    -24.921176   26.858003   44.551804
  C    -24.892584   26.105327   43.189896
  C    -25.598680   24.771597   43.512688
  O    -25.569368   24.625166   44.998097
  H    -25.166724   25.944225   46.532564
  H    -25.912902   27.302004   44.701152
  O    -23.939528   27.912167   44.640790
  H    -25.394944   26.670587   42.400719
  H    -23.849494   25.961967   42.887935
  H    -25.108198   23.901881   43.064761
  H    -26.652796   24.770724   43.221639
  H    -23.270688   27.652805   45.317951

 Multiplicity           Mult            ....    1
 Number of Electrons    NEL             ....  102
 Basis Dimension        Dim             ....  149

ORBITAL ENERGIES
----------------

  NO   OCC          E(Eh)            E(eV)
   0   2.0000     -19.165216      -521.5120
   1   2.0000     -19.147931      -521.0417
   2   2.0000     -19.142148      -520.8843
   3   2.0000     -19.117046      -520.2013
   4   2.0000     -10.291869      -280.0560
   5   2.0000     -10.239819      -278.6396
   6   2.0000     -10.236506      -278.5495
   7   2.0000     -10.232926      -278.4521
   8   2.0000     -10.231197      -278.4050
   9   2.0000     -10.228650      -278.3357
  10   2.0000     -10.194230      -277.3991
  11   2.0000     -10.192302      -277.3466
  12   2.0000     -10.181992      -277.0661
  13   2.0000      -1.065048       -28.9814
  14   2.0000      -1.027878       -27.9700
  15   2.0000      -1.008646       -27.4466
  16   2.0000      -0.995226       -27.0815
  17   2.0000      -0.796195       -21.6656
  18   2.0000      -0.774732       -21.0815
  19   2.0000      -0.769703       -20.9447
  20   2.0000      -0.735928       -20.0256
  21   2.0000      -0.679966       -18.5028
  22   2.0000      -0.606702       -16.5092
  23   2.0000      -0.603125       -16.4119
  24   2.0000      -0.594665       -16.1817
  25   2.0000      -0.583864       -15.8878
  26   2.0000      -0.527656       -14.3582
  27   2.0000      -0.524416       -14.2701
  28   2.0000      -0.501026       -13.6336
  29   2.0000      -0.488277       -13.2867
  30   2.0000      -0.473703       -12.8901
  31   2.0000      -0.462409       -12.5828
  32   2.0000      -0.442284       -12.0352
  33   2.0000      -0.432604       -11.7718
  34   2.0000      -0.428558       -11.6617
  35   2.0000      -0.426982       -11.6188
  36   2.0000      -0.406715       -11.0673
  37   2.0000      -0.389029       -10.5860
  38   2.0000      -0.382461       -10.4073
  39   2.0000      -0.372009       -10.1229
  40   2.0000      -0.363968        -9.9041
  41   2.0000      -0.358654        -9.7595
  42   2.0000      -0.349477        -9.5098
  43   2.0000      -0.343997        -9.3606
  44   2.0000      -0.326928        -8.8962
  45   2.0000      -0.319286        -8.6882
  46   2.0000      -0.295647        -8.0450
  47   2.0000      -0.276485        -7.5235
  48   2.0000      -0.263909        -7.1813
  49   2.0000      -0.248899        -6.7729
  50   2.0000      -0.246290        -6.7019
  51   0.0000       0.053350         1.4517
  52   0.0000       0.078553         2.1375
  53   0.0000       0.089932         2.4472
  54   0.0000       0.095016         2.5855
  55   0.0000       0.104893         2.8543

MULLIKEN ATOMIC CHARGES
-----------------------
   0 C :    0.294970
   1 C :   -0.275888
   2 C :   -0.303395
   3 C :   -0.002770
   4 O :   -0.500647
   5 H :    0.150186
   6 H :    0.153072
   7 H :    0.159572
   8 H :    0.148080
   9 H :    0.165352
  10 H :    0.155126
  11 H :    0.146113
  12 C :   -0.009949
  13 H :    0.134942
  14 H :    0.172531
  15 O :   -0.553897
  16 C :    0.042582
  17 C :    0.122267
  18 C :   -0.305644
  19 C :   -0.018152
  20 O :   -0.519898
  21 H :    0.163623
  22 H :    0.144816
  23 O :   -0.650818
  24 H :    0.153240
  25 H :    0.145056
  26 H :    0.141188
  27 H :    0.150829
  28 H :    0.397514
Sum of atomic charges:   -0.0000000

LOEWDIN ATOMIC CHARGES
----------------------
   0 C :    0.177195
   1 C :   -0.221977
   2 C :   -0.216428
   3 C :   -0.026022
   4 O :   -0.315539
   5 H :    0.104021
   6 H :    0.118319
   7 H :    0.123339
   8 H :    0.117439
   9 H :    0.119586
  10 H :    0.109917
  11 H :    0.104940
  12 C :   -0.041226
  13 H :    0.096064
  14 H :    0.117553
  15 O :   -0.340661
  16 C :    0.017925
  17 C :    0.042482
  18 C :   -0.236115
  19 C :   -0.031699
  20 O :   -0.321865
  21 H :    0.117295
  22 H :    0.103364
  23 O :   -0.441240
  24 H :    0.121929
  25 H :    0.110757
  26 H :    0.101643
  27 H :    0.106867
  28 H :    0.282137

  Mayer bond orders larger than 0.100000
B(  0-C ,  1-C ) :   0.9455 B(  0-C ,  4-O ) :   0.9420 B(  0-C ,  5-H ) :   0.9201
B(  0-C , 15-O ) :   0.8072 B(  1-C ,  2-C ) :   0.9537 B(  1-C ,  6-H ) :   0.9379
B(  1-C ,  7-H ) :   0.9308 B(  2-C ,  3-C ) :   0.9528 B(  2-C ,  8-H ) :   0.9447
B(  2-C ,  9-H ) :   0.9438 B(  3-C ,  4-O ) :   0.8315 B(  3-C , 10-H ) :   0.9347
B(  3-C , 11-H ) :   0.9397 B( 12-C , 13-H ) :   0.9194 B( 12-C , 14-H ) :   0.9215
B( 12-C , 15-O ) :   0.7889 B( 12-C , 16-C ) :   0.9106 B( 15-O , 28-H ) :   0.1010
B( 16-C , 17-C ) :   0.9160 B( 16-C , 20-O ) :   0.8578 B( 16-C , 21-H ) :   0.9278
B( 17-C , 18-C ) :   0.9041 B( 17-C , 22-H ) :   0.9278 B( 17-C , 23-O ) :   0.9302
B( 18-C , 19-C ) :   0.9402 B( 18-C , 24-H ) :   0.9447 B( 18-C , 25-H ) :   0.9427
B( 19-C , 20-O ) :   0.8316 B( 19-C , 26-H ) :   0.9344 B( 19-C , 27-H ) :   0.9383
B( 23-O , 28-H ) :   0.7088

FINAL SINGLE POINT ENERGY      -652.867222412870

DIPOLE MOMENT
-------------
                                X             Y             Z
Electronic contribution:     -2.04499      -2.38215       2.12615
Nuclear contribution   :      2.81282       2.53313      -2.47435
                        -----------------------------------------
Total Dipole Moment    :      0.76783       0.15098      -0.34820
                        -----------------------------------------
Magnitude (a.u.)       :      0.85650
Magnitude (Debye)      :      2.17706

Rotational constants in cm-1:     0.061415     0.013344     0.012135
Rotational constants in MHz :  1841.189213   400.050863   363.800250

                             ****ORCA TERMINATED NORMALLY****
TOTAL RUN TIME: 0 days 0 hours 37 minutes 28 seconds 383 msec
