                         Program Version 4.2.1 -  RELEASE  -
|  1> # Test redundant internal optimization
|  2> #
|  3> ! RKS B3LYP  Opt TightSCF SmallPrint
|  4>
|  5> %basis
|  6>         Basis "6-31G"
|  7> end
|  8>
|  9> %geom
| 10> Constraints
| 11> { D 4  0  19  14  120.0   C } # D for Dihedral angle
| 12> { D 0  19  14  12  105.0   C } # D for Dihedral angle
| 13> { D 0  4  3  2   C } # D for Dihedral angle
| 14> { D 4  3  2  1   C } # D for Dihedral angle
| 15> { D 3  2  1  0   C } # D for Dihedral angle
| 16> { D 2  1  0  4   C } # D for Dihedral angle
| 17> { D 1  0  4  3   C } # D for Dihedral angle
| 18> { D 14  15  16  17   C } # D for Dihedral angle
| 19> { D 15  16  17  12   C } # D for Dihedral angle
| 20> { D 16  17  12  14   C } # D for Dihedral angle
| 21> { D 17  12  14  15   C } # D for Dihedral angle
| 22> { D 12  14  15  16   C } # D for Dihedral angle
| 23> end
| 24> end
| 25>
| 26>
| 27> #%pal
| 28> #nprocs 8
| 29> #end
| 30>
| 31> * xyz 0 1
| 32> C  -21.048   26.222   46.251
| 33> C  -20.361   27.558   45.944
| 34> C  -20.329   28.222   47.341
| 35> C  -20.110   27.022   48.296
| 36> O  -20.473   25.807   47.535
| 37> H  -20.833   25.428   45.533
| 38> H  -19.344   27.382   45.576
| 39> H  -20.898   28.157   45.201
| 40> H  -19.543   28.978   47.434
| 41> H  -21.289   28.710   47.548
| 42> H  -20.733   27.082   49.195
| 43> H  -19.064   26.913   48.597
| 44> C  -23.617   27.725   44.691
| 45> H  -23.726   28.754   44.314
| 46> C  -22.946   27.704   46.069
| 47> C  -24.123   28.084   46.997
| 48> C  -25.341   27.413   46.313
| 49> O  -24.934   27.122   44.921
| 50> H  -23.116   27.119   43.934
| 51> O  -22.472   26.381   46.366
| 52> H  -22.103   28.399   46.147
| 53> H  -23.981   27.741   48.026
| 54> H  -24.248   29.174   47.022
| 55> H  -26.226   28.059   46.301
| 56> H  -25.607   26.458   46.777
| 57> *
| 58>
| 59>                          ****END OF INPUT****
 Total Charge           Charge          ....    0
 Multiplicity           Mult            ....    1
 Number of Electrons    NEL             ....   86
FINAL SINGLE POINT ENERGY      -538.398523681120
FINAL SINGLE POINT ENERGY      -538.420986694528
FINAL SINGLE POINT ENERGY      -538.422766425796
FINAL SINGLE POINT ENERGY      -538.423123333483
FINAL SINGLE POINT ENERGY      -538.423143439465
FINAL SINGLE POINT ENERGY      -538.423149552661
                    ***********************HURRAY********************

CARTESIAN COORDINATES (ANGSTROEM)
---------------------------------
  C    -21.085370   26.315460   46.326184
  C    -20.145944   27.471417   45.962799
  C    -19.998806   28.212009   47.322967
  C    -20.033024   27.045760   48.341021
  O    -20.620976   25.891938   47.624739
  H    -20.981162   25.438479   45.684988
  H    -19.184944   27.045531   45.657115
  H    -20.505422   28.108671   45.150441
  H    -19.068618   28.785186   47.382863
  H    -20.829129   28.905080   47.490282
  H    -20.640459   27.265937   49.223559
  H    -19.032370   26.742892   48.662525
  C    -23.765701   27.852042   44.666459
  H    -24.009821   28.871916   44.330373
  C    -23.106778   27.883541   46.046146
  C    -24.328542   28.053407   46.971717
  C    -25.431455   27.235905   46.258413
  O    -24.976480   27.056847   44.860500
  H    -23.162437   27.350678   43.907245
  O    -22.509150   26.592247   46.358181
  H    -22.392326   28.704932   46.148652
  H    -24.108733   27.685812   47.975906
  H    -24.600085   29.113916   47.033416
  H    -26.400402   27.747166   46.256648
  H    -25.546865   26.237233   46.685860

 Multiplicity           Mult            ....    1
 Number of Electrons    NEL             ....   86
 Basis Dimension        Dim             ....  127

ORBITAL ENERGIES
----------------

  NO   OCC          E(Eh)            E(eV)
   0   2.0000     -19.139024      -520.7993
   1   2.0000     -19.137487      -520.7575
   2   2.0000     -19.125908      -520.4424
   3   2.0000     -10.280834      -279.7557
   4   2.0000     -10.243202      -278.7317
   5   2.0000     -10.229088      -278.3476
   6   2.0000     -10.221495      -278.1410
   7   2.0000     -10.217032      -278.0196
   8   2.0000     -10.197582      -277.4903
   9   2.0000     -10.197334      -277.4836
  10   2.0000     -10.184086      -277.1231
  11   2.0000      -1.050766       -28.5928
  12   2.0000      -1.013492       -27.5785
  13   2.0000      -0.988521       -26.8990
  14   2.0000      -0.793098       -21.5813
  15   2.0000      -0.785073       -21.3629
  16   2.0000      -0.739091       -20.1117
  17   2.0000      -0.726025       -19.7561
  18   2.0000      -0.621832       -16.9209
  19   2.0000      -0.606820       -16.5124
  20   2.0000      -0.595562       -16.2061
  21   2.0000      -0.564687       -15.3659
  22   2.0000      -0.528680       -14.3861
  23   2.0000      -0.505544       -13.7566
  24   2.0000      -0.487511       -13.2658
  25   2.0000      -0.480899       -13.0859
  26   2.0000      -0.451987       -12.2992
  27   2.0000      -0.448960       -12.2168
  28   2.0000      -0.427913       -11.6441
  29   2.0000      -0.422731       -11.5031
  30   2.0000      -0.407822       -11.0974
  31   2.0000      -0.388253       -10.5649
  32   2.0000      -0.371330       -10.1044
  33   2.0000      -0.367454        -9.9989
  34   2.0000      -0.364959        -9.9310
  35   2.0000      -0.363499        -9.8913
  36   2.0000      -0.351763        -9.5719
  37   2.0000      -0.315402        -8.5825
  38   2.0000      -0.302883        -8.2419
  39   2.0000      -0.290541        -7.9060
  40   2.0000      -0.265408        -7.2221
  41   2.0000      -0.251112        -6.8331
  42   2.0000      -0.230973        -6.2851
  43   0.0000       0.068732         1.8703
  44   0.0000       0.092265         2.5107
  45   0.0000       0.097016         2.6399
  46   0.0000       0.106773         2.9054
  47   0.0000       0.110753         3.0137

MULLIKEN ATOMIC CHARGES
-----------------------
   0 C :    0.321187
   1 C :   -0.307926
   2 C :   -0.309319
   3 C :   -0.003209
   4 O :   -0.495243
   5 H :    0.161383
   6 H :    0.159411
   7 H :    0.146568
   8 H :    0.147014
   9 H :    0.151746
  10 H :    0.147106
  11 H :    0.145633
  12 C :    0.012663
  13 H :    0.118429
  14 C :    0.054784
  15 C :   -0.281955
  16 C :    0.004089
  17 O :   -0.517977
  18 H :    0.152854
  19 O :   -0.523023
  20 H :    0.124614
  21 H :    0.164089
  22 H :    0.135445
  23 H :    0.131709
  24 H :    0.159926
Sum of atomic charges:   -0.0000000

LOEWDIN ATOMIC CHARGES
----------------------
   0 C :    0.182953
   1 C :   -0.234046
   2 C :   -0.221866
   3 C :   -0.030044
   4 O :   -0.313009
   5 H :    0.108012
   6 H :    0.124694
   7 H :    0.114289
   8 H :    0.116641
   9 H :    0.108481
  10 H :    0.104722
  11 H :    0.104224
  12 C :   -0.043813
  13 H :    0.088346
  14 C :    0.035485
  15 C :   -0.224885
  16 C :   -0.026159
  17 O :   -0.328228
  18 H :    0.114346
  19 O :   -0.322729
  20 H :    0.096257
  21 H :    0.128773
  22 H :    0.109010
  23 H :    0.096620
  24 H :    0.111926

  Mayer bond orders larger than 0.100000
B(  0-C ,  1-C ) :   0.9289 B(  0-C ,  4-O ) :   0.9137 B(  0-C ,  5-H ) :   0.9312
B(  0-C , 19-O ) :   0.8757 B(  1-C ,  2-C ) :   0.9511 B(  1-C ,  6-H ) :   0.9338
B(  1-C ,  7-H ) :   0.9302 B(  2-C ,  3-C ) :   0.9479 B(  2-C ,  8-H ) :   0.9454
B(  2-C ,  9-H ) :   0.9380 B(  3-C ,  4-O ) :   0.8482 B(  3-C , 10-H ) :   0.9341
B(  3-C , 11-H ) :   0.9392 B( 12-C , 13-H ) :   0.9103 B( 12-C , 14-C ) :   0.9170
B( 12-C , 17-O ) :   0.8779 B( 12-C , 18-H ) :   0.9347 B( 14-C , 15-C ) :   0.9493
B( 14-C , 19-O ) :   0.8312 B( 14-C , 20-H ) :   0.9050 B( 15-C , 16-C ) :   0.9491
B( 15-C , 21-H ) :   0.9372 B( 15-C , 22-H ) :   0.9410 B( 16-C , 17-O ) :   0.8536
B( 16-C , 23-H ) :   0.9337 B( 16-C , 24-H ) :   0.9351

FINAL SINGLE POINT ENERGY      -538.423149803220

DIPOLE MOMENT
-------------
                                X             Y             Z
Electronic contribution:     -1.63602      -4.79861      -1.21316
Nuclear contribution   :      2.56961       6.39597       1.47362
                        -----------------------------------------
Total Dipole Moment    :      0.93359       1.59736       0.26046
                        -----------------------------------------
Magnitude (a.u.)       :      1.86842
Magnitude (Debye)      :      4.74915

Rotational constants in cm-1:     0.082160     0.020724     0.020083
Rotational constants in MHz :  2463.107486   621.277085   602.061502

                             ****ORCA TERMINATED NORMALLY****
TOTAL RUN TIME: 0 days 0 hours 7 minutes 26 seconds 731 msec
