                         Program Version 4.2.1 -  RELEASE  -
|  1> # Test redundant internal optimization
|  2> #
|  3> ! RKS B3LYP  Opt TightSCF SmallPrint
|  4>
|  5> %basis
|  6>         Basis "6-31G"
|  7> end
|  8>
|  9> %geom
| 10> Constraints
| 11> { D 4  0  19  14  225.0   C } # D for Dihedral angle
| 12> { D 0  19  14  12  255.0   C } # D for Dihedral angle
| 13> { D 0  4  3  2   C } # D for Dihedral angle
| 14> { D 4  3  2  1   C } # D for Dihedral angle
| 15> { D 3  2  1  0   C } # D for Dihedral angle
| 16> { D 2  1  0  4   C } # D for Dihedral angle
| 17> { D 1  0  4  3   C } # D for Dihedral angle
| 18> { D 14  15  16  17   C } # D for Dihedral angle
| 19> { D 15  16  17  12   C } # D for Dihedral angle
| 20> { D 16  17  12  14   C } # D for Dihedral angle
| 21> { D 17  12  14  15   C } # D for Dihedral angle
| 22> { D 12  14  15  16   C } # D for Dihedral angle
| 23> end
| 24> end
| 25>
| 26>
| 27> #%pal
| 28> #nprocs 8
| 29> #end
| 30>
| 31> * xyz 0 1
| 32> C  -21.048   26.222   46.251
| 33> C  -20.361   27.558   45.944
| 34> C  -20.329   28.222   47.341
| 35> C  -20.110   27.022   48.296
| 36> O  -20.473   25.807   47.535
| 37> H  -20.833   25.428   45.533
| 38> H  -19.344   27.382   45.576
| 39> H  -20.898   28.157   45.201
| 40> H  -19.543   28.978   47.434
| 41> H  -21.289   28.710   47.548
| 42> H  -20.733   27.082   49.195
| 43> H  -19.064   26.913   48.597
| 44> C  -23.736   26.901   44.352
| 45> H  -24.539   26.528   43.697
| 46> C  -23.222   25.800   45.287
| 47> C  -22.293   24.997   44.346
| 48> C  -21.685   26.091   43.434
| 49> O  -22.561   27.277   43.557
| 50> H  -24.079   27.803   44.861
| 51> O  -22.472   26.381   46.366
| 52> H  -24.025   25.190   45.714
| 53> H  -21.528   24.431   44.886
| 54> H  -22.881   24.284   43.754
| 55> H  -21.641   25.786   42.383
| 56> H  -20.684   26.396   43.757
| 57> *
| 58>
| 59>                          ****END OF INPUT****
 Total Charge           Charge          ....    0
 Multiplicity           Mult            ....    1
 Number of Electrons    NEL             ....   86
FINAL SINGLE POINT ENERGY      -538.402437477477
FINAL SINGLE POINT ENERGY      -538.426237253896
FINAL SINGLE POINT ENERGY      -538.427904741423
FINAL SINGLE POINT ENERGY      -538.428185366571
FINAL SINGLE POINT ENERGY      -538.428222435050
FINAL SINGLE POINT ENERGY      -538.428229723134
                    ***********************HURRAY********************

CARTESIAN COORDINATES (ANGSTROEM)
---------------------------------
  C    -20.809114   26.268448   46.280042
  C    -20.219795   27.663818   46.077899
  C    -20.396565   28.290479   47.480893
  C    -20.173110   27.090752   48.427514
  O    -20.346709   25.876737   47.588752
  H    -20.454707   25.507699   45.585027
  H    -19.155945   27.577917   45.823990
  H    -20.733623   28.207976   45.282100
  H    -19.694375   29.107872   47.669171
  H    -21.415035   28.676432   47.584607
  H    -20.890732   27.052599   49.251285
  H    -19.156340   27.050311   48.830390
  C    -23.643872   26.932985   44.379855
  H    -24.578824   26.645071   43.876859
  C    -23.105531   25.789033   45.241028
  C    -22.437788   24.892886   44.181628
  C    -21.871288   25.904393   43.154739
  O    -22.583634   27.181673   43.392580
  H    -23.792041   27.850185   44.949569
  O    -22.255634   26.343231   46.294228
  H    -23.905321   25.262421   45.770790
  H    -21.685614   24.212446   44.589235
  H    -23.218885   24.275357   43.724266
  H    -22.043990   25.587814   42.120130
  H    -20.802529   26.097465   43.288423

 Multiplicity           Mult            ....    1
 Number of Electrons    NEL             ....   86
 Basis Dimension        Dim             ....  127

ORBITAL ENERGIES
----------------

  NO   OCC          E(Eh)            E(eV)
   0   2.0000     -19.138643      -520.7890
   1   2.0000     -19.135501      -520.7035
   2   2.0000     -19.132654      -520.6260
   3   2.0000     -10.275240      -279.6035
   4   2.0000     -10.244470      -278.7662
   5   2.0000     -10.231454      -278.4120
   6   2.0000     -10.223493      -278.1954
   7   2.0000     -10.218679      -278.0644
   8   2.0000     -10.197429      -277.4861
   9   2.0000     -10.178678      -276.9759
  10   2.0000     -10.175473      -276.8887
  11   2.0000      -1.047082       -28.4925
  12   2.0000      -1.019079       -27.7306
  13   2.0000      -0.985281       -26.8108
  14   2.0000      -0.790743       -21.5172
  15   2.0000      -0.775462       -21.1014
  16   2.0000      -0.749389       -20.3919
  17   2.0000      -0.717924       -19.5357
  18   2.0000      -0.617561       -16.8047
  19   2.0000      -0.606629       -16.5072
  20   2.0000      -0.591764       -16.1027
  21   2.0000      -0.564760       -15.3679
  22   2.0000      -0.525670       -14.3042
  23   2.0000      -0.505710       -13.7611
  24   2.0000      -0.482306       -13.1242
  25   2.0000      -0.479125       -13.0376
  26   2.0000      -0.454335       -12.3631
  27   2.0000      -0.435030       -11.8378
  28   2.0000      -0.433319       -11.7912
  29   2.0000      -0.419804       -11.4234
  30   2.0000      -0.399937       -10.8828
  31   2.0000      -0.390323       -10.6212
  32   2.0000      -0.374752       -10.1975
  33   2.0000      -0.372288       -10.1305
  34   2.0000      -0.360920        -9.8211
  35   2.0000      -0.349355        -9.5064
  36   2.0000      -0.342965        -9.3325
  37   2.0000      -0.315584        -8.5875
  38   2.0000      -0.306518        -8.3408
  39   2.0000      -0.297418        -8.0932
  40   2.0000      -0.258249        -7.0273
  41   2.0000      -0.252647        -6.8749
  42   2.0000      -0.235040        -6.3958
  43   0.0000       0.073510         2.0003
  44   0.0000       0.090599         2.4653
  45   0.0000       0.100311         2.7296
  46   0.0000       0.106226         2.8906
  47   0.0000       0.113087         3.0773

MULLIKEN ATOMIC CHARGES
-----------------------
   0 C :    0.291231
   1 C :   -0.262354
   2 C :   -0.299371
   3 C :   -0.001690
   4 O :   -0.506120
   5 H :    0.136423
   6 H :    0.135747
   7 H :    0.169079
   8 H :    0.138369
   9 H :    0.159215
  10 H :    0.150139
  11 H :    0.138264
  12 C :   -0.002969
  13 H :    0.123874
  14 C :    0.098611
  15 C :   -0.335665
  16 C :   -0.010498
  17 O :   -0.523085
  18 H :    0.167684
  19 O :   -0.526397
  20 H :    0.148330
  21 H :    0.164902
  22 H :    0.154389
  23 H :    0.142896
  24 H :    0.148997
Sum of atomic charges:   -0.0000000

LOEWDIN ATOMIC CHARGES
----------------------
   0 C :    0.178301
   1 C :   -0.227427
   2 C :   -0.216366
   3 C :   -0.026761
   4 O :   -0.315741
   5 H :    0.095935
   6 H :    0.109185
   7 H :    0.127409
   8 H :    0.112629
   9 H :    0.117630
  10 H :    0.106726
  11 H :    0.100363
  12 C :   -0.043971
  13 H :    0.091259
  14 C :    0.047994
  15 C :   -0.240428
  16 C :   -0.035655
  17 O :   -0.334014
  18 H :    0.121695
  19 O :   -0.329618
  20 H :    0.110391
  21 H :    0.124384
  22 H :    0.122171
  23 H :    0.101967
  24 H :    0.101938

  Mayer bond orders larger than 0.100000
B(  0-C ,  1-C ) :   0.9350 B(  0-C ,  4-O ) :   0.9279 B(  0-C ,  5-H ) :   0.9116
B(  0-C , 19-O ) :   0.8392 B(  1-C ,  2-C ) :   0.9553 B(  1-C ,  6-H ) :   0.9369
B(  1-C ,  7-H ) :   0.9261 B(  2-C ,  3-C ) :   0.9538 B(  2-C ,  8-H ) :   0.9456
B(  2-C ,  9-H ) :   0.9442 B(  3-C ,  4-O ) :   0.8385 B(  3-C , 10-H ) :   0.9352
B(  3-C , 11-H ) :   0.9400 B( 12-C , 13-H ) :   0.9137 B( 12-C , 14-C ) :   0.9120
B( 12-C , 17-O ) :   0.8551 B( 12-C , 18-H ) :   0.9324 B( 14-C , 15-C ) :   0.9390
B( 14-C , 19-O ) :   0.8609 B( 14-C , 20-H ) :   0.9310 B( 15-C , 16-C ) :   0.9379
B( 15-C , 21-H ) :   0.9288 B( 15-C , 22-H ) :   0.9361 B( 16-C , 17-O ) :   0.8578
B( 16-C , 23-H ) :   0.9334 B( 16-C , 24-H ) :   0.9318

FINAL SINGLE POINT ENERGY      -538.428230967061

DIPOLE MOMENT
-------------
                                X             Y             Z
Electronic contribution:     -1.16996      -1.29286       0.76598
Nuclear contribution   :      1.11061       1.10005      -1.09692
                        -----------------------------------------
Total Dipole Moment    :     -0.05936      -0.19280      -0.33093
                        -----------------------------------------
Magnitude (a.u.)       :      0.38757
Magnitude (Debye)      :      0.98513

Rotational constants in cm-1:     0.076890     0.022936     0.021783
Rotational constants in MHz :  2305.093138   687.610154   653.027478

                             ****ORCA TERMINATED NORMALLY****
TOTAL RUN TIME: 0 days 0 hours 9 minutes 9 seconds 362 msec
