                         Program Version 4.2.0 -  RELEASE  -
|  1> # Test redundant internal optimization
|  2> #
|  3> ! RKS B3LYP  Opt TightSCF SmallPrint
|  4>
|  5> %basis
|  6>         Basis "6-31G"
|  7> end
|  8>
|  9> %geom
| 10> Constraints
| 11> { D 4  0  15  12  315.0   C } # D for Dihedral angle
| 12> { D 0  15  12  16  105.0   C } # D for Dihedral angle
| 13> { D 0  4  3  2   C } # D for Dihedral angle
| 14> { D 4  3  2  1   C } # D for Dihedral angle
| 15> { D 3  2  1  0   C } # D for Dihedral angle
| 16> { D 2  1  0  4   C } # D for Dihedral angle
| 17> { D 1  0  4  3   C } # D for Dihedral angle
| 18> { D 16  20  19  18   C } # D for Dihedral angle
| 19> { D 20  19  18  17   C } # D for Dihedral angle
| 20> { D 19  18  17  16   C } # D for Dihedral angle
| 21> { D 18  17  16  20   C } # D for Dihedral angle
| 22> { D 17  16  20  19   C } # D for Dihedral angle
| 23> { D 15  12  16  20   C } # D for Dihedral angle
| 24> end
| 25> end
| 26>
| 27>
| 28> #%pal
| 29> #nprocs 8
| 30> #end
| 31>
| 32> * xyz 0 1
| 33> C  -21.048   26.222   46.251
| 34> C  -20.361   27.558   45.944
| 35> C  -20.329   28.222   47.341
| 36> C  -20.110   27.022   48.296
| 37> O  -20.473   25.807   47.535
| 38> H  -20.833   25.428   45.533
| 39> H  -19.344   27.382   45.576
| 40> H  -20.898   28.157   45.201
| 41> H  -19.543   28.978   47.434
| 42> H  -21.289   28.710   47.548
| 43> H  -20.733   27.082   49.195
| 44> H  -19.064   26.913   48.597
| 45> C  -23.319   25.255   47.135
| 46> H  -24.215   24.963   46.574
| 47> H  -22.670   24.374   47.226
| 48> O  -22.586   26.394   46.375
| 49> C  -23.753   25.671   48.568
| 50> C  -24.799   26.791   48.528
| 51> C  -26.090   26.005   48.199
| 52> C  -25.885   24.664   48.948
| 53> O  -24.439   24.561   49.238
| 54> H  -22.865   25.902   49.158
| 55> O  -24.908   27.466   49.923
| 56> H  -24.572   27.566   47.788
| 57> H  -26.997   26.526   48.518
| 58> H  -26.162   25.837   47.118
| 59> H  -26.193   23.799   48.351
| 60> H  -26.409   24.637   49.906
| 61> H  -25.136   26.708   50.682
| 62> *
| 63>
| 64>                          ****END OF INPUT****
 Total Charge           Charge          ....    0
 Multiplicity           Mult            ....    1
 Number of Electrons    NEL             ....  102
FINAL SINGLE POINT ENERGY      -652.842314281311
FINAL SINGLE POINT ENERGY      -652.864948000915
FINAL SINGLE POINT ENERGY      -652.868343206716
FINAL SINGLE POINT ENERGY      -652.868936492628
FINAL SINGLE POINT ENERGY      -652.869019891828
FINAL SINGLE POINT ENERGY      -652.869032564960
FINAL SINGLE POINT ENERGY      -652.869034394172
                    ***********************HURRAY********************

CARTESIAN COORDINATES (ANGSTROEM)
---------------------------------
  C    -21.103948   26.164086   46.317058
  C    -20.532914   27.551143   46.021727
  C    -20.517031   28.189840   47.428216
  C    -20.182277   27.002141   48.356468
  O    -20.476620   25.773686   47.561311
  H    -20.841309   25.379209   45.600241
  H    -19.518593   27.442013   45.622296
  H    -21.142921   28.103519   45.303939
  H    -19.785435   28.999160   47.513936
  H    -21.505918   28.594781   47.661582
  H    -20.782243   26.987149   49.269520
  H    -19.122301   26.949612   48.620101
  C    -23.243505   25.189836   47.096162
  H    -24.099666   24.922183   46.467808
  H    -22.598383   24.313414   47.210166
  O    -22.544487   26.272920   46.403079
  C    -23.696198   25.655383   48.479337
  C    -24.703562   26.813716   48.476501
  C    -26.032810   26.073139   48.189274
  C    -25.853615   24.722530   48.927468
  O    -24.397310   24.565830   49.170455
  H    -22.817290   25.895658   49.082413
  O    -24.721819   27.489274   49.765739
  H    -24.463433   27.582011   47.743319
  H    -26.884941   26.650127   48.557629
  H    -26.159728   25.924913   47.111435
  H    -26.211464   23.867474   48.345430
  H    -26.346516   24.708897   49.904354
  H    -24.736763   26.816354   50.479037

 Multiplicity           Mult            ....    1
 Number of Electrons    NEL             ....  102
 Basis Dimension        Dim             ....  149

ORBITAL ENERGIES
----------------

  NO   OCC          E(Eh)            E(eV)
   0   2.0000     -19.146223      -520.9952
   1   2.0000     -19.145718      -520.9815
   2   2.0000     -19.142211      -520.8861
   3   2.0000     -19.135184      -520.6948
   4   2.0000     -10.279841      -279.7287
   5   2.0000     -10.234408      -278.4924
   6   2.0000     -10.230129      -278.3760
   7   2.0000     -10.228138      -278.3218
   8   2.0000     -10.227876      -278.3147
   9   2.0000     -10.226561      -278.2789
  10   2.0000     -10.186586      -277.1911
  11   2.0000     -10.186473      -277.1880
  12   2.0000     -10.186271      -277.1825
  13   2.0000      -1.055642       -28.7255
  14   2.0000      -1.033578       -28.1251
  15   2.0000      -1.003085       -27.2953
  16   2.0000      -0.994605       -27.0646
  17   2.0000      -0.791254       -21.5311
  18   2.0000      -0.777657       -21.1611
  19   2.0000      -0.765170       -20.8213
  20   2.0000      -0.730205       -19.8699
  21   2.0000      -0.672526       -18.3004
  22   2.0000      -0.602189       -16.3864
  23   2.0000      -0.600475       -16.3398
  24   2.0000      -0.594695       -16.1825
  25   2.0000      -0.576879       -15.6977
  26   2.0000      -0.522550       -14.2193
  27   2.0000      -0.511979       -13.9317
  28   2.0000      -0.494726       -13.4622
  29   2.0000      -0.488813       -13.3013
  30   2.0000      -0.472669       -12.8620
  31   2.0000      -0.457564       -12.4509
  32   2.0000      -0.451619       -12.2892
  33   2.0000      -0.434435       -11.8216
  34   2.0000      -0.418589       -11.3904
  35   2.0000      -0.411740       -11.2040
  36   2.0000      -0.402543       -10.9537
  37   2.0000      -0.391411       -10.6508
  38   2.0000      -0.373459       -10.1623
  39   2.0000      -0.364882        -9.9289
  40   2.0000      -0.358822        -9.7640
  41   2.0000      -0.357597        -9.7307
  42   2.0000      -0.349399        -9.5076
  43   2.0000      -0.333628        -9.0785
  44   2.0000      -0.327245        -8.9048
  45   2.0000      -0.307073        -8.3559
  46   2.0000      -0.299246        -8.1429
  47   2.0000      -0.276460        -7.5229
  48   2.0000      -0.265341        -7.2203
  49   2.0000      -0.259699        -7.0668
  50   2.0000      -0.240306        -6.5391
  51   0.0000       0.065239         1.7752
  52   0.0000       0.078576         2.1381
  53   0.0000       0.093131         2.5342
  54   0.0000       0.099535         2.7085
  55   0.0000       0.106273         2.8918

MULLIKEN ATOMIC CHARGES
-----------------------
   0 C :    0.289886
   1 C :   -0.263091
   2 C :   -0.302464
   3 C :   -0.016630
   4 O :   -0.513155
   5 H :    0.149532
   6 H :    0.146683
   7 H :    0.159897
   8 H :    0.144224
   9 H :    0.167131
  10 H :    0.151717
  11 H :    0.147975
  12 C :   -0.025152
  13 H :    0.140142
  14 H :    0.168389
  15 O :   -0.529236
  16 C :    0.058148
  17 C :    0.088306
  18 C :   -0.305371
  19 C :   -0.028309
  20 O :   -0.525582
  21 H :    0.168578
  22 O :   -0.604979
  23 H :    0.170915
  24 H :    0.159759
  25 H :    0.150579
  26 H :    0.144863
  27 H :    0.145608
  28 H :    0.361636
Sum of atomic charges:   -0.0000000

LOEWDIN ATOMIC CHARGES
----------------------
   0 C :    0.174923
   1 C :   -0.214777
   2 C :   -0.216841
   3 C :   -0.031159
   4 O :   -0.328986
   5 H :    0.097288
   6 H :    0.115232
   7 H :    0.125790
   8 H :    0.115545
   9 H :    0.120599
  10 H :    0.104783
  11 H :    0.105563
  12 C :   -0.042931
  13 H :    0.103447
  14 H :    0.119500
  15 O :   -0.335387
  16 C :    0.010142
  17 C :    0.035991
  18 C :   -0.242914
  19 C :   -0.037958
  20 O :   -0.330392
  21 H :    0.117250
  22 O :   -0.417019
  23 H :    0.124306
  24 H :    0.125600
  25 H :    0.115992
  26 H :    0.103290
  27 H :    0.102010
  28 H :    0.281110

  Mayer bond orders larger than 0.100000
B(  0-C ,  1-C ) :   0.9485 B(  0-C ,  4-O ) :   0.9017 B(  0-C ,  5-H ) :   0.9224
B(  0-C , 15-O ) :   0.8551 B(  1-C ,  2-C ) :   0.9542 B(  1-C ,  6-H ) :   0.9389
B(  1-C ,  7-H ) :   0.9357 B(  2-C ,  3-C ) :   0.9555 B(  2-C ,  8-H ) :   0.9447
B(  2-C ,  9-H ) :   0.9423 B(  3-C ,  4-O ) :   0.8315 B(  3-C , 10-H ) :   0.9287
B(  3-C , 11-H ) :   0.9407 B( 12-C , 13-H ) :   0.9363 B( 12-C , 14-H ) :   0.9174
B( 12-C , 15-O ) :   0.8236 B( 12-C , 16-C ) :   0.8916 B( 16-C , 17-C ) :   0.9099
B( 16-C , 20-O ) :   0.8399 B( 16-C , 21-H ) :   0.9193 B( 17-C , 18-C ) :   0.9128
B( 17-C , 22-O ) :   0.8902 B( 17-C , 23-H ) :   0.9246 B( 18-C , 19-C ) :   0.9417
B( 18-C , 24-H ) :   0.9383 B( 18-C , 25-H ) :   0.9341 B( 19-C , 20-O ) :   0.8450
B( 19-C , 26-H ) :   0.9358 B( 19-C , 27-H ) :   0.9380 B( 22-O , 28-H ) :   0.7969

FINAL SINGLE POINT ENERGY      -652.869034408471

DIPOLE MOMENT
-------------
                                X             Y             Z
Electronic contribution:     -0.01309      -2.56648       1.09966
Nuclear contribution   :     -0.07011       2.75764      -1.54330
                        -----------------------------------------
Total Dipole Moment    :     -0.08320       0.19116      -0.44364
                        -----------------------------------------
Magnitude (a.u.)       :      0.49019
Magnitude (Debye)      :      1.24595

Rotational constants in cm-1:     0.051206     0.015062     0.014161
Rotational constants in MHz :  1535.112244   451.561306   424.546040

                             ****ORCA TERMINATED NORMALLY****
TOTAL RUN TIME: 0 days 0 hours 33 minutes 47 seconds 870 msec
