                         Program Version 4.2.0 -  RELEASE  -
|  1> # Test redundant internal optimization
|  2> #
|  3> ! RKS B3LYP  Opt TightSCF SmallPrint
|  4>
|  5> %basis
|  6>         Basis "6-31G"
|  7> end
|  8>
|  9> %geom
| 10> Constraints
| 11> { D 4  0  15  12  345.0   C } # D for Dihedral angle
| 12> { D 0  15  12  16  255.0   C } # D for Dihedral angle
| 13> { D 0  4  3  2   C } # D for Dihedral angle
| 14> { D 4  3  2  1   C } # D for Dihedral angle
| 15> { D 3  2  1  0   C } # D for Dihedral angle
| 16> { D 2  1  0  4   C } # D for Dihedral angle
| 17> { D 1  0  4  3   C } # D for Dihedral angle
| 18> { D 16  20  19  18   C } # D for Dihedral angle
| 19> { D 20  19  18  17   C } # D for Dihedral angle
| 20> { D 19  18  17  16   C } # D for Dihedral angle
| 21> { D 18  17  16  20   C } # D for Dihedral angle
| 22> { D 17  16  20  19   C } # D for Dihedral angle
| 23> { D 15  12  16  20   C } # D for Dihedral angle
| 24> end
| 25> end
| 26>
| 27>
| 28> #%pal
| 29> #nprocs 8
| 30> #end
| 31>
| 32> * xyz 0 1
| 33> C  -21.048   26.222   46.251
| 34> C  -20.361   27.558   45.944
| 35> C  -20.329   28.222   47.341
| 36> C  -20.110   27.022   48.296
| 37> O  -20.473   25.807   47.535
| 38> H  -20.833   25.428   45.533
| 39> H  -19.344   27.382   45.576
| 40> H  -20.898   28.157   45.201
| 41> H  -19.543   28.978   47.434
| 42> H  -21.289   28.710   47.548
| 43> H  -20.733   27.082   49.195
| 44> H  -19.064   26.913   48.597
| 45> C  -23.221   25.764   47.645
| 46> H  -22.430   25.543   48.373
| 47> H  -23.928   26.464   48.109
| 48> O  -22.586   26.394   46.375
| 49> C  -23.989   24.448   47.343
| 50> C  -23.040   23.351   46.848
| 51> C  -22.409   22.860   48.173
| 52> C  -23.576   22.985   49.185
| 53> O  -24.566   23.897   48.574
| 54> H  -24.820   24.665   46.669
| 55> O  -23.850   22.212   46.171
| 56> H  -22.295   23.716   46.132
| 57> H  -22.023   21.838   48.106
| 58> H  -21.577   23.515   48.458
| 59> H  -23.254   23.398   50.147
| 60> H  -24.080   22.032   49.360
| 61> H  -24.603   21.829   46.870
| 62> *
| 63>
| 64>                          ****END OF INPUT****
 Total Charge           Charge          ....    0
 Multiplicity           Mult            ....    1
 Number of Electrons    NEL             ....  102
FINAL SINGLE POINT ENERGY      -652.838248175563
FINAL SINGLE POINT ENERGY      -652.860171611838
FINAL SINGLE POINT ENERGY      -652.863912202130
FINAL SINGLE POINT ENERGY      -652.864472131616
FINAL SINGLE POINT ENERGY      -652.864552864551
FINAL SINGLE POINT ENERGY      -652.864563625662
                    ***********************HURRAY********************

CARTESIAN COORDINATES (ANGSTROEM)
---------------------------------
  C    -21.047905   26.186725   46.329015
  C    -20.474589   27.556132   45.963764
  C    -20.383196   28.238446   47.347642
  C    -20.019016   27.074867   48.294871
  O    -20.367286   25.827436   47.551622
  H    -20.829402   25.388524   45.614964
  H    -19.481529   27.425951   45.518461
  H    -21.116010   28.091089   45.260706
  H    -19.638475   29.039723   47.373480
  H    -21.354950   28.665502   47.613458
  H    -20.575894   27.090086   49.235447
  H    -18.948534   27.014294   48.508772
  C    -23.159137   25.753213   47.641621
  H    -22.434832   25.589216   48.443440
  H    -23.887706   26.500768   47.966674
  O    -22.496899   26.303617   46.462906
  C    -23.897733   24.450853   47.316085
  C    -23.011909   23.283716   46.856831
  C    -22.438812   22.775868   48.205179
  C    -23.611887   22.993711   49.192179
  O    -24.534227   23.960917   48.546318
  H    -24.694159   24.641045   46.591511
  O    -23.810115   22.265689   46.187432
  H    -22.246828   23.567788   46.136653
  H    -22.138072   21.728308   48.127111
  H    -21.561174   23.370430   48.481187
  H    -23.287875   23.400573   50.155030
  H    -24.183902   22.078556   49.375214
  H    -24.639947   22.128956   46.691424

 Multiplicity           Mult            ....    1
 Number of Electrons    NEL             ....  102
 Basis Dimension        Dim             ....  149

ORBITAL ENERGIES
----------------

  NO   OCC          E(Eh)            E(eV)
   0   2.0000     -19.158495      -521.3292
   1   2.0000     -19.141800      -520.8748
   2   2.0000     -19.140423      -520.8374
   3   2.0000     -19.131325      -520.5898
   4   2.0000     -10.284422      -279.8534
   5   2.0000     -10.237700      -278.5820
   6   2.0000     -10.232979      -278.4535
   7   2.0000     -10.226924      -278.2887
   8   2.0000     -10.226334      -278.2727
   9   2.0000     -10.224182      -278.2141
  10   2.0000     -10.193760      -277.3863
  11   2.0000     -10.189440      -277.2688
  12   2.0000     -10.179905      -277.0093
  13   2.0000      -1.059980       -28.8435
  14   2.0000      -1.031378       -28.0652
  15   2.0000      -1.000212       -27.2172
  16   2.0000      -0.995085       -27.0777
  17   2.0000      -0.795685       -21.6517
  18   2.0000      -0.773763       -21.0552
  19   2.0000      -0.764854       -20.8127
  20   2.0000      -0.735803       -20.0222
  21   2.0000      -0.672479       -18.2991
  22   2.0000      -0.607941       -16.5429
  23   2.0000      -0.596819       -16.2403
  24   2.0000      -0.595642       -16.2082
  25   2.0000      -0.574822       -15.6417
  26   2.0000      -0.523536       -14.2461
  27   2.0000      -0.514751       -14.0071
  28   2.0000      -0.503974       -13.7138
  29   2.0000      -0.485409       -13.2086
  30   2.0000      -0.471785       -12.8379
  31   2.0000      -0.458358       -12.4726
  32   2.0000      -0.452676       -12.3179
  33   2.0000      -0.432001       -11.7553
  34   2.0000      -0.419049       -11.4029
  35   2.0000      -0.412006       -11.2113
  36   2.0000      -0.407133       -11.0787
  37   2.0000      -0.387356       -10.5405
  38   2.0000      -0.377306       -10.2670
  39   2.0000      -0.365624        -9.9491
  40   2.0000      -0.362266        -9.8578
  41   2.0000      -0.358545        -9.7565
  42   2.0000      -0.352873        -9.6022
  43   2.0000      -0.335238        -9.1223
  44   2.0000      -0.325619        -8.8605
  45   2.0000      -0.305660        -8.3174
  46   2.0000      -0.302125        -8.2212
  47   2.0000      -0.273264        -7.4359
  48   2.0000      -0.270281        -7.3547
  49   2.0000      -0.260214        -7.0808
  50   2.0000      -0.234930        -6.3928
  51   0.0000       0.069365         1.8875
  52   0.0000       0.071527         1.9464
  53   0.0000       0.092744         2.5237
  54   0.0000       0.097682         2.6581
  55   0.0000       0.106971         2.9108

MULLIKEN ATOMIC CHARGES
-----------------------
   0 C :    0.298419
   1 C :   -0.257537
   2 C :   -0.303883
   3 C :   -0.017394
   4 O :   -0.517795
   5 H :    0.155178
   6 H :    0.145118
   7 H :    0.165304
   8 H :    0.148170
   9 H :    0.160616
  10 H :    0.146789
  11 H :    0.153177
  12 C :   -0.025173
  13 H :    0.154176
  14 H :    0.156331
  15 O :   -0.537872
  16 C :    0.059279
  17 C :    0.085291
  18 C :   -0.304307
  19 C :   -0.032285
  20 O :   -0.528231
  21 H :    0.162800
  22 O :   -0.604639
  23 H :    0.162099
  24 H :    0.157282
  25 H :    0.167295
  26 H :    0.144019
  27 H :    0.145460
  28 H :    0.362312
Sum of atomic charges:   -0.0000000

LOEWDIN ATOMIC CHARGES
----------------------
   0 C :    0.179274
   1 C :   -0.216895
   2 C :   -0.217498
   3 C :   -0.031053
   4 O :   -0.323868
   5 H :    0.099490
   6 H :    0.113900
   7 H :    0.128454
   8 H :    0.117820
   9 H :    0.118127
  10 H :    0.103946
  11 H :    0.108306
  12 C :   -0.045948
  13 H :    0.108064
  14 H :    0.113612
  15 O :   -0.341274
  16 C :    0.010692
  17 C :    0.037777
  18 C :   -0.244403
  19 C :   -0.038949
  20 O :   -0.333273
  21 H :    0.116141
  22 O :   -0.416930
  23 H :    0.119662
  24 H :    0.124856
  25 H :    0.124260
  26 H :    0.102763
  27 H :    0.101624
  28 H :    0.281323

  Mayer bond orders larger than 0.100000
B(  0-C ,  1-C ) :   0.9374 B(  0-C ,  4-O ) :   0.9037 B(  0-C ,  5-H ) :   0.9195
B(  0-C , 15-O ) :   0.8435 B(  1-C ,  2-C ) :   0.9531 B(  1-C ,  6-H ) :   0.9361
B(  1-C ,  7-H ) :   0.9350 B(  2-C ,  3-C ) :   0.9548 B(  2-C ,  8-H ) :   0.9444
B(  2-C ,  9-H ) :   0.9445 B(  3-C ,  4-O ) :   0.8236 B(  3-C , 10-H ) :   0.9337
B(  3-C , 11-H ) :   0.9405 B( 12-C , 13-H ) :   0.9117 B( 12-C , 14-H ) :   0.9321
B( 12-C , 15-O ) :   0.8337 B( 12-C , 16-C ) :   0.8892 B( 16-C , 17-C ) :   0.9147
B( 16-C , 20-O ) :   0.8356 B( 16-C , 21-H ) :   0.9277 B( 17-C , 18-C ) :   0.9142
B( 17-C , 22-O ) :   0.8913 B( 17-C , 23-H ) :   0.9262 B( 18-C , 19-C ) :   0.9408
B( 18-C , 24-H ) :   0.9385 B( 18-C , 25-H ) :   0.9243 B( 19-C , 20-O ) :   0.8417
B( 19-C , 26-H ) :   0.9362 B( 19-C , 27-H ) :   0.9382 B( 22-O , 28-H ) :   0.7957

FINAL SINGLE POINT ENERGY      -652.864565690919

DIPOLE MOMENT
-------------
                                X             Y             Z
Electronic contribution:     -4.01183      -2.99662      -2.17750
Nuclear contribution   :      4.94594       3.79843       2.86184
                        -----------------------------------------
Total Dipole Moment    :      0.93411       0.80181       0.68434
                        -----------------------------------------
Magnitude (a.u.)       :      1.40847
Magnitude (Debye)      :      3.58004

Rotational constants in cm-1:     0.054225     0.014458     0.013907
Rotational constants in MHz :  1625.625345   433.437429   416.920246

                             ****ORCA TERMINATED NORMALLY****
TOTAL RUN TIME: 0 days 1 hours 13 minutes 58 seconds 315 msec
