                         Program Version 4.2.0 -  RELEASE  -
|  1> # Test redundant internal optimization
|  2> #
|  3> ! RKS B3LYP  Opt TightSCF SmallPrint
|  4>
|  5> %basis
|  6>         Basis "6-31G"
|  7> end
|  8>
|  9> %geom
| 10> Constraints
| 11> { D 4  0  15  12  15.0   C } # D for Dihedral angle
| 12> { D 0  15  12  16  60.0   C } # D for Dihedral angle
| 13> { D 0  4  3  2   C } # D for Dihedral angle
| 14> { D 4  3  2  1   C } # D for Dihedral angle
| 15> { D 3  2  1  0   C } # D for Dihedral angle
| 16> { D 2  1  0  4   C } # D for Dihedral angle
| 17> { D 1  0  4  3   C } # D for Dihedral angle
| 18> { D 16  20  19  18   C } # D for Dihedral angle
| 19> { D 20  19  18  17   C } # D for Dihedral angle
| 20> { D 19  18  17  16   C } # D for Dihedral angle
| 21> { D 18  17  16  20   C } # D for Dihedral angle
| 22> { D 17  16  20  19   C } # D for Dihedral angle
| 23> { D 15  12  16  20   C } # D for Dihedral angle
| 24> end
| 25> end
| 26>
| 27>
| 28> #%pal
| 29> #nprocs 8
| 30> #end
| 31>
| 32> * xyz 0 1
| 33> C  -21.048   26.222   46.251
| 34> C  -20.361   27.558   45.944
| 35> C  -20.329   28.222   47.341
| 36> C  -20.110   27.022   48.296
| 37> O  -20.473   25.807   47.535
| 38> H  -20.833   25.428   45.533
| 39> H  -19.344   27.382   45.576
| 40> H  -20.898   28.157   45.201
| 41> H  -19.543   28.978   47.434
| 42> H  -21.289   28.710   47.548
| 43> H  -20.733   27.082   49.195
| 44> H  -19.064   26.913   48.597
| 45> C  -23.128   26.462   47.829
| 46> H  -24.219   26.575   47.804
| 47> H  -22.891   25.538   48.371
| 48> O  -22.586   26.394   46.375
| 49> C  -22.533   27.649   48.637
| 50> C  -22.960   28.996   48.042
| 51> C  -24.399   29.140   48.595
| 52> C  -24.302   28.494   50.000
| 53> O  -23.077   27.666   49.999
| 54> H  -21.453   27.516   48.725
| 55> H  -22.317   29.797   48.426
| 56> O  -22.905   29.024   46.490
| 57> H  -24.735   30.181   48.636
| 58> H  -25.102   28.586   47.961
| 59> H  -25.164   27.859   50.229
| 60> H  -24.189   29.237   50.794
| 61> H  -23.542   28.230   46.085
| 62> *
| 63>
| 64>                          ****END OF INPUT****
 Total Charge           Charge          ....    0
 Multiplicity           Mult            ....    1
 Number of Electrons    NEL             ....  102
FINAL SINGLE POINT ENERGY      -652.702934391936
FINAL SINGLE POINT ENERGY      -652.818227177377
FINAL SINGLE POINT ENERGY      -652.842805609800
FINAL SINGLE POINT ENERGY      -652.850079225850
FINAL SINGLE POINT ENERGY      -652.851651089590
FINAL SINGLE POINT ENERGY      -652.852341985252
FINAL SINGLE POINT ENERGY      -652.852644455981
FINAL SINGLE POINT ENERGY      -652.852733994886
FINAL SINGLE POINT ENERGY      -652.852773761050
FINAL SINGLE POINT ENERGY      -652.852779762974
FINAL SINGLE POINT ENERGY      -652.852781435499
                    ***********************HURRAY********************

CARTESIAN COORDINATES (ANGSTROEM)
---------------------------------
  C    -21.098195   26.248969   46.405833
  C    -20.338665   27.424935   45.782261
  C    -19.827937   28.184388   47.039795
  C    -19.530782   27.036743   48.032403
  O    -20.273694   25.851970   47.512621
  H    -21.107700   25.384231   45.735995
  H    -19.507563   27.011558   45.201184
  H    -20.954654   28.048109   45.130637
  H    -18.932517   28.778328   46.831623
  H    -20.609162   28.859378   47.391017
  H    -19.842763   27.237300   49.060180
  H    -18.475161   26.749458   48.038449
  C    -23.202794   26.541079   47.959988
  H    -24.258646   26.614984   47.688328
  H    -23.060354   25.607894   48.517111
  O    -22.541708   26.426134   46.650233
  C    -22.795123   27.696514   48.882144
  C    -23.151704   29.082694   48.313096
  C    -24.684383   29.159605   48.600160
  C    -24.819320   28.412868   49.944589
  O    -23.578230   27.604234   50.111636
  H    -21.754627   27.607232   49.183738
  H    -22.623190   29.867942   48.859740
  O    -22.824035   29.276208   46.916066
  H    -25.034144   30.193714   48.650844
  H    -25.228792   28.661072   47.791274
  H    -25.683085   27.742261   49.983496
  H    -24.863737   29.094234   50.799196
  H    -22.924338   28.420963   46.435364

 Multiplicity           Mult            ....    1
 Number of Electrons    NEL             ....  102
 Basis Dimension        Dim             ....  149

ORBITAL ENERGIES
----------------

  NO   OCC          E(Eh)            E(eV)
   0   2.0000     -19.155025      -521.2347
   1   2.0000     -19.153499      -521.1932
   2   2.0000     -19.145758      -520.9826
   3   2.0000     -19.136412      -520.7282
   4   2.0000     -10.285157      -279.8734
   5   2.0000     -10.241909      -278.6965
   6   2.0000     -10.237150      -278.5670
   7   2.0000     -10.236233      -278.5421
   8   2.0000     -10.233296      -278.4622
   9   2.0000     -10.232347      -278.4363
  10   2.0000     -10.189611      -277.2734
  11   2.0000     -10.188826      -277.2521
  12   2.0000     -10.185409      -277.1591
  13   2.0000      -1.055599       -28.7243
  14   2.0000      -1.033073       -28.1114
  15   2.0000      -1.012350       -27.5474
  16   2.0000      -0.998149       -27.1610
  17   2.0000      -0.790101       -21.4998
  18   2.0000      -0.779371       -21.2078
  19   2.0000      -0.772594       -21.0234
  20   2.0000      -0.737367       -20.0648
  21   2.0000      -0.684634       -18.6298
  22   2.0000      -0.608798       -16.5662
  23   2.0000      -0.606077       -16.4922
  24   2.0000      -0.601576       -16.3697
  25   2.0000      -0.574281       -15.6270
  26   2.0000      -0.532590       -14.4925
  27   2.0000      -0.508523       -13.8376
  28   2.0000      -0.502681       -13.6786
  29   2.0000      -0.489864       -13.3299
  30   2.0000      -0.475007       -12.9256
  31   2.0000      -0.460250       -12.5240
  32   2.0000      -0.451002       -12.2724
  33   2.0000      -0.430655       -11.7187
  34   2.0000      -0.427339       -11.6285
  35   2.0000      -0.415121       -11.2960
  36   2.0000      -0.411603       -11.2003
  37   2.0000      -0.398285       -10.8379
  38   2.0000      -0.382458       -10.4072
  39   2.0000      -0.373496       -10.1633
  40   2.0000      -0.360848        -9.8192
  41   2.0000      -0.358354        -9.7513
  42   2.0000      -0.348239        -9.4761
  43   2.0000      -0.341880        -9.3030
  44   2.0000      -0.331394        -9.0177
  45   2.0000      -0.317365        -8.6359
  46   2.0000      -0.303550        -8.2600
  47   2.0000      -0.274221        -7.4619
  48   2.0000      -0.265094        -7.2136
  49   2.0000      -0.262295        -7.1374
  50   2.0000      -0.240550        -6.5457
  51   0.0000       0.055586         1.5126
  52   0.0000       0.074419         2.0250
  53   0.0000       0.083733         2.2785
  54   0.0000       0.091185         2.4813
  55   0.0000       0.103046         2.8040

MULLIKEN ATOMIC CHARGES
-----------------------
   0 C :    0.313108
   1 C :   -0.276619
   2 C :   -0.332034
   3 C :   -0.028257
   4 O :   -0.512199
   5 H :    0.166985
   6 H :    0.153763
   7 H :    0.159131
   8 H :    0.145023
   9 H :    0.192385
  10 H :    0.152376
  11 H :    0.152572
  12 C :   -0.030742
  13 H :    0.159493
  14 H :    0.171533
  15 O :   -0.562854
  16 C :    0.043588
  17 C :    0.103516
  18 C :   -0.308905
  19 C :   -0.019255
  20 O :   -0.517825
  21 H :    0.164280
  22 H :    0.154652
  23 O :   -0.628873
  24 H :    0.154463
  25 H :    0.148699
  26 H :    0.145815
  27 H :    0.151180
  28 H :    0.385004
Sum of atomic charges:    0.0000000

LOEWDIN ATOMIC CHARGES
----------------------
   0 C :    0.180329
   1 C :   -0.222659
   2 C :   -0.232217
   3 C :   -0.036105
   4 O :   -0.313986
   5 H :    0.108514
   6 H :    0.119907
   7 H :    0.124635
   8 H :    0.117186
   9 H :    0.128398
  10 H :    0.102063
  11 H :    0.107237
  12 C :   -0.047929
  13 H :    0.114619
  14 H :    0.118411
  15 O :   -0.351190
  16 C :    0.002308
  17 C :    0.034280
  18 C :   -0.237031
  19 C :   -0.032727
  20 O :   -0.318386
  21 H :    0.115907
  22 H :    0.110517
  23 O :   -0.421885
  24 H :    0.122973
  25 H :    0.112616
  26 H :    0.103880
  27 H :    0.107185
  28 H :    0.283153

  Mayer bond orders larger than 0.100000
B(  0-C ,  1-C ) :   0.9232 B(  0-C ,  4-O ) :   0.9228 B(  0-C ,  5-H ) :   0.9347
B(  0-C , 15-O ) :   0.8213 B(  1-C ,  2-C ) :   0.9537 B(  1-C ,  6-H ) :   0.9344
B(  1-C ,  7-H ) :   0.9331 B(  2-C ,  3-C ) :   0.9502 B(  2-C ,  8-H ) :   0.9446
B(  2-C ,  9-H ) :   0.9119 B(  3-C ,  4-O ) :   0.8241 B(  3-C , 10-H ) :   0.9192
B(  3-C , 11-H ) :   0.9380 B( 12-C , 13-H ) :   0.9358 B( 12-C , 14-H ) :   0.9257
B( 12-C , 15-O ) :   0.8030 B( 12-C , 16-C ) :   0.8842 B( 16-C , 17-C ) :   0.9017
B( 16-C , 20-O ) :   0.8415 B( 16-C , 21-H ) :   0.9144 B( 17-C , 18-C ) :   0.9109
B( 17-C , 22-H ) :   0.9337 B( 17-C , 23-O ) :   0.8976 B( 18-C , 19-C ) :   0.9406
B( 18-C , 24-H ) :   0.9438 B( 18-C , 25-H ) :   0.9421 B( 19-C , 20-O ) :   0.8336
B( 19-C , 26-H ) :   0.9334 B( 19-C , 27-H ) :   0.9383 B( 23-O , 28-H ) :   0.7286

FINAL SINGLE POINT ENERGY      -652.852782160281

DIPOLE MOMENT
-------------
                                X             Y             Z
Electronic contribution:     -0.47191      -3.38261       0.22286
Nuclear contribution   :      0.48237       3.90613      -0.29198
                        -----------------------------------------
Total Dipole Moment    :      0.01046       0.52352      -0.06912
                        -----------------------------------------
Magnitude (a.u.)       :      0.52816
Magnitude (Debye)      :      1.34248

Rotational constants in cm-1:     0.048823     0.017732     0.016737
Rotational constants in MHz :  1463.676440   531.602839   501.757016

                             ****ORCA TERMINATED NORMALLY****
TOTAL RUN TIME: 0 days 0 hours 41 minutes 47 seconds 185 msec
