                         Program Version 4.2.1 -  RELEASE  -
|  1> # Test redundant internal optimization
|  2> #
|  3> ! RKS B3LYP  Opt TightSCF SmallPrint
|  4>
|  5> %basis
|  6>         Basis "6-31G"
|  7> end
|  8>
|  9> %geom
| 10> Constraints
| 11> { D 4  0  19  14  300.0   C } # D for Dihedral angle
| 12> { D 0  19  14  12  180.0   C } # D for Dihedral angle
| 13> { D 0  4  3  2   C } # D for Dihedral angle
| 14> { D 4  3  2  1   C } # D for Dihedral angle
| 15> { D 3  2  1  0   C } # D for Dihedral angle
| 16> { D 2  1  0  4   C } # D for Dihedral angle
| 17> { D 1  0  4  3   C } # D for Dihedral angle
| 18> { D 14  15  16  17   C } # D for Dihedral angle
| 19> { D 15  16  17  12   C } # D for Dihedral angle
| 20> { D 16  17  12  14   C } # D for Dihedral angle
| 21> { D 17  12  14  15   C } # D for Dihedral angle
| 22> { D 12  14  15  16   C } # D for Dihedral angle
| 23> end
| 24> end
| 25>
| 26>
| 27> #%pal
| 28> #nprocs 8
| 29> #end
| 30>
| 31> * xyz 0 1
| 32> C  -21.048   26.222   46.251
| 33> C  -20.361   27.558   45.944
| 34> C  -20.329   28.222   47.341
| 35> C  -20.110   27.022   48.296
| 36> O  -20.473   25.807   47.535
| 37> H  -20.833   25.428   45.533
| 38> H  -19.344   27.382   45.576
| 39> H  -20.898   28.157   45.201
| 40> H  -19.543   28.978   47.434
| 41> H  -21.289   28.710   47.548
| 42> H  -20.733   27.082   49.195
| 43> H  -19.064   26.913   48.597
| 44> C  -24.676   25.468   46.850
| 45> H  -25.196   24.680   47.416
| 46> C  -23.171   25.189   46.758
| 47> C  -23.117   24.129   45.633
| 48> C  -24.253   24.571   44.677
| 49> O  -25.127   25.477   45.454
| 50> H  -24.931   26.441   47.274
| 51> O  -22.472   26.381   46.366
| 52> H  -22.743   24.831   47.700
| 53> H  -22.144   24.088   45.134
| 54> H  -23.324   23.132   46.043
| 55> H  -24.847   23.727   44.310
| 56> H  -23.880   25.140   43.820
| 57> *
| 58>
| 59>                          ****END OF INPUT****
 Total Charge           Charge          ....    0
 Multiplicity           Mult            ....    1
 Number of Electrons    NEL             ....   86
FINAL SINGLE POINT ENERGY      -538.435130711134
FINAL SINGLE POINT ENERGY      -538.438096208749
FINAL SINGLE POINT ENERGY      -538.438415326999
FINAL SINGLE POINT ENERGY      -538.438450050818
FINAL SINGLE POINT ENERGY      -538.438460038677
                    ***********************HURRAY********************

CARTESIAN COORDINATES (ANGSTROEM)
---------------------------------
  C    -20.978890   26.204219   46.230044
  C    -20.412398   27.599138   45.960886
  C    -20.409605   28.216035   47.377641
  C    -20.075193   27.012501   48.287142
  O    -20.355730   25.798039   47.475967
  H    -20.714946   25.435264   45.498771
  H    -19.394277   27.505440   45.566606
  H    -21.023383   28.157503   45.248825
  H    -19.683287   29.027885   47.482053
  H    -21.404403   28.608284   47.606579
  H    -20.681705   26.979733   49.195898
  H    -19.016536   26.966433   48.559312
  C    -24.621895   25.550492   46.809209
  H    -25.201544   24.825371   47.399023
  C    -23.149697   25.145110   46.750732
  C    -23.170454   24.058761   45.660388
  C    -24.248536   24.562603   44.672213
  O    -25.052754   25.559470   45.409970
  H    -24.766171   26.556222   47.205912
  O    -22.406424   26.342811   46.353480
  H    -22.754414   24.779574   47.703671
  H    -22.198159   23.904225   45.185581
  H    -23.465971   23.107167   46.117255
  H    -24.903586   23.757757   44.320557
  H    -23.816039   25.074963   43.808288

 Multiplicity           Mult            ....    1
 Number of Electrons    NEL             ....   86
 Basis Dimension        Dim             ....  127

ORBITAL ENERGIES
----------------

  NO   OCC          E(Eh)            E(eV)
   0   2.0000     -19.143219      -520.9135
   1   2.0000     -19.141252      -520.8599
   2   2.0000     -19.125215      -520.4236
   3   2.0000     -10.277658      -279.6693
   4   2.0000     -10.235457      -278.5210
   5   2.0000     -10.225861      -278.2598
   6   2.0000     -10.219346      -278.0825
   7   2.0000     -10.219316      -278.0817
   8   2.0000     -10.185995      -277.1750
   9   2.0000     -10.184513      -277.1347
  10   2.0000     -10.184396      -277.1315
  11   2.0000      -1.055207       -28.7136
  12   2.0000      -1.012017       -27.5384
  13   2.0000      -0.988423       -26.8964
  14   2.0000      -0.792207       -21.5570
  15   2.0000      -0.774696       -21.0805
  16   2.0000      -0.742589       -20.2069
  17   2.0000      -0.718419       -19.5492
  18   2.0000      -0.611662       -16.6442
  19   2.0000      -0.600441       -16.3388
  20   2.0000      -0.593487       -16.1496
  21   2.0000      -0.566105       -15.4045
  22   2.0000      -0.525999       -14.3132
  23   2.0000      -0.497205       -13.5296
  24   2.0000      -0.487736       -13.2720
  25   2.0000      -0.476883       -12.9767
  26   2.0000      -0.456220       -12.4144
  27   2.0000      -0.435259       -11.8440
  28   2.0000      -0.426716       -11.6115
  29   2.0000      -0.416921       -11.3450
  30   2.0000      -0.402515       -10.9530
  31   2.0000      -0.384123       -10.4525
  32   2.0000      -0.373748       -10.1702
  33   2.0000      -0.362422        -9.8620
  34   2.0000      -0.359537        -9.7835
  35   2.0000      -0.355748        -9.6804
  36   2.0000      -0.342426        -9.3179
  37   2.0000      -0.330286        -8.9875
  38   2.0000      -0.301079        -8.1928
  39   2.0000      -0.293421        -7.9844
  40   2.0000      -0.267100        -7.2682
  41   2.0000      -0.254754        -6.9322
  42   2.0000      -0.232220        -6.3190
  43   0.0000       0.079078         2.1518
  44   0.0000       0.095909         2.6098
  45   0.0000       0.103651         2.8205
  46   0.0000       0.112523         3.0619
  47   0.0000       0.118018         3.2114

MULLIKEN ATOMIC CHARGES
-----------------------
   0 C :    0.288593
   1 C :   -0.262034
   2 C :   -0.297372
   3 C :   -0.005692
   4 O :   -0.517461
   5 H :    0.142039
   6 H :    0.143736
   7 H :    0.162283
   8 H :    0.141024
   9 H :    0.163017
  10 H :    0.145028
  11 H :    0.143449
  12 C :    0.000428
  13 H :    0.125970
  14 C :    0.079480
  15 C :   -0.304595
  16 C :    0.006947
  17 O :   -0.520837
  18 H :    0.162427
  19 O :   -0.519545
  20 H :    0.149309
  21 H :    0.148850
  22 H :    0.143400
  23 H :    0.135174
  24 H :    0.146385
Sum of atomic charges:   -0.0000000

LOEWDIN ATOMIC CHARGES
----------------------
   0 C :    0.171018
   1 C :   -0.213682
   2 C :   -0.215796
   3 C :   -0.028616
   4 O :   -0.333547
   5 H :    0.093567
   6 H :    0.113308
   7 H :    0.127027
   8 H :    0.113527
   9 H :    0.119539
  10 H :    0.104049
  11 H :    0.103010
  12 C :   -0.033196
  13 H :    0.091986
  14 C :    0.036798
  15 C :   -0.235196
  16 C :   -0.028223
  17 O :   -0.329917
  18 H :    0.121082
  19 O :   -0.319834
  20 H :    0.107845
  21 H :    0.117519
  22 H :    0.115119
  23 H :    0.098179
  24 H :    0.104436

  Mayer bond orders larger than 0.100000
B(  0-C ,  1-C ) :   0.9500 B(  0-C ,  4-O ) :   0.8938 B(  0-C ,  5-H ) :   0.9134
B(  0-C , 19-O ) :   0.8664 B(  1-C ,  2-C ) :   0.9560 B(  1-C ,  6-H ) :   0.9405
B(  1-C ,  7-H ) :   0.9348 B(  2-C ,  3-C ) :   0.9555 B(  2-C ,  8-H ) :   0.9451
B(  2-C ,  9-H ) :   0.9441 B(  3-C ,  4-O ) :   0.8365 B(  3-C , 10-H ) :   0.9361
B(  3-C , 11-H ) :   0.9405 B( 12-C , 13-H ) :   0.9167 B( 12-C , 14-C ) :   0.9365
B( 12-C , 17-O ) :   0.8671 B( 12-C , 18-H ) :   0.9311 B( 14-C , 15-C ) :   0.9315
B( 14-C , 19-O ) :   0.8248 B( 14-C , 20-H ) :   0.9172 B( 15-C , 16-C ) :   0.9433
B( 15-C , 21-H ) :   0.9353 B( 15-C , 22-H ) :   0.9377 B( 16-C , 17-O ) :   0.8603
B( 16-C , 23-H ) :   0.9333 B( 16-C , 24-H ) :   0.9371

FINAL SINGLE POINT ENERGY      -538.438460907914

DIPOLE MOMENT
-------------
                                X             Y             Z
Electronic contribution:     -1.81595      -0.75262      -0.24443
Nuclear contribution   :      2.58434       0.63175       0.50851
                        -----------------------------------------
Total Dipole Moment    :      0.76840      -0.12087       0.26408
                        -----------------------------------------
Magnitude (a.u.)       :      0.82145
Magnitude (Debye)      :      2.08795

Rotational constants in cm-1:     0.085179     0.020104     0.019853
Rotational constants in MHz :  2553.606656   602.696505   595.171855

                             ****ORCA TERMINATED NORMALLY****
TOTAL RUN TIME: 0 days 0 hours 11 minutes 48 seconds 841 msec
