                         Program Version 4.2.0 -  RELEASE  -
|  1> # Test redundant internal optimization
|  2> #
|  3> ! RKS B3LYP  Opt TightSCF SmallPrint
|  4>
|  5> %basis
|  6>         Basis "6-31G"
|  7> end
|  8>
|  9> %geom
| 10> Constraints
| 11> { D 4  0  15  12  210.0   C } # D for Dihedral angle
| 12> { D 0  15  12  16  210.0   C } # D for Dihedral angle
| 13> { D 0  4  3  2   C } # D for Dihedral angle
| 14> { D 4  3  2  1   C } # D for Dihedral angle
| 15> { D 3  2  1  0   C } # D for Dihedral angle
| 16> { D 2  1  0  4   C } # D for Dihedral angle
| 17> { D 1  0  4  3   C } # D for Dihedral angle
| 18> { D 16  20  19  18   C } # D for Dihedral angle
| 19> { D 20  19  18  17   C } # D for Dihedral angle
| 20> { D 19  18  17  16   C } # D for Dihedral angle
| 21> { D 18  17  16  20   C } # D for Dihedral angle
| 22> { D 17  16  20  19   C } # D for Dihedral angle
| 23> { D 15  12  16  20   C } # D for Dihedral angle
| 24> end
| 25> end
| 26>
| 27>
| 28> #%pal
| 29> #nprocs 8
| 30> #end
| 31>
| 32> * xyz 0 1
| 33> C  -21.048   26.222   46.251
| 34> C  -20.361   27.558   45.944
| 35> C  -20.329   28.222   47.341
| 36> C  -20.110   27.022   48.296
| 37> O  -20.473   25.807   47.535
| 38> H  -20.833   25.428   45.533
| 39> H  -19.344   27.382   45.576
| 40> H  -20.898   28.157   45.201
| 41> H  -19.543   28.978   47.434
| 42> H  -21.289   28.710   47.548
| 43> H  -20.733   27.082   49.195
| 44> H  -19.064   26.913   48.597
| 45> C  -23.389   26.110   45.076
| 46> H  -22.765   26.347   44.205
| 47> H  -23.668   25.050   45.021
| 48> O  -22.586   26.394   46.375
| 49> C  -24.695   26.948   44.982
| 50> C  -25.518   26.559   43.749
| 51> C  -26.204   25.257   44.227
| 52> C  -26.464   25.529   45.730
| 53> O  -25.578   26.648   46.114
| 54> H  -24.445   28.009   45.043
| 55> H  -26.263   27.333   43.534
| 56> O  -24.650   26.350   42.478
| 57> H  -27.125   25.036   43.677
| 58> H  -25.525   24.406   44.100
| 59> H  -26.238   24.660   46.358
| 60> H  -27.492   25.849   45.925
| 61> H  -23.896   25.579   42.668
| 62> *
| 63>
| 64>                          ****END OF INPUT****
 Total Charge           Charge          ....    0
 Multiplicity           Mult            ....    1
 Number of Electrons    NEL             ....  102
FINAL SINGLE POINT ENERGY      -652.824758534951
FINAL SINGLE POINT ENERGY      -652.848450727306
FINAL SINGLE POINT ENERGY      -652.852576529856
FINAL SINGLE POINT ENERGY      -652.853416212732
FINAL SINGLE POINT ENERGY      -652.853606863165
FINAL SINGLE POINT ENERGY      -652.853637705514
FINAL SINGLE POINT ENERGY      -652.853644960314
FINAL SINGLE POINT ENERGY      -652.853645557227
                    ***********************HURRAY********************

CARTESIAN COORDINATES (ANGSTROEM)
---------------------------------
  C    -21.052641   26.194763   46.198645
  C    -20.413582   27.552447   45.916072
  C    -20.485941   28.235003   47.302513
  C    -20.266040   27.059841   48.277899
  O    -20.540707   25.828706   47.488733
  H    -20.787616   25.392706   45.502082
  H    -19.371753   27.408842   45.604412
  H    -20.935215   28.112018   45.134620
  H    -19.739001   29.025355   47.422051
  H    -21.479898   28.668888   47.444864
  H    -20.941530   27.079422   49.136154
  H    -19.232262   26.981690   48.627523
  C    -23.230387   26.013631   45.072878
  H    -22.638748   26.273142   44.181976
  H    -23.448706   24.935577   45.045477
  O    -22.501522   26.321388   46.290019
  C    -24.508595   26.848045   45.042854
  C    -25.391978   26.577605   43.813377
  C    -26.189630   25.315990   44.262265
  C    -26.388475   25.561740   45.774222
  O    -25.391436   26.586639   46.174083
  H    -24.224180   27.901005   45.124831
  H    -26.067413   27.422091   43.660437
  O    -24.682097   26.441536   42.556941
  H    -27.131732   25.206824   43.719477
  H    -25.585817   24.416888   44.078902
  H    -26.235467   24.661506   46.377168
  H    -27.377332   25.972350   46.000096
  H    -24.286300   25.549363   42.482427

 Multiplicity           Mult            ....    1
 Number of Electrons    NEL             ....  102
 Basis Dimension        Dim             ....  149

ORBITAL ENERGIES
----------------

  NO   OCC          E(Eh)            E(eV)
   0   2.0000     -19.152676      -521.1708
   1   2.0000     -19.136295      -520.7251
   2   2.0000     -19.135857      -520.7131
   3   2.0000     -19.135837      -520.7126
   4   2.0000     -10.276148      -279.6282
   5   2.0000     -10.247012      -278.8354
   6   2.0000     -10.231861      -278.4231
   7   2.0000     -10.231650      -278.4174
   8   2.0000     -10.229949      -278.3711
   9   2.0000     -10.220140      -278.1041
  10   2.0000     -10.197520      -277.4886
  11   2.0000     -10.182987      -277.0932
  12   2.0000     -10.181447      -277.0513
  13   2.0000      -1.049266       -28.5520
  14   2.0000      -1.035239       -28.1703
  15   2.0000      -1.016250       -27.6536
  16   2.0000      -0.990469       -26.9520
  17   2.0000      -0.785024       -21.3616
  18   2.0000      -0.781904       -21.2767
  19   2.0000      -0.767535       -20.8857
  20   2.0000      -0.728319       -19.8186
  21   2.0000      -0.680368       -18.5138
  22   2.0000      -0.613280       -16.6882
  23   2.0000      -0.595479       -16.2038
  24   2.0000      -0.587371       -15.9832
  25   2.0000      -0.579596       -15.7716
  26   2.0000      -0.527663       -14.3584
  27   2.0000      -0.511419       -13.9164
  28   2.0000      -0.500302       -13.6139
  29   2.0000      -0.487850       -13.2751
  30   2.0000      -0.466106       -12.6834
  31   2.0000      -0.457262       -12.4427
  32   2.0000      -0.448362       -12.2005
  33   2.0000      -0.433822       -11.8049
  34   2.0000      -0.424435       -11.5495
  35   2.0000      -0.423228       -11.5166
  36   2.0000      -0.403194       -10.9715
  37   2.0000      -0.399027       -10.8581
  38   2.0000      -0.376922       -10.2566
  39   2.0000      -0.372355       -10.1323
  40   2.0000      -0.354896        -9.6572
  41   2.0000      -0.352874        -9.6022
  42   2.0000      -0.349727        -9.5166
  43   2.0000      -0.330552        -8.9948
  44   2.0000      -0.318083        -8.6555
  45   2.0000      -0.308115        -8.3842
  46   2.0000      -0.302420        -8.2293
  47   2.0000      -0.273360        -7.4385
  48   2.0000      -0.257383        -7.0038
  49   2.0000      -0.250319        -6.8115
  50   2.0000      -0.236875        -6.4457
  51   0.0000       0.048466         1.3188
  52   0.0000       0.078079         2.1246
  53   0.0000       0.087778         2.3886
  54   0.0000       0.089178         2.4267
  55   0.0000       0.102292         2.7835

MULLIKEN ATOMIC CHARGES
-----------------------
   0 C :    0.288090
   1 C :   -0.261468
   2 C :   -0.299457
   3 C :   -0.000950
   4 O :   -0.502549
   5 H :    0.134092
   6 H :    0.141359
   7 H :    0.143764
   8 H :    0.140023
   9 H :    0.166218
  10 H :    0.157199
  11 H :    0.139150
  12 C :   -0.015715
  13 H :    0.128465
  14 H :    0.126337
  15 O :   -0.496842
  16 C :    0.096435
  17 C :    0.081042
  18 C :   -0.324194
  19 C :   -0.008660
  20 O :   -0.501008
  21 H :    0.156703
  22 H :    0.169487
  23 O :   -0.601383
  24 H :    0.158198
  25 H :    0.131880
  26 H :    0.150789
  27 H :    0.147206
  28 H :    0.355792
Sum of atomic charges:   -0.0000000

LOEWDIN ATOMIC CHARGES
----------------------
   0 C :    0.177101
   1 C :   -0.227627
   2 C :   -0.216831
   3 C :   -0.024750
   4 O :   -0.306786
   5 H :    0.094857
   6 H :    0.111687
   7 H :    0.115051
   8 H :    0.113560
   9 H :    0.121297
  10 H :    0.110991
  11 H :    0.101043
  12 C :   -0.051083
  13 H :    0.095664
  14 H :    0.091706
  15 O :   -0.323053
  16 C :    0.021724
  17 C :    0.033222
  18 C :   -0.240914
  19 C :   -0.028924
  20 O :   -0.310869
  21 H :    0.116839
  22 H :    0.119955
  23 O :   -0.408997
  24 H :    0.122778
  25 H :    0.103155
  26 H :    0.106200
  27 H :    0.105225
  28 H :    0.277781

  Mayer bond orders larger than 0.100000
B(  0-C ,  1-C ) :   0.9319 B(  0-C ,  4-O ) :   0.9384 B(  0-C ,  5-H ) :   0.9201
B(  0-C , 15-O ) :   0.8372 B(  1-C ,  2-C ) :   0.9543 B(  1-C ,  6-H ) :   0.9343
B(  1-C ,  7-H ) :   0.9374 B(  2-C ,  3-C ) :   0.9556 B(  2-C ,  8-H ) :   0.9450
B(  2-C ,  9-H ) :   0.9423 B(  3-C ,  4-O ) :   0.8352 B(  3-C , 10-H ) :   0.9340
B(  3-C , 11-H ) :   0.9399 B( 12-C , 13-H ) :   0.9010 B( 12-C , 14-H ) :   0.9182
B( 12-C , 15-O ) :   0.8508 B( 12-C , 16-C ) :   0.9057 B( 16-C , 17-C ) :   0.8724
B( 16-C , 20-O ) :   0.8766 B( 16-C , 21-H ) :   0.9301 B( 17-C , 18-C ) :   0.9262
B( 17-C , 22-H ) :   0.9328 B( 17-C , 23-O ) :   0.8923 B( 18-C , 19-C ) :   0.9379
B( 18-C , 24-H ) :   0.9414 B( 18-C , 25-H ) :   0.9406 B( 19-C , 20-O ) :   0.8498
B( 19-C , 26-H ) :   0.9308 B( 19-C , 27-H ) :   0.9383 B( 23-O , 28-H ) :   0.7991

FINAL SINGLE POINT ENERGY      -652.853645579825

DIPOLE MOMENT
-------------
                                X             Y             Z
Electronic contribution:     -1.03357      -1.25405       0.56453
Nuclear contribution   :      1.03285       1.07837      -1.40069
                        -----------------------------------------
Total Dipole Moment    :     -0.00072      -0.17568      -0.83616
                        -----------------------------------------
Magnitude (a.u.)       :      0.85442
Magnitude (Debye)      :      2.17175

Rotational constants in cm-1:     0.056796     0.012192     0.011230
Rotational constants in MHz :  1702.701104   365.494462   336.664953

                             ****ORCA TERMINATED NORMALLY****
TOTAL RUN TIME: 0 days 0 hours 24 minutes 59 seconds 794 msec
