                         Program Version 4.2.0 -  RELEASE  -
|  1> # Test redundant internal optimization
|  2> #
|  3> ! RKS B3LYP  Opt TightSCF SmallPrint
|  4>
|  5> %basis
|  6>         Basis "6-31G"
|  7> end
|  8>
|  9> %geom
| 10> Constraints
| 11> { D 4  0  15  12  210.0   C } # D for Dihedral angle
| 12> { D 0  15  12  16  15.0   C } # D for Dihedral angle
| 13> { D 0  4  3  2   C } # D for Dihedral angle
| 14> { D 4  3  2  1   C } # D for Dihedral angle
| 15> { D 3  2  1  0   C } # D for Dihedral angle
| 16> { D 2  1  0  4   C } # D for Dihedral angle
| 17> { D 1  0  4  3   C } # D for Dihedral angle
| 18> { D 16  20  19  18   C } # D for Dihedral angle
| 19> { D 20  19  18  17   C } # D for Dihedral angle
| 20> { D 19  18  17  16   C } # D for Dihedral angle
| 21> { D 18  17  16  20   C } # D for Dihedral angle
| 22> { D 17  16  20  19   C } # D for Dihedral angle
| 23> { D 15  12  16  20   C } # D for Dihedral angle
| 24> end
| 25> end
| 26>
| 27>
| 28> #%pal
| 29> #nprocs 8
| 30> #end
| 31>
| 32> * xyz 0 1
| 33> C  -21.048   26.222   46.251
| 34> C  -20.361   27.558   45.944
| 35> C  -20.329   28.222   47.341
| 36> C  -20.110   27.022   48.296
| 37> O  -20.473   25.807   47.535
| 38> H  -20.833   25.428   45.533
| 39> H  -19.344   27.382   45.576
| 40> H  -20.898   28.157   45.201
| 41> H  -19.543   28.978   47.434
| 42> H  -21.289   28.710   47.548
| 43> H  -20.733   27.082   49.195
| 44> H  -19.064   26.913   48.597
| 45> C  -23.389   26.110   45.076
| 46> H  -24.268   25.500   45.320
| 47> H  -23.737   27.049   44.627
| 48> O  -22.586   26.394   46.375
| 49> C  -22.553   25.356   44.005
| 50> C  -22.166   23.954   44.488
| 51> C  -23.474   23.165   44.244
| 52> C  -24.037   23.810   42.953
| 53> O  -23.358   25.115   42.803
| 54> H  -21.709   25.980   43.706
| 55> O  -21.013   23.389   43.613
| 56> H  -21.845   23.932   45.536
| 57> H  -23.307   22.089   44.135
| 58> H  -24.165   23.314   45.083
| 59> H  -25.119   23.973   43.003
| 60> H  -23.809   23.223   42.059
| 61> H  -21.312   23.400   42.558
| 62> *
| 63>
| 64>                          ****END OF INPUT****
 Total Charge           Charge          ....    0
 Multiplicity           Mult            ....    1
 Number of Electrons    NEL             ....  102
FINAL SINGLE POINT ENERGY      -652.823722326028
FINAL SINGLE POINT ENERGY      -652.846828782532
FINAL SINGLE POINT ENERGY      -652.851104455833
FINAL SINGLE POINT ENERGY      -652.853141025820
FINAL SINGLE POINT ENERGY      -652.853352658669
FINAL SINGLE POINT ENERGY      -652.853395269577
FINAL SINGLE POINT ENERGY      -652.853398193810
                    ***********************HURRAY********************

CARTESIAN COORDINATES (ANGSTROEM)
---------------------------------
  C    -20.903321   26.223747   46.271794
  C    -20.221634   27.566666   46.012940
  C    -20.418330   28.292901   47.366730
  C    -20.308608   27.143772   48.390905
  O    -20.521827   25.892847   47.616775
  H    -20.567208   25.409520   45.631256
  H    -19.156506   27.403135   45.808284
  H    -20.660127   28.107452   45.169570
  H    -19.674194   29.076821   47.535762
  H    -21.414138   28.743787   47.400009
  H    -21.062076   27.196649   49.180990
  H    -19.314045   27.066426   48.840613
  C    -23.155544   26.080268   45.064813
  H    -24.038233   25.549819   45.435551
  H    -23.496142   27.027980   44.630434
  O    -22.350872   26.374575   46.249067
  C    -22.511968   25.272666   43.926159
  C    -22.110506   23.828580   44.271702
  C    -23.482285   23.096447   44.224920
  C    -24.225964   23.831823   43.080931
  O    -23.522020   25.120722   42.873961
  H    -21.673198   25.816110   43.480771
  O    -21.172584   23.309897   43.289431
  H    -21.615728   23.711584   45.234103
  H    -23.341863   22.030688   44.028844
  H    -24.002688   23.207703   45.181578
  H    -25.274998   24.035936   43.315700
  H    -24.181099   23.287271   42.132347
  H    -21.494291   23.528209   42.389058

 Multiplicity           Mult            ....    1
 Number of Electrons    NEL             ....  102
 Basis Dimension        Dim             ....  149

ORBITAL ENERGIES
----------------

  NO   OCC          E(Eh)            E(eV)
   0   2.0000     -19.152658      -521.1703
   1   2.0000     -19.144384      -520.9452
   2   2.0000     -19.137632      -520.7614
   3   2.0000     -19.137617      -520.7610
   4   2.0000     -10.278882      -279.7026
   5   2.0000     -10.245700      -278.7997
   6   2.0000     -10.243182      -278.7312
   7   2.0000     -10.237605      -278.5794
   8   2.0000     -10.232808      -278.4489
   9   2.0000     -10.222512      -278.1687
  10   2.0000     -10.193651      -277.3833
  11   2.0000     -10.183747      -277.1138
  12   2.0000     -10.183428      -277.1052
  13   2.0000      -1.050079       -28.5741
  14   2.0000      -1.043454       -28.3938
  15   2.0000      -1.013044       -27.5663
  16   2.0000      -0.989402       -26.9230
  17   2.0000      -0.786314       -21.3967
  18   2.0000      -0.782259       -21.2864
  19   2.0000      -0.770251       -20.9596
  20   2.0000      -0.736284       -20.0353
  21   2.0000      -0.678325       -18.4582
  22   2.0000      -0.611695       -16.6451
  23   2.0000      -0.606609       -16.5067
  24   2.0000      -0.596839       -16.2408
  25   2.0000      -0.574044       -15.6205
  26   2.0000      -0.528737       -14.3877
  27   2.0000      -0.518061       -14.0971
  28   2.0000      -0.500791       -13.6272
  29   2.0000      -0.482400       -13.1268
  30   2.0000      -0.474854       -12.9214
  31   2.0000      -0.461446       -12.5566
  32   2.0000      -0.450993       -12.2721
  33   2.0000      -0.435512       -11.8509
  34   2.0000      -0.426274       -11.5995
  35   2.0000      -0.420185       -11.4338
  36   2.0000      -0.401502       -10.9254
  37   2.0000      -0.398414       -10.8414
  38   2.0000      -0.374778       -10.1982
  39   2.0000      -0.374487       -10.1903
  40   2.0000      -0.366402        -9.9703
  41   2.0000      -0.355768        -9.6809
  42   2.0000      -0.351748        -9.5716
  43   2.0000      -0.336173        -9.1477
  44   2.0000      -0.315037        -8.5726
  45   2.0000      -0.310846        -8.4586
  46   2.0000      -0.308747        -8.4014
  47   2.0000      -0.276341        -7.5196
  48   2.0000      -0.259199        -7.0532
  49   2.0000      -0.254011        -6.9120
  50   2.0000      -0.242649        -6.6028
  51   0.0000       0.058384         1.5887
  52   0.0000       0.073862         2.0099
  53   0.0000       0.090742         2.4692
  54   0.0000       0.093062         2.5323
  55   0.0000       0.095695         2.6040

MULLIKEN ATOMIC CHARGES
-----------------------
   0 C :    0.276490
   1 C :   -0.260609
   2 C :   -0.297445
   3 C :   -0.001908
   4 O :   -0.503994
   5 H :    0.157637
   6 H :    0.145071
   7 H :    0.141332
   8 H :    0.140516
   9 H :    0.162367
  10 H :    0.153455
  11 H :    0.141465
  12 C :    0.019451
  13 H :    0.144310
  14 H :    0.149884
  15 O :   -0.531263
  16 C :    0.017851
  17 C :    0.081788
  18 C :   -0.305549
  19 C :   -0.035624
  20 O :   -0.525298
  21 H :    0.161971
  22 O :   -0.605281
  23 H :    0.181812
  24 H :    0.168383
  25 H :    0.156352
  26 H :    0.154131
  27 H :    0.148315
  28 H :    0.364394
Sum of atomic charges:   -0.0000000

LOEWDIN ATOMIC CHARGES
----------------------
   0 C :    0.173628
   1 C :   -0.227706
   2 C :   -0.216251
   3 C :   -0.025478
   4 O :   -0.307826
   5 H :    0.102862
   6 H :    0.113385
   7 H :    0.114154
   8 H :    0.113687
   9 H :    0.119315
  10 H :    0.108744
  11 H :    0.102037
  12 C :   -0.037565
  13 H :    0.107572
  14 H :    0.106757
  15 O :   -0.339366
  16 C :   -0.000882
  17 C :    0.030465
  18 C :   -0.240753
  19 C :   -0.039212
  20 O :   -0.324933
  21 H :    0.112622
  22 O :   -0.413922
  23 H :    0.125573
  24 H :    0.129582
  25 H :    0.119509
  26 H :    0.107346
  27 H :    0.103560
  28 H :    0.283095

  Mayer bond orders larger than 0.100000
B(  0-C ,  1-C ) :   0.9315 B(  0-C ,  4-O ) :   0.9323 B(  0-C ,  5-H ) :   0.9045
B(  0-C , 15-O ) :   0.8323 B(  1-C ,  2-C ) :   0.9547 B(  1-C ,  6-H ) :   0.9345
B(  1-C ,  7-H ) :   0.9391 B(  2-C ,  3-C ) :   0.9547 B(  2-C ,  8-H ) :   0.9451
B(  2-C ,  9-H ) :   0.9438 B(  3-C ,  4-O ) :   0.8357 B(  3-C , 10-H ) :   0.9348
B(  3-C , 11-H ) :   0.9397 B( 12-C , 13-H ) :   0.9309 B( 12-C , 14-H ) :   0.9183
B( 12-C , 15-O ) :   0.8394 B( 12-C , 16-C ) :   0.8918 B( 16-C , 17-C ) :   0.8982
B( 16-C , 20-O ) :   0.8319 B( 16-C , 21-H ) :   0.9227 B( 17-C , 18-C ) :   0.9108
B( 17-C , 22-O ) :   0.8838 B( 17-C , 23-H ) :   0.9192 B( 18-C , 19-C ) :   0.9410
B( 18-C , 24-H ) :   0.9359 B( 18-C , 25-H ) :   0.9323 B( 19-C , 20-O ) :   0.8371
B( 19-C , 26-H ) :   0.9341 B( 19-C , 27-H ) :   0.9376 B( 22-O , 28-H ) :   0.7957

FINAL SINGLE POINT ENERGY      -652.853399409211

DIPOLE MOMENT
-------------
                                X             Y             Z
Electronic contribution:     -0.02009      -2.25668      -1.43898
Nuclear contribution   :     -0.29816       2.62519       1.11650
                        -----------------------------------------
Total Dipole Moment    :     -0.31825       0.36851      -0.32249
                        -----------------------------------------
Magnitude (a.u.)       :      0.58402
Magnitude (Debye)      :      1.48447

Rotational constants in cm-1:     0.059641     0.012999     0.012405
Rotational constants in MHz :  1787.989769   389.712154   371.896902

                             ****ORCA TERMINATED NORMALLY****
TOTAL RUN TIME: 0 days 1 hours 17 minutes 39 seconds 449 msec
