                         Program Version 4.2.0 -  RELEASE  -
|  1> # Test redundant internal optimization
|  2> #
|  3> ! RKS B3LYP  Opt TightSCF SmallPrint
|  4>
|  5> %basis
|  6>         Basis "6-31G"
|  7> end
|  8>
|  9> %geom
| 10> Constraints
| 11> { D 4  0  15  12  165.0   C } # D for Dihedral angle
| 12> { D 0  15  12  16  240.0   C } # D for Dihedral angle
| 13> { D 0  4  3  2   C } # D for Dihedral angle
| 14> { D 4  3  2  1   C } # D for Dihedral angle
| 15> { D 3  2  1  0   C } # D for Dihedral angle
| 16> { D 2  1  0  4   C } # D for Dihedral angle
| 17> { D 1  0  4  3   C } # D for Dihedral angle
| 18> { D 16  20  19  18   C } # D for Dihedral angle
| 19> { D 20  19  18  17   C } # D for Dihedral angle
| 20> { D 19  18  17  16   C } # D for Dihedral angle
| 21> { D 18  17  16  20   C } # D for Dihedral angle
| 22> { D 17  16  20  19   C } # D for Dihedral angle
| 23> { D 15  12  16  20   C } # D for Dihedral angle
| 24> end
| 25> end
| 26>
| 27>
| 28> #%pal
| 29> #nprocs 8
| 30> #end
| 31>
| 32> * xyz 0 1
| 33> C  -21.048   26.222   46.251
| 34> C  -20.361   27.558   45.944
| 35> C  -20.329   28.222   47.341
| 36> C  -20.110   27.022   48.296
| 37> O  -20.473   25.807   47.535
| 38> H  -20.833   25.428   45.533
| 39> H  -19.344   27.382   45.576
| 40> H  -20.898   28.157   45.201
| 41> H  -19.543   28.978   47.434
| 42> H  -21.289   28.710   47.548
| 43> H  -20.733   27.082   49.195
| 44> H  -19.064   26.913   48.597
| 45> C  -23.260   27.170   45.210
| 46> H  -22.495   27.460   44.478
| 47> H  -23.998   26.536   44.703
| 48> O  -22.586   26.394   46.375
| 49> C  -23.990   28.456   45.688
| 50> C  -24.739   29.132   44.535
| 51> C  -26.013   28.260   44.434
| 52> C  -26.297   27.882   45.909
| 53> O  -25.042   28.119   46.653
| 54> H  -23.277   29.101   46.205
| 55> O  -25.102   30.593   44.919
| 56> H  -24.164   29.153   43.603
| 57> H  -26.852   28.788   43.969
| 58> H  -25.809   27.363   43.837
| 59> H  -26.589   26.832   46.023
| 60> H  -27.066   28.515   46.362
| 61> H  -25.679   30.595   45.850
| 62> *
| 63>
| 64>                          ****END OF INPUT****
 Total Charge           Charge          ....    0
 Multiplicity           Mult            ....    1
 Number of Electrons    NEL             ....  102
FINAL SINGLE POINT ENERGY      -652.825052349746
FINAL SINGLE POINT ENERGY      -652.847506925985
FINAL SINGLE POINT ENERGY      -652.851541612604
FINAL SINGLE POINT ENERGY      -652.852177823953
FINAL SINGLE POINT ENERGY      -652.852265823375
FINAL SINGLE POINT ENERGY      -652.852277488193
                    ***********************HURRAY********************

CARTESIAN COORDINATES (ANGSTROEM)
---------------------------------
  C    -21.070294   26.277170   46.180393
  C    -20.304579   27.574989   45.921676
  C    -20.389135   28.283633   47.300528
  C    -20.318618   27.100371   48.288488
  O    -20.655389   25.892008   47.495178
  H    -20.821245   25.451365   45.507002
  H    -19.265788   27.322483   45.679644
  H    -20.698019   28.183654   45.103445
  H    -19.577693   29.002310   47.449123
  H    -21.340943   28.813168   47.398028
  H    -21.031082   27.184710   49.112466
  H    -19.313398   26.940328   48.689306
  C    -23.205510   27.134509   45.149548
  H    -22.507434   27.444469   44.359613
  H    -23.913883   26.423316   44.706392
  O    -22.524333   26.438313   46.227926
  C    -23.951234   28.364814   45.671262
  C    -24.736971   29.110189   44.583169
  C    -26.043251   28.274879   44.506924
  C    -26.265277   27.842673   45.978063
  O    -24.964556   28.015875   46.668459
  H    -23.245869   29.034641   46.171658
  O    -24.995741   30.484809   44.982197
  H    -24.215281   29.184090   43.628004
  H    -26.863512   28.876487   44.107254
  H    -25.900643   27.407094   43.853204
  H    -26.580259   26.799236   46.070403
  H    -26.993128   28.474164   46.496921
  H    -25.289932   30.494254   45.917724

 Multiplicity           Mult            ....    1
 Number of Electrons    NEL             ....  102
 Basis Dimension        Dim             ....  149

ORBITAL ENERGIES
----------------

  NO   OCC          E(Eh)            E(eV)
   0   2.0000     -19.142374      -520.8905
   1   2.0000     -19.142165      -520.8848
   2   2.0000     -19.138295      -520.7795
   3   2.0000     -19.135901      -520.7144
   4   2.0000     -10.279640      -279.7232
   5   2.0000     -10.246338      -278.8170
   6   2.0000     -10.236513      -278.5497
   7   2.0000     -10.235259      -278.5155
   8   2.0000     -10.231365      -278.4096
   9   2.0000     -10.223483      -278.1951
  10   2.0000     -10.192612      -277.3551
  11   2.0000     -10.191180      -277.3161
  12   2.0000     -10.188773      -277.2506
  13   2.0000      -1.051082       -28.6014
  14   2.0000      -1.038554       -28.2605
  15   2.0000      -1.008776       -27.4502
  16   2.0000      -0.989905       -26.9367
  17   2.0000      -0.788076       -21.4447
  18   2.0000      -0.786767       -21.4090
  19   2.0000      -0.769694       -20.9444
  20   2.0000      -0.733436       -19.9578
  21   2.0000      -0.678569       -18.4648
  22   2.0000      -0.607402       -16.5282
  23   2.0000      -0.604465       -16.4483
  24   2.0000      -0.594902       -16.1881
  25   2.0000      -0.579520       -15.7695
  26   2.0000      -0.523065       -14.2333
  27   2.0000      -0.514985       -14.0134
  28   2.0000      -0.501170       -13.6375
  29   2.0000      -0.494803       -13.4643
  30   2.0000      -0.473011       -12.8713
  31   2.0000      -0.459217       -12.4959
  32   2.0000      -0.454854       -12.3772
  33   2.0000      -0.441159       -12.0045
  34   2.0000      -0.431420       -11.7395
  35   2.0000      -0.409670       -11.1477
  36   2.0000      -0.404920       -11.0184
  37   2.0000      -0.396243       -10.7823
  38   2.0000      -0.378352       -10.2955
  39   2.0000      -0.374813       -10.1992
  40   2.0000      -0.363897        -9.9021
  41   2.0000      -0.355614        -9.6767
  42   2.0000      -0.354446        -9.6450
  43   2.0000      -0.334678        -9.1070
  44   2.0000      -0.313630        -8.5343
  45   2.0000      -0.308134        -8.3848
  46   2.0000      -0.295763        -8.0481
  47   2.0000      -0.274397        -7.4667
  48   2.0000      -0.264595        -7.2000
  49   2.0000      -0.254556        -6.9268
  50   2.0000      -0.237041        -6.4502
  51   0.0000       0.063099         1.7170
  52   0.0000       0.076489         2.0814
  53   0.0000       0.086893         2.3645
  54   0.0000       0.088587         2.4106
  55   0.0000       0.097594         2.6557

MULLIKEN ATOMIC CHARGES
-----------------------
   0 C :    0.308933
   1 C :   -0.293109
   2 C :   -0.306344
   3 C :    0.000386
   4 O :   -0.496694
   5 H :    0.144220
   6 H :    0.152344
   7 H :    0.140519
   8 H :    0.144219
   9 H :    0.164296
  10 H :    0.159991
  11 H :    0.141596
  12 C :   -0.016594
  13 H :    0.121170
  14 H :    0.145312
  15 O :   -0.500429
  16 C :    0.066935
  17 C :    0.073741
  18 C :   -0.298283
  19 C :   -0.028795
  20 O :   -0.506137
  21 H :    0.161988
  22 O :   -0.600276
  23 H :    0.147801
  24 H :    0.162813
  25 H :    0.146039
  26 H :    0.152015
  27 H :    0.146747
  28 H :    0.365597
Sum of atomic charges:   -0.0000000

LOEWDIN ATOMIC CHARGES
----------------------
   0 C :    0.184327
   1 C :   -0.235878
   2 C :   -0.217907
   3 C :   -0.024750
   4 O :   -0.300380
   5 H :    0.097651
   6 H :    0.119021
   7 H :    0.111074
   8 H :    0.115376
   9 H :    0.115050
  10 H :    0.112495
  11 H :    0.102421
  12 C :   -0.045000
  13 H :    0.094660
  14 H :    0.105050
  15 O :   -0.325947
  16 C :    0.011549
  17 C :    0.033488
  18 C :   -0.241723
  19 C :   -0.037841
  20 O :   -0.319061
  21 H :    0.112630
  22 O :   -0.414182
  23 H :    0.113339
  24 H :    0.126765
  25 H :    0.113495
  26 H :    0.107697
  27 H :    0.102772
  28 H :    0.283811

  Mayer bond orders larger than 0.100000
B(  0-C ,  1-C ) :   0.9281 B(  0-C ,  4-O ) :   0.9403 B(  0-C ,  5-H ) :   0.9230
B(  0-C , 15-O ) :   0.8403 B(  1-C ,  2-C ) :   0.9501 B(  1-C ,  6-H ) :   0.9328
B(  1-C ,  7-H ) :   0.9290 B(  2-C ,  3-C ) :   0.9544 B(  2-C ,  8-H ) :   0.9445
B(  2-C ,  9-H ) :   0.9364 B(  3-C ,  4-O ) :   0.8345 B(  3-C , 10-H ) :   0.9334
B(  3-C , 11-H ) :   0.9399 B( 12-C , 13-H ) :   0.9085 B( 12-C , 14-H ) :   0.9280
B( 12-C , 15-O ) :   0.8558 B( 12-C , 16-C ) :   0.8846 B( 16-C , 17-C ) :   0.8933
B( 16-C , 20-O ) :   0.8728 B( 16-C , 21-H ) :   0.9189 B( 17-C , 18-C ) :   0.9117
B( 17-C , 22-O ) :   0.8951 B( 17-C , 23-H ) :   0.9337 B( 18-C , 19-C ) :   0.9391
B( 18-C , 24-H ) :   0.9374 B( 18-C , 25-H ) :   0.9333 B( 19-C , 20-O ) :   0.8498
B( 19-C , 26-H ) :   0.9339 B( 19-C , 27-H ) :   0.9373 B( 22-O , 28-H ) :   0.7933

FINAL SINGLE POINT ENERGY      -652.852279113990

DIPOLE MOMENT
-------------
                                X             Y             Z
Electronic contribution:     -1.01400      -2.09245       1.94932
Nuclear contribution   :      1.13465       2.61201      -2.83597
                        -----------------------------------------
Total Dipole Moment    :      0.12065       0.51956      -0.88665
                        -----------------------------------------
Magnitude (a.u.)       :      1.03473
Magnitude (Debye)      :      2.63007

Rotational constants in cm-1:     0.055498     0.013195     0.012524
Rotational constants in MHz :  1663.788977   395.577046   375.453049

                             ****ORCA TERMINATED NORMALLY****
TOTAL RUN TIME: 0 days 1 hours 0 minutes 21 seconds 987 msec
