                         Program Version 4.2.0 -  RELEASE  -
|  1> # Test redundant internal optimization
|  2> #
|  3> ! RKS B3LYP  Opt TightSCF SmallPrint
|  4>
|  5> %basis
|  6>         Basis "6-31G"
|  7> end
|  8>
|  9> %geom
| 10> Constraints
| 11> { D 4  0  15  12  300.0   C } # D for Dihedral angle
| 12> { D 0  15  12  16  30.0   C } # D for Dihedral angle
| 13> { D 0  4  3  2   C } # D for Dihedral angle
| 14> { D 4  3  2  1   C } # D for Dihedral angle
| 15> { D 3  2  1  0   C } # D for Dihedral angle
| 16> { D 2  1  0  4   C } # D for Dihedral angle
| 17> { D 1  0  4  3   C } # D for Dihedral angle
| 18> { D 16  20  19  18   C } # D for Dihedral angle
| 19> { D 20  19  18  17   C } # D for Dihedral angle
| 20> { D 19  18  17  16   C } # D for Dihedral angle
| 21> { D 18  17  16  20   C } # D for Dihedral angle
| 22> { D 17  16  20  19   C } # D for Dihedral angle
| 23> { D 15  12  16  20   C } # D for Dihedral angle
| 24> end
| 25> end
| 26>
| 27>
| 28> #%pal
| 29> #nprocs 8
| 30> #end
| 31>
| 32> * xyz 0 1
| 33> C  -21.048   26.222   46.251
| 34> C  -20.361   27.558   45.944
| 35> C  -20.329   28.222   47.341
| 36> C  -20.110   27.022   48.296
| 37> O  -20.473   25.807   47.535
| 38> H  -20.833   25.428   45.533
| 39> H  -19.344   27.382   45.576
| 40> H  -20.898   28.157   45.201
| 41> H  -19.543   28.978   47.434
| 42> H  -21.289   28.710   47.548
| 43> H  -20.733   27.082   49.195
| 44> H  -19.064   26.913   48.597
| 45> C  -23.362   25.116   46.798
| 46> H  -24.263   25.407   47.351
| 47> H  -23.671   24.545   45.913
| 48> O  -22.586   26.394   46.375
| 49> C  -22.518   24.173   47.699
| 50> C  -22.184   24.836   49.040
| 51> C  -23.507   24.652   49.820
| 52> C  -24.017   23.274   49.327
| 53> O  -23.297   22.986   48.068
| 54> H  -21.650   23.824   47.138
| 55> O  -21.025   24.072   49.737
| 56> H  -21.892   25.887   48.940
| 57> H  -23.368   24.681   50.905
| 58> H  -24.215   25.445   49.552
| 59> H  -25.094   23.271   49.133
| 60> H  -23.781   22.467   50.026
| 61> H  -21.294   23.016   49.849
| 62> *
| 63>
| 64>                          ****END OF INPUT****
 Total Charge           Charge          ....    0
 Multiplicity           Mult            ....    1
 Number of Electrons    NEL             ....  102
FINAL SINGLE POINT ENERGY      -652.817387298694
FINAL SINGLE POINT ENERGY      -652.842612400980
FINAL SINGLE POINT ENERGY      -652.856611239403
FINAL SINGLE POINT ENERGY      -652.858914887620
FINAL SINGLE POINT ENERGY      -652.859501603357
FINAL SINGLE POINT ENERGY      -652.859600123938
FINAL SINGLE POINT ENERGY      -652.859611355368
FINAL SINGLE POINT ENERGY      -652.859613289258
                    ***********************HURRAY********************

CARTESIAN COORDINATES (ANGSTROEM)
---------------------------------
  C    -20.925325   26.247451   46.256973
  C    -20.505351   27.663872   45.861227
  C    -20.443061   28.369838   47.235574
  C    -19.934299   27.259825   48.180691
  O    -20.174167   25.975407   47.463241
  H    -20.622774   25.463710   45.552498
  H    -19.516781   27.626042   45.390260
  H    -21.214890   28.123981   45.170887
  H    -19.783753   29.243104   47.231910
  H    -21.446104   28.695054   47.525912
  H    -20.457151   27.238288   49.140675
  H    -18.857505   27.311145   48.364068
  C    -23.094183   25.067534   46.869306
  H    -23.993098   25.488868   47.326981
  H    -23.411141   24.498234   45.985337
  O    -22.356854   26.248674   46.406270
  C    -22.464407   24.039791   47.831617
  C    -22.127022   24.530487   49.250123
  C    -23.534820   24.593108   49.909490
  C    -24.269556   23.391210   49.261965
  O    -23.510162   23.030985   48.044414
  H    -21.606801   23.536802   47.380944
  O    -21.272447   23.571188   49.933311
  H    -21.590828   25.470798   49.268474
  H    -23.452847   24.506556   50.995748
  H    -24.029503   25.541712   49.673512
  H    -25.301768   23.622094   48.980748
  H    -24.276015   22.507886   49.909157
  H    -21.576388   22.663354   49.720685

 Multiplicity           Mult            ....    1
 Number of Electrons    NEL             ....  102
 Basis Dimension        Dim             ....  149

ORBITAL ENERGIES
----------------

  NO   OCC          E(Eh)            E(eV)
   0   2.0000     -19.146682      -521.0077
   1   2.0000     -19.144481      -520.9478
   2   2.0000     -19.143849      -520.9306
   3   2.0000     -19.130029      -520.5545
   4   2.0000     -10.280734      -279.7530
   5   2.0000     -10.232590      -278.4429
   6   2.0000     -10.230547      -278.3873
   7   2.0000     -10.230011      -278.3728
   8   2.0000     -10.229388      -278.3558
   9   2.0000     -10.229008      -278.3455
  10   2.0000     -10.187584      -277.2183
  11   2.0000     -10.186367      -277.1851
  12   2.0000     -10.184560      -277.1360
  13   2.0000      -1.053730       -28.6734
  14   2.0000      -1.034821       -28.1589
  15   2.0000      -1.000792       -27.2329
  16   2.0000      -0.994830       -27.0707
  17   2.0000      -0.791287       -21.5320
  18   2.0000      -0.773337       -21.0436
  19   2.0000      -0.764258       -20.7965
  20   2.0000      -0.734119       -19.9764
  21   2.0000      -0.674408       -18.3516
  22   2.0000      -0.602412       -16.3925
  23   2.0000      -0.601501       -16.3677
  24   2.0000      -0.598500       -16.2860
  25   2.0000      -0.569625       -15.5003
  26   2.0000      -0.521084       -14.1794
  27   2.0000      -0.518417       -14.1068
  28   2.0000      -0.495460       -13.4821
  29   2.0000      -0.481070       -13.0906
  30   2.0000      -0.472836       -12.8665
  31   2.0000      -0.458232       -12.4691
  32   2.0000      -0.445850       -12.1322
  33   2.0000      -0.434702       -11.8288
  34   2.0000      -0.417295       -11.3552
  35   2.0000      -0.413513       -11.2523
  36   2.0000      -0.401596       -10.9280
  37   2.0000      -0.387531       -10.5453
  38   2.0000      -0.376506       -10.2452
  39   2.0000      -0.366188        -9.9645
  40   2.0000      -0.360045        -9.7973
  41   2.0000      -0.355624        -9.6770
  42   2.0000      -0.349718        -9.5163
  43   2.0000      -0.338486        -9.2107
  44   2.0000      -0.323002        -8.7893
  45   2.0000      -0.303444        -8.2571
  46   2.0000      -0.302064        -8.2196
  47   2.0000      -0.265655        -7.2288
  48   2.0000      -0.263432        -7.1684
  49   2.0000      -0.260062        -7.0767
  50   2.0000      -0.240856        -6.5540
  51   0.0000       0.068789         1.8718
  52   0.0000       0.074508         2.0275
  53   0.0000       0.093606         2.5472
  54   0.0000       0.098363         2.6766
  55   0.0000       0.107415         2.9229

MULLIKEN ATOMIC CHARGES
-----------------------
   0 C :    0.295597
   1 C :   -0.263555
   2 C :   -0.296354
   3 C :   -0.013205
   4 O :   -0.509362
   5 H :    0.143935
   6 H :    0.147683
   7 H :    0.161743
   8 H :    0.142818
   9 H :    0.159768
  10 H :    0.141688
  11 H :    0.153448
  12 C :    0.004375
  13 H :    0.145153
  14 H :    0.151915
  15 O :   -0.535795
  16 C :    0.033493
  17 C :    0.099903
  18 C :   -0.300996
  19 C :   -0.034720
  20 O :   -0.527077
  21 H :    0.169910
  22 O :   -0.603647
  23 H :    0.171519
  24 H :    0.163849
  25 H :    0.140359
  26 H :    0.148237
  27 H :    0.147797
  28 H :    0.361522
Sum of atomic charges:   -0.0000000

LOEWDIN ATOMIC CHARGES
----------------------
   0 C :    0.173982
   1 C :   -0.213474
   2 C :   -0.215650
   3 C :   -0.030196
   4 O :   -0.323918
   5 H :    0.093755
   6 H :    0.115162
   7 H :    0.126383
   8 H :    0.114877
   9 H :    0.118024
  10 H :    0.100179
  11 H :    0.108000
  12 C :   -0.041230
  13 H :    0.109742
  14 H :    0.107365
  15 O :   -0.333938
  16 C :    0.008785
  17 C :    0.040268
  18 C :   -0.244847
  19 C :   -0.040136
  20 O :   -0.328541
  21 H :    0.118895
  22 O :   -0.413535
  23 H :    0.124566
  24 H :    0.126962
  25 H :    0.111205
  26 H :    0.103941
  27 H :    0.103022
  28 H :    0.280350

  Mayer bond orders larger than 0.100000
B(  0-C ,  1-C ) :   0.9446 B(  0-C ,  4-O ) :   0.8941 B(  0-C ,  5-H ) :   0.9215
B(  0-C , 15-O ) :   0.8668 B(  1-C ,  2-C ) :   0.9583 B(  1-C ,  6-H ) :   0.9401
B(  1-C ,  7-H ) :   0.9363 B(  2-C ,  3-C ) :   0.9549 B(  2-C ,  8-H ) :   0.9444
B(  2-C ,  9-H ) :   0.9449 B(  3-C ,  4-O ) :   0.8322 B(  3-C , 10-H ) :   0.9261
B(  3-C , 11-H ) :   0.9401 B( 12-C , 13-H ) :   0.9380 B( 12-C , 14-H ) :   0.9203
B( 12-C , 15-O ) :   0.8329 B( 12-C , 16-C ) :   0.8867 B( 16-C , 17-C ) :   0.9122
B( 16-C , 20-O ) :   0.8181 B( 16-C , 21-H ) :   0.9247 B( 17-C , 18-C ) :   0.9060
B( 17-C , 22-O ) :   0.8906 B( 17-C , 23-H ) :   0.9133 B( 18-C , 19-C ) :   0.9411
B( 18-C , 24-H ) :   0.9369 B( 18-C , 25-H ) :   0.9355 B( 19-C , 20-O ) :   0.8379
B( 19-C , 26-H ) :   0.9353 B( 19-C , 27-H ) :   0.9380 B( 22-O , 28-H ) :   0.7957

FINAL SINGLE POINT ENERGY      -652.859613543169

DIPOLE MOMENT
-------------
                                X             Y             Z
Electronic contribution:      0.52618      -4.64218      -1.17195
Nuclear contribution   :     -0.80442       5.45255       1.15723
                        -----------------------------------------
Total Dipole Moment    :     -0.27824       0.81036      -0.01472
                        -----------------------------------------
Magnitude (a.u.)       :      0.85693
Magnitude (Debye)      :      2.17813

Rotational constants in cm-1:     0.051190     0.016323     0.014393
Rotational constants in MHz :  1534.625469   489.343215   431.499887

                             ****ORCA TERMINATED NORMALLY****
TOTAL RUN TIME: 0 days 1 hours 8 minutes 2 seconds 373 msec
