                         Program Version 4.2.0 -  RELEASE  -
|  1> # Test redundant internal optimization
|  2> #
|  3> ! RKS B3LYP  Opt TightSCF SmallPrint
|  4>
|  5> %basis
|  6>         Basis "6-31G"
|  7> end
|  8>
|  9> %geom
| 10> Constraints
| 11> { D 4  0  15  12  240.0   C } # D for Dihedral angle
| 12> { D 0  15  12  16  60.0   C } # D for Dihedral angle
| 13> { D 0  4  3  2   C } # D for Dihedral angle
| 14> { D 4  3  2  1   C } # D for Dihedral angle
| 15> { D 3  2  1  0   C } # D for Dihedral angle
| 16> { D 2  1  0  4   C } # D for Dihedral angle
| 17> { D 1  0  4  3   C } # D for Dihedral angle
| 18> { D 16  20  19  18   C } # D for Dihedral angle
| 19> { D 20  19  18  17   C } # D for Dihedral angle
| 20> { D 19  18  17  16   C } # D for Dihedral angle
| 21> { D 18  17  16  20   C } # D for Dihedral angle
| 22> { D 17  16  20  19   C } # D for Dihedral angle
| 23> { D 15  12  16  20   C } # D for Dihedral angle
| 24> end
| 25> end
| 26>
| 27>
| 28> #%pal
| 29> #nprocs 8
| 30> #end
| 31>
| 32> * xyz 0 1
| 33> C  -21.048   26.222   46.251
| 34> C  -20.361   27.558   45.944
| 35> C  -20.329   28.222   47.341
| 36> C  -20.110   27.022   48.296
| 37> O  -20.473   25.807   47.535
| 38> H  -20.833   25.428   45.533
| 39> H  -19.344   27.382   45.576
| 40> H  -20.898   28.157   45.201
| 41> H  -19.543   28.978   47.434
| 42> H  -21.289   28.710   47.548
| 43> H  -20.733   27.082   49.195
| 44> H  -19.064   26.913   48.597
| 45> C  -23.430   25.483   45.442
| 46> H  -24.495   25.689   45.602
| 47> H  -23.195   25.688   44.390
| 48> O  -22.586   26.394   46.375
| 49> C  -23.182   23.970   45.696
| 50> C  -23.940   23.104   44.683
| 51> C  -23.026   23.203   43.439
| 52> C  -21.604   23.258   44.050
| 53> O  -21.771   23.637   45.470
| 54> H  -23.401   23.741   46.740
| 55> H  -23.997   22.070   45.040
| 56> O  -25.384   23.608   44.411
| 57> H  -23.153   22.361   42.751
| 58> H  -23.244   24.124   42.884
| 59> H  -20.962   23.995   43.555
| 60> H  -21.105   22.285   44.033
| 61> H  -25.353   24.642   44.052
| 62> *
| 63>
| 64>                          ****END OF INPUT****
 Total Charge           Charge          ....    0
 Multiplicity           Mult            ....    1
 Number of Electrons    NEL             ....  102
FINAL SINGLE POINT ENERGY      -652.824926524015
FINAL SINGLE POINT ENERGY      -652.848832889078
FINAL SINGLE POINT ENERGY      -652.853564468059
FINAL SINGLE POINT ENERGY      -652.855256608938
FINAL SINGLE POINT ENERGY      -652.855420398296
FINAL SINGLE POINT ENERGY      -652.855465417789
FINAL SINGLE POINT ENERGY      -652.855469234110
                    ***********************HURRAY********************

CARTESIAN COORDINATES (ANGSTROEM)
---------------------------------
  C    -20.912839   26.243457   46.219003
  C    -20.349850   27.646911   45.996416
  C    -20.462355   28.265143   47.411203
  C    -20.177759   27.060827   48.335141
  O    -20.379921   25.851994   47.499877
  H    -20.623154   25.474373   45.507019
  H    -19.300613   27.573169   45.685425
  H    -20.905723   28.203296   45.237776
  H    -19.761185   29.090002   47.569765
  H    -21.479325   28.637146   47.566856
  H    -20.851538   27.011898   49.194629
  H    -19.141576   27.031020   48.686514
  C    -23.217762   25.530390   45.464867
  H    -24.234751   25.813160   45.751156
  H    -23.069363   25.809477   44.406461
  O    -22.365743   26.349713   46.301398
  C    -23.071535   24.014386   45.634963
  C    -23.983544   23.194020   44.703494
  C    -23.135163   23.134805   43.396594
  C    -21.688441   23.054464   43.930139
  O    -21.727902   23.512980   45.346100
  H    -23.243191   23.775978   46.688837
  H    -24.117578   22.193043   45.117732
  O    -25.328352   23.704040   44.539546
  H    -23.404287   22.282418   42.767289
  H    -23.297461   24.050926   42.813408
  H    -20.990679   23.684924   43.369627
  H    -21.305217   22.030410   43.941383
  H    -25.326191   24.508630   43.981383

 Multiplicity           Mult            ....    1
 Number of Electrons    NEL             ....  102
 Basis Dimension        Dim             ....  149

ORBITAL ENERGIES
----------------

  NO   OCC          E(Eh)            E(eV)
   0   2.0000     -19.153496      -521.1931
   1   2.0000     -19.145666      -520.9801
   2   2.0000     -19.132655      -520.6260
   3   2.0000     -19.125399      -520.4286
   4   2.0000     -10.263389      -279.2810
   5   2.0000     -10.249062      -278.8911
   6   2.0000     -10.236402      -278.5467
   7   2.0000     -10.232892      -278.4511
   8   2.0000     -10.232142      -278.4307
   9   2.0000     -10.213554      -277.9249
  10   2.0000     -10.200040      -277.5572
  11   2.0000     -10.175855      -276.8991
  12   2.0000     -10.175579      -276.8916
  13   2.0000      -1.042982       -28.3810
  14   2.0000      -1.035073       -28.1658
  15   2.0000      -1.020212       -27.7614
  16   2.0000      -0.983316       -26.7574
  17   2.0000      -0.787610       -21.4319
  18   2.0000      -0.778104       -21.1733
  19   2.0000      -0.764988       -20.8164
  20   2.0000      -0.725738       -19.7483
  21   2.0000      -0.679458       -18.4890
  22   2.0000      -0.616472       -16.7750
  23   2.0000      -0.595388       -16.2013
  24   2.0000      -0.587391       -15.9837
  25   2.0000      -0.568068       -15.4579
  26   2.0000      -0.531940       -14.4748
  27   2.0000      -0.509315       -13.8592
  28   2.0000      -0.497116       -13.5272
  29   2.0000      -0.479157       -13.0385
  30   2.0000      -0.466456       -12.6929
  31   2.0000      -0.454080       -12.3561
  32   2.0000      -0.441999       -12.0274
  33   2.0000      -0.434153       -11.8139
  34   2.0000      -0.428553       -11.6615
  35   2.0000      -0.419929       -11.4269
  36   2.0000      -0.406323       -11.0566
  37   2.0000      -0.389557       -10.6004
  38   2.0000      -0.384843       -10.4721
  39   2.0000      -0.364752        -9.9254
  40   2.0000      -0.358637        -9.7590
  41   2.0000      -0.346864        -9.4387
  42   2.0000      -0.341081        -9.2813
  43   2.0000      -0.332186        -9.0393
  44   2.0000      -0.319975        -8.7070
  45   2.0000      -0.307122        -8.3572
  46   2.0000      -0.295625        -8.0444
  47   2.0000      -0.275382        -7.4935
  48   2.0000      -0.261439        -7.1141
  49   2.0000      -0.250825        -6.8253
  50   2.0000      -0.228207        -6.2098
  51   0.0000       0.046455         1.2641
  52   0.0000       0.068549         1.8653
  53   0.0000       0.088239         2.4011
  54   0.0000       0.097995         2.6666
  55   0.0000       0.105930         2.8825

MULLIKEN ATOMIC CHARGES
-----------------------
   0 C :    0.278049
   1 C :   -0.251186
   2 C :   -0.298119
   3 C :    0.000114
   4 O :   -0.499265
   5 H :    0.172081
   6 H :    0.138783
   7 H :    0.138174
   8 H :    0.135221
   9 H :    0.160281
  10 H :    0.147145
  11 H :    0.136548
  12 C :   -0.015249
  13 H :    0.159138
  14 H :    0.105092
  15 O :   -0.527898
  16 C :    0.088244
  17 C :    0.083108
  18 C :   -0.320623
  19 C :   -0.017741
  20 O :   -0.508003
  21 H :    0.172470
  22 H :    0.170603
  23 O :   -0.596959
  24 H :    0.161450
  25 H :    0.133185
  26 H :    0.142398
  27 H :    0.155736
  28 H :    0.357222
Sum of atomic charges:   -0.0000000

LOEWDIN ATOMIC CHARGES
----------------------
   0 C :    0.172002
   1 C :   -0.221687
   2 C :   -0.216964
   3 C :   -0.027984
   4 O :   -0.310566
   5 H :    0.114786
   6 H :    0.109945
   7 H :    0.114187
   8 H :    0.110612
   9 H :    0.118233
  10 H :    0.105360
  11 H :    0.099480
  12 C :   -0.046364
  13 H :    0.120345
  14 H :    0.077938
  15 O :   -0.332330
  16 C :    0.007851
  17 C :    0.036567
  18 C :   -0.241446
  19 C :   -0.032706
  20 O :   -0.314761
  21 H :    0.123446
  22 H :    0.121411
  23 O :   -0.404959
  24 H :    0.124359
  25 H :    0.103997
  26 H :    0.101054
  27 H :    0.109447
  28 H :    0.278746

  Mayer bond orders larger than 0.100000
B(  0-C ,  1-C ) :   0.9389 B(  0-C ,  4-O ) :   0.9256 B(  0-C ,  5-H ) :   0.9047
B(  0-C , 15-O ) :   0.8176 B(  1-C ,  2-C ) :   0.9564 B(  1-C ,  6-H ) :   0.9388
B(  1-C ,  7-H ) :   0.9398 B(  2-C ,  3-C ) :   0.9543 B(  2-C ,  8-H ) :   0.9462
B(  2-C ,  9-H ) :   0.9439 B(  3-C ,  4-O ) :   0.8451 B(  3-C , 10-H ) :   0.9350
B(  3-C , 11-H ) :   0.9400 B( 12-C , 13-H ) :   0.9222 B( 12-C , 14-H ) :   0.9223
B( 12-C , 15-O ) :   0.8764 B( 12-C , 16-C ) :   0.8916 B( 16-C , 17-C ) :   0.8666
B( 16-C , 20-O ) :   0.8518 B( 16-C , 21-H ) :   0.9269 B( 17-C , 18-C ) :   0.9224
B( 17-C , 22-H ) :   0.9324 B( 17-C , 23-O ) :   0.9028 B( 18-C , 19-C ) :   0.9392
B( 18-C , 24-H ) :   0.9414 B( 18-C , 25-H ) :   0.9397 B( 19-C , 20-O ) :   0.8438
B( 19-C , 26-H ) :   0.9309 B( 19-C , 27-H ) :   0.9378 B( 23-O , 28-H ) :   0.7973

FINAL SINGLE POINT ENERGY      -652.855470153246

DIPOLE MOMENT
-------------
                                X             Y             Z
Electronic contribution:     -2.03990      -3.36676       2.03918
Nuclear contribution   :      2.13217       3.86012      -3.42210
                        -----------------------------------------
Total Dipole Moment    :      0.09228       0.49335      -1.38292
                        -----------------------------------------
Magnitude (a.u.)       :      1.47118
Magnitude (Debye)      :      3.73945

Rotational constants in cm-1:     0.059697     0.013152     0.012272
Rotational constants in MHz :  1789.676447   394.273106   367.913981

                             ****ORCA TERMINATED NORMALLY****
TOTAL RUN TIME: 0 days 0 hours 24 minutes 41 seconds 41 msec
