                         Program Version 4.2.0 -  RELEASE  -
|  1> # Test redundant internal optimization
|  2> #
|  3> ! RKS B3LYP  Opt TightSCF SmallPrint
|  4>
|  5> %basis
|  6>         Basis "6-31G"
|  7> end
|  8>
|  9> %geom
| 10> Constraints
| 11> { D 4  0  15  12  345.0   C } # D for Dihedral angle
| 12> { D 0  15  12  16  165.0   C } # D for Dihedral angle
| 13> { D 0  4  3  2   C } # D for Dihedral angle
| 14> { D 4  3  2  1   C } # D for Dihedral angle
| 15> { D 3  2  1  0   C } # D for Dihedral angle
| 16> { D 2  1  0  4   C } # D for Dihedral angle
| 17> { D 1  0  4  3   C } # D for Dihedral angle
| 18> { D 16  20  19  18   C } # D for Dihedral angle
| 19> { D 20  19  18  17   C } # D for Dihedral angle
| 20> { D 19  18  17  16   C } # D for Dihedral angle
| 21> { D 18  17  16  20   C } # D for Dihedral angle
| 22> { D 17  16  20  19   C } # D for Dihedral angle
| 23> { D 15  12  16  20   C } # D for Dihedral angle
| 24> end
| 25> end
| 26>
| 27>
| 28> #%pal
| 29> #nprocs 8
| 30> #end
| 31>
| 32> * xyz 0 1
| 33> C  -21.048   26.222   46.251
| 34> C  -20.361   27.558   45.944
| 35> C  -20.329   28.222   47.341
| 36> C  -20.110   27.022   48.296
| 37> O  -20.473   25.807   47.535
| 38> H  -20.833   25.428   45.533
| 39> H  -19.344   27.382   45.576
| 40> H  -20.898   28.157   45.201
| 41> H  -19.543   28.978   47.434
| 42> H  -21.289   28.710   47.548
| 43> H  -20.733   27.082   49.195
| 44> H  -19.064   26.913   48.597
| 45> C  -23.221   25.764   47.645
| 46> H  -23.254   24.674   47.530
| 47> H  -22.617   25.997   48.532
| 48> O  -22.586   26.394   46.375
| 49> C  -24.665   26.272   47.910
| 50> C  -24.711   27.803   47.993
| 51> C  -24.681   28.198   46.497
| 52> C  -25.496   27.069   45.818
| 53> O  -25.539   25.945   46.779
| 54> H  -25.070   25.761   48.785
| 55> O  -26.039   28.261   48.654
| 56> H  -23.877   28.229   48.561
| 57> H  -25.106   29.190   46.311
| 58> H  -23.647   28.203   46.129
| 59> H  -25.040   26.726   44.883
| 60> H  -26.531   27.363   45.620
| 61> H  -26.888   27.846   48.100
| 62> *
| 63>
| 64>                          ****END OF INPUT****
 Total Charge           Charge          ....    0
 Multiplicity           Mult            ....    1
 Number of Electrons    NEL             ....  102
FINAL SINGLE POINT ENERGY      -652.835202883470
FINAL SINGLE POINT ENERGY      -652.857086374868
FINAL SINGLE POINT ENERGY      -652.861371902806
FINAL SINGLE POINT ENERGY      -652.862618652408
FINAL SINGLE POINT ENERGY      -652.862742977245
FINAL SINGLE POINT ENERGY      -652.862761586775
                    ***********************HURRAY********************

CARTESIAN COORDINATES (ANGSTROEM)
---------------------------------
  C    -21.092469   26.161103   46.354445
  C    -20.479475   27.508859   45.973803
  C    -20.363209   28.203659   47.350312
  C    -20.031117   27.037606   48.307151
  O    -20.419005   25.796191   47.577715
  H    -20.898682   25.346608   45.651097
  H    -19.490444   27.340909   45.532676
  H    -21.096989   28.058796   45.260330
  H    -19.594463   28.982251   47.364746
  H    -21.318753   28.666269   47.617771
  H    -20.582070   27.078986   49.250877
  H    -18.962049   26.949883   48.519058
  C    -23.184112   25.754024   47.673152
  H    -23.243965   24.661262   47.589724
  H    -22.609037   25.990705   48.575507
  O    -22.538994   26.299606   46.485004
  C    -24.598822   26.309811   47.807819
  C    -24.741567   27.833149   47.948704
  C    -24.724444   28.291701   46.465923
  C    -25.462822   27.139489   45.738957
  O    -25.440415   25.979076   46.658319
  H    -25.050392   25.814946   48.676806
  O    -25.989400   28.172405   48.617691
  H    -23.960083   28.293721   48.554481
  H    -25.224741   29.257701   46.353331
  H    -23.693898   28.363687   46.116956
  H    -24.969325   26.855473   44.806176
  H    -26.513705   27.368906   45.534591
  H    -26.718553   27.659217   48.209879

 Multiplicity           Mult            ....    1
 Number of Electrons    NEL             ....  102
 Basis Dimension        Dim             ....  149

ORBITAL ENERGIES
----------------

  NO   OCC          E(Eh)            E(eV)
   0   2.0000     -19.155121      -521.2373
   1   2.0000     -19.144157      -520.9390
   2   2.0000     -19.134449      -520.6748
   3   2.0000     -19.134404      -520.6736
   4   2.0000     -10.284485      -279.8551
   5   2.0000     -10.237250      -278.5697
   6   2.0000     -10.236046      -278.5370
   7   2.0000     -10.231447      -278.4118
   8   2.0000     -10.228699      -278.3370
   9   2.0000     -10.220059      -278.1020
  10   2.0000     -10.196508      -277.4611
  11   2.0000     -10.192634      -277.3557
  12   2.0000     -10.175633      -276.8931
  13   2.0000      -1.060362       -28.8539
  14   2.0000      -1.030967       -28.0540
  15   2.0000      -1.002921       -27.2909
  16   2.0000      -0.993619       -27.0378
  17   2.0000      -0.797236       -21.6939
  18   2.0000      -0.776841       -21.1389
  19   2.0000      -0.763597       -20.7785
  20   2.0000      -0.736593       -20.0437
  21   2.0000      -0.672207       -18.2917
  22   2.0000      -0.609873       -16.5955
  23   2.0000      -0.599558       -16.3148
  24   2.0000      -0.595500       -16.2044
  25   2.0000      -0.570593       -15.5266
  26   2.0000      -0.525000       -14.2860
  27   2.0000      -0.512840       -13.9551
  28   2.0000      -0.501086       -13.6352
  29   2.0000      -0.491079       -13.3629
  30   2.0000      -0.471252       -12.8234
  31   2.0000      -0.460431       -12.5290
  32   2.0000      -0.448402       -12.2016
  33   2.0000      -0.430709       -11.7202
  34   2.0000      -0.422639       -11.5006
  35   2.0000      -0.414931       -11.2908
  36   2.0000      -0.404719       -11.0130
  37   2.0000      -0.385128       -10.4799
  38   2.0000      -0.379775       -10.3342
  39   2.0000      -0.367679       -10.0051
  40   2.0000      -0.365916        -9.9571
  41   2.0000      -0.359026        -9.7696
  42   2.0000      -0.350751        -9.5444
  43   2.0000      -0.342143        -9.3102
  44   2.0000      -0.322557        -8.7772
  45   2.0000      -0.309062        -8.4100
  46   2.0000      -0.300607        -8.1799
  47   2.0000      -0.269882        -7.3439
  48   2.0000      -0.265545        -7.2258
  49   2.0000      -0.254595        -6.9279
  50   2.0000      -0.239137        -6.5073
  51   0.0000       0.055631         1.5138
  52   0.0000       0.076434         2.0799
  53   0.0000       0.092028         2.5042
  54   0.0000       0.096677         2.6307
  55   0.0000       0.103369         2.8128

MULLIKEN ATOMIC CHARGES
-----------------------
   0 C :    0.306480
   1 C :   -0.261501
   2 C :   -0.308993
   3 C :   -0.018075
   4 O :   -0.511007
   5 H :    0.157238
   6 H :    0.148457
   7 H :    0.158521
   8 H :    0.150267
   9 H :    0.156162
  10 H :    0.146471
  11 H :    0.153693
  12 C :    0.014639
  13 H :    0.151711
  14 H :    0.136994
  15 O :   -0.545918
  16 C :    0.064448
  17 C :    0.077216
  18 C :   -0.287144
  19 C :   -0.017196
  20 O :   -0.525940
  21 H :    0.153749
  22 O :   -0.605173
  23 H :    0.141656
  24 H :    0.144304
  25 H :    0.167801
  26 H :    0.151605
  27 H :    0.135759
  28 H :    0.363776
Sum of atomic charges:    0.0000000

LOEWDIN ATOMIC CHARGES
----------------------
   0 C :    0.183298
   1 C :   -0.218133
   2 C :   -0.218991
   3 C :   -0.032156
   4 O :   -0.318584
   5 H :    0.103557
   6 H :    0.116018
   7 H :    0.123359
   8 H :    0.118707
   9 H :    0.113170
  10 H :    0.102700
  11 H :    0.108539
  12 C :   -0.033013
  13 H :    0.107406
  14 H :    0.101695
  15 O :   -0.342377
  16 C :    0.013890
  17 C :    0.038959
  18 C :   -0.241580
  19 C :   -0.032412
  20 O :   -0.329433
  21 H :    0.115192
  22 O :   -0.418271
  23 H :    0.110207
  24 H :    0.116483
  25 H :    0.124447
  26 H :    0.108622
  27 H :    0.096075
  28 H :    0.282624

  Mayer bond orders larger than 0.100000
B(  0-C ,  1-C ) :   0.9378 B(  0-C ,  4-O ) :   0.9086 B(  0-C ,  5-H ) :   0.9255
B(  0-C , 15-O ) :   0.8374 B(  1-C ,  2-C ) :   0.9524 B(  1-C ,  6-H ) :   0.9357
B(  1-C ,  7-H ) :   0.9352 B(  2-C ,  3-C ) :   0.9532 B(  2-C ,  8-H ) :   0.9442
B(  2-C ,  9-H ) :   0.9424 B(  3-C ,  4-O ) :   0.8299 B(  3-C , 10-H ) :   0.9316
B(  3-C , 11-H ) :   0.9402 B( 12-C , 13-H ) :   0.9207 B( 12-C , 14-H ) :   0.9045
B( 12-C , 15-O ) :   0.8294 B( 12-C , 16-C ) :   0.9076 B( 16-C , 17-C ) :   0.9071
B( 16-C , 20-O ) :   0.8695 B( 16-C , 21-H ) :   0.9228 B( 17-C , 18-C ) :   0.9240
B( 17-C , 22-O ) :   0.8915 B( 17-C , 23-H ) :   0.9351 B( 18-C , 19-C ) :   0.9463
B( 18-C , 24-H ) :   0.9381 B( 18-C , 25-H ) :   0.9177 B( 19-C , 20-O ) :   0.8402
B( 19-C , 26-H ) :   0.9341 B( 19-C , 27-H ) :   0.9372 B( 22-O , 28-H ) :   0.7948

FINAL SINGLE POINT ENERGY      -652.862761867818

DIPOLE MOMENT
-------------
                                X             Y             Z
Electronic contribution:     -3.34433      -4.34444       0.64667
Nuclear contribution   :      4.28279       5.04831      -0.90757
                        -----------------------------------------
Total Dipole Moment    :      0.93845       0.70387      -0.26089
                        -----------------------------------------
Magnitude (a.u.)       :      1.20175
Magnitude (Debye)      :      3.05459

Rotational constants in cm-1:     0.049498     0.015427     0.014993
Rotational constants in MHz :  1483.911089   462.484127   449.480509

                             ****ORCA TERMINATED NORMALLY****
TOTAL RUN TIME: 0 days 0 hours 24 minutes 15 seconds 8 msec
