                         Program Version 4.2.0 -  RELEASE  -
|  1> # Test redundant internal optimization
|  2> #
|  3> ! RKS B3LYP  Opt TightSCF SmallPrint
|  4>
|  5> %basis
|  6>         Basis "6-31G"
|  7> end
|  8>
|  9> %geom
| 10> Constraints
| 11> { D 4  0  15  12  285.0   C } # D for Dihedral angle
| 12> { D 0  15  12  16  180.0   C } # D for Dihedral angle
| 13> { D 0  4  3  2   C } # D for Dihedral angle
| 14> { D 4  3  2  1   C } # D for Dihedral angle
| 15> { D 3  2  1  0   C } # D for Dihedral angle
| 16> { D 2  1  0  4   C } # D for Dihedral angle
| 17> { D 1  0  4  3   C } # D for Dihedral angle
| 18> { D 16  20  19  18   C } # D for Dihedral angle
| 19> { D 20  19  18  17   C } # D for Dihedral angle
| 20> { D 19  18  17  16   C } # D for Dihedral angle
| 21> { D 18  17  16  20   C } # D for Dihedral angle
| 22> { D 17  16  20  19   C } # D for Dihedral angle
| 23> { D 15  12  16  20   C } # D for Dihedral angle
| 24> end
| 25> end
| 26>
| 27>
| 28> #%pal
| 29> #nprocs 8
| 30> #end
| 31>
| 32> * xyz 0 1
| 33> C  -21.048   26.222   46.251
| 34> C  -20.361   27.558   45.944
| 35> C  -20.329   28.222   47.341
| 36> C  -20.110   27.022   48.296
| 37> O  -20.473   25.807   47.535
| 38> H  -20.833   25.428   45.533
| 39> H  -19.344   27.382   45.576
| 40> H  -20.898   28.157   45.201
| 41> H  -19.543   28.978   47.434
| 42> H  -21.289   28.710   47.548
| 43> H  -20.733   27.082   49.195
| 44> H  -19.064   26.913   48.597
| 45> C  -23.396   25.070   46.435
| 46> H  -23.209   24.490   45.523
| 47> H  -23.081   24.466   47.296
| 48> O  -22.586   26.394   46.375
| 49> C  -24.927   25.307   46.559
| 50> C  -25.257   26.191   47.767
| 51> C  -24.927   27.602   47.223
| 52> C  -25.339   27.509   45.733
| 53> O  -25.422   26.069   45.408
| 54> H  -25.440   24.344   46.550
| 55> H  -26.322   26.111   48.011
| 56> O  -24.435   25.827   49.033
| 57> H  -25.459   28.397   47.754
| 58> H  -23.852   27.799   47.315
| 59> H  -24.613   27.987   45.066
| 60> H  -26.327   27.939   45.545
| 61> H  -23.365   25.901   48.812
| 62> *
| 63>
| 64>                          ****END OF INPUT****
 Total Charge           Charge          ....    0
 Multiplicity           Mult            ....    1
 Number of Electrons    NEL             ....  102
FINAL SINGLE POINT ENERGY      -652.838843051161
FINAL SINGLE POINT ENERGY      -652.863096872733
FINAL SINGLE POINT ENERGY      -652.867406107181
FINAL SINGLE POINT ENERGY      -652.868685413397
FINAL SINGLE POINT ENERGY      -652.868808110767
FINAL SINGLE POINT ENERGY      -652.868831756288
FINAL SINGLE POINT ENERGY      -652.868832392097
                    ***********************HURRAY********************

CARTESIAN COORDINATES (ANGSTROEM)
---------------------------------
  C    -21.073551   26.148843   46.247170
  C    -20.421905   27.496525   45.933448
  C    -20.394546   28.165997   47.326903
  C    -20.141093   26.978150   48.282545
  O    -20.487180   25.754835   47.512636
  H    -20.854863   25.340177   45.542628
  H    -19.406938   27.325136   45.558775
  H    -20.986062   28.062996   45.189948
  H    -19.619084   28.933842   47.409472
  H    -21.361273   28.635609   47.533528
  H    -20.753330   27.014997   49.187920
  H    -19.089867   26.879858   48.567744
  C    -23.262675   25.096475   46.429629
  H    -23.074520   24.507667   45.521394
  H    -22.937245   24.512897   47.300353
  O    -22.497912   26.342446   46.349949
  C    -24.755485   25.378680   46.535905
  C    -25.184865   26.204174   47.761194
  C    -24.973467   27.664660   47.255917
  C    -25.351791   27.563508   45.762657
  O    -25.296932   26.121563   45.406250
  H    -25.255974   24.402975   46.527317
  H    -26.236043   26.013785   47.987179
  O    -24.477241   25.879736   48.981082
  H    -25.594542   28.380310   47.801928
  H    -23.921342   27.931414   47.375241
  H    -24.661088   28.109109   45.113979
  H    -26.374658   27.898374   45.564595
  H    -23.536529   26.139260   48.888714

 Multiplicity           Mult            ....    1
 Number of Electrons    NEL             ....  102
 Basis Dimension        Dim             ....  149

ORBITAL ENERGIES
----------------

  NO   OCC          E(Eh)            E(eV)
   0   2.0000     -19.155119      -521.2373
   1   2.0000     -19.148438      -521.0555
   2   2.0000     -19.137624      -520.7612
   3   2.0000     -19.132099      -520.6109
   4   2.0000     -10.285616      -279.8858
   5   2.0000     -10.235079      -278.5107
   6   2.0000     -10.234056      -278.4828
   7   2.0000     -10.230299      -278.3806
   8   2.0000     -10.230111      -278.3755
   9   2.0000     -10.220263      -278.1075
  10   2.0000     -10.194044      -277.3940
  11   2.0000     -10.192513      -277.3524
  12   2.0000     -10.177716      -276.9497
  13   2.0000      -1.063396       -28.9365
  14   2.0000      -1.025734       -27.9117
  15   2.0000      -1.008295       -27.4371
  16   2.0000      -1.000133       -27.2150
  17   2.0000      -0.795889       -21.6572
  18   2.0000      -0.772440       -21.0192
  19   2.0000      -0.764959       -20.8156
  20   2.0000      -0.735018       -20.0009
  21   2.0000      -0.677187       -18.4272
  22   2.0000      -0.606979       -16.5167
  23   2.0000      -0.600655       -16.3447
  24   2.0000      -0.596492       -16.2314
  25   2.0000      -0.574659       -15.6373
  26   2.0000      -0.527107       -14.3433
  27   2.0000      -0.510775       -13.8989
  28   2.0000      -0.501255       -13.6398
  29   2.0000      -0.489288       -13.3142
  30   2.0000      -0.470663       -12.8074
  31   2.0000      -0.465899       -12.6777
  32   2.0000      -0.440506       -11.9868
  33   2.0000      -0.428433       -11.6583
  34   2.0000      -0.420111       -11.4318
  35   2.0000      -0.417321       -11.3559
  36   2.0000      -0.403873       -10.9900
  37   2.0000      -0.399134       -10.8610
  38   2.0000      -0.383751       -10.4424
  39   2.0000      -0.368199       -10.0192
  40   2.0000      -0.364814        -9.9271
  41   2.0000      -0.354459        -9.6453
  42   2.0000      -0.347197        -9.4477
  43   2.0000      -0.339113        -9.2277
  44   2.0000      -0.322730        -8.7819
  45   2.0000      -0.308748        -8.4015
  46   2.0000      -0.303918        -8.2700
  47   2.0000      -0.276942        -7.5360
  48   2.0000      -0.261809        -7.1242
  49   2.0000      -0.259491        -7.0611
  50   2.0000      -0.238568        -6.4918
  51   0.0000       0.051160         1.3921
  52   0.0000       0.082707         2.2506
  53   0.0000       0.085478         2.3260
  54   0.0000       0.097319         2.6482
  55   0.0000       0.104237         2.8364

MULLIKEN ATOMIC CHARGES
-----------------------
   0 C :    0.292594
   1 C :   -0.261813
   2 C :   -0.304592
   3 C :   -0.008385
   4 O :   -0.513156
   5 H :    0.147540
   6 H :    0.150237
   7 H :    0.159011
   8 H :    0.146982
   9 H :    0.158389
  10 H :    0.142335
  11 H :    0.149183
  12 C :   -0.023545
  13 H :    0.146453
  14 H :    0.157252
  15 O :   -0.532435
  16 C :    0.083517
  17 C :    0.085463
  18 C :   -0.313049
  19 C :    0.000574
  20 O :   -0.521930
  21 H :    0.151724
  22 H :    0.161569
  23 O :   -0.607556
  24 H :    0.142628
  25 H :    0.162943
  26 H :    0.145439
  27 H :    0.137839
  28 H :    0.364791
Sum of atomic charges:    0.0000000

LOEWDIN ATOMIC CHARGES
----------------------
   0 C :    0.172115
   1 C :   -0.214031
   2 C :   -0.216984
   3 C :   -0.029599
   4 O :   -0.330960
   5 H :    0.099784
   6 H :    0.117247
   7 H :    0.125302
   8 H :    0.116329
   9 H :    0.114406
  10 H :    0.101528
  11 H :    0.106205
  12 C :   -0.051371
  13 H :    0.105564
  14 H :    0.109616
  15 O :   -0.331424
  16 C :    0.018845
  17 C :    0.038274
  18 C :   -0.243005
  19 C :   -0.024157
  20 O :   -0.323874
  21 H :    0.116081
  22 H :    0.116035
  23 O :   -0.410304
  24 H :    0.114664
  25 H :    0.117996
  26 H :    0.104576
  27 H :    0.099719
  28 H :    0.281422

  Mayer bond orders larger than 0.100000
B(  0-C ,  1-C ) :   0.9482 B(  0-C ,  4-O ) :   0.9028 B(  0-C ,  5-H ) :   0.9178
B(  0-C , 15-O ) :   0.8572 B(  1-C ,  2-C ) :   0.9551 B(  1-C ,  6-H ) :   0.9393
B(  1-C ,  7-H ) :   0.9357 B(  2-C ,  3-C ) :   0.9536 B(  2-C ,  8-H ) :   0.9446
B(  2-C ,  9-H ) :   0.9426 B(  3-C ,  4-O ) :   0.8386 B(  3-C , 10-H ) :   0.9349
B(  3-C , 11-H ) :   0.9398 B( 12-C , 13-H ) :   0.9214 B( 12-C , 14-H ) :   0.8995
B( 12-C , 15-O ) :   0.8188 B( 12-C , 16-C ) :   0.9185 B( 16-C , 17-C ) :   0.8890
B( 16-C , 20-O ) :   0.8795 B( 16-C , 21-H ) :   0.9273 B( 17-C , 18-C ) :   0.9280
B( 17-C , 22-H ) :   0.9365 B( 17-C , 23-O ) :   0.9033 B( 18-C , 19-C ) :   0.9468
B( 18-C , 24-H ) :   0.9414 B( 18-C , 25-H ) :   0.9263 B( 19-C , 20-O ) :   0.8366
B( 19-C , 26-H ) :   0.9327 B( 19-C , 27-H ) :   0.9387 B( 23-O , 28-H ) :   0.7889

FINAL SINGLE POINT ENERGY      -652.868830552655

DIPOLE MOMENT
-------------
                                X             Y             Z
Electronic contribution:     -2.43567      -4.59304      -0.45829
Nuclear contribution   :      3.29452       5.51537       0.29520
                        -----------------------------------------
Total Dipole Moment    :      0.85885       0.92234      -0.16309
                        -----------------------------------------
Magnitude (a.u.)       :      1.27080
Magnitude (Debye)      :      3.23011

Rotational constants in cm-1:     0.044625     0.016749     0.015896
Rotational constants in MHz :  1337.837432   502.114761   476.549447

                             ****ORCA TERMINATED NORMALLY****
TOTAL RUN TIME: 0 days 0 hours 20 minutes 51 seconds 474 msec
