                         Program Version 4.2.0 -  RELEASE  -
|  1> # Test redundant internal optimization
|  2> #
|  3> ! RKS B3LYP  Opt TightSCF SmallPrint
|  4>
|  5> %basis
|  6>         Basis "6-31G"
|  7> end
|  8>
|  9> %geom
| 10> Constraints
| 11> { D 4  0  15  12  255.0   C } # D for Dihedral angle
| 12> { D 0  15  12  16  255.0   C } # D for Dihedral angle
| 13> { D 0  4  3  2   C } # D for Dihedral angle
| 14> { D 4  3  2  1   C } # D for Dihedral angle
| 15> { D 3  2  1  0   C } # D for Dihedral angle
| 16> { D 2  1  0  4   C } # D for Dihedral angle
| 17> { D 1  0  4  3   C } # D for Dihedral angle
| 18> { D 16  20  19  18   C } # D for Dihedral angle
| 19> { D 20  19  18  17   C } # D for Dihedral angle
| 20> { D 19  18  17  16   C } # D for Dihedral angle
| 21> { D 18  17  16  20   C } # D for Dihedral angle
| 22> { D 17  16  20  19   C } # D for Dihedral angle
| 23> { D 15  12  16  20   C } # D for Dihedral angle
| 24> end
| 25> end
| 26>
| 27>
| 28> #%pal
| 29> #nprocs 8
| 30> #end
| 31>
| 32> * xyz 0 1
| 33> C  -21.048   26.222   46.251
| 34> C  -20.361   27.558   45.944
| 35> C  -20.329   28.222   47.341
| 36> C  -20.110   27.022   48.296
| 37> O  -20.473   25.807   47.535
| 38> H  -20.833   25.428   45.533
| 39> H  -19.344   27.382   45.576
| 40> H  -20.898   28.157   45.201
| 41> H  -19.543   28.978   47.434
| 42> H  -21.289   28.710   47.548
| 43> H  -20.733   27.082   49.195
| 44> H  -19.064   26.913   48.597
| 45> C  -23.431   25.260   45.734
| 46> H  -22.787   24.392   45.542
| 47> H  -24.234   24.947   46.414
| 48> O  -22.586   26.394   46.375
| 49> C  -24.088   25.686   44.392
| 50> C  -25.006   24.585   43.847
| 51> C  -26.276   24.780   44.709
| 52> C  -26.334   26.316   44.907
| 53> O  -24.982   26.830   44.599
| 54> H  -23.309   26.009   43.698
| 55> O  -25.316   24.843   42.347
| 56> H  -24.577   23.582   43.943
| 57> H  -27.178   24.387   44.230
| 58> H  -26.159   24.271   45.672
| 59> H  -26.599   26.596   45.932
| 60> H  -27.029   26.800   44.215
| 61> H  -25.746   25.844   42.227
| 62> *
| 63>
| 64>                          ****END OF INPUT****
 Total Charge           Charge          ....    0
 Multiplicity           Mult            ....    1
 Number of Electrons    NEL             ....  102
FINAL SINGLE POINT ENERGY      -652.833274575755
FINAL SINGLE POINT ENERGY      -652.856251634927
FINAL SINGLE POINT ENERGY      -652.860261091334
FINAL SINGLE POINT ENERGY      -652.860957850157
FINAL SINGLE POINT ENERGY      -652.861039691513
FINAL SINGLE POINT ENERGY      -652.861049960873
FINAL SINGLE POINT ENERGY      -652.861051931510
                    ***********************HURRAY********************

CARTESIAN COORDINATES (ANGSTROEM)
---------------------------------
  C    -21.078869   26.153908   46.184997
  C    -20.501112   27.537671   45.887103
  C    -20.495811   28.189407   47.290396
  C    -20.172468   27.000791   48.222924
  O    -20.462461   25.776321   47.435700
  H    -20.832348   25.369019   45.462858
  H    -19.479847   27.430275   45.502525
  H    -21.103208   28.085699   45.159783
  H    -19.764587   28.998773   47.377108
  H    -21.489184   28.591693   47.509129
  H    -20.783705   26.988529   49.128705
  H    -19.114717   26.952161   48.499307
  C    -23.350978   25.233654   45.781512
  H    -22.757615   24.326168   45.592188
  H    -24.096032   24.999673   46.548882
  O    -22.512213   26.284705   46.327278
  C    -24.030988   25.681704   44.486041
  C    -24.976784   24.627289   43.891188
  C    -26.267142   24.855469   44.722228
  C    -26.269033   26.387765   44.949252
  O    -24.885567   26.853782   44.690322
  H    -23.268558   25.979716   43.759361
  O    -25.197283   24.869964   42.474370
  H    -24.599028   23.605574   43.951293
  H    -27.144471   24.501004   44.175216
  H    -26.210179   24.311153   45.671261
  H    -26.552558   26.664753   45.968912
  H    -26.924135   26.916353   44.249708
  H    -25.341121   25.830027   42.334455

 Multiplicity           Mult            ....    1
 Number of Electrons    NEL             ....  102
 Basis Dimension        Dim             ....  149

ORBITAL ENERGIES
----------------

  NO   OCC          E(Eh)            E(eV)
   0   2.0000     -19.142369      -520.8903
   1   2.0000     -19.141500      -520.8667
   2   2.0000     -19.139984      -520.8255
   3   2.0000     -19.134139      -520.6664
   4   2.0000     -10.277179      -279.6563
   5   2.0000     -10.245530      -278.7951
   6   2.0000     -10.235455      -278.5209
   7   2.0000     -10.234541      -278.4960
   8   2.0000     -10.231612      -278.4163
   9   2.0000     -10.220135      -278.1040
  10   2.0000     -10.191975      -277.3377
  11   2.0000     -10.180298      -277.0200
  12   2.0000     -10.179991      -277.0116
  13   2.0000      -1.050306       -28.5803
  14   2.0000      -1.037641       -28.2357
  15   2.0000      -1.008220       -27.4351
  16   2.0000      -0.991292       -26.9744
  17   2.0000      -0.788760       -21.4632
  18   2.0000      -0.780379       -21.2352
  19   2.0000      -0.767147       -20.8751
  20   2.0000      -0.729643       -19.8546
  21   2.0000      -0.674455       -18.3528
  22   2.0000      -0.606992       -16.5171
  23   2.0000      -0.599336       -16.3087
  24   2.0000      -0.592821       -16.1315
  25   2.0000      -0.579299       -15.7635
  26   2.0000      -0.527878       -14.3643
  27   2.0000      -0.512479       -13.9453
  28   2.0000      -0.493788       -13.4366
  29   2.0000      -0.489089       -13.3088
  30   2.0000      -0.472322       -12.8525
  31   2.0000      -0.456167       -12.4129
  32   2.0000      -0.450535       -12.2597
  33   2.0000      -0.443111       -12.0577
  34   2.0000      -0.425127       -11.5683
  35   2.0000      -0.412449       -11.2233
  36   2.0000      -0.397651       -10.8206
  37   2.0000      -0.394682       -10.7399
  38   2.0000      -0.374762       -10.1978
  39   2.0000      -0.366985        -9.9862
  40   2.0000      -0.359480        -9.7820
  41   2.0000      -0.351918        -9.5762
  42   2.0000      -0.346647        -9.4327
  43   2.0000      -0.333256        -9.0684
  44   2.0000      -0.317799        -8.6477
  45   2.0000      -0.309933        -8.4337
  46   2.0000      -0.299822        -8.1586
  47   2.0000      -0.273504        -7.4424
  48   2.0000      -0.269352        -7.3295
  49   2.0000      -0.252107        -6.8602
  50   2.0000      -0.236315        -6.4305
  51   0.0000       0.063645         1.7319
  52   0.0000       0.081551         2.2191
  53   0.0000       0.088171         2.3993
  54   0.0000       0.098164         2.6712
  55   0.0000       0.101734         2.7683

MULLIKEN ATOMIC CHARGES
-----------------------
   0 C :    0.276835
   1 C :   -0.253392
   2 C :   -0.300265
   3 C :   -0.000622
   4 O :   -0.505828
   5 H :    0.136216
   6 H :    0.140911
   7 H :    0.157115
   8 H :    0.139031
   9 H :    0.167932
  10 H :    0.148432
  11 H :    0.139375
  12 C :   -0.011847
  13 H :    0.131546
  14 H :    0.149976
  15 O :   -0.501911
  16 C :    0.070167
  17 C :    0.077130
  18 C :   -0.298486
  19 C :   -0.025962
  20 O :   -0.511481
  21 H :    0.156259
  22 O :   -0.601602
  23 H :    0.151013
  24 H :    0.162376
  25 H :    0.146585
  26 H :    0.148550
  27 H :    0.146709
  28 H :    0.365238
Sum of atomic charges:   -0.0000000

LOEWDIN ATOMIC CHARGES
----------------------
   0 C :    0.172613
   1 C :   -0.218502
   2 C :   -0.216151
   3 C :   -0.026907
   4 O :   -0.324201
   5 H :    0.095245
   6 H :    0.111568
   7 H :    0.123576
   8 H :    0.112654
   9 H :    0.122025
  10 H :    0.106243
  11 H :    0.100955
  12 C :   -0.038881
  13 H :    0.100105
  14 H :    0.109496
  15 O :   -0.317530
  16 C :    0.007829
  17 C :    0.034266
  18 C :   -0.241373
  19 C :   -0.037608
  20 O :   -0.322707
  21 H :    0.113312
  22 O :   -0.414095
  23 H :    0.114766
  24 H :    0.126782
  25 H :    0.114069
  26 H :    0.106123
  27 H :    0.102737
  28 H :    0.283590

  Mayer bond orders larger than 0.100000
B(  0-C ,  1-C ) :   0.9455 B(  0-C ,  4-O ) :   0.9242 B(  0-C ,  5-H ) :   0.9175
B(  0-C , 15-O ) :   0.8552 B(  1-C ,  2-C ) :   0.9583 B(  1-C ,  6-H ) :   0.9387
B(  1-C ,  7-H ) :   0.9360 B(  2-C ,  3-C ) :   0.9545 B(  2-C ,  8-H ) :   0.9454
B(  2-C ,  9-H ) :   0.9429 B(  3-C ,  4-O ) :   0.8385 B(  3-C , 10-H ) :   0.9355
B(  3-C , 11-H ) :   0.9401 B( 12-C , 13-H ) :   0.9130 B( 12-C , 14-H ) :   0.9340
B( 12-C , 15-O ) :   0.8569 B( 12-C , 16-C ) :   0.8824 B( 16-C , 17-C ) :   0.8952
B( 16-C , 20-O ) :   0.8665 B( 16-C , 21-H ) :   0.9275 B( 17-C , 18-C ) :   0.9124
B( 17-C , 22-O ) :   0.8932 B( 17-C , 23-H ) :   0.9333 B( 18-C , 19-C ) :   0.9393
B( 18-C , 24-H ) :   0.9377 B( 18-C , 25-H ) :   0.9332 B( 19-C , 20-O ) :   0.8494
B( 19-C , 26-H ) :   0.9347 B( 19-C , 27-H ) :   0.9374 B( 22-O , 28-H ) :   0.7936

FINAL SINGLE POINT ENERGY      -652.861051959978

DIPOLE MOMENT
-------------
                                X             Y             Z
Electronic contribution:     -0.43509      -1.54280      -1.87215
Nuclear contribution   :      0.22368       1.71332       1.99424
                        -----------------------------------------
Total Dipole Moment    :     -0.21141       0.17051       0.12210
                        -----------------------------------------
Magnitude (a.u.)       :      0.29779
Magnitude (Debye)      :      0.75692

Rotational constants in cm-1:     0.066137     0.011131     0.010957
Rotational constants in MHz :  1982.740417   333.685753   328.472181

                             ****ORCA TERMINATED NORMALLY****
TOTAL RUN TIME: 0 days 0 hours 23 minutes 6 seconds 769 msec
