                         Program Version 4.2.0 -  RELEASE  -
|  1> # Test redundant internal optimization
|  2> #
|  3> ! RKS B3LYP  Opt TightSCF SmallPrint
|  4>
|  5> %basis
|  6>         Basis "6-31G"
|  7> end
|  8>
|  9> %geom
| 10> Constraints
| 11> { D 4  0  15  12  315.0   C } # D for Dihedral angle
| 12> { D 0  15  12  16  15.0   C } # D for Dihedral angle
| 13> { D 0  4  3  2   C } # D for Dihedral angle
| 14> { D 4  3  2  1   C } # D for Dihedral angle
| 15> { D 3  2  1  0   C } # D for Dihedral angle
| 16> { D 2  1  0  4   C } # D for Dihedral angle
| 17> { D 1  0  4  3   C } # D for Dihedral angle
| 18> { D 16  20  19  18   C } # D for Dihedral angle
| 19> { D 20  19  18  17   C } # D for Dihedral angle
| 20> { D 19  18  17  16   C } # D for Dihedral angle
| 21> { D 18  17  16  20   C } # D for Dihedral angle
| 22> { D 17  16  20  19   C } # D for Dihedral angle
| 23> { D 15  12  16  20   C } # D for Dihedral angle
| 24> end
| 25> end
| 26>
| 27>
| 28> #%pal
| 29> #nprocs 8
| 30> #end
| 31>
| 32> * xyz 0 1
| 33> C  -21.048   26.222   46.251
| 34> C  -20.361   27.558   45.944
| 35> C  -20.329   28.222   47.341
| 36> C  -20.110   27.022   48.296
| 37> O  -20.473   25.807   47.535
| 38> H  -20.833   25.428   45.533
| 39> H  -19.344   27.382   45.576
| 40> H  -20.898   28.157   45.201
| 41> H  -19.543   28.978   47.434
| 42> H  -21.289   28.710   47.548
| 43> H  -20.733   27.082   49.195
| 44> H  -19.064   26.913   48.597
| 45> C  -23.319   25.255   47.135
| 46> H  -24.044   25.693   47.832
| 47> H  -23.864   24.613   46.431
| 48> O  -22.586   26.394   46.375
| 49> C  -22.348   24.351   47.944
| 50> C  -23.088   23.172   48.585
| 51> C  -23.236   22.205   47.387
| 52> C  -21.926   22.429   46.591
| 53> O  -21.371   23.720   47.051
| 54> H  -21.786   24.969   48.648
| 55> O  -22.213   22.535   49.700
| 56> H  -24.052   23.456   49.023
| 57> H  -23.363   21.162   47.696
| 58> H  -24.107   22.484   46.783
| 59> H  -22.095   22.476   45.509
| 60> H  -21.174   21.662   46.799
| 61> H  -21.243   22.243   49.283
| 62> *
| 63>
| 64>                          ****END OF INPUT****
 Total Charge           Charge          ....    0
 Multiplicity           Mult            ....    1
 Number of Electrons    NEL             ....  102
FINAL SINGLE POINT ENERGY      -652.812602205240
FINAL SINGLE POINT ENERGY      -652.836553254044
FINAL SINGLE POINT ENERGY      -652.852370408752
FINAL SINGLE POINT ENERGY      -652.854583524367
FINAL SINGLE POINT ENERGY      -652.855078157138
FINAL SINGLE POINT ENERGY      -652.855132674271
FINAL SINGLE POINT ENERGY      -652.855137262159
                    ***********************HURRAY********************

CARTESIAN COORDINATES (ANGSTROEM)
---------------------------------
  C    -20.898414   26.300128   46.223457
  C    -20.513932   27.755109   45.952629
  C    -20.426816   28.329101   47.384877
  C    -19.873807   27.146088   48.207797
  O    -20.109506   25.930008   47.380620
  H    -20.627191   25.576572   45.451716
  H    -19.537937   27.778460   45.454338
  H    -21.248689   28.265794   45.327014
  H    -19.785591   29.213800   47.446727
  H    -21.428175   28.603828   47.728392
  H    -20.374886   27.022747   49.172689
  H    -18.793738   27.206404   48.371476
  C    -23.063092   25.219176   47.117630
  H    -23.777781   25.741101   47.767068
  H    -23.639988   24.690811   46.345602
  O    -22.330567   26.280357   46.437011
  C    -22.303721   24.193782   47.961921
  C    -23.214257   23.104741   48.553617
  C    -23.361104   22.129043   47.353442
  C    -21.972707   22.205270   46.670500
  O    -21.324217   23.446532   47.161064
  H    -21.731425   24.694210   48.743251
  O    -22.573594   22.467378   49.691245
  H    -24.169304   23.475719   48.927862
  H    -23.611553   21.124480   47.702925
  H    -24.157487   22.467814   46.681669
  H    -22.040713   22.244705   45.578598
  H    -21.322024   21.370334   46.948657
  H    -21.627785   22.316507   49.479209

 Multiplicity           Mult            ....    1
 Number of Electrons    NEL             ....  102
 Basis Dimension        Dim             ....  149

ORBITAL ENERGIES
----------------

  NO   OCC          E(Eh)            E(eV)
   0   2.0000     -19.138690      -520.7902
   1   2.0000     -19.137424      -520.7558
   2   2.0000     -19.134723      -520.6823
   3   2.0000     -19.134069      -520.6645
   4   2.0000     -10.270966      -279.4872
   5   2.0000     -10.242119      -278.7022
   6   2.0000     -10.231153      -278.4038
   7   2.0000     -10.230272      -278.3799
   8   2.0000     -10.228195      -278.3233
   9   2.0000     -10.221363      -278.1374
  10   2.0000     -10.188422      -277.2411
  11   2.0000     -10.180949      -277.0377
  12   2.0000     -10.179019      -276.9852
  13   2.0000      -1.044789       -28.4301
  14   2.0000      -1.032169       -28.0867
  15   2.0000      -1.003260       -27.3001
  16   2.0000      -0.984546       -26.7908
  17   2.0000      -0.787652       -21.4331
  18   2.0000      -0.779468       -21.2104
  19   2.0000      -0.762480       -20.7481
  20   2.0000      -0.729232       -19.8434
  21   2.0000      -0.671378       -18.2691
  22   2.0000      -0.602537       -16.3959
  23   2.0000      -0.600075       -16.3289
  24   2.0000      -0.592719       -16.1287
  25   2.0000      -0.567707       -15.4481
  26   2.0000      -0.519239       -14.1292
  27   2.0000      -0.509128       -13.8541
  28   2.0000      -0.493776       -13.4363
  29   2.0000      -0.477779       -13.0010
  30   2.0000      -0.472353       -12.8534
  31   2.0000      -0.457915       -12.4605
  32   2.0000      -0.445498       -12.1226
  33   2.0000      -0.437555       -11.9065
  34   2.0000      -0.412102       -11.2139
  35   2.0000      -0.408724       -11.1219
  36   2.0000      -0.395399       -10.7593
  37   2.0000      -0.391888       -10.6638
  38   2.0000      -0.373171       -10.1545
  39   2.0000      -0.365654        -9.9500
  40   2.0000      -0.359024        -9.7695
  41   2.0000      -0.352969        -9.6048
  42   2.0000      -0.342670        -9.3245
  43   2.0000      -0.335773        -9.1369
  44   2.0000      -0.322023        -8.7627
  45   2.0000      -0.301953        -8.2165
  46   2.0000      -0.289569        -7.8796
  47   2.0000      -0.270525        -7.3614
  48   2.0000      -0.255867        -6.9625
  49   2.0000      -0.248075        -6.7505
  50   2.0000      -0.237129        -6.4526
  51   0.0000       0.066859         1.8193
  52   0.0000       0.087549         2.3823
  53   0.0000       0.089957         2.4479
  54   0.0000       0.095680         2.6036
  55   0.0000       0.106691         2.9032

MULLIKEN ATOMIC CHARGES
-----------------------
   0 C :    0.314987
   1 C :   -0.260858
   2 C :   -0.297268
   3 C :   -0.017385
   4 O :   -0.497395
   5 H :    0.153228
   6 H :    0.143858
   7 H :    0.157229
   8 H :    0.138767
   9 H :    0.156915
  10 H :    0.137744
  11 H :    0.146930
  12 C :    0.027081
  13 H :    0.139441
  14 H :    0.129732
  15 O :   -0.554132
  16 C :    0.047947
  17 C :    0.079329
  18 C :   -0.293332
  19 C :   -0.038727
  20 O :   -0.504177
  21 H :    0.176408
  22 O :   -0.602891
  23 H :    0.149296
  24 H :    0.160445
  25 H :    0.143184
  26 H :    0.148019
  27 H :    0.147841
  28 H :    0.367785
Sum of atomic charges:   -0.0000000

LOEWDIN ATOMIC CHARGES
----------------------
   0 C :    0.185583
   1 C :   -0.215326
   2 C :   -0.216939
   3 C :   -0.035145
   4 O :   -0.312585
   5 H :    0.101807
   6 H :    0.113219
   7 H :    0.124432
   8 H :    0.112552
   9 H :    0.116508
  10 H :    0.099022
  11 H :    0.104338
  12 C :   -0.032508
  13 H :    0.107381
  14 H :    0.095653
  15 O :   -0.341078
  16 C :    0.004006
  17 C :    0.037253
  18 C :   -0.241273
  19 C :   -0.043379
  20 O :   -0.317876
  21 H :    0.123411
  22 O :   -0.413819
  23 H :    0.114555
  24 H :    0.125536
  25 H :    0.112096
  26 H :    0.104251
  27 H :    0.103194
  28 H :    0.285132

  Mayer bond orders larger than 0.100000
B(  0-C ,  1-C ) :   0.9417 B(  0-C ,  4-O ) :   0.8971 B(  0-C ,  5-H ) :   0.9230
B(  0-C , 15-O ) :   0.8390 B(  1-C ,  2-C ) :   0.9556 B(  1-C ,  6-H ) :   0.9395
B(  1-C ,  7-H ) :   0.9364 B(  2-C ,  3-C ) :   0.9543 B(  2-C ,  8-H ) :   0.9454
B(  2-C ,  9-H ) :   0.9451 B(  3-C ,  4-O ) :   0.8439 B(  3-C , 10-H ) :   0.9340
B(  3-C , 11-H ) :   0.9399 B( 12-C , 13-H ) :   0.9240 B( 12-C , 14-H ) :   0.9261
B( 12-C , 15-O ) :   0.8461 B( 12-C , 16-C ) :   0.9014 B( 16-C , 17-C ) :   0.8929
B( 16-C , 20-O ) :   0.8420 B( 16-C , 21-H ) :   0.9149 B( 17-C , 18-C ) :   0.9104
B( 17-C , 22-O ) :   0.8923 B( 17-C , 23-H ) :   0.9338 B( 18-C , 19-C ) :   0.9394
B( 18-C , 24-H ) :   0.9382 B( 18-C , 25-H ) :   0.9326 B( 19-C , 20-O ) :   0.8546
B( 19-C , 26-H ) :   0.9337 B( 19-C , 27-H ) :   0.9371 B( 22-O , 28-H ) :   0.7924

FINAL SINGLE POINT ENERGY      -652.855137789417

DIPOLE MOMENT
-------------
                                X             Y             Z
Electronic contribution:      0.63995      -2.33963       0.92741
Nuclear contribution   :     -0.84800       2.58324      -1.31701
                        -----------------------------------------
Total Dipole Moment    :     -0.20804       0.24361      -0.38960
                        -----------------------------------------
Magnitude (a.u.)       :      0.50439
Magnitude (Debye)      :      1.28206

Rotational constants in cm-1:     0.057596     0.014702     0.014007
Rotational constants in MHz :  1726.670757   440.756709   419.931434

                             ****ORCA TERMINATED NORMALLY****
TOTAL RUN TIME: 0 days 0 hours 23 minutes 0 seconds 794 msec
