                         Program Version 4.2.0 -  RELEASE  -
|  1> # Test redundant internal optimization
|  2> #
|  3> ! RKS B3LYP  Opt TightSCF SmallPrint
|  4>
|  5> %basis
|  6>         Basis "6-31G"
|  7> end
|  8>
|  9> %geom
| 10> Constraints
| 11> { D 4  0  15  12  0.0   C } # D for Dihedral angle
| 12> { D 0  15  12  16  255.0   C } # D for Dihedral angle
| 13> { D 0  4  3  2   C } # D for Dihedral angle
| 14> { D 4  3  2  1   C } # D for Dihedral angle
| 15> { D 3  2  1  0   C } # D for Dihedral angle
| 16> { D 2  1  0  4   C } # D for Dihedral angle
| 17> { D 1  0  4  3   C } # D for Dihedral angle
| 18> { D 16  20  19  18   C } # D for Dihedral angle
| 19> { D 20  19  18  17   C } # D for Dihedral angle
| 20> { D 19  18  17  16   C } # D for Dihedral angle
| 21> { D 18  17  16  20   C } # D for Dihedral angle
| 22> { D 17  16  20  19   C } # D for Dihedral angle
| 23> { D 15  12  16  20   C } # D for Dihedral angle
| 24> end
| 25> end
| 26>
| 27>
| 28> #%pal
| 29> #nprocs 8
| 30> #end
| 31>
| 32> * xyz 0 1
| 33> C  -21.048   26.222   46.251
| 34> C  -20.361   27.558   45.944
| 35> C  -20.329   28.222   47.341
| 36> C  -20.110   27.022   48.296
| 37> O  -20.473   25.807   47.535
| 38> H  -20.833   25.428   45.533
| 39> H  -19.344   27.382   45.576
| 40> H  -20.898   28.157   45.201
| 41> H  -19.543   28.978   47.434
| 42> H  -21.289   28.710   47.548
| 43> H  -20.733   27.082   49.195
| 44> H  -19.064   26.913   48.597
| 45> C  -23.172   26.101   47.783
| 46> H  -22.358   26.087   48.518
| 47> H  -23.883   26.884   48.074
| 48> O  -22.586   26.394   46.375
| 49> C  -23.915   24.738   47.853
| 50> C  -24.578   24.535   49.219
| 51> C  -25.854   25.399   49.081
| 52> C  -26.240   25.221   47.592
| 53> O  -25.033   24.715   46.903
| 54> H  -23.229   23.941   47.560
| 55> O  -24.948   23.039   49.416
| 56> H  -23.943   24.846   50.056
| 57> H  -26.654   25.086   49.760
| 58> H  -25.623   26.449   49.298
| 59> H  -26.552   26.161   47.124
| 60> H  -27.028   24.476   47.450
| 61> H  -25.584   22.705   48.589
| 62> *
| 63>
| 64>                          ****END OF INPUT****
 Total Charge           Charge          ....    0
 Multiplicity           Mult            ....    1
 Number of Electrons    NEL             ....  102
FINAL SINGLE POINT ENERGY      -652.829690848533
FINAL SINGLE POINT ENERGY      -652.852348262319
FINAL SINGLE POINT ENERGY      -652.856608628640
FINAL SINGLE POINT ENERGY      -652.857519148795
FINAL SINGLE POINT ENERGY      -652.857637917491
FINAL SINGLE POINT ENERGY      -652.857657297528
                    ***********************HURRAY********************

CARTESIAN COORDINATES (ANGSTROEM)
---------------------------------
  C    -21.122559   26.200755   46.373716
  C    -20.472091   27.523336   45.965124
  C    -20.263329   28.210086   47.335657
  C    -19.936016   27.028739   48.275616
  O    -20.408326   25.805521   47.565103
  H    -20.991634   25.389123   45.654623
  H    -19.512473   27.317851   45.476778
  H    -21.105359   28.096570   45.285133
  H    -19.462982   28.956124   47.316422
  H    -21.186164   28.711857   47.645519
  H    -20.438441   27.091538   49.245128
  H    -18.862495   26.896064   48.436477
  C    -23.173170   26.148795   47.847855
  H    -22.417619   26.134739   48.639775
  H    -23.855998   26.990252   48.008966
  O    -22.561364   26.372268   46.550247
  C    -23.933658   24.820775   47.876012
  C    -24.649267   24.547966   49.206397
  C    -25.961100   25.359567   49.033748
  C    -26.268314   25.205809   47.523095
  O    -25.006536   24.774750   46.877660
  H    -23.241075   24.011917   47.625247
  O    -24.917537   23.127691   49.371802
  H    -24.074366   24.836467   50.087993
  H    -26.749495   24.959383   49.675987
  H    -25.796828   26.409412   49.302509
  H    -26.603979   26.139800   47.062417
  H    -27.016018   24.431124   47.323465
  H    -25.216806   22.759724   48.513531

 Multiplicity           Mult            ....    1
 Number of Electrons    NEL             ....  102
 Basis Dimension        Dim             ....  149

ORBITAL ENERGIES
----------------

  NO   OCC          E(Eh)            E(eV)
   0   2.0000     -19.153065      -521.1814
   1   2.0000     -19.135866      -520.7134
   2   2.0000     -19.135382      -520.7002
   3   2.0000     -19.135039      -520.6909
   4   2.0000     -10.278582      -279.6944
   5   2.0000     -10.239607      -278.6339
   6   2.0000     -10.235141      -278.5124
   7   2.0000     -10.228377      -278.3283
   8   2.0000     -10.227496      -278.3043
   9   2.0000     -10.226644      -278.2811
  10   2.0000     -10.192748      -277.3588
  11   2.0000     -10.187256      -277.2093
  12   2.0000     -10.185793      -277.1695
  13   2.0000      -1.055337       -28.7172
  14   2.0000      -1.032200       -28.0876
  15   2.0000      -1.002654       -27.2836
  16   2.0000      -0.990312       -26.9478
  17   2.0000      -0.792612       -21.5681
  18   2.0000      -0.780542       -21.2396
  19   2.0000      -0.765606       -20.8332
  20   2.0000      -0.734901       -19.9977
  21   2.0000      -0.671858       -18.2822
  22   2.0000      -0.605443       -16.4750
  23   2.0000      -0.601984       -16.3808
  24   2.0000      -0.597513       -16.2592
  25   2.0000      -0.571191       -15.5429
  26   2.0000      -0.522637       -14.2217
  27   2.0000      -0.511541       -13.9197
  28   2.0000      -0.500015       -13.6061
  29   2.0000      -0.490859       -13.3569
  30   2.0000      -0.473573       -12.8866
  31   2.0000      -0.460759       -12.5379
  32   2.0000      -0.449724       -12.2376
  33   2.0000      -0.437052       -11.8928
  34   2.0000      -0.421998       -11.4832
  35   2.0000      -0.414973       -11.2920
  36   2.0000      -0.396305       -10.7840
  37   2.0000      -0.389939       -10.6108
  38   2.0000      -0.375814       -10.2264
  39   2.0000      -0.369057       -10.0425
  40   2.0000      -0.362243        -9.8571
  41   2.0000      -0.355877        -9.6839
  42   2.0000      -0.351551        -9.5662
  43   2.0000      -0.332555        -9.0493
  44   2.0000      -0.328171        -8.9300
  45   2.0000      -0.309378        -8.4186
  46   2.0000      -0.298204        -8.1146
  47   2.0000      -0.268184        -7.2977
  48   2.0000      -0.266022        -7.2388
  49   2.0000      -0.259125        -7.0511
  50   2.0000      -0.230419        -6.2700
  51   0.0000       0.068752         1.8708
  52   0.0000       0.077741         2.1154
  53   0.0000       0.087352         2.3770
  54   0.0000       0.097196         2.6448
  55   0.0000       0.105362         2.8671

MULLIKEN ATOMIC CHARGES
-----------------------
   0 C :    0.297280
   1 C :   -0.255463
   2 C :   -0.306750
   3 C :   -0.021437
   4 O :   -0.513588
   5 H :    0.161020
   6 H :    0.144316
   7 H :    0.163010
   8 H :    0.148304
   9 H :    0.154219
  10 H :    0.142615
  11 H :    0.153889
  12 C :   -0.010846
  13 H :    0.146643
  14 H :    0.135159
  15 O :   -0.523745
  16 C :    0.069099
  17 C :    0.077089
  18 C :   -0.295408
  19 C :   -0.028324
  20 O :   -0.511505
  21 H :    0.168794
  22 O :   -0.603229
  23 H :    0.147980
  24 H :    0.163269
  25 H :    0.139316
  26 H :    0.147836
  27 H :    0.144724
  28 H :    0.365731
Sum of atomic charges:   -0.0000000

LOEWDIN ATOMIC CHARGES
----------------------
   0 C :    0.182641
   1 C :   -0.220025
   2 C :   -0.219934
   3 C :   -0.033913
   4 O :   -0.320851
   5 H :    0.106557
   6 H :    0.113759
   7 H :    0.126978
   8 H :    0.117870
   9 H :    0.114216
  10 H :    0.100210
  11 H :    0.108327
  12 C :   -0.044107
  13 H :    0.108248
  14 H :    0.102052
  15 O :   -0.329498
  16 C :    0.010507
  17 C :    0.034563
  18 C :   -0.241507
  19 C :   -0.038738
  20 O :   -0.322779
  21 H :    0.120048
  22 O :   -0.415286
  23 H :    0.113248
  24 H :    0.126710
  25 H :    0.110474
  26 H :    0.105023
  27 H :    0.101586
  28 H :    0.283619

  Mayer bond orders larger than 0.100000
B(  0-C ,  1-C ) :   0.9296 B(  0-C ,  4-O ) :   0.9053 B(  0-C ,  5-H ) :   0.9281
B(  0-C , 15-O ) :   0.8505 B(  1-C ,  2-C ) :   0.9533 B(  1-C ,  6-H ) :   0.9353
B(  1-C ,  7-H ) :   0.9358 B(  2-C ,  3-C ) :   0.9522 B(  2-C ,  8-H ) :   0.9448
B(  2-C ,  9-H ) :   0.9455 B(  3-C ,  4-O ) :   0.8302 B(  3-C , 10-H ) :   0.9313
B(  3-C , 11-H ) :   0.9405 B( 12-C , 13-H ) :   0.9014 B( 12-C , 14-H ) :   0.9340
B( 12-C , 15-O ) :   0.8533 B( 12-C , 16-C ) :   0.8864 B( 16-C , 17-C ) :   0.8981
B( 16-C , 20-O ) :   0.8621 B( 16-C , 21-H ) :   0.9261 B( 17-C , 18-C ) :   0.9118
B( 17-C , 22-O ) :   0.8919 B( 17-C , 23-H ) :   0.9338 B( 18-C , 19-C ) :   0.9393
B( 18-C , 24-H ) :   0.9367 B( 18-C , 25-H ) :   0.9348 B( 19-C , 20-O ) :   0.8535
B( 19-C , 26-H ) :   0.9340 B( 19-C , 27-H ) :   0.9375 B( 22-O , 28-H ) :   0.7936

FINAL SINGLE POINT ENERGY      -652.857659455430

DIPOLE MOMENT
-------------
                                X             Y             Z
Electronic contribution:     -0.96845      -5.34841      -1.85717
Nuclear contribution   :      1.21695       6.64289       2.21972
                        -----------------------------------------
Total Dipole Moment    :      0.24850       1.29448       0.36256
                        -----------------------------------------
Magnitude (a.u.)       :      1.36707
Magnitude (Debye)      :      3.47481

Rotational constants in cm-1:     0.059174     0.012629     0.011864
Rotational constants in MHz :  1773.984731   378.618435   355.680865

                             ****ORCA TERMINATED NORMALLY****
TOTAL RUN TIME: 0 days 0 hours 23 minutes 18 seconds 714 msec
