                         Program Version 4.2.0 -  RELEASE  -
|  1> # Test redundant internal optimization
|  2> #
|  3> ! RKS B3LYP  Opt TightSCF SmallPrint
|  4>
|  5> %basis
|  6>         Basis "6-31G"
|  7> end
|  8>
|  9> %geom
| 10> Constraints
| 11> { D 4  0  15  12  330.0   C } # D for Dihedral angle
| 12> { D 0  15  12  16  225.0   C } # D for Dihedral angle
| 13> { D 0  4  3  2   C } # D for Dihedral angle
| 14> { D 4  3  2  1   C } # D for Dihedral angle
| 15> { D 3  2  1  0   C } # D for Dihedral angle
| 16> { D 2  1  0  4   C } # D for Dihedral angle
| 17> { D 1  0  4  3   C } # D for Dihedral angle
| 18> { D 16  20  19  18   C } # D for Dihedral angle
| 19> { D 20  19  18  17   C } # D for Dihedral angle
| 20> { D 19  18  17  16   C } # D for Dihedral angle
| 21> { D 18  17  16  20   C } # D for Dihedral angle
| 22> { D 17  16  20  19   C } # D for Dihedral angle
| 23> { D 15  12  16  20   C } # D for Dihedral angle
| 24> end
| 25> end
| 26>
| 27>
| 28> #%pal
| 29> #nprocs 8
| 30> #end
| 31>
| 32> * xyz 0 1
| 33> C  -21.048   26.222   46.251
| 34> C  -20.361   27.558   45.944
| 35> C  -20.329   28.222   47.341
| 36> C  -20.110   27.022   48.296
| 37> O  -20.473   25.807   47.535
| 38> H  -20.833   25.428   45.533
| 39> H  -19.344   27.382   45.576
| 40> H  -20.898   28.157   45.201
| 41> H  -19.543   28.978   47.434
| 42> H  -21.289   28.710   47.548
| 43> H  -20.733   27.082   49.195
| 44> H  -19.064   26.913   48.597
| 45> C  -23.271   25.476   47.424
| 46> H  -22.576   24.679   47.716
| 47> H  -23.533   26.048   48.323
| 48> O  -22.586   26.394   46.375
| 49> C  -24.571   24.816   46.887
| 50> C  -24.272   23.859   45.728
| 51> C  -23.764   22.605   46.481
| 52> C  -24.621   22.599   47.772
| 53> O  -25.175   23.962   47.915
| 54> H  -25.298   25.597   46.653
| 55> H  -25.194   23.633   45.180
| 56> O  -23.231   24.422   44.724
| 57> H  -23.879   21.686   45.899
| 58> H  -22.701   22.718   46.723
| 59> H  -24.034   22.354   48.663
| 60> H  -25.468   21.911   47.707
| 61> H  -22.299   24.655   45.252
| 62> *
| 63>
| 64>                          ****END OF INPUT****
 Total Charge           Charge          ....    0
 Multiplicity           Mult            ....    1
 Number of Electrons    NEL             ....  102
FINAL SINGLE POINT ENERGY      -652.824240704079
FINAL SINGLE POINT ENERGY      -652.850546800616
FINAL SINGLE POINT ENERGY      -652.857192511946
FINAL SINGLE POINT ENERGY      -652.860036341736
FINAL SINGLE POINT ENERGY      -652.861358596227
FINAL SINGLE POINT ENERGY      -652.862638845555
FINAL SINGLE POINT ENERGY      -652.863973456603
FINAL SINGLE POINT ENERGY      -652.865008172394
FINAL SINGLE POINT ENERGY      -652.865816448408
FINAL SINGLE POINT ENERGY      -652.866157985656
FINAL SINGLE POINT ENERGY      -652.866303833557
FINAL SINGLE POINT ENERGY      -652.866345359704
FINAL SINGLE POINT ENERGY      -652.866352505222
FINAL SINGLE POINT ENERGY      -652.866352641421
                    ***********************HURRAY********************

CARTESIAN COORDINATES (ANGSTROEM)
---------------------------------
  C    -21.016373   26.127728   46.343451
  C    -20.425694   27.485342   45.971242
  C    -20.403856   28.204118   47.337069
  C    -20.088626   27.068980   48.333194
  O    -20.400952   25.802507   47.603909
  H    -20.797066   25.294242   45.671479
  H    -19.412613   27.339422   45.579910
  H    -21.024465   28.007519   45.221739
  H    -19.661858   29.007367   47.376949
  H    -21.388445   28.635681   47.540384
  H    -20.693335   27.105563   49.242507
  H    -19.030626   27.013488   48.602522
  C    -23.164131   25.469108   47.462696
  H    -22.480997   24.711707   47.854299
  H    -23.456489   26.128436   48.285358
  O    -22.476203   26.275491   46.434551
  C    -24.416180   24.831185   46.850159
  C    -24.162403   23.839081   45.704519
  C    -23.750058   22.557321   46.484132
  C    -24.623471   22.625018   47.755319
  O    -25.090651   24.034903   47.873890
  H    -25.118053   25.617722   46.556110
  H    -25.109283   23.662867   45.177732
  O    -23.157747   24.239810   44.744119
  H    -23.922105   21.648740   45.900369
  H    -22.680807   22.616242   46.710889
  H    -24.080067   22.354265   48.666046
  H    -25.521611   22.004619   47.683588
  H    -22.943836   25.186528   44.904867

 Multiplicity           Mult            ....    1
 Number of Electrons    NEL             ....  102
 Basis Dimension        Dim             ....  149

ORBITAL ENERGIES
----------------

  NO   OCC          E(Eh)            E(eV)
   0   2.0000     -19.156997      -521.2884
   1   2.0000     -19.156726      -521.2810
   2   2.0000     -19.138703      -520.7906
   3   2.0000     -19.122010      -520.3363
   4   2.0000     -10.287374      -279.9337
   5   2.0000     -10.236382      -278.5461
   6   2.0000     -10.231730      -278.4195
   7   2.0000     -10.231587      -278.4156
   8   2.0000     -10.228586      -278.3340
   9   2.0000     -10.225287      -278.2442
  10   2.0000     -10.194005      -277.3930
  11   2.0000     -10.193051      -277.3670
  12   2.0000     -10.179295      -276.9927
  13   2.0000      -1.063791       -28.9472
  14   2.0000      -1.025521       -27.9058
  15   2.0000      -1.005027       -27.3482
  16   2.0000      -0.994605       -27.0646
  17   2.0000      -0.797723       -21.7072
  18   2.0000      -0.772532       -21.0217
  19   2.0000      -0.766143       -20.8478
  20   2.0000      -0.735487       -20.0136
  21   2.0000      -0.674747       -18.3608
  22   2.0000      -0.609069       -16.5736
  23   2.0000      -0.597752       -16.2657
  24   2.0000      -0.594530       -16.1780
  25   2.0000      -0.573868       -15.6158
  26   2.0000      -0.525232       -14.2923
  27   2.0000      -0.517798       -14.0900
  28   2.0000      -0.500096       -13.6083
  29   2.0000      -0.491521       -13.3750
  30   2.0000      -0.471905       -12.8412
  31   2.0000      -0.456398       -12.4192
  32   2.0000      -0.443077       -12.0567
  33   2.0000      -0.434380       -11.8201
  34   2.0000      -0.425752       -11.5853
  35   2.0000      -0.413186       -11.2434
  36   2.0000      -0.408795       -11.1239
  37   2.0000      -0.385588       -10.4924
  38   2.0000      -0.379490       -10.3265
  39   2.0000      -0.368163       -10.0182
  40   2.0000      -0.364913        -9.9298
  41   2.0000      -0.358675        -9.7600
  42   2.0000      -0.352756        -9.5990
  43   2.0000      -0.338677        -9.2159
  44   2.0000      -0.334488        -9.1019
  45   2.0000      -0.311179        -8.4676
  46   2.0000      -0.290901        -7.9158
  47   2.0000      -0.274555        -7.4710
  48   2.0000      -0.270693        -7.3659
  49   2.0000      -0.252157        -6.8615
  50   2.0000      -0.240890        -6.5549
  51   0.0000       0.059862         1.6289
  52   0.0000       0.077423         2.1068
  53   0.0000       0.095460         2.5976
  54   0.0000       0.100004         2.7213
  55   0.0000       0.105798         2.8789

MULLIKEN ATOMIC CHARGES
-----------------------
   0 C :    0.283310
   1 C :   -0.258761
   2 C :   -0.302387
   3 C :   -0.013797
   4 O :   -0.512064
   5 H :    0.168225
   6 H :    0.150417
   7 H :    0.160885
   8 H :    0.147932
   9 H :    0.162167
  10 H :    0.151100
  11 H :    0.152142
  12 C :   -0.013041
  13 H :    0.171115
  14 H :    0.153849
  15 O :   -0.564801
  16 C :    0.039901
  17 C :    0.118932
  18 C :   -0.304564
  19 C :   -0.017062
  20 O :   -0.519890
  21 H :    0.156439
  22 H :    0.142439
  23 O :   -0.638909
  24 H :    0.150054
  25 H :    0.158899
  26 H :    0.141993
  27 H :    0.148959
  28 H :    0.386518
Sum of atomic charges:    0.0000000

LOEWDIN ATOMIC CHARGES
----------------------
   0 C :    0.173264
   1 C :   -0.214937
   2 C :   -0.216729
   3 C :   -0.029193
   4 O :   -0.317077
   5 H :    0.107519
   6 H :    0.116951
   7 H :    0.126028
   8 H :    0.117603
   9 H :    0.119140
  10 H :    0.107157
  11 H :    0.108134
  12 C :   -0.046913
  13 H :    0.117385
  14 H :    0.110498
  15 O :   -0.354037
  16 C :    0.012989
  17 C :    0.039718
  18 C :   -0.231899
  19 C :   -0.031232
  20 O :   -0.322532
  21 H :    0.112216
  22 H :    0.100189
  23 O :   -0.434275
  24 H :    0.120472
  25 H :    0.117496
  26 H :    0.102298
  27 H :    0.105654
  28 H :    0.284112

  Mayer bond orders larger than 0.100000
B(  0-C ,  1-C ) :   0.9444 B(  0-C ,  4-O ) :   0.9161 B(  0-C ,  5-H ) :   0.9132
B(  0-C , 15-O ) :   0.8001 B(  1-C ,  2-C ) :   0.9523 B(  1-C ,  6-H ) :   0.9365
B(  1-C ,  7-H ) :   0.9356 B(  2-C ,  3-C ) :   0.9565 B(  2-C ,  8-H ) :   0.9442
B(  2-C ,  9-H ) :   0.9444 B(  3-C ,  4-O ) :   0.8241 B(  3-C , 10-H ) :   0.9349
B(  3-C , 11-H ) :   0.9402 B( 12-C , 13-H ) :   0.9139 B( 12-C , 14-H ) :   0.9318
B( 12-C , 15-O ) :   0.7847 B( 12-C , 16-C ) :   0.9023 B( 16-C , 17-C ) :   0.9167
B( 16-C , 20-O ) :   0.8573 B( 16-C , 21-H ) :   0.9289 B( 17-C , 18-C ) :   0.9152
B( 17-C , 22-H ) :   0.9243 B( 17-C , 23-O ) :   0.9144 B( 18-C , 19-C ) :   0.9420
B( 18-C , 24-H ) :   0.9447 B( 18-C , 25-H ) :   0.9395 B( 19-C , 20-O ) :   0.8335
B( 19-C , 26-H ) :   0.9344 B( 19-C , 27-H ) :   0.9380 B( 23-O , 28-H ) :   0.7331

FINAL SINGLE POINT ENERGY      -652.866352490454

DIPOLE MOMENT
-------------
                                X             Y             Z
Electronic contribution:     -2.59684      -1.19111      -1.17010
Nuclear contribution   :      3.28975       1.90011       1.55115
                        -----------------------------------------
Total Dipole Moment    :      0.69292       0.70900       0.38105
                        -----------------------------------------
Magnitude (a.u.)       :      1.06208
Magnitude (Debye)      :      2.69960

Rotational constants in cm-1:     0.055526     0.014398     0.013301
Rotational constants in MHz :  1664.614196   431.656037   398.756692

                             ****ORCA TERMINATED NORMALLY****
TOTAL RUN TIME: 0 days 1 hours 7 minutes 17 seconds 253 msec
