                         Program Version 4.2.0 -  RELEASE  -
|  1> # Test redundant internal optimization
|  2> #
|  3> ! RKS B3LYP  Opt TightSCF SmallPrint
|  4>
|  5> %basis
|  6>         Basis "6-31G"
|  7> end
|  8>
|  9> %geom
| 10> Constraints
| 11> { D 4  0  15  12  315.0   C } # D for Dihedral angle
| 12> { D 0  15  12  16  285.0   C } # D for Dihedral angle
| 13> { D 0  4  3  2   C } # D for Dihedral angle
| 14> { D 4  3  2  1   C } # D for Dihedral angle
| 15> { D 3  2  1  0   C } # D for Dihedral angle
| 16> { D 2  1  0  4   C } # D for Dihedral angle
| 17> { D 1  0  4  3   C } # D for Dihedral angle
| 18> { D 16  20  19  18   C } # D for Dihedral angle
| 19> { D 20  19  18  17   C } # D for Dihedral angle
| 20> { D 19  18  17  16   C } # D for Dihedral angle
| 21> { D 18  17  16  20   C } # D for Dihedral angle
| 22> { D 17  16  20  19   C } # D for Dihedral angle
| 23> { D 15  12  16  20   C } # D for Dihedral angle
| 24> end
| 25> end
| 26>
| 27>
| 28> #%pal
| 29> #nprocs 8
| 30> #end
| 31>
| 32> * xyz 0 1
| 33> C  -21.048   26.222   46.251
| 34> C  -20.361   27.558   45.944
| 35> C  -20.329   28.222   47.341
| 36> C  -20.110   27.022   48.296
| 37> O  -20.473   25.807   47.535
| 38> H  -20.833   25.428   45.533
| 39> H  -19.344   27.382   45.576
| 40> H  -20.898   28.157   45.201
| 41> H  -19.543   28.978   47.434
| 42> H  -21.289   28.710   47.548
| 43> H  -20.733   27.082   49.195
| 44> H  -19.064   26.913   48.597
| 45> C  -23.319   25.255   47.135
| 46> H  -22.764   25.015   48.051
| 47> H  -24.330   25.572   47.420
| 48> O  -22.586   26.394   46.375
| 49> C  -23.451   23.957   46.290
| 50> C  -24.140   24.234   44.949
| 51> C  -22.981   24.839   44.120
| 52> C  -21.743   24.057   44.625
| 53> O  -22.126   23.451   45.918
| 54> H  -23.931   23.185   46.893
| 55> O  -24.628   22.903   44.316
| 56> H  -24.997   24.910   45.036
| 57> H  -23.130   24.733   43.041
| 58> H  -22.879   25.909   44.341
| 59> H  -20.871   24.703   44.775
| 60> H  -21.464   23.238   43.955
| 61> H  -23.785   22.210   44.218
| 62> *
| 63>
| 64>                          ****END OF INPUT****
 Total Charge           Charge          ....    0
 Multiplicity           Mult            ....    1
 Number of Electrons    NEL             ....  102
FINAL SINGLE POINT ENERGY      -652.793694539465
FINAL SINGLE POINT ENERGY      -652.839370510103
FINAL SINGLE POINT ENERGY      -652.857967150899
FINAL SINGLE POINT ENERGY      -652.861507659131
FINAL SINGLE POINT ENERGY      -652.862103657596
FINAL SINGLE POINT ENERGY      -652.862231026033
FINAL SINGLE POINT ENERGY      -652.862270917152
FINAL SINGLE POINT ENERGY      -652.862289119591
FINAL SINGLE POINT ENERGY      -652.862294466474
                    ***********************HURRAY********************

CARTESIAN COORDINATES (ANGSTROEM)
---------------------------------
  C    -20.924077   26.376632   46.298361
  C    -20.371694   27.794342   46.151979
  C    -20.410356   28.299843   47.611795
  C    -20.080396   27.035121   48.432854
  O    -20.326328   25.884197   47.519780
  H    -20.636730   25.671753   45.521825
  H    -19.343836   27.742900   45.775454
  H    -20.972131   28.402192   45.471626
  H    -19.697765   29.109763   47.794826
  H    -21.414941   28.662892   47.846606
  H    -20.707221   26.921476   49.321220
  H    -19.027909   26.978099   48.725067
  C    -23.110824   25.388032   46.991032
  H    -22.612869   25.118307   47.928873
  H    -24.095191   25.809056   47.216721
  O    -22.369333   26.493779   46.390768
  C    -23.310231   24.098574   46.179862
  C    -24.143843   24.206016   44.894094
  C    -23.054543   24.528493   43.835909
  C    -21.832295   23.719598   44.337714
  O    -22.096233   23.397699   45.761104
  H    -23.822581   23.414483   46.870264
  O    -24.827486   22.952175   44.611558
  H    -24.931433   24.958194   44.942985
  H    -23.379431   24.236828   42.834281
  H    -22.846827   25.603159   43.849319
  H    -20.889984   24.267931   44.253623
  H    -21.717079   22.764450   43.815331
  H    -24.196432   22.210014   44.724166

 Multiplicity           Mult            ....    1
 Number of Electrons    NEL             ....  102
 Basis Dimension        Dim             ....  149

ORBITAL ENERGIES
----------------

  NO   OCC          E(Eh)            E(eV)
   0   2.0000     -19.145192      -520.9672
   1   2.0000     -19.144333      -520.9438
   2   2.0000     -19.142422      -520.8918
   3   2.0000     -19.135736      -520.7098
   4   2.0000     -10.276562      -279.6395
   5   2.0000     -10.237441      -278.5749
   6   2.0000     -10.233061      -278.4557
   7   2.0000     -10.230478      -278.3855
   8   2.0000     -10.227683      -278.3094
   9   2.0000     -10.226406      -278.2746
  10   2.0000     -10.185725      -277.1677
  11   2.0000     -10.185373      -277.1581
  12   2.0000     -10.184046      -277.1220
  13   2.0000      -1.053792       -28.6751
  14   2.0000      -1.035025       -28.1645
  15   2.0000      -1.004472       -27.3331
  16   2.0000      -0.991244       -26.9731
  17   2.0000      -0.790487       -21.5102
  18   2.0000      -0.776646       -21.1336
  19   2.0000      -0.767602       -20.8875
  20   2.0000      -0.732458       -19.9312
  21   2.0000      -0.674650       -18.3581
  22   2.0000      -0.605653       -16.4807
  23   2.0000      -0.601470       -16.3668
  24   2.0000      -0.597875       -16.2690
  25   2.0000      -0.567650       -15.4465
  26   2.0000      -0.525683       -14.3046
  27   2.0000      -0.506985       -13.7958
  28   2.0000      -0.496675       -13.5152
  29   2.0000      -0.485285       -13.2053
  30   2.0000      -0.469908       -12.7868
  31   2.0000      -0.461440       -12.5564
  32   2.0000      -0.448441       -12.2027
  33   2.0000      -0.440630       -11.9902
  34   2.0000      -0.417282       -11.3548
  35   2.0000      -0.412066       -11.2129
  36   2.0000      -0.397776       -10.8240
  37   2.0000      -0.391851       -10.6628
  38   2.0000      -0.375053       -10.2057
  39   2.0000      -0.367072        -9.9885
  40   2.0000      -0.363908        -9.9024
  41   2.0000      -0.357101        -9.7172
  42   2.0000      -0.345356        -9.3976
  43   2.0000      -0.331581        -9.0228
  44   2.0000      -0.330250        -8.9866
  45   2.0000      -0.306389        -8.3373
  46   2.0000      -0.294663        -8.0182
  47   2.0000      -0.274199        -7.4613
  48   2.0000      -0.266293        -7.2462
  49   2.0000      -0.258201        -7.0260
  50   2.0000      -0.239424        -6.5151
  51   0.0000       0.064086         1.7439
  52   0.0000       0.084432         2.2975
  53   0.0000       0.097013         2.6399
  54   0.0000       0.102986         2.8024
  55   0.0000       0.108216         2.9447

MULLIKEN ATOMIC CHARGES
-----------------------
   0 C :    0.292189
   1 C :   -0.261786
   2 C :   -0.296219
   3 C :   -0.010643
   4 O :   -0.506223
   5 H :    0.153814
   6 H :    0.143775
   7 H :    0.156190
   8 H :    0.141277
   9 H :    0.160276
  10 H :    0.145635
  11 H :    0.145945
  12 C :   -0.020847
  13 H :    0.164509
  14 H :    0.144831
  15 O :   -0.532910
  16 C :    0.071418
  17 C :    0.078069
  18 C :   -0.290760
  19 C :   -0.034027
  20 O :   -0.520034
  21 H :    0.155444
  22 O :   -0.604425
  23 H :    0.155910
  24 H :    0.154529
  25 H :    0.162299
  26 H :    0.143542
  27 H :    0.145006
  28 H :    0.363216
Sum of atomic charges:   -0.0000000

LOEWDIN ATOMIC CHARGES
----------------------
   0 C :    0.174646
   1 C :   -0.215904
   2 C :   -0.216127
   3 C :   -0.029867
   4 O :   -0.318669
   5 H :    0.100417
   6 H :    0.113283
   7 H :    0.123861
   8 H :    0.113797
   9 H :    0.118209
  10 H :    0.103833
  11 H :    0.104578
  12 C :   -0.045661
  13 H :    0.114145
  14 H :    0.114548
  15 O :   -0.335114
  16 C :    0.004249
  17 C :    0.036223
  18 C :   -0.241004
  19 C :   -0.038297
  20 O :   -0.324884
  21 H :    0.116493
  22 O :   -0.417117
  23 H :    0.117675
  24 H :    0.122837
  25 H :    0.122811
  26 H :    0.097838
  27 H :    0.101284
  28 H :    0.281917

  Mayer bond orders larger than 0.100000
B(  0-C ,  1-C ) :   0.9451 B(  0-C ,  4-O ) :   0.9086 B(  0-C ,  5-H ) :   0.9014
B(  0-C , 15-O ) :   0.8408 B(  1-C ,  2-C ) :   0.9552 B(  1-C ,  6-H ) :   0.9398
B(  1-C ,  7-H ) :   0.9355 B(  2-C ,  3-C ) :   0.9544 B(  2-C ,  8-H ) :   0.9453
B(  2-C ,  9-H ) :   0.9445 B(  3-C ,  4-O ) :   0.8355 B(  3-C , 10-H ) :   0.9356
B(  3-C , 11-H ) :   0.9405 B( 12-C , 13-H ) :   0.9132 B( 12-C , 14-H ) :   0.9307
B( 12-C , 15-O ) :   0.8683 B( 12-C , 16-C ) :   0.8861 B( 16-C , 17-C ) :   0.9048
B( 16-C , 20-O ) :   0.8667 B( 16-C , 21-H ) :   0.9154 B( 17-C , 18-C ) :   0.9213
B( 17-C , 22-O ) :   0.8906 B( 17-C , 23-H ) :   0.9346 B( 18-C , 19-C ) :   0.9416
B( 18-C , 24-H ) :   0.9375 B( 18-C , 25-H ) :   0.9260 B( 19-C , 20-O ) :   0.8458
B( 19-C , 26-H ) :   0.9181 B( 19-C , 27-H ) :   0.9379 B( 22-O , 28-H ) :   0.7961

FINAL SINGLE POINT ENERGY      -652.862294229831

DIPOLE MOMENT
-------------
                                X             Y             Z
Electronic contribution:     -2.26899      -4.71003       0.23093
Nuclear contribution   :      2.78212       5.59077      -0.29903
                        -----------------------------------------
Total Dipole Moment    :      0.51313       0.88073      -0.06810
                        -----------------------------------------
Magnitude (a.u.)       :      1.02158
Magnitude (Debye)      :      2.59666

Rotational constants in cm-1:     0.063502     0.014028     0.013832
Rotational constants in MHz :  1903.735383   420.556268   414.665548

                             ****ORCA TERMINATED NORMALLY****
TOTAL RUN TIME: 0 days 0 hours 27 minutes 16 seconds 559 msec
