                         Program Version 4.2.0 -  RELEASE  -
|  1> # Test redundant internal optimization
|  2> #
|  3> ! RKS B3LYP  Opt TightSCF SmallPrint
|  4>
|  5> %basis
|  6>         Basis "6-31G"
|  7> end
|  8>
|  9> %geom
| 10> Constraints
| 11> { D 4  0  15  12  60.0   C } # D for Dihedral angle
| 12> { D 0  15  12  16  180.0   C } # D for Dihedral angle
| 13> { D 0  4  3  2   C } # D for Dihedral angle
| 14> { D 4  3  2  1   C } # D for Dihedral angle
| 15> { D 3  2  1  0   C } # D for Dihedral angle
| 16> { D 2  1  0  4   C } # D for Dihedral angle
| 17> { D 1  0  4  3   C } # D for Dihedral angle
| 18> { D 16  20  19  18   C } # D for Dihedral angle
| 19> { D 20  19  18  17   C } # D for Dihedral angle
| 20> { D 19  18  17  16   C } # D for Dihedral angle
| 21> { D 18  17  16  20   C } # D for Dihedral angle
| 22> { D 17  16  20  19   C } # D for Dihedral angle
| 23> { D 15  12  16  20   C } # D for Dihedral angle
| 24> end
| 25> end
| 26>
| 27>
| 28> #%pal
| 29> #nprocs 8
| 30> #end
| 31>
| 32> * xyz 0 1
| 33> C  -21.048   26.222   46.251
| 34> C  -20.361   27.558   45.944
| 35> C  -20.329   28.222   47.341
| 36> C  -20.110   27.022   48.296
| 37> O  -20.473   25.807   47.535
| 38> H  -20.833   25.428   45.533
| 39> H  -19.344   27.382   45.576
| 40> H  -20.898   28.157   45.201
| 41> H  -19.543   28.978   47.434
| 42> H  -21.289   28.710   47.548
| 43> H  -20.733   27.082   49.195
| 44> H  -19.064   26.913   48.597
| 45> C  -23.051   27.452   47.413
| 46> H  -22.677   27.172   48.406
| 47> H  -22.647   28.441   47.161
| 48> O  -22.586   26.394   46.375
| 49> C  -24.597   27.578   47.491
| 50> C  -25.017   28.708   48.438
| 51> C  -24.806   29.956   47.549
| 52> C  -25.193   29.452   46.137
| 53> O  -25.146   27.975   46.190
| 54> H  -25.024   26.602   47.734
| 55> O  -26.514   28.554   48.821
| 56> H  -24.426   28.738   49.360
| 57> H  -25.411   30.811   47.868
| 58> H  -23.753   30.263   47.574
| 59> H  -24.504   29.805   45.361
| 60> H  -26.213   29.732   45.859
| 61> H  -27.125   28.522   47.912
| 62> *
| 63>
| 64>                          ****END OF INPUT****
 Total Charge           Charge          ....    0
 Multiplicity           Mult            ....    1
 Number of Electrons    NEL             ....  102
FINAL SINGLE POINT ENERGY      -652.809392357090
FINAL SINGLE POINT ENERGY      -652.837576594672
FINAL SINGLE POINT ENERGY      -652.852450549476
FINAL SINGLE POINT ENERGY      -652.854952551571
FINAL SINGLE POINT ENERGY      -652.855382797683
FINAL SINGLE POINT ENERGY      -652.855443239808
FINAL SINGLE POINT ENERGY      -652.855449611137
FINAL SINGLE POINT ENERGY      -652.855448613587
                    ***********************HURRAY********************

CARTESIAN COORDINATES (ANGSTROEM)
---------------------------------
  C    -21.228419   26.345971   46.415585
  C    -20.305669   27.480128   45.942587
  C    -19.890389   28.145596   47.288731
  C    -19.808450   26.930970   48.249714
  O    -20.568103   25.836701   47.599952
  H    -21.266517   25.512382   45.712974
  H    -19.435848   27.040279   45.444122
  H    -20.802830   28.164105   45.249802
  H    -18.929843   28.665656   47.215757
  H    -20.634219   28.874846   47.617861
  H    -20.240398   27.129865   49.235478
  H    -18.782534   26.573227   48.377630
  C    -23.078815   27.622274   47.550656
  H    -22.786317   27.323085   48.566804
  H    -22.658703   28.613435   47.335887
  O    -22.626019   26.645227   46.581617
  C    -24.601267   27.674345   47.446663
  C    -25.259681   28.699876   48.381683
  C    -25.112869   30.011411   47.565686
  C    -25.280832   29.532234   46.102630
  O    -25.053690   28.067057   46.110378
  H    -24.993375   26.667290   47.617327
  O    -26.655584   28.366806   48.612105
  H    -24.807479   28.754194   49.372942
  H    -25.869719   30.739167   47.867981
  H    -24.123694   30.454470   47.730952
  H    -24.567480   30.000907   45.417917
  H    -26.292223   29.700557   45.719825
  H    -27.054035   28.063941   47.768753

 Multiplicity           Mult            ....    1
 Number of Electrons    NEL             ....  102
 Basis Dimension        Dim             ....  149

ORBITAL ENERGIES
----------------

  NO   OCC          E(Eh)            E(eV)
   0   2.0000     -19.142824      -520.9027
   1   2.0000     -19.142504      -520.8940
   2   2.0000     -19.141537      -520.8677
   3   2.0000     -19.139613      -520.8153
   4   2.0000     -10.277306      -279.6597
   5   2.0000     -10.244842      -278.7763
   6   2.0000     -10.235093      -278.5110
   7   2.0000     -10.234936      -278.5068
   8   2.0000     -10.231642      -278.4171
   9   2.0000     -10.231548      -278.4146
  10   2.0000     -10.195483      -277.4332
  11   2.0000     -10.192176      -277.3432
  12   2.0000     -10.190765      -277.3048
  13   2.0000      -1.053775       -28.6747
  14   2.0000      -1.037216       -28.2241
  15   2.0000      -1.007765       -27.4227
  16   2.0000      -0.995876       -27.0992
  17   2.0000      -0.790526       -21.5113
  18   2.0000      -0.786903       -21.4127
  19   2.0000      -0.772855       -21.0304
  20   2.0000      -0.734098       -19.9758
  21   2.0000      -0.679574       -18.4921
  22   2.0000      -0.607072       -16.5193
  23   2.0000      -0.605681       -16.4814
  24   2.0000      -0.598977       -16.2990
  25   2.0000      -0.578888       -15.7523
  26   2.0000      -0.526989       -14.3401
  27   2.0000      -0.508031       -13.8242
  28   2.0000      -0.501224       -13.6390
  29   2.0000      -0.493351       -13.4248
  30   2.0000      -0.481940       -13.1142
  31   2.0000      -0.462861       -12.5951
  32   2.0000      -0.455169       -12.3858
  33   2.0000      -0.436189       -11.8693
  34   2.0000      -0.428292       -11.6544
  35   2.0000      -0.416657       -11.3378
  36   2.0000      -0.403997       -10.9933
  37   2.0000      -0.395223       -10.7546
  38   2.0000      -0.383594       -10.4381
  39   2.0000      -0.373614       -10.1666
  40   2.0000      -0.362552        -9.8655
  41   2.0000      -0.361630        -9.8405
  42   2.0000      -0.352256        -9.5854
  43   2.0000      -0.331551        -9.0219
  44   2.0000      -0.318949        -8.6790
  45   2.0000      -0.311257        -8.4697
  46   2.0000      -0.303270        -8.2524
  47   2.0000      -0.272373        -7.4116
  48   2.0000      -0.265573        -7.2266
  49   2.0000      -0.251473        -6.8429
  50   2.0000      -0.246094        -6.6966
  51   0.0000       0.058179         1.5831
  52   0.0000       0.074198         2.0190
  53   0.0000       0.081010         2.2044
  54   0.0000       0.098379         2.6770
  55   0.0000       0.102236         2.7820

MULLIKEN ATOMIC CHARGES
-----------------------
   0 C :    0.300321
   1 C :   -0.274699
   2 C :   -0.312823
   3 C :   -0.012121
   4 O :   -0.507126
   5 H :    0.169032
   6 H :    0.155295
   7 H :    0.153359
   8 H :    0.145687
   9 H :    0.141467
  10 H :    0.141784
  11 H :    0.149179
  12 C :    0.005794
  13 H :    0.139130
  14 H :    0.122430
  15 O :   -0.509382
  16 C :    0.059148
  17 C :    0.079203
  18 C :   -0.295351
  19 C :   -0.028135
  20 O :   -0.507651
  21 H :    0.175341
  22 O :   -0.601513
  23 H :    0.149587
  24 H :    0.165658
  25 H :    0.136230
  26 H :    0.147319
  27 H :    0.145961
  28 H :    0.366875
Sum of atomic charges:   -0.0000000

LOEWDIN ATOMIC CHARGES
----------------------
   0 C :    0.174931
   1 C :   -0.228841
   2 C :   -0.223776
   3 C :   -0.034343
   4 O :   -0.322556
   5 H :    0.115345
   6 H :    0.121775
   7 H :    0.120911
   8 H :    0.115570
   9 H :    0.105553
  10 H :    0.100223
  11 H :    0.105207
  12 C :   -0.043274
  13 H :    0.102405
  14 H :    0.088279
  15 O :   -0.306266
  16 C :    0.018740
  17 C :    0.036094
  18 C :   -0.241835
  19 C :   -0.038345
  20 O :   -0.318625
  21 H :    0.124004
  22 O :   -0.413568
  23 H :    0.114362
  24 H :    0.127670
  25 H :    0.108830
  26 H :    0.104255
  27 H :    0.102776
  28 H :    0.284502

  Mayer bond orders larger than 0.100000
B(  0-C ,  1-C ) :   0.9159 B(  0-C ,  4-O ) :   0.8952 B(  0-C ,  5-H ) :   0.9359
B(  0-C , 15-O ) :   0.9031 B(  1-C ,  2-C ) :   0.9559 B(  1-C ,  6-H ) :   0.9352
B(  1-C ,  7-H ) :   0.9366 B(  2-C ,  3-C ) :   0.9471 B(  2-C ,  8-H ) :   0.9453
B(  2-C ,  9-H ) :   0.9405 B(  3-C ,  4-O ) :   0.8472 B(  3-C , 10-H ) :   0.9331
B(  3-C , 11-H ) :   0.9388 B( 12-C , 13-H ) :   0.9090 B( 12-C , 14-H ) :   0.9051
B( 12-C , 15-O ) :   0.8403 B( 12-C , 16-C ) :   0.9004 B( 16-C , 17-C ) :   0.9015
B( 16-C , 20-O ) :   0.8677 B( 16-C , 21-H ) :   0.9215 B( 17-C , 18-C ) :   0.9113
B( 17-C , 22-O ) :   0.8950 B( 17-C , 23-H ) :   0.9330 B( 18-C , 19-C ) :   0.9388
B( 18-C , 24-H ) :   0.9372 B( 18-C , 25-H ) :   0.9345 B( 19-C , 20-O ) :   0.8526
B( 19-C , 26-H ) :   0.9341 B( 19-C , 27-H ) :   0.9380 B( 22-O , 28-H ) :   0.7927

FINAL SINGLE POINT ENERGY      -652.855446542551

DIPOLE MOMENT
-------------
                                X             Y             Z
Electronic contribution:     -4.45038      -5.65304      -0.66561
Nuclear contribution   :      5.41297       7.14704       0.63191
                        -----------------------------------------
Total Dipole Moment    :      0.96259       1.49400      -0.03370
                        -----------------------------------------
Magnitude (a.u.)       :      1.77757
Magnitude (Debye)      :      4.51823

Rotational constants in cm-1:     0.056067     0.012656     0.012402
Rotational constants in MHz :  1680.849106   379.412025   371.810353

                             ****ORCA TERMINATED NORMALLY****
TOTAL RUN TIME: 0 days 1 hours 44 minutes 28 seconds 90 msec
