                         Program Version 4.2.0 -  RELEASE  -
|  1> # Test redundant internal optimization
|  2> #
|  3> ! RKS B3LYP  Opt TightSCF SmallPrint
|  4>
|  5> %basis
|  6>         Basis "6-31G"
|  7> end
|  8>
|  9> %geom
| 10> Constraints
| 11> { D 4  0  15  12  195.0   C } # D for Dihedral angle
| 12> { D 0  15  12  16  255.0   C } # D for Dihedral angle
| 13> { D 0  4  3  2   C } # D for Dihedral angle
| 14> { D 4  3  2  1   C } # D for Dihedral angle
| 15> { D 3  2  1  0   C } # D for Dihedral angle
| 16> { D 2  1  0  4   C } # D for Dihedral angle
| 17> { D 1  0  4  3   C } # D for Dihedral angle
| 18> { D 16  20  19  18   C } # D for Dihedral angle
| 19> { D 20  19  18  17   C } # D for Dihedral angle
| 20> { D 19  18  17  16   C } # D for Dihedral angle
| 21> { D 18  17  16  20   C } # D for Dihedral angle
| 22> { D 17  16  20  19   C } # D for Dihedral angle
| 23> { D 15  12  16  20   C } # D for Dihedral angle
| 24> end
| 25> end
| 26>
| 27>
| 28> #%pal
| 29> #nprocs 8
| 30> #end
| 31>
| 32> * xyz 0 1
| 33> C  -21.048   26.222   46.251
| 34> C  -20.361   27.558   45.944
| 35> C  -20.329   28.222   47.341
| 36> C  -20.110   27.022   48.296
| 37> O  -20.473   25.807   47.535
| 38> H  -20.833   25.428   45.533
| 39> H  -19.344   27.382   45.576
| 40> H  -20.898   28.157   45.201
| 41> H  -19.543   28.978   47.434
| 42> H  -21.289   28.710   47.548
| 43> H  -20.733   27.082   49.195
| 44> H  -19.064   26.913   48.597
| 45> C  -23.353   26.472   45.026
| 46> H  -22.701   26.117   44.218
| 47> H  -24.245   25.833   45.054
| 48> O  -22.586   26.394   46.375
| 49> C  -23.816   27.915   44.681
| 50> C  -24.661   28.513   45.812
| 51> C  -23.572   28.940   46.825
| 52> C  -22.402   29.392   45.915
| 53> O  -22.661   28.813   44.579
| 54> H  -24.305   27.910   43.706
| 55> H  -25.212   29.387   45.447
| 56> O  -25.679   27.506   46.412
| 57> H  -23.907   29.735   47.500
| 58> H  -23.273   28.083   47.440
| 59> H  -21.430   29.042   46.276
| 60> H  -22.364   30.479   45.793
| 61> H  -25.149   26.623   46.784
| 62> *
| 63>
| 64>                          ****END OF INPUT****
 Total Charge           Charge          ....    0
 Multiplicity           Mult            ....    1
 Number of Electrons    NEL             ....  102
FINAL SINGLE POINT ENERGY      -652.770150318123
FINAL SINGLE POINT ENERGY      -652.828450348713
FINAL SINGLE POINT ENERGY      -652.849529787997
FINAL SINGLE POINT ENERGY      -652.854978986179
FINAL SINGLE POINT ENERGY      -652.855785352285
FINAL SINGLE POINT ENERGY      -652.855940850736
FINAL SINGLE POINT ENERGY      -652.855970827514
FINAL SINGLE POINT ENERGY      -652.855977207817
FINAL SINGLE POINT ENERGY      -652.855978403781
                    ***********************HURRAY********************

CARTESIAN COORDINATES (ANGSTROEM)
---------------------------------
  C    -20.970088   26.129604   46.212592
  C    -20.194844   27.426128   45.990118
  C    -20.114782   28.006690   47.424462
  C    -19.980885   26.737878   48.294143
  O    -20.436124   25.616186   47.436464
  H    -20.806508   25.369899   45.439513
  H    -19.192430   27.172906   45.625205
  H    -20.675208   28.087597   45.265553
  H    -19.272679   28.693196   47.553869
  H    -21.033798   28.539421   47.678232
  H    -20.599180   26.761876   49.194838
  H    -18.945707   26.518414   48.571439
  C    -23.182339   26.487427   45.145674
  H    -22.587951   26.112113   44.299748
  H    -24.065120   25.844101   45.236866
  O    -22.417106   26.299605   46.376745
  C    -23.714706   27.877134   44.775571
  C    -24.766118   28.447028   45.746011
  C    -23.879386   29.265315   46.735965
  C    -22.762913   29.809970   45.821623
  O    -22.778629   28.976905   44.586188
  H    -24.172146   27.721537   43.788724
  H    -25.453213   29.101715   45.205956
  O    -25.611518   27.459436   46.375119
  H    -24.437165   30.055253   47.244773
  H    -23.471426   28.575807   47.484507
  H    -21.770166   29.770670   46.268735
  H    -22.960479   30.837292   45.498603
  H    -25.088385   26.933896   47.016764

 Multiplicity           Mult            ....    1
 Number of Electrons    NEL             ....  102
 Basis Dimension        Dim             ....  149

ORBITAL ENERGIES
----------------

  NO   OCC          E(Eh)            E(eV)
   0   2.0000     -19.149374      -521.0810
   1   2.0000     -19.146730      -521.0090
   2   2.0000     -19.144494      -520.9482
   3   2.0000     -19.143521      -520.9217
   4   2.0000     -10.281363      -279.7701
   5   2.0000     -10.242804      -278.7209
   6   2.0000     -10.237022      -278.5635
   7   2.0000     -10.234219      -278.4873
   8   2.0000     -10.233235      -278.4605
   9   2.0000     -10.227910      -278.3156
  10   2.0000     -10.190891      -277.3082
  11   2.0000     -10.190064      -277.2857
  12   2.0000     -10.182934      -277.0917
  13   2.0000      -1.054820       -28.7031
  14   2.0000      -1.035460       -28.1763
  15   2.0000      -1.017648       -27.6916
  16   2.0000      -0.996683       -27.1211
  17   2.0000      -0.788244       -21.4492
  18   2.0000      -0.780741       -21.2450
  19   2.0000      -0.772390       -21.0178
  20   2.0000      -0.735723       -20.0200
  21   2.0000      -0.684699       -18.6316
  22   2.0000      -0.611587       -16.6421
  23   2.0000      -0.605202       -16.4684
  24   2.0000      -0.596585       -16.2339
  25   2.0000      -0.573720       -15.6117
  26   2.0000      -0.528844       -14.3906
  27   2.0000      -0.511876       -13.9289
  28   2.0000      -0.501390       -13.6435
  29   2.0000      -0.489753       -13.3269
  30   2.0000      -0.473713       -12.8904
  31   2.0000      -0.465210       -12.6590
  32   2.0000      -0.443855       -12.0779
  33   2.0000      -0.440586       -11.9890
  34   2.0000      -0.429922       -11.6988
  35   2.0000      -0.418849       -11.3975
  36   2.0000      -0.407326       -11.0839
  37   2.0000      -0.396174       -10.7804
  38   2.0000      -0.381491       -10.3809
  39   2.0000      -0.376040       -10.2326
  40   2.0000      -0.359292        -9.7768
  41   2.0000      -0.356133        -9.6909
  42   2.0000      -0.355119        -9.6633
  43   2.0000      -0.335022        -9.1164
  44   2.0000      -0.317124        -8.6294
  45   2.0000      -0.314616        -8.5611
  46   2.0000      -0.306604        -8.3431
  47   2.0000      -0.275483        -7.4963
  48   2.0000      -0.266703        -7.2574
  49   2.0000      -0.261882        -7.1262
  50   2.0000      -0.240137        -6.5345
  51   0.0000       0.063223         1.7204
  52   0.0000       0.073113         1.9895
  53   0.0000       0.086396         2.3510
  54   0.0000       0.094604         2.5743
  55   0.0000       0.098723         2.6864

MULLIKEN ATOMIC CHARGES
-----------------------
   0 C :    0.306443
   1 C :   -0.298951
   2 C :   -0.308801
   3 C :   -0.002965
   4 O :   -0.504804
   5 H :    0.142766
   6 H :    0.144651
   7 H :    0.187063
   8 H :    0.144182
   9 H :    0.153767
  10 H :    0.150258
  11 H :    0.144055
  12 C :   -0.057648
  13 H :    0.137850
  14 H :    0.163570
  15 O :   -0.523317
  16 C :    0.104821
  17 C :    0.091519
  18 C :   -0.318553
  19 C :   -0.021589
  20 O :   -0.521408
  21 H :    0.150845
  22 H :    0.163576
  23 O :   -0.605282
  24 H :    0.151915
  25 H :    0.160994
  26 H :    0.144139
  27 H :    0.149376
  28 H :    0.371526
Sum of atomic charges:   -0.0000000

LOEWDIN ATOMIC CHARGES
----------------------
   0 C :    0.183597
   1 C :   -0.239438
   2 C :   -0.220798
   3 C :   -0.025398
   4 O :   -0.301795
   5 H :    0.096312
   6 H :    0.115935
   7 H :    0.133167
   8 H :    0.115763
   9 H :    0.110601
  10 H :    0.106865
  11 H :    0.103317
  12 C :   -0.056929
  13 H :    0.101717
  14 H :    0.119801
  15 O :   -0.349067
  16 C :    0.007293
  17 C :    0.036511
  18 C :   -0.241013
  19 C :   -0.031667
  20 O :   -0.321865
  21 H :    0.116485
  22 H :    0.116483
  23 O :   -0.407075
  24 H :    0.120450
  25 H :    0.116452
  26 H :    0.102198
  27 H :    0.104792
  28 H :    0.287305

  Mayer bond orders larger than 0.100000
B(  0-C ,  1-C ) :   0.9270 B(  0-C ,  4-O ) :   0.9388 B(  0-C ,  5-H ) :   0.9195
B(  0-C , 15-O ) :   0.8240 B(  1-C ,  2-C ) :   0.9541 B(  1-C ,  6-H ) :   0.9313
B(  1-C ,  7-H ) :   0.9044 B(  2-C ,  3-C ) :   0.9483 B(  2-C ,  8-H ) :   0.9453
B(  2-C ,  9-H ) :   0.9315 B(  3-C ,  4-O ) :   0.8358 B(  3-C , 10-H ) :   0.9354
B(  3-C , 11-H ) :   0.9392 B( 12-C , 13-H ) :   0.9231 B( 12-C , 14-H ) :   0.9120
B( 12-C , 15-O ) :   0.8612 B( 12-C , 16-C ) :   0.8914 B( 16-C , 17-C ) :   0.8829
B( 16-C , 20-O ) :   0.8667 B( 16-C , 21-H ) :   0.9196 B( 17-C , 18-C ) :   0.9284
B( 17-C , 22-H ) :   0.9364 B( 17-C , 23-O ) :   0.9075 B( 18-C , 19-C ) :   0.9463
B( 18-C , 24-H ) :   0.9407 B( 18-C , 25-H ) :   0.9273 B( 19-C , 20-O ) :   0.8315
B( 19-C , 26-H ) :   0.9159 B( 19-C , 27-H ) :   0.9386 B( 23-O , 28-H ) :   0.7886

FINAL SINGLE POINT ENERGY      -652.855977761999

DIPOLE MOMENT
-------------
                                X             Y             Z
Electronic contribution:     -2.83960      -3.85688      -1.44971
Nuclear contribution   :      3.44191       4.72922       1.56295
                        -----------------------------------------
Total Dipole Moment    :      0.60231       0.87233       0.11324
                        -----------------------------------------
Magnitude (a.u.)       :      1.06610
Magnitude (Debye)      :      2.70981

Rotational constants in cm-1:     0.043896     0.018024     0.016413
Rotational constants in MHz :  1315.959152   540.344154   492.040287

                             ****ORCA TERMINATED NORMALLY****
TOTAL RUN TIME: 0 days 0 hours 27 minutes 29 seconds 238 msec
