                         Program Version 4.2.0 -  RELEASE  -
|  1> # Test redundant internal optimization
|  2> #
|  3> ! RKS B3LYP  Opt TightSCF SmallPrint
|  4>
|  5> %basis
|  6>         Basis "6-31G"
|  7> end
|  8>
|  9> %geom
| 10> Constraints
| 11> { D 4  0  15  12  105.0   C } # D for Dihedral angle
| 12> { D 0  15  12  16  255.0   C } # D for Dihedral angle
| 13> { D 0  4  3  2   C } # D for Dihedral angle
| 14> { D 4  3  2  1   C } # D for Dihedral angle
| 15> { D 3  2  1  0   C } # D for Dihedral angle
| 16> { D 2  1  0  4   C } # D for Dihedral angle
| 17> { D 1  0  4  3   C } # D for Dihedral angle
| 18> { D 16  20  19  18   C } # D for Dihedral angle
| 19> { D 20  19  18  17   C } # D for Dihedral angle
| 20> { D 19  18  17  16   C } # D for Dihedral angle
| 21> { D 18  17  16  20   C } # D for Dihedral angle
| 22> { D 17  16  20  19   C } # D for Dihedral angle
| 23> { D 15  12  16  20   C } # D for Dihedral angle
| 24> end
| 25> end
| 26>
| 27>
| 28> #%pal
| 29> #nprocs 8
| 30> #end
| 31>
| 32> * xyz 0 1
| 33> C  -21.048   26.222   46.251
| 34> C  -20.361   27.558   45.944
| 35> C  -20.329   28.222   47.341
| 36> C  -20.110   27.022   48.296
| 37> O  -20.473   25.807   47.535
| 38> H  -20.833   25.428   45.533
| 39> H  -19.344   27.382   45.576
| 40> H  -20.898   28.157   45.201
| 41> H  -19.543   28.978   47.434
| 42> H  -21.289   28.710   47.548
| 43> H  -20.733   27.082   49.195
| 44> H  -19.064   26.913   48.597
| 45> C  -23.085   27.864   46.420
| 46> H  -22.281   28.530   46.080
| 47> H  -23.946   27.999   45.753
| 48> O  -22.586   26.394   46.375
| 49> C  -23.517   28.309   47.845
| 50> C  -24.110   29.722   47.832
| 51> C  -25.543   29.455   47.313
| 52> C  -25.892   28.080   47.935
| 53> O  -24.610   27.463   48.336
| 54> H  -22.677   28.177   48.531
| 55> O  -24.147   30.298   49.274
| 56> H  -23.550   30.417   47.196
| 57> H  -26.252   30.237   47.604
| 58> H  -25.542   29.395   46.218
| 59> H  -26.403   27.417   47.227
| 60> H  -26.502   28.173   48.837
| 61> H  -24.703   29.617   49.928
| 62> *
| 63>
| 64>                          ****END OF INPUT****
 Total Charge           Charge          ....    0
 Multiplicity           Mult            ....    1
 Number of Electrons    NEL             ....  102
FINAL SINGLE POINT ENERGY      -652.807020626992
FINAL SINGLE POINT ENERGY      -652.833162659773
FINAL SINGLE POINT ENERGY      -652.846634913144
FINAL SINGLE POINT ENERGY      -652.849214962632
FINAL SINGLE POINT ENERGY      -652.849643905046
FINAL SINGLE POINT ENERGY      -652.849689056065
FINAL SINGLE POINT ENERGY      -652.849693638349
                    ***********************HURRAY********************

CARTESIAN COORDINATES (ANGSTROEM)
---------------------------------
  C    -21.148720   26.351060   46.339054
  C    -20.195231   27.484188   45.939362
  C    -19.950832   28.199553   47.299303
  C    -19.964744   27.018898   48.303267
  O    -20.626466   25.893746   47.605375
  H    -21.096582   25.480762   45.683361
  H    -19.267043   27.033747   45.573945
  H    -20.583348   28.141451   45.156313
  H    -19.000550   28.741919   47.317046
  H    -20.744645   28.919458   47.520253
  H    -20.515547   27.243950   49.221546
  H    -18.957492   26.683303   48.566097
  C    -23.131101   27.971883   46.415194
  H    -22.414643   28.728291   46.071321
  H    -23.962311   27.948639   45.701675
  O    -22.569279   26.634348   46.386763
  C    -23.648201   28.347885   47.807381
  C    -24.300527   29.736859   47.867020
  C    -25.733007   29.435606   47.349101
  C    -26.015318   28.019134   47.910864
  O    -24.699122   27.438777   48.268681
  H    -22.835862   28.264924   48.536141
  O    -24.312634   30.245309   49.229433
  H    -23.782088   30.499251   47.282989
  H    -26.439165   30.188687   47.708105
  H    -25.750058   29.441796   46.253430
  H    -26.506936   27.364908   47.184354
  H    -26.617905   28.041366   48.824282
  H    -24.601644   29.528303   49.833342

 Multiplicity           Mult            ....    1
 Number of Electrons    NEL             ....  102
 Basis Dimension        Dim             ....  149

ORBITAL ENERGIES
----------------

  NO   OCC          E(Eh)            E(eV)
   0   2.0000     -19.142018      -520.8808
   1   2.0000     -19.140742      -520.8461
   2   2.0000     -19.139267      -520.8059
   3   2.0000     -19.136524      -520.7313
   4   2.0000     -10.278306      -279.6869
   5   2.0000     -10.246441      -278.8198
   6   2.0000     -10.236351      -278.5453
   7   2.0000     -10.235246      -278.5152
   8   2.0000     -10.230953      -278.3984
   9   2.0000     -10.227149      -278.2949
  10   2.0000     -10.195862      -277.4435
  11   2.0000     -10.195750      -277.4405
  12   2.0000     -10.192921      -277.3635
  13   2.0000      -1.048647       -28.5351
  14   2.0000      -1.037398       -28.2290
  15   2.0000      -1.008154       -27.4333
  16   2.0000      -0.992778       -27.0149
  17   2.0000      -0.790872       -21.5207
  18   2.0000      -0.787882       -21.4394
  19   2.0000      -0.771111       -20.9830
  20   2.0000      -0.734441       -19.9851
  21   2.0000      -0.681801       -18.5528
  22   2.0000      -0.609632       -16.5889
  23   2.0000      -0.606185       -16.4951
  24   2.0000      -0.600437       -16.3387
  25   2.0000      -0.573518       -15.6062
  26   2.0000      -0.523585       -14.2475
  27   2.0000      -0.518781       -14.1167
  28   2.0000      -0.503191       -13.6925
  29   2.0000      -0.494671       -13.4607
  30   2.0000      -0.472376       -12.8540
  31   2.0000      -0.459705       -12.5092
  32   2.0000      -0.451898       -12.2968
  33   2.0000      -0.441258       -12.0072
  34   2.0000      -0.430744       -11.7211
  35   2.0000      -0.418863       -11.3978
  36   2.0000      -0.401214       -10.9176
  37   2.0000      -0.395882       -10.7725
  38   2.0000      -0.382791       -10.4163
  39   2.0000      -0.374535       -10.1916
  40   2.0000      -0.363933        -9.9031
  41   2.0000      -0.362324        -9.8593
  42   2.0000      -0.352833        -9.6011
  43   2.0000      -0.335570        -9.1313
  44   2.0000      -0.314368        -8.5544
  45   2.0000      -0.308551        -8.3961
  46   2.0000      -0.291765        -7.9393
  47   2.0000      -0.273161        -7.4331
  48   2.0000      -0.272029        -7.4023
  49   2.0000      -0.253167        -6.8890
  50   2.0000      -0.237118        -6.4523
  51   0.0000       0.061839         1.6827
  52   0.0000       0.072211         1.9650
  53   0.0000       0.083322         2.2673
  54   0.0000       0.089690         2.4406
  55   0.0000       0.094507         2.5717

MULLIKEN ATOMIC CHARGES
-----------------------
   0 C :    0.311404
   1 C :   -0.305252
   2 C :   -0.312823
   3 C :   -0.007040
   4 O :   -0.493060
   5 H :    0.164012
   6 H :    0.160159
   7 H :    0.147951
   8 H :    0.148101
   9 H :    0.147673
  10 H :    0.149565
  11 H :    0.146189
  12 C :   -0.013275
  13 H :    0.123420
  14 H :    0.149567
  15 O :   -0.508320
  16 C :    0.071475
  17 C :    0.069914
  18 C :   -0.301472
  19 C :   -0.032343
  20 O :   -0.504265
  21 H :    0.163373
  22 O :   -0.600194
  23 H :    0.147707
  24 H :    0.164224
  25 H :    0.146062
  26 H :    0.153414
  27 H :    0.147407
  28 H :    0.366428
Sum of atomic charges:   -0.0000000

LOEWDIN ATOMIC CHARGES
----------------------
   0 C :    0.178349
   1 C :   -0.233474
   2 C :   -0.223061
   3 C :   -0.032329
   4 O :   -0.314474
   5 H :    0.110762
   6 H :    0.125166
   7 H :    0.114991
   8 H :    0.117253
   9 H :    0.107041
  10 H :    0.104062
  11 H :    0.104695
  12 C :   -0.042766
  13 H :    0.095210
  14 H :    0.108870
  15 O :   -0.311376
  16 C :    0.008299
  17 C :    0.032235
  18 C :   -0.243013
  19 C :   -0.039290
  20 O :   -0.316218
  21 H :    0.114819
  22 O :   -0.414144
  23 H :    0.112710
  24 H :    0.127242
  25 H :    0.113371
  26 H :    0.107667
  27 H :    0.103021
  28 H :    0.284382

  Mayer bond orders larger than 0.100000
B(  0-C ,  1-C ) :   0.9265 B(  0-C ,  4-O ) :   0.9081 B(  0-C ,  5-H ) :   0.9345
B(  0-C , 15-O ) :   0.8920 B(  1-C ,  2-C ) :   0.9511 B(  1-C ,  6-H ) :   0.9337
B(  1-C ,  7-H ) :   0.9299 B(  2-C ,  3-C ) :   0.9468 B(  2-C ,  8-H ) :   0.9457
B(  2-C ,  9-H ) :   0.9393 B(  3-C ,  4-O ) :   0.8503 B(  3-C , 10-H ) :   0.9302
B(  3-C , 11-H ) :   0.9386 B( 12-C , 13-H ) :   0.9020 B( 12-C , 14-H ) :   0.9336
B( 12-C , 15-O ) :   0.8627 B( 12-C , 16-C ) :   0.8784 B( 16-C , 17-C ) :   0.8924
B( 16-C , 20-O ) :   0.8680 B( 16-C , 21-H ) :   0.9209 B( 17-C , 18-C ) :   0.9128
B( 17-C , 22-O ) :   0.8953 B( 17-C , 23-H ) :   0.9333 B( 18-C , 19-C ) :   0.9402
B( 18-C , 24-H ) :   0.9365 B( 18-C , 25-H ) :   0.9339 B( 19-C , 20-O ) :   0.8512
B( 19-C , 26-H ) :   0.9328 B( 19-C , 27-H ) :   0.9371 B( 22-O , 28-H ) :   0.7929

FINAL SINGLE POINT ENERGY      -652.849682388728

DIPOLE MOMENT
-------------
                                X             Y             Z
Electronic contribution:     -1.47022      -4.19022       1.94393
Nuclear contribution   :      1.68443       5.36518      -2.76204
                        -----------------------------------------
Total Dipole Moment    :      0.21420       1.17495      -0.81811
                        -----------------------------------------
Magnitude (a.u.)       :      1.44766
Magnitude (Debye)      :      3.67965

Rotational constants in cm-1:     0.050655     0.014622     0.013562
Rotational constants in MHz :  1518.593983   438.344601   406.570022

                             ****ORCA TERMINATED NORMALLY****
TOTAL RUN TIME: 0 days 0 hours 24 minutes 0 seconds 684 msec
