                         Program Version 4.2.0 -  RELEASE  -
|  1> # Test redundant internal optimization
|  2> #
|  3> ! RKS B3LYP  Opt TightSCF SmallPrint
|  4>
|  5> %basis
|  6>         Basis "6-31G"
|  7> end
|  8>
|  9> %geom
| 10> Constraints
| 11> { D 4  0  15  12  315.0   C } # D for Dihedral angle
| 12> { D 0  15  12  16  180.0   C } # D for Dihedral angle
| 13> { D 0  4  3  2   C } # D for Dihedral angle
| 14> { D 4  3  2  1   C } # D for Dihedral angle
| 15> { D 3  2  1  0   C } # D for Dihedral angle
| 16> { D 2  1  0  4   C } # D for Dihedral angle
| 17> { D 1  0  4  3   C } # D for Dihedral angle
| 18> { D 16  20  19  18   C } # D for Dihedral angle
| 19> { D 20  19  18  17   C } # D for Dihedral angle
| 20> { D 19  18  17  16   C } # D for Dihedral angle
| 21> { D 18  17  16  20   C } # D for Dihedral angle
| 22> { D 17  16  20  19   C } # D for Dihedral angle
| 23> { D 15  12  16  20   C } # D for Dihedral angle
| 24> end
| 25> end
| 26>
| 27>
| 28> #%pal
| 29> #nprocs 8
| 30> #end
| 31>
| 32> * xyz 0 1
| 33> C  -21.048   26.222   46.251
| 34> C  -20.361   27.558   45.944
| 35> C  -20.329   28.222   47.341
| 36> C  -20.110   27.022   48.296
| 37> O  -20.473   25.807   47.535
| 38> H  -20.833   25.428   45.533
| 39> H  -19.344   27.382   45.576
| 40> H  -20.898   28.157   45.201
| 41> H  -19.543   28.978   47.434
| 42> H  -21.289   28.710   47.548
| 43> H  -20.733   27.082   49.195
| 44> H  -19.064   26.913   48.597
| 45> C  -23.319   25.255   47.135
| 46> H  -23.142   24.303   46.618
| 47> H  -22.933   25.166   48.159
| 48> O  -22.586   26.394   46.375
| 49> C  -24.853   25.483   47.226
| 50> C  -25.527   24.403   48.079
| 51> C  -25.213   24.895   49.512
| 52> C  -25.269   26.437   49.375
| 53> O  -25.144   26.735   47.933
| 54> H  -25.260   25.583   46.218
| 55> O  -27.059   24.401   47.823
| 56> H  -25.142   23.397   47.881
| 57> H  -25.922   24.516   50.256
| 58> H  -24.210   24.570   49.811
| 59> H  -24.458   26.935   49.917
| 60> H  -26.225   26.851   49.709
| 61> H  -27.466   25.400   48.016
| 62> *
| 63>
| 64>                          ****END OF INPUT****
 Total Charge           Charge          ....    0
 Multiplicity           Mult            ....    1
 Number of Electrons    NEL             ....  102
FINAL SINGLE POINT ENERGY      -652.836026238537
FINAL SINGLE POINT ENERGY      -652.860543277082
FINAL SINGLE POINT ENERGY      -652.864848003755
FINAL SINGLE POINT ENERGY      -652.865664211873
FINAL SINGLE POINT ENERGY      -652.865775507859
FINAL SINGLE POINT ENERGY      -652.865787731862
                    ***********************HURRAY********************

CARTESIAN COORDINATES (ANGSTROEM)
---------------------------------
  C    -21.127939   26.160052   46.273702
  C    -20.583672   27.554997   45.967384
  C    -20.500048   28.175112   47.378501
  C    -20.108717   26.978350   48.272307
  O    -20.432799   25.758500   47.480836
  H    -20.909769   25.381033   45.534307
  H    -19.591713   27.463694   45.510416
  H    -21.239371   28.109958   45.293158
  H    -19.772947   28.990964   47.437576
  H    -21.482656   28.561813   47.662851
  H    -20.662980   26.945969   49.214025
  H    -19.036205   26.933957   48.483611
  C    -23.188017   25.198519   47.192932
  H    -23.045610   24.242108   46.663637
  H    -22.730628   25.107531   48.183700
  O    -22.554529   26.280555   46.459465
  C    -24.676546   25.514891   47.277475
  C    -25.488685   24.479945   48.069347
  C    -25.254689   24.947614   49.530394
  C    -25.195126   26.489568   49.399020
  O    -24.936824   26.781602   47.969196
  H    -25.069182   25.637564   46.263553
  O    -26.895241   24.537100   47.705641
  H    -25.186457   23.446805   47.892564
  H    -26.063968   24.603591   50.179538
  H    -24.310975   24.541936   49.911212
  H    -24.399765   26.934961   50.004879
  H    -26.142768   26.970127   49.661879
  H    -27.165174   25.476182   47.620895

 Multiplicity           Mult            ....    1
 Number of Electrons    NEL             ....  102
 Basis Dimension        Dim             ....  149

ORBITAL ENERGIES
----------------

  NO   OCC          E(Eh)            E(eV)
   0   2.0000     -19.143359      -520.9173
   1   2.0000     -19.140835      -520.8486
   2   2.0000     -19.139496      -520.8122
   3   2.0000     -19.138312      -520.7800
   4   2.0000     -10.276776      -279.6453
   5   2.0000     -10.242340      -278.7082
   6   2.0000     -10.232601      -278.4432
   7   2.0000     -10.229532      -278.3597
   8   2.0000     -10.227456      -278.3032
   9   2.0000     -10.226721      -278.2832
  10   2.0000     -10.189033      -277.2577
  11   2.0000     -10.183212      -277.0993
  12   2.0000     -10.183094      -277.0961
  13   2.0000      -1.055040       -28.7091
  14   2.0000      -1.034947       -28.1623
  15   2.0000      -1.005391       -27.3581
  16   2.0000      -0.991627       -26.9835
  17   2.0000      -0.790578       -21.5127
  18   2.0000      -0.780784       -21.2462
  19   2.0000      -0.766479       -20.8569
  20   2.0000      -0.729831       -19.8597
  21   2.0000      -0.671403       -18.2698
  22   2.0000      -0.604057       -16.4372
  23   2.0000      -0.599359       -16.3094
  24   2.0000      -0.589404       -16.0385
  25   2.0000      -0.578840       -15.7510
  26   2.0000      -0.527688       -14.3591
  27   2.0000      -0.508336       -13.8325
  28   2.0000      -0.491526       -13.3751
  29   2.0000      -0.489439       -13.3183
  30   2.0000      -0.476728       -12.9724
  31   2.0000      -0.459307       -12.4984
  32   2.0000      -0.448820       -12.2130
  33   2.0000      -0.443535       -12.0692
  34   2.0000      -0.416072       -11.3219
  35   2.0000      -0.405540       -11.0353
  36   2.0000      -0.401281       -10.9194
  37   2.0000      -0.393392       -10.7047
  38   2.0000      -0.372310       -10.1311
  39   2.0000      -0.369261       -10.0481
  40   2.0000      -0.362046        -9.8518
  41   2.0000      -0.355576        -9.6757
  42   2.0000      -0.346118        -9.4184
  43   2.0000      -0.336970        -9.1694
  44   2.0000      -0.324455        -8.8289
  45   2.0000      -0.306363        -8.3366
  46   2.0000      -0.297808        -8.1038
  47   2.0000      -0.270718        -7.3666
  48   2.0000      -0.260289        -7.0828
  49   2.0000      -0.256494        -6.9796
  50   2.0000      -0.244474        -6.6525
  51   0.0000       0.063678         1.7328
  52   0.0000       0.084800         2.3075
  53   0.0000       0.091871         2.4999
  54   0.0000       0.100692         2.7400
  55   0.0000       0.104328         2.8389

MULLIKEN ATOMIC CHARGES
-----------------------
   0 C :    0.294894
   1 C :   -0.262713
   2 C :   -0.300753
   3 C :   -0.010029
   4 O :   -0.517679
   5 H :    0.143581
   6 H :    0.143222
   7 H :    0.163639
   8 H :    0.140751
   9 H :    0.172124
  10 H :    0.142050
  11 H :    0.145571
  12 C :    0.011402
  13 H :    0.123140
  14 H :    0.150157
  15 O :   -0.520953
  16 C :    0.058173
  17 C :    0.080365
  18 C :   -0.296443
  19 C :   -0.027318
  20 O :   -0.511517
  21 H :    0.168350
  22 O :   -0.603429
  23 H :    0.151713
  24 H :    0.163286
  25 H :    0.143370
  26 H :    0.144859
  27 H :    0.144378
  28 H :    0.365806
Sum of atomic charges:   -0.0000000

LOEWDIN ATOMIC CHARGES
----------------------
   0 C :    0.175164
   1 C :   -0.214033
   2 C :   -0.217011
   3 C :   -0.029562
   4 O :   -0.330495
   5 H :    0.094924
   6 H :    0.113060
   7 H :    0.127722
   8 H :    0.113626
   9 H :    0.124055
  10 H :    0.102120
  11 H :    0.103886
  12 C :   -0.042038
  13 H :    0.094556
  14 H :    0.103982
  15 O :   -0.321590
  16 C :    0.017656
  17 C :    0.036651
  18 C :   -0.241147
  19 C :   -0.038517
  20 O :   -0.322055
  21 H :    0.120191
  22 O :   -0.414792
  23 H :    0.115442
  24 H :    0.126596
  25 H :    0.112847
  26 H :    0.103147
  27 H :    0.101722
  28 H :    0.283893

  Mayer bond orders larger than 0.100000
B(  0-C ,  1-C ) :   0.9510 B(  0-C ,  4-O ) :   0.8938 B(  0-C ,  5-H ) :   0.9197
B(  0-C , 15-O ) :   0.8577 B(  1-C ,  2-C ) :   0.9551 B(  1-C ,  6-H ) :   0.9393
B(  1-C ,  7-H ) :   0.9347 B(  2-C ,  3-C ) :   0.9561 B(  2-C ,  8-H ) :   0.9448
B(  2-C ,  9-H ) :   0.9416 B(  3-C ,  4-O ) :   0.8339 B(  3-C , 10-H ) :   0.9360
B(  3-C , 11-H ) :   0.9406 B( 12-C , 13-H ) :   0.9121 B( 12-C , 14-H ) :   0.9126
B( 12-C , 15-O ) :   0.8310 B( 12-C , 16-C ) :   0.9013 B( 16-C , 17-C ) :   0.9026
B( 16-C , 20-O ) :   0.8627 B( 16-C , 21-H ) :   0.9232 B( 17-C , 18-C ) :   0.9106
B( 17-C , 22-O ) :   0.8933 B( 17-C , 23-H ) :   0.9334 B( 18-C , 19-C ) :   0.9404
B( 18-C , 24-H ) :   0.9374 B( 18-C , 25-H ) :   0.9342 B( 19-C , 20-O ) :   0.8530
B( 19-C , 26-H ) :   0.9345 B( 19-C , 27-H ) :   0.9378 B( 22-O , 28-H ) :   0.7935

FINAL SINGLE POINT ENERGY      -652.865790152868

DIPOLE MOMENT
-------------
                                X             Y             Z
Electronic contribution:     -3.11222      -1.91322      -2.86853
Nuclear contribution   :      3.74711       2.24260       3.42896
                        -----------------------------------------
Total Dipole Moment    :      0.63489       0.32937       0.56042
                        -----------------------------------------
Magnitude (a.u.)       :      0.90865
Magnitude (Debye)      :      2.30960

Rotational constants in cm-1:     0.058940     0.012894     0.012376
Rotational constants in MHz :  1766.985051   386.556845   371.037407

                             ****ORCA TERMINATED NORMALLY****
TOTAL RUN TIME: 0 days 0 hours 22 minutes 18 seconds 57 msec
