                         Program Version 4.2.0 -  RELEASE  -
|  1> # Test redundant internal optimization
|  2> #
|  3> ! RKS B3LYP  Opt TightSCF SmallPrint
|  4>
|  5> %basis
|  6>         Basis "6-31G"
|  7> end
|  8>
|  9> %geom
| 10> Constraints
| 11> { D 4  0  15  12  60.0   C } # D for Dihedral angle
| 12> { D 0  15  12  16  270.0   C } # D for Dihedral angle
| 13> { D 0  4  3  2   C } # D for Dihedral angle
| 14> { D 4  3  2  1   C } # D for Dihedral angle
| 15> { D 3  2  1  0   C } # D for Dihedral angle
| 16> { D 2  1  0  4   C } # D for Dihedral angle
| 17> { D 1  0  4  3   C } # D for Dihedral angle
| 18> { D 16  20  19  18   C } # D for Dihedral angle
| 19> { D 20  19  18  17   C } # D for Dihedral angle
| 20> { D 19  18  17  16   C } # D for Dihedral angle
| 21> { D 18  17  16  20   C } # D for Dihedral angle
| 22> { D 17  16  20  19   C } # D for Dihedral angle
| 23> { D 15  12  16  20   C } # D for Dihedral angle
| 24> end
| 25> end
| 26>
| 27>
| 28> #%pal
| 29> #nprocs 8
| 30> #end
| 31>
| 32> * xyz 0 1
| 33> C  -21.048   26.222   46.251
| 34> C  -20.361   27.558   45.944
| 35> C  -20.329   28.222   47.341
| 36> C  -20.110   27.022   48.296
| 37> O  -20.473   25.807   47.535
| 38> H  -20.833   25.428   45.533
| 39> H  -19.344   27.382   45.576
| 40> H  -20.898   28.157   45.201
| 41> H  -19.543   28.978   47.434
| 42> H  -21.289   28.710   47.548
| 43> H  -20.733   27.082   49.195
| 44> H  -19.064   26.913   48.597
| 45> C  -23.051   27.452   47.413
| 46> H  -22.296   28.245   47.484
| 47> H  -23.999   27.907   47.100
| 48> O  -22.586   26.394   46.375
| 49> C  -23.262   26.850   48.830
| 50> C  -24.241   25.670   48.794
| 51> C  -23.335   24.528   48.276
| 52> C  -21.961   24.849   48.916
| 53> O  -22.012   26.268   49.331
| 54> H  -23.541   27.648   49.520
| 55> H  -24.600   25.450   49.805
| 56> O  -25.470   25.925   47.881
| 57> H  -23.703   23.535   48.554
| 58> H  -23.269   24.566   47.182
| 59> H  -21.130   24.708   48.218
| 60> H  -21.772   24.257   49.816
| 61> H  -25.133   26.148   46.863
| 62> *
| 63>
| 64>                          ****END OF INPUT****
 Total Charge           Charge          ....    0
 Multiplicity           Mult            ....    1
 Number of Electrons    NEL             ....  102
FINAL SINGLE POINT ENERGY      -652.709299977483
FINAL SINGLE POINT ENERGY      -652.822540037338
FINAL SINGLE POINT ENERGY      -652.846549931426
FINAL SINGLE POINT ENERGY      -652.853397205384
FINAL SINGLE POINT ENERGY      -652.856625492340
FINAL SINGLE POINT ENERGY      -652.857818335851
FINAL SINGLE POINT ENERGY      -652.858267674980
FINAL SINGLE POINT ENERGY      -652.858406407657
FINAL SINGLE POINT ENERGY      -652.858452204004
FINAL SINGLE POINT ENERGY      -652.858460959687
                    ***********************HURRAY********************

CARTESIAN COORDINATES (ANGSTROEM)
---------------------------------
  C    -21.065523   26.505810   46.219558
  C    -20.311709   27.794591   45.862828
  C    -19.919858   28.344951   47.267551
  C    -19.646093   27.048898   48.069816
  O    -20.302221   25.952268   47.302557
  H    -21.039597   25.763116   45.420052
  H    -19.416430   27.532186   45.288893
  H    -20.919525   28.486191   45.274066
  H    -19.034921   28.988164   47.225424
  H    -20.730830   28.928892   47.708909
  H    -20.079244   27.058096   49.070462
  H    -18.581509   26.801648   48.113254
  C    -23.146259   27.432074   47.459332
  H    -22.581360   28.349836   47.650997
  H    -24.108627   27.723543   47.026080
  O    -22.499420   26.639487   46.416103
  C    -23.451828   26.747282   48.797443
  C    -24.437662   25.569349   48.693929
  C    -23.475452   24.368063   48.441009
  C    -22.234109   24.739147   49.278232
  O    -22.334403   26.206829   49.549618
  H    -23.877829   27.542899   49.424438
  H    -24.977006   25.450471   49.636139
  O    -25.467996   25.733122   47.689959
  H    -23.916897   23.412270   48.735982
  H    -23.227384   24.336506   47.375168
  H    -21.297939   24.557388   48.754592
  H    -22.231431   24.249123   50.256686
  H    -25.072940   25.618798   46.799921

 Multiplicity           Mult            ....    1
 Number of Electrons    NEL             ....  102
 Basis Dimension        Dim             ....  149

ORBITAL ENERGIES
----------------

  NO   OCC          E(Eh)            E(eV)
   0   2.0000     -19.147475      -521.0293
   1   2.0000     -19.146233      -520.9955
   2   2.0000     -19.137067      -520.7461
   3   2.0000     -19.134495      -520.6761
   4   2.0000     -10.282870      -279.8111
   5   2.0000     -10.232900      -278.4514
   6   2.0000     -10.231251      -278.4065
   7   2.0000     -10.228065      -278.3198
   8   2.0000     -10.223424      -278.1935
   9   2.0000     -10.211372      -277.8655
  10   2.0000     -10.191917      -277.3362
  11   2.0000     -10.190775      -277.3051
  12   2.0000     -10.176557      -276.9182
  13   2.0000      -1.052345       -28.6358
  14   2.0000      -1.023730       -27.8571
  15   2.0000      -1.006382       -27.3851
  16   2.0000      -0.996675       -27.1209
  17   2.0000      -0.788198       -21.4480
  18   2.0000      -0.772899       -21.0317
  19   2.0000      -0.763822       -20.7846
  20   2.0000      -0.732684       -19.9373
  21   2.0000      -0.678475       -18.4622
  22   2.0000      -0.605413       -16.4741
  23   2.0000      -0.600831       -16.3494
  24   2.0000      -0.596893       -16.2423
  25   2.0000      -0.556904       -15.1541
  26   2.0000      -0.525558       -14.3012
  27   2.0000      -0.506758       -13.7896
  28   2.0000      -0.498052       -13.5527
  29   2.0000      -0.489021       -13.3069
  30   2.0000      -0.461265       -12.5517
  31   2.0000      -0.457422       -12.4471
  32   2.0000      -0.441399       -12.0111
  33   2.0000      -0.427635       -11.6366
  34   2.0000      -0.419939       -11.4271
  35   2.0000      -0.412884       -11.2351
  36   2.0000      -0.403281       -10.9738
  37   2.0000      -0.392187       -10.6720
  38   2.0000      -0.384628       -10.4663
  39   2.0000      -0.366450        -9.9716
  40   2.0000      -0.357734        -9.7344
  41   2.0000      -0.351753        -9.5717
  42   2.0000      -0.345718        -9.4075
  43   2.0000      -0.325448        -8.8559
  44   2.0000      -0.315447        -8.5837
  45   2.0000      -0.309182        -8.4133
  46   2.0000      -0.304561        -8.2875
  47   2.0000      -0.272025        -7.4022
  48   2.0000      -0.261982        -7.1289
  49   2.0000      -0.256263        -6.9733
  50   2.0000      -0.231669        -6.3040
  51   0.0000       0.066003         1.7960
  52   0.0000       0.086036         2.3412
  53   0.0000       0.091719         2.4958
  54   0.0000       0.097911         2.6643
  55   0.0000       0.108738         2.9589

MULLIKEN ATOMIC CHARGES
-----------------------
   0 C :    0.313891
   1 C :   -0.278930
   2 C :   -0.319182
   3 C :   -0.018187
   4 O :   -0.510883
   5 H :    0.162771
   6 H :    0.154461
   7 H :    0.151108
   8 H :    0.146058
   9 H :    0.153552
  10 H :    0.183775
  11 H :    0.143113
  12 C :   -0.044662
  13 H :    0.134225
  14 H :    0.160395
  15 O :   -0.544732
  16 C :    0.106821
  17 C :    0.090493
  18 C :   -0.316896
  19 C :   -0.015688
  20 O :   -0.530848
  21 H :    0.143167
  22 H :    0.159190
  23 O :   -0.609797
  24 H :    0.142126
  25 H :    0.159938
  26 H :    0.182649
  27 H :    0.134413
  28 H :    0.367661
Sum of atomic charges:    0.0000000

LOEWDIN ATOMIC CHARGES
----------------------
   0 C :    0.176958
   1 C :   -0.227704
   2 C :   -0.221614
   3 C :   -0.036284
   4 O :   -0.314189
   5 H :    0.111081
   6 H :    0.120593
   7 H :    0.119623
   8 H :    0.115789
   9 H :    0.109242
  10 H :    0.122922
  11 H :    0.102745
  12 C :   -0.053397
  13 H :    0.097944
  14 H :    0.119155
  15 O :   -0.340976
  16 C :    0.009006
  17 C :    0.035845
  18 C :   -0.239510
  19 C :   -0.033586
  20 O :   -0.325692
  21 H :    0.111999
  22 H :    0.114537
  23 O :   -0.412252
  24 H :    0.115335
  25 H :    0.118284
  26 H :    0.122146
  27 H :    0.097501
  28 H :    0.284497

  Mayer bond orders larger than 0.100000
B(  0-C ,  1-C ) :   0.9221 B(  0-C ,  4-O ) :   0.9103 B(  0-C ,  5-H ) :   0.9375
B(  0-C , 15-O ) :   0.8716 B(  1-C ,  2-C ) :   0.9568 B(  1-C ,  6-H ) :   0.9351
B(  1-C ,  7-H ) :   0.9376 B(  2-C ,  3-C ) :   0.9526 B(  2-C ,  8-H ) :   0.9443
B(  2-C ,  9-H ) :   0.9361 B(  3-C ,  4-O ) :   0.8163 B(  3-C , 10-H ) :   0.9136
B(  3-C , 11-H ) :   0.9391 B( 12-C , 13-H ) :   0.9148 B( 12-C , 14-H ) :   0.9172
B( 12-C , 15-O ) :   0.8462 B( 12-C , 16-C ) :   0.8894 B( 16-C , 17-C ) :   0.8851
B( 16-C , 20-O ) :   0.8815 B( 16-C , 21-H ) :   0.9205 B( 17-C , 18-C ) :   0.9328
B( 17-C , 22-H ) :   0.9371 B( 17-C , 23-O ) :   0.8988 B( 18-C , 19-C ) :   0.9501
B( 18-C , 24-H ) :   0.9424 B( 18-C , 25-H ) :   0.9301 B( 19-C , 20-O ) :   0.8157
B( 19-C , 26-H ) :   0.9074 B( 19-C , 27-H ) :   0.9386 B( 23-O , 28-H ) :   0.7908

FINAL SINGLE POINT ENERGY      -652.858460022512

DIPOLE MOMENT
-------------
                                X             Y             Z
Electronic contribution:     -2.97571      -1.98430       0.10868
Nuclear contribution   :      3.77490       2.49609      -0.47868
                        -----------------------------------------
Total Dipole Moment    :      0.79919       0.51179      -0.36999
                        -----------------------------------------
Magnitude (a.u.)       :      1.01859
Magnitude (Debye)      :      2.58905

Rotational constants in cm-1:     0.048013     0.019407     0.017160
Rotational constants in MHz :  1439.389338   581.798651   514.446644

                             ****ORCA TERMINATED NORMALLY****
TOTAL RUN TIME: 0 days 0 hours 29 minutes 21 seconds 893 msec
