                         Program Version 4.2.0 -  RELEASE  -
|  1> # Test redundant internal optimization
|  2> #
|  3> ! RKS B3LYP  Opt TightSCF SmallPrint
|  4>
|  5> %basis
|  6>         Basis "6-31G"
|  7> end
|  8>
|  9> %geom
| 10> Constraints
| 11> { D 4  0  15  12  150.0   C } # D for Dihedral angle
| 12> { D 0  15  12  16  120.0   C } # D for Dihedral angle
| 13> { D 0  4  3  2   C } # D for Dihedral angle
| 14> { D 4  3  2  1   C } # D for Dihedral angle
| 15> { D 3  2  1  0   C } # D for Dihedral angle
| 16> { D 2  1  0  4   C } # D for Dihedral angle
| 17> { D 1  0  4  3   C } # D for Dihedral angle
| 18> { D 16  20  19  18   C } # D for Dihedral angle
| 19> { D 20  19  18  17   C } # D for Dihedral angle
| 20> { D 19  18  17  16   C } # D for Dihedral angle
| 21> { D 18  17  16  20   C } # D for Dihedral angle
| 22> { D 17  16  20  19   C } # D for Dihedral angle
| 23> { D 15  12  16  20   C } # D for Dihedral angle
| 24> end
| 25> end
| 26>
| 27>
| 28> #%pal
| 29> #nprocs 8
| 30> #end
| 31>
| 32> * xyz 0 1
| 33> C  -21.048   26.222   46.251
| 34> C  -20.361   27.558   45.944
| 35> C  -20.329   28.222   47.341
| 36> C  -20.110   27.022   48.296
| 37> O  -20.473   25.807   47.535
| 38> H  -20.833   25.428   45.533
| 39> H  -19.344   27.382   45.576
| 40> H  -20.898   28.157   45.201
| 41> H  -19.543   28.978   47.434
| 42> H  -21.289   28.710   47.548
| 43> H  -20.733   27.082   49.195
| 44> H  -19.064   26.913   48.597
| 45> C  -23.210   27.459   45.431
| 46> H  -23.696   28.236   46.034
| 47> H  -22.431   27.934   44.821
| 48> O  -22.586   26.394   46.375
| 49> C  -24.267   26.858   44.464
| 50> C  -25.480   26.320   45.231
| 51> C  -26.265   27.619   45.529
| 52> C  -26.006   28.483   44.270
| 53> O  -24.822   27.904   43.599
| 54> H  -23.783   26.128   43.813
| 55> H  -26.066   25.653   44.588
| 56> O  -25.092   25.541   46.518
| 57> H  -27.331   27.441   45.701
| 58> H  -25.859   28.107   46.423
| 59> H  -25.803   29.531   44.514
| 60> H  -26.834   28.441   43.557
| 61> H  -24.505   26.189   47.177
| 62> *
| 63>
| 64>                          ****END OF INPUT****
 Total Charge           Charge          ....    0
 Multiplicity           Mult            ....    1
 Number of Electrons    NEL             ....  102
FINAL SINGLE POINT ENERGY      -652.820255124477
FINAL SINGLE POINT ENERGY      -652.845767105406
FINAL SINGLE POINT ENERGY      -652.853216276248
FINAL SINGLE POINT ENERGY      -652.856507390256
FINAL SINGLE POINT ENERGY      -652.858206423842
FINAL SINGLE POINT ENERGY      -652.859222069975
FINAL SINGLE POINT ENERGY      -652.859742466729
FINAL SINGLE POINT ENERGY      -652.859881640603
FINAL SINGLE POINT ENERGY      -652.859900958837
FINAL SINGLE POINT ENERGY      -652.859904978881
                    ***********************HURRAY********************

CARTESIAN COORDINATES (ANGSTROEM)
---------------------------------
  C    -21.131067   26.292967   46.218799
  C    -20.212939   27.482483   45.944189
  C    -20.225384   28.221961   47.306329
  C    -20.307415   27.062721   48.320447
  O    -20.780354   25.885495   47.545001
  H    -20.991484   25.427608   45.568138
  H    -19.212870   27.091722   45.725040
  H    -20.509532   28.116018   45.105862
  H    -19.334900   28.840787   47.450061
  H    -21.105298   28.869715   47.379176
  H    -21.011427   27.248256   49.134917
  H    -19.333652   26.789181   48.735695
  C    -23.184697   27.627143   45.374053
  H    -23.618502   28.401642   46.016478
  H    -22.461189   28.100407   44.704937
  O    -22.562853   26.624842   46.243900
  C    -24.257069   26.934291   44.526167
  C    -25.422596   26.331534   45.328708
  C    -26.294292   27.588629   45.611531
  C    -26.116022   28.435127   44.335101
  O    -24.892331   27.916281   43.649393
  H    -23.777165   26.194263   43.878268
  H    -25.976130   25.646830   44.674845
  O    -25.066241   25.604065   46.517687
  H    -27.336917   27.323739   45.804805
  H    -25.905189   28.093035   46.502466
  H    -25.977895   29.502503   44.535456
  H    -26.941979   28.313014   43.628044
  H    -24.113610   25.752743   46.730505

 Multiplicity           Mult            ....    1
 Number of Electrons    NEL             ....  102
 Basis Dimension        Dim             ....  149

ORBITAL ENERGIES
----------------

  NO   OCC          E(Eh)            E(eV)
   0   2.0000     -19.159604      -521.3593
   1   2.0000     -19.151604      -521.1416
   2   2.0000     -19.140611      -520.8425
   3   2.0000     -19.107889      -519.9521
   4   2.0000     -10.295627      -280.1582
   5   2.0000     -10.241156      -278.6760
   6   2.0000     -10.235232      -278.5148
   7   2.0000     -10.233143      -278.4580
   8   2.0000     -10.227676      -278.3092
   9   2.0000     -10.226526      -278.2779
  10   2.0000     -10.202770      -277.6315
  11   2.0000     -10.200198      -277.5615
  12   2.0000     -10.177254      -276.9372
  13   2.0000      -1.064952       -28.9788
  14   2.0000      -1.024899       -27.8889
  15   2.0000      -1.005628       -27.3645
  16   2.0000      -0.987546       -26.8725
  17   2.0000      -0.799979       -21.7685
  18   2.0000      -0.775466       -21.1015
  19   2.0000      -0.767112       -20.8742
  20   2.0000      -0.739956       -20.1352
  21   2.0000      -0.683717       -18.6049
  22   2.0000      -0.613339       -16.6898
  23   2.0000      -0.601562       -16.3693
  24   2.0000      -0.595187       -16.1959
  25   2.0000      -0.575371       -15.6566
  26   2.0000      -0.533213       -14.5095
  27   2.0000      -0.519066       -14.1245
  28   2.0000      -0.508081       -13.8256
  29   2.0000      -0.488064       -13.2809
  30   2.0000      -0.476805       -12.9745
  31   2.0000      -0.463238       -12.6053
  32   2.0000      -0.445050       -12.1104
  33   2.0000      -0.432529       -11.7697
  34   2.0000      -0.427990       -11.6462
  35   2.0000      -0.422007       -11.4834
  36   2.0000      -0.410333       -11.1657
  37   2.0000      -0.389911       -10.6100
  38   2.0000      -0.385862       -10.4998
  39   2.0000      -0.372405       -10.1337
  40   2.0000      -0.366740        -9.9795
  41   2.0000      -0.362749        -9.8709
  42   2.0000      -0.346755        -9.4357
  43   2.0000      -0.341970        -9.3055
  44   2.0000      -0.322114        -8.7652
  45   2.0000      -0.314192        -8.5496
  46   2.0000      -0.282358        -7.6833
  47   2.0000      -0.278777        -7.5859
  48   2.0000      -0.271260        -7.3814
  49   2.0000      -0.244509        -6.6534
  50   2.0000      -0.238157        -6.4806
  51   0.0000       0.057297         1.5591
  52   0.0000       0.072908         1.9839
  53   0.0000       0.092789         2.5249
  54   0.0000       0.096133         2.6159
  55   0.0000       0.100092         2.7236

MULLIKEN ATOMIC CHARGES
-----------------------
   0 C :    0.325214
   1 C :   -0.297202
   2 C :   -0.302520
   3 C :   -0.003516
   4 O :   -0.493872
   5 H :    0.159880
   6 H :    0.159293
   7 H :    0.151860
   8 H :    0.149391
   9 H :    0.156860
  10 H :    0.158127
  11 H :    0.149337
  12 C :   -0.027279
  13 H :    0.151415
  14 H :    0.151503
  15 O :   -0.567595
  16 C :    0.061357
  17 C :    0.124095
  18 C :   -0.296981
  19 C :   -0.028238
  20 O :   -0.524032
  21 H :    0.150688
  22 H :    0.143844
  23 O :   -0.643038
  24 H :    0.151473
  25 H :    0.143988
  26 H :    0.142743
  27 H :    0.151445
  28 H :    0.401761
Sum of atomic charges:   -0.0000000

LOEWDIN ATOMIC CHARGES
----------------------
   0 C :    0.188724
   1 C :   -0.231074
   2 C :   -0.216635
   3 C :   -0.025953
   4 O :   -0.301383
   5 H :    0.107180
   6 H :    0.123475
   7 H :    0.117371
   8 H :    0.118317
   9 H :    0.114532
  10 H :    0.111527
  11 H :    0.106764
  12 C :   -0.046100
  13 H :    0.105723
  14 H :    0.108887
  15 O :   -0.349860
  16 C :    0.013182
  17 C :    0.042524
  18 C :   -0.235748
  19 C :   -0.034498
  20 O :   -0.327871
  21 H :    0.110940
  22 H :    0.103135
  23 O :   -0.435484
  24 H :    0.121719
  25 H :    0.110802
  26 H :    0.101561
  27 H :    0.106638
  28 H :    0.291605

  Mayer bond orders larger than 0.100000
B(  0-C ,  1-C ) :   0.9386 B(  0-C ,  4-O ) :   0.9477 B(  0-C ,  5-H ) :   0.9258
B(  0-C , 15-O ) :   0.7933 B(  1-C ,  2-C ) :   0.9469 B(  1-C ,  6-H ) :   0.9325
B(  1-C ,  7-H ) :   0.9246 B(  2-C ,  3-C ) :   0.9538 B(  2-C ,  8-H ) :   0.9446
B(  2-C ,  9-H ) :   0.9456 B(  3-C ,  4-O ) :   0.8303 B(  3-C , 10-H ) :   0.9342
B(  3-C , 11-H ) :   0.9392 B( 12-C , 13-H ) :   0.9305 B( 12-C , 14-H ) :   0.9168
B( 12-C , 15-O ) :   0.7925 B( 12-C , 16-C ) :   0.8856 B( 16-C , 17-C ) :   0.9147
B( 16-C , 20-O ) :   0.8537 B( 16-C , 21-H ) :   0.9322 B( 17-C , 18-C ) :   0.9021
B( 17-C , 22-H ) :   0.9302 B( 17-C , 23-O ) :   0.9392 B( 18-C , 19-C ) :   0.9385
B( 18-C , 24-H ) :   0.9444 B( 18-C , 25-H ) :   0.9432 B( 19-C , 20-O ) :   0.8324
B( 19-C , 26-H ) :   0.9339 B( 19-C , 27-H ) :   0.9383 B( 23-O , 28-H ) :   0.7183

FINAL SINGLE POINT ENERGY      -652.859905887230

DIPOLE MOMENT
-------------
                                X             Y             Z
Electronic contribution:     -1.04777      -4.85358      -0.83671
Nuclear contribution   :      2.13029       6.24313       0.68605
                        -----------------------------------------
Total Dipole Moment    :      1.08252       1.38954      -0.15067
                        -----------------------------------------
Magnitude (a.u.)       :      1.76788
Magnitude (Debye)      :      4.49358

Rotational constants in cm-1:     0.056219     0.013429     0.012246
Rotational constants in MHz :  1685.412932   402.597485   367.112622

                             ****ORCA TERMINATED NORMALLY****
TOTAL RUN TIME: 0 days 0 hours 45 minutes 11 seconds 108 msec
