                         Program Version 4.2.0 -  RELEASE  -
|  1> # Test redundant internal optimization
|  2> #
|  3> ! RKS B3LYP  Opt TightSCF SmallPrint
|  4>
|  5> %basis
|  6>         Basis "6-31G"
|  7> end
|  8>
|  9> %geom
| 10> Constraints
| 11> { D 4  0  15  12  150.0   C } # D for Dihedral angle
| 12> { D 0  15  12  16  210.0   C } # D for Dihedral angle
| 13> { D 0  4  3  2   C } # D for Dihedral angle
| 14> { D 4  3  2  1   C } # D for Dihedral angle
| 15> { D 3  2  1  0   C } # D for Dihedral angle
| 16> { D 2  1  0  4   C } # D for Dihedral angle
| 17> { D 1  0  4  3   C } # D for Dihedral angle
| 18> { D 16  20  19  18   C } # D for Dihedral angle
| 19> { D 20  19  18  17   C } # D for Dihedral angle
| 20> { D 19  18  17  16   C } # D for Dihedral angle
| 21> { D 18  17  16  20   C } # D for Dihedral angle
| 22> { D 17  16  20  19   C } # D for Dihedral angle
| 23> { D 15  12  16  20   C } # D for Dihedral angle
| 24> end
| 25> end
| 26>
| 27>
| 28> #%pal
| 29> #nprocs 8
| 30> #end
| 31>
| 32> * xyz 0 1
| 33> C  -21.048   26.222   46.251
| 34> C  -20.361   27.558   45.944
| 35> C  -20.329   28.222   47.341
| 36> C  -20.110   27.022   48.296
| 37> O  -20.473   25.807   47.535
| 38> H  -20.833   25.428   45.533
| 39> H  -19.344   27.382   45.576
| 40> H  -20.898   28.157   45.201
| 41> H  -19.543   28.978   47.434
| 42> H  -21.289   28.710   47.548
| 43> H  -20.733   27.082   49.195
| 44> H  -19.064   26.913   48.597
| 45> C  -23.210   27.459   45.431
| 46> H  -22.470   28.244   45.232
| 47> H  -23.493   27.004   44.474
| 48> O  -22.586   26.394   46.375
| 49> C  -24.478   28.124   46.033
| 50> C  -25.527   27.075   46.421
| 51> C  -24.970   26.561   47.770
| 52> C  -24.341   27.830   48.398
| 53> O  -24.155   28.797   47.295
| 54> H  -24.840   28.891   45.345
| 55> H  -26.502   27.553   46.563
| 56> O  -25.683   25.947   45.365
| 57> H  -25.742   26.118   48.408
| 58> H  -24.203   25.797   47.594
| 59> H  -23.372   27.630   48.868
| 60> H  -24.999   28.302   49.133
| 61> H  -24.717   25.455   45.207
| 62> *
| 63>
| 64>                          ****END OF INPUT****
 Total Charge           Charge          ....    0
 Multiplicity           Mult            ....    1
 Number of Electrons    NEL             ....  102
FINAL SINGLE POINT ENERGY      -652.825866839986
FINAL SINGLE POINT ENERGY      -652.850173593330
FINAL SINGLE POINT ENERGY      -652.856616746680
FINAL SINGLE POINT ENERGY      -652.858878632194
FINAL SINGLE POINT ENERGY      -652.859193100481
FINAL SINGLE POINT ENERGY      -652.859254171624
FINAL SINGLE POINT ENERGY      -652.859255843403
                    ***********************HURRAY********************

CARTESIAN COORDINATES (ANGSTROEM)
---------------------------------
  C    -21.069780   26.307043   46.170172
  C    -20.228390   27.558124   45.917076
  C    -20.278473   28.265304   47.296291
  C    -20.281865   27.081017   48.284345
  O    -20.684730   25.892348   47.489090
  H    -20.870402   25.467604   45.499324
  H    -19.207148   27.232694   45.687190
  H    -20.563963   28.187933   45.090847
  H    -19.428179   28.935879   47.451006
  H    -21.202648   28.845663   47.387477
  H    -20.989515   27.209708   49.107263
  H    -19.290649   26.860507   48.691051
  C    -23.176676   27.513763   45.367702
  H    -22.517439   28.359095   45.150105
  H    -23.479462   27.056563   44.415150
  O    -22.515567   26.534983   46.215777
  C    -24.412706   28.062850   46.075775
  C    -25.486532   27.022764   46.444767
  C    -24.959465   26.491671   47.813549
  C    -24.330042   27.749012   48.447389
  O    -24.109877   28.720466   47.340094
  H    -24.830613   28.837362   45.420412
  H    -26.456774   27.512597   46.552472
  O    -25.689079   25.997599   45.442444
  H    -25.761938   26.068990   48.425553
  H    -24.197104   25.731374   47.630679
  H    -23.370800   27.539581   48.926798
  H    -24.995265   28.239849   49.164678
  H    -24.927920   25.379656   45.458525

 Multiplicity           Mult            ....    1
 Number of Electrons    NEL             ....  102
 Basis Dimension        Dim             ....  149

ORBITAL ENERGIES
----------------

  NO   OCC          E(Eh)            E(eV)
   0   2.0000     -19.146210      -520.9949
   1   2.0000     -19.144235      -520.9411
   2   2.0000     -19.136787      -520.7384
   3   2.0000     -19.136416      -520.7283
   4   2.0000     -10.286742      -279.9165
   5   2.0000     -10.234378      -278.4916
   6   2.0000     -10.233200      -278.4595
   7   2.0000     -10.230428      -278.3841
   8   2.0000     -10.228544      -278.3328
   9   2.0000     -10.221238      -278.1340
  10   2.0000     -10.194467      -277.4056
  11   2.0000     -10.188820      -277.2519
  12   2.0000     -10.174951      -276.8745
  13   2.0000      -1.056868       -28.7588
  14   2.0000      -1.026097       -27.9215
  15   2.0000      -1.008160       -27.4334
  16   2.0000      -0.994524       -27.0624
  17   2.0000      -0.790727       -21.5168
  18   2.0000      -0.773440       -21.0464
  19   2.0000      -0.764463       -20.8021
  20   2.0000      -0.735277       -20.0079
  21   2.0000      -0.680429       -18.5154
  22   2.0000      -0.605586       -16.4788
  23   2.0000      -0.600275       -16.3343
  24   2.0000      -0.596507       -16.2318
  25   2.0000      -0.564042       -15.3484
  26   2.0000      -0.531498       -14.4628
  27   2.0000      -0.507509       -13.8100
  28   2.0000      -0.499086       -13.5808
  29   2.0000      -0.491840       -13.3836
  30   2.0000      -0.470886       -12.8135
  31   2.0000      -0.458147       -12.4668
  32   2.0000      -0.447986       -12.1903
  33   2.0000      -0.431565       -11.7435
  34   2.0000      -0.421029       -11.4568
  35   2.0000      -0.413623       -11.2552
  36   2.0000      -0.402064       -10.9407
  37   2.0000      -0.396984       -10.8025
  38   2.0000      -0.383790       -10.4435
  39   2.0000      -0.368956       -10.0398
  40   2.0000      -0.360105        -9.7990
  41   2.0000      -0.354127        -9.6363
  42   2.0000      -0.351140        -9.5550
  43   2.0000      -0.324553        -8.8315
  44   2.0000      -0.316347        -8.6082
  45   2.0000      -0.307996        -8.3810
  46   2.0000      -0.298011        -8.1093
  47   2.0000      -0.272118        -7.4047
  48   2.0000      -0.259865        -7.0713
  49   2.0000      -0.256493        -6.9795
  50   2.0000      -0.239849        -6.5266
  51   0.0000       0.066340         1.8052
  52   0.0000       0.077739         2.1154
  53   0.0000       0.094257         2.5649
  54   0.0000       0.099309         2.7023
  55   0.0000       0.100957         2.7472

MULLIKEN ATOMIC CHARGES
-----------------------
   0 C :    0.323287
   1 C :   -0.301648
   2 C :   -0.311041
   3 C :   -0.004723
   4 O :   -0.500536
   5 H :    0.148672
   6 H :    0.153788
   7 H :    0.146740
   8 H :    0.143736
   9 H :    0.182277
  10 H :    0.150792
  11 H :    0.144364
  12 C :   -0.020273
  13 H :    0.143040
  14 H :    0.138157
  15 O :   -0.544713
  16 C :    0.093081
  17 C :    0.087335
  18 C :   -0.313576
  19 C :   -0.015560
  20 O :   -0.524806
  21 H :    0.148134
  22 H :    0.158988
  23 O :   -0.607028
  24 H :    0.142403
  25 H :    0.182344
  26 H :    0.150348
  27 H :    0.141713
  28 H :    0.364707
Sum of atomic charges:    0.0000000

LOEWDIN ATOMIC CHARGES
----------------------
   0 C :    0.186650
   1 C :   -0.232887
   2 C :   -0.221475
   3 C :   -0.026177
   4 O :   -0.307570
   5 H :    0.100862
   6 H :    0.120300
   7 H :    0.115270
   8 H :    0.115688
   9 H :    0.126335
  10 H :    0.104658
  11 H :    0.103720
  12 C :   -0.049230
  13 H :    0.103148
  14 H :    0.099394
  15 O :   -0.346429
  16 C :    0.017424
  17 C :    0.038206
  18 C :   -0.243699
  19 C :   -0.025847
  20 O :   -0.326881
  21 H :    0.112944
  22 H :    0.114738
  23 O :   -0.411411
  24 H :    0.114384
  25 H :    0.130234
  26 H :    0.103914
  27 H :    0.100468
  28 H :    0.283270

  Mayer bond orders larger than 0.100000
B(  0-C ,  1-C ) :   0.9360 B(  0-C ,  4-O ) :   0.9365 B(  0-C ,  5-H ) :   0.9264
B(  0-C , 15-O ) :   0.8232 B(  1-C ,  2-C ) :   0.9486 B(  1-C ,  6-H ) :   0.9331
B(  1-C ,  7-H ) :   0.9256 B(  2-C ,  3-C ) :   0.9547 B(  2-C ,  8-H ) :   0.9449
B(  2-C ,  9-H ) :   0.9297 B(  3-C ,  4-O ) :   0.8335 B(  3-C , 10-H ) :   0.9290
B(  3-C , 11-H ) :   0.9396 B( 12-C , 13-H ) :   0.9088 B( 12-C , 14-H ) :   0.9071
B( 12-C , 15-O ) :   0.8356 B( 12-C , 16-C ) :   0.9075 B( 16-C , 17-C ) :   0.8881
B( 16-C , 20-O ) :   0.8773 B( 16-C , 21-H ) :   0.9280 B( 17-C , 18-C ) :   0.9342
B( 17-C , 22-H ) :   0.9365 B( 17-C , 23-O ) :   0.9021 B( 18-C , 19-C ) :   0.9476
B( 18-C , 24-H ) :   0.9406 B( 18-C , 25-H ) :   0.9212 B( 19-C , 20-O ) :   0.8326
B( 19-C , 26-H ) :   0.9259 B( 19-C , 27-H ) :   0.9377 B( 23-O , 28-H ) :   0.7923

FINAL SINGLE POINT ENERGY      -652.859254929560

DIPOLE MOMENT
-------------
                                X             Y             Z
Electronic contribution:     -2.74881      -2.39788      -1.50554
Nuclear contribution   :      3.66340       2.83366       1.38801
                        -----------------------------------------
Total Dipole Moment    :      0.91459       0.43579      -0.11754
                        -----------------------------------------
Magnitude (a.u.)       :      1.01990
Magnitude (Debye)      :      2.59239

Rotational constants in cm-1:     0.046378     0.017769     0.016544
Rotational constants in MHz :  1390.371201   532.688295   495.977880

                             ****ORCA TERMINATED NORMALLY****
TOTAL RUN TIME: 0 days 0 hours 40 minutes 45 seconds 368 msec
