                         Program Version 4.2.0 -  RELEASE  -
|  1> # Test redundant internal optimization
|  2> #
|  3> ! RKS B3LYP  Opt TightSCF SmallPrint
|  4>
|  5> %basis
|  6>         Basis "6-31G"
|  7> end
|  8>
|  9> %geom
| 10> Constraints
| 11> { D 4  0  15  12  210.0   C } # D for Dihedral angle
| 12> { D 0  15  12  16  60.0   C } # D for Dihedral angle
| 13> { D 0  4  3  2   C } # D for Dihedral angle
| 14> { D 4  3  2  1   C } # D for Dihedral angle
| 15> { D 3  2  1  0   C } # D for Dihedral angle
| 16> { D 2  1  0  4   C } # D for Dihedral angle
| 17> { D 1  0  4  3   C } # D for Dihedral angle
| 18> { D 16  20  19  18   C } # D for Dihedral angle
| 19> { D 20  19  18  17   C } # D for Dihedral angle
| 20> { D 19  18  17  16   C } # D for Dihedral angle
| 21> { D 18  17  16  20   C } # D for Dihedral angle
| 22> { D 17  16  20  19   C } # D for Dihedral angle
| 23> { D 15  12  16  20   C } # D for Dihedral angle
| 24> end
| 25> end
| 26>
| 27>
| 28> #%pal
| 29> #nprocs 8
| 30> #end
| 31>
| 32> * xyz 0 1
| 33> C  -21.048   26.222   46.251
| 34> C  -20.361   27.558   45.944
| 35> C  -20.329   28.222   47.341
| 36> C  -20.110   27.022   48.296
| 37> O  -20.473   25.807   47.535
| 38> H  -20.833   25.428   45.533
| 39> H  -19.344   27.382   45.576
| 40> H  -20.898   28.157   45.201
| 41> H  -19.543   28.978   47.434
| 42> H  -21.289   28.710   47.548
| 43> H  -20.733   27.082   49.195
| 44> H  -19.064   26.913   48.597
| 45> C  -23.389   26.110   45.076
| 46> H  -24.457   26.268   45.269
| 47> H  -23.080   26.796   44.276
| 48> O  -22.586   26.394   46.375
| 49> C  -23.196   24.659   44.556
| 50> C  -23.908   24.449   43.215
| 51> C  -22.912   25.101   42.226
| 52> C  -21.532   24.768   42.847
| 53> O  -21.783   24.405   44.258
| 54> H  -23.490   23.956   45.338
| 55> H  -24.014   23.379   43.007
| 56> O  -25.318   25.099   43.164
| 57> H  -23.014   24.717   41.206
| 58> H  -23.069   26.185   42.193
| 59> H  -20.841   25.617   42.812
| 60> H  -21.057   23.905   42.371
| 61> H  -25.237   26.173   43.367
| 62> *
| 63>
| 64>                          ****END OF INPUT****
 Total Charge           Charge          ....    0
 Multiplicity           Mult            ....    1
 Number of Electrons    NEL             ....  102
FINAL SINGLE POINT ENERGY      -652.824675050263
FINAL SINGLE POINT ENERGY      -652.848254250490
FINAL SINGLE POINT ENERGY      -652.852521232839
FINAL SINGLE POINT ENERGY      -652.855103796123
FINAL SINGLE POINT ENERGY      -652.855338935155
FINAL SINGLE POINT ENERGY      -652.855403980438
FINAL SINGLE POINT ENERGY      -652.855410654943
FINAL SINGLE POINT ENERGY      -652.855412147217
                    ***********************HURRAY********************

CARTESIAN COORDINATES (ANGSTROEM)
---------------------------------
  C    -20.913438   26.239196   46.235825
  C    -20.276024   27.610586   46.019954
  C    -20.423758   28.257181   47.418813
  C    -20.238634   27.057228   48.371994
  O    -20.460247   25.846004   47.541007
  H    -20.639920   25.453628   45.536029
  H    -19.219020   27.484760   45.755336
  H    -20.765380   28.187446   45.229069
  H    -19.691919   29.050826   47.597049
  H    -21.427947   28.678231   47.522704
  H    -20.952950   27.050638   49.199379
  H    -19.221802   26.982988   48.769957
  C    -23.182945   26.125406   45.125385
  H    -24.210642   26.287466   45.463569
  H    -22.954752   26.878343   44.348841
  O    -22.372836   26.378688   46.298693
  C    -23.092740   24.716024   44.527139
  C    -23.962141   24.523029   43.270286
  C    -23.022539   25.062156   42.147158
  C    -21.621434   24.633293   42.638317
  O    -21.748837   24.335638   44.091017
  H    -23.351073   23.999858   45.313225
  H    -24.156854   23.458561   43.125424
  O    -25.273080   25.131146   43.318978
  H    -23.272924   24.649583   41.166788
  H    -23.109873   26.155049   42.088547
  H    -20.863267   25.410697   42.499804
  H    -21.275891   23.714497   42.156888
  H    -25.205134   26.103853   43.229824

 Multiplicity           Mult            ....    1
 Number of Electrons    NEL             ....  102
 Basis Dimension        Dim             ....  149

ORBITAL ENERGIES
----------------

  NO   OCC          E(Eh)            E(eV)
   0   2.0000     -19.154890      -521.2311
   1   2.0000     -19.150665      -521.1161
   2   2.0000     -19.131326      -520.5898
   3   2.0000     -19.128312      -520.5078
   4   2.0000     -10.260944      -279.2145
   5   2.0000     -10.251492      -278.9573
   6   2.0000     -10.240140      -278.6484
   7   2.0000     -10.235581      -278.5243
   8   2.0000     -10.233636      -278.4714
   9   2.0000     -10.215221      -277.9703
  10   2.0000     -10.202693      -277.6294
  11   2.0000     -10.177933      -276.9556
  12   2.0000     -10.177812      -276.9523
  13   2.0000      -1.044738       -28.4288
  14   2.0000      -1.037029       -28.2190
  15   2.0000      -1.024056       -27.8660
  16   2.0000      -0.983077       -26.7509
  17   2.0000      -0.790211       -21.5027
  18   2.0000      -0.778414       -21.1817
  19   2.0000      -0.767986       -20.8980
  20   2.0000      -0.726888       -19.7796
  21   2.0000      -0.681423       -18.5425
  22   2.0000      -0.619611       -16.8605
  23   2.0000      -0.598129       -16.2759
  24   2.0000      -0.588700       -16.0194
  25   2.0000      -0.566650       -15.4193
  26   2.0000      -0.535192       -14.5633
  27   2.0000      -0.510249       -13.8846
  28   2.0000      -0.497323       -13.5328
  29   2.0000      -0.481279       -13.0963
  30   2.0000      -0.470539       -12.8040
  31   2.0000      -0.455758       -12.4018
  32   2.0000      -0.441530       -12.0146
  33   2.0000      -0.439485       -11.9590
  34   2.0000      -0.430307       -11.7092
  35   2.0000      -0.422763       -11.5040
  36   2.0000      -0.405120       -11.0239
  37   2.0000      -0.393970       -10.7205
  38   2.0000      -0.387054       -10.5323
  39   2.0000      -0.368714       -10.0332
  40   2.0000      -0.359422        -9.7804
  41   2.0000      -0.348474        -9.4825
  42   2.0000      -0.344828        -9.3832
  43   2.0000      -0.333761        -9.0821
  44   2.0000      -0.324419        -8.8279
  45   2.0000      -0.302037        -8.2189
  46   2.0000      -0.300646        -8.1810
  47   2.0000      -0.278365        -7.5747
  48   2.0000      -0.263633        -7.1738
  49   2.0000      -0.250501        -6.8165
  50   2.0000      -0.229330        -6.2404
  51   0.0000       0.045511         1.2384
  52   0.0000       0.067003         1.8232
  53   0.0000       0.085381         2.3233
  54   0.0000       0.097801         2.6613
  55   0.0000       0.100943         2.7468

MULLIKEN ATOMIC CHARGES
-----------------------
   0 C :    0.261056
   1 C :   -0.261424
   2 C :   -0.296813
   3 C :   -0.000137
   4 O :   -0.501035
   5 H :    0.198506
   6 H :    0.140756
   7 H :    0.132252
   8 H :    0.136021
   9 H :    0.158460
  10 H :    0.150210
  11 H :    0.137131
  12 C :   -0.017823
  13 H :    0.161759
  14 H :    0.100637
  15 O :   -0.520794
  16 C :    0.082483
  17 C :    0.085432
  18 C :   -0.320303
  19 C :   -0.018461
  20 O :   -0.515109
  21 H :    0.173398
  22 H :    0.172546
  23 O :   -0.595114
  24 H :    0.159431
  25 H :    0.136694
  26 H :    0.145843
  27 H :    0.157554
  28 H :    0.356846
Sum of atomic charges:   -0.0000000

LOEWDIN ATOMIC CHARGES
----------------------
   0 C :    0.167945
   1 C :   -0.227418
   2 C :   -0.217442
   3 C :   -0.027142
   4 O :   -0.305518
   5 H :    0.123980
   6 H :    0.111094
   7 H :    0.109488
   8 H :    0.111120
   9 H :    0.117363
  10 H :    0.107073
  11 H :    0.099870
  12 C :   -0.049584
  13 H :    0.121532
  14 H :    0.075222
  15 O :   -0.333621
  16 C :    0.007133
  17 C :    0.037270
  18 C :   -0.240949
  19 C :   -0.032106
  20 O :   -0.318653
  21 H :    0.122866
  22 H :    0.121637
  23 O :   -0.402646
  24 H :    0.124182
  25 H :    0.105400
  26 H :    0.103081
  27 H :    0.110069
  28 H :    0.278753

  Mayer bond orders larger than 0.100000
B(  0-C ,  1-C ) :   0.9341 B(  0-C ,  4-O ) :   0.9266 B(  0-C ,  5-H ) :   0.8882
B(  0-C , 15-O ) :   0.8089 B(  1-C ,  2-C ) :   0.9534 B(  1-C ,  6-H ) :   0.9364
B(  1-C ,  7-H ) :   0.9396 B(  2-C ,  3-C ) :   0.9562 B(  2-C ,  8-H ) :   0.9458
B(  2-C ,  9-H ) :   0.9442 B(  3-C ,  4-O ) :   0.8421 B(  3-C , 10-H ) :   0.9348
B(  3-C , 11-H ) :   0.9401 B( 12-C , 13-H ) :   0.9209 B( 12-C , 14-H ) :   0.9173
B( 12-C , 15-O ) :   0.8806 B( 12-C , 16-C ) :   0.8926 B( 16-C , 17-C ) :   0.8677
B( 16-C , 20-O ) :   0.8446 B( 16-C , 21-H ) :   0.9260 B( 17-C , 18-C ) :   0.9210
B( 17-C , 22-H ) :   0.9319 B( 17-C , 23-O ) :   0.9034 B( 18-C , 19-C ) :   0.9412
B( 18-C , 24-H ) :   0.9418 B( 18-C , 25-H ) :   0.9400 B( 19-C , 20-O ) :   0.8373
B( 19-C , 26-H ) :   0.9313 B( 19-C , 27-H ) :   0.9374 B( 23-O , 28-H ) :   0.7976

FINAL SINGLE POINT ENERGY      -652.855412036861

DIPOLE MOMENT
-------------
                                X             Y             Z
Electronic contribution:     -2.34749      -4.64389       1.77236
Nuclear contribution   :      2.57206       5.74842      -3.16363
                        -----------------------------------------
Total Dipole Moment    :      0.22457       1.10453      -1.39127
                        -----------------------------------------
Magnitude (a.u.)       :      1.79054
Magnitude (Debye)      :      4.55120

Rotational constants in cm-1:     0.058881     0.013059     0.012271
Rotational constants in MHz :  1765.199009   391.512460   367.862260

                             ****ORCA TERMINATED NORMALLY****
TOTAL RUN TIME: 0 days 0 hours 25 minutes 56 seconds 376 msec
