                         Program Version 4.2.1 -  RELEASE  -
|  1> # Test redundant internal optimization
|  2> #
|  3> ! RKS B3LYP  Opt TightSCF SmallPrint
|  4>
|  5> %basis
|  6>         Basis "6-31G"
|  7> end
|  8>
|  9> %geom
| 10> Constraints
| 11> { D 4  0  19  14  330.0   C } # D for Dihedral angle
| 12> { D 0  19  14  12  225.0   C } # D for Dihedral angle
| 13> { D 0  4  3  2   C } # D for Dihedral angle
| 14> { D 4  3  2  1   C } # D for Dihedral angle
| 15> { D 3  2  1  0   C } # D for Dihedral angle
| 16> { D 2  1  0  4   C } # D for Dihedral angle
| 17> { D 1  0  4  3   C } # D for Dihedral angle
| 18> { D 14  15  16  17   C } # D for Dihedral angle
| 19> { D 15  16  17  12   C } # D for Dihedral angle
| 20> { D 16  17  12  14   C } # D for Dihedral angle
| 21> { D 17  12  14  15   C } # D for Dihedral angle
| 22> { D 12  14  15  16   C } # D for Dihedral angle
| 23> end
| 24> end
| 25>
| 26>
| 27> #%pal
| 28> #nprocs 8
| 29> #end
| 30>
| 31> * xyz 0 1
| 32> C  -21.048   26.222   46.251
| 33> C  -20.361   27.558   45.944
| 34> C  -20.329   28.222   47.341
| 35> C  -20.110   27.022   48.296
| 36> O  -20.473   25.807   47.535
| 37> H  -20.833   25.428   45.533
| 38> H  -19.344   27.382   45.576
| 39> H  -20.898   28.157   45.201
| 40> H  -19.543   28.978   47.434
| 41> H  -21.289   28.710   47.548
| 42> H  -20.733   27.082   49.195
| 43> H  -19.064   26.913   48.597
| 44> C  -24.359   24.895   46.760
| 45> H  -24.998   24.476   47.554
| 46> C  -23.087   25.523   47.341
| 47> C  -22.211   24.276   47.601
| 48> C  -22.582   23.334   46.428
| 49> O  -23.866   23.827   45.883
| 50> H  -24.954   25.568   46.140
| 51> O  -22.472   26.381   46.366
| 52> H  -23.272   26.109   48.248
| 53> H  -21.141   24.506   47.629
| 54> H  -22.480   23.819   48.562
| 55> H  -22.704   22.293   46.747
| 56> H  -21.852   23.372   45.614
| 57> *
| 58>
| 59>                          ****END OF INPUT****
 Total Charge           Charge          ....    0
 Multiplicity           Mult            ....    1
 Number of Electrons    NEL             ....   86
FINAL SINGLE POINT ENERGY      -538.389680032636
FINAL SINGLE POINT ENERGY      -538.427320467754
FINAL SINGLE POINT ENERGY      -538.429237984170
FINAL SINGLE POINT ENERGY      -538.429539930898
FINAL SINGLE POINT ENERGY      -538.429585216681
FINAL SINGLE POINT ENERGY      -538.429596517003
                    ***********************HURRAY********************

CARTESIAN COORDINATES (ANGSTROEM)
---------------------------------
  C    -20.916031   26.283297   46.235686
  C    -20.477145   27.722012   45.957299
  C    -20.343605   28.292688   47.387790
  C    -19.825049   27.086915   48.203931
  O    -20.123785   25.881603   47.380860
  H    -20.675519   25.561032   45.449955
  H    -19.509876   27.710495   45.441838
  H    -21.205043   28.256993   45.344615
  H    -19.664041   29.148715   47.438580
  H    -21.326128   28.610229   47.748826
  H    -20.315121   26.981291   49.175918
  H    -18.740730   27.103052   48.348016
  C    -24.305442   24.927231   46.578939
  H    -25.104507   24.606297   47.263835
  C    -23.087970   25.422041   47.361267
  C    -22.414953   24.094722   47.759250
  C    -22.685816   23.175828   46.547082
  O    -23.801124   23.796048   45.793436
  H    -24.686911   25.672612   45.880514
  O    -22.348007   26.296690   46.441450
  H    -23.358973   26.023622   48.236722
  H    -21.357258   24.212815   47.986144
  H    -22.927660   23.716472   48.652150
  H    -22.972016   22.160656   46.843754
  H    -21.830292   23.116646   45.866143

 Multiplicity           Mult            ....    1
 Number of Electrons    NEL             ....   86
 Basis Dimension        Dim             ....  127

ORBITAL ENERGIES
----------------

  NO   OCC          E(Eh)            E(eV)
   0   2.0000     -19.149435      -521.0826
   1   2.0000     -19.134811      -520.6847
   2   2.0000     -19.123256      -520.3703
   3   2.0000     -10.280243      -279.7396
   4   2.0000     -10.237930      -278.5882
   5   2.0000     -10.232171      -278.4315
   6   2.0000     -10.215692      -277.9831
   7   2.0000     -10.215192      -277.9695
   8   2.0000     -10.189249      -277.2636
   9   2.0000     -10.185375      -277.1581
  10   2.0000     -10.175147      -276.8798
  11   2.0000      -1.052115       -28.6295
  12   2.0000      -1.009296       -27.4643
  13   2.0000      -0.984868       -26.7996
  14   2.0000      -0.794072       -21.6078
  15   2.0000      -0.774322       -21.0704
  16   2.0000      -0.741642       -20.1811
  17   2.0000      -0.717841       -19.5335
  18   2.0000      -0.614859       -16.7312
  19   2.0000      -0.602206       -16.3869
  20   2.0000      -0.592382       -16.1195
  21   2.0000      -0.561190       -15.2708
  22   2.0000      -0.521219       -14.1831
  23   2.0000      -0.492387       -13.3985
  24   2.0000      -0.489034       -13.3073
  25   2.0000      -0.481019       -13.0892
  26   2.0000      -0.453049       -12.3281
  27   2.0000      -0.444174       -12.0866
  28   2.0000      -0.416234       -11.3263
  29   2.0000      -0.410010       -11.1569
  30   2.0000      -0.405600       -11.0369
  31   2.0000      -0.387980       -10.5575
  32   2.0000      -0.369061       -10.0427
  33   2.0000      -0.362337        -9.8597
  34   2.0000      -0.359613        -9.7856
  35   2.0000      -0.357432        -9.7262
  36   2.0000      -0.346875        -9.4389
  37   2.0000      -0.326392        -8.8816
  38   2.0000      -0.302849        -8.2409
  39   2.0000      -0.290754        -7.9118
  40   2.0000      -0.261672        -7.1205
  41   2.0000      -0.249447        -6.7878
  42   2.0000      -0.230811        -6.2807
  43   0.0000       0.073591         2.0025
  44   0.0000       0.097749         2.6599
  45   0.0000       0.103331         2.8118
  46   0.0000       0.106161         2.8888
  47   0.0000       0.118246         3.2176

MULLIKEN ATOMIC CHARGES
-----------------------
   0 C :    0.311932
   1 C :   -0.258441
   2 C :   -0.302009
   3 C :   -0.013849
   4 O :   -0.518530
   5 H :    0.153879
   6 H :    0.144368
   7 H :    0.163973
   8 H :    0.144403
   9 H :    0.158013
  10 H :    0.143747
  11 H :    0.150486
  12 C :    0.005961
  13 H :    0.119217
  14 C :    0.092767
  15 C :   -0.330745
  16 C :   -0.008829
  17 O :   -0.522872
  18 H :    0.165487
  19 O :   -0.548801
  20 H :    0.129601
  21 H :    0.202030
  22 H :    0.135395
  23 H :    0.135811
  24 H :    0.147004
Sum of atomic charges:    0.0000000

LOEWDIN ATOMIC CHARGES
----------------------
   0 C :    0.184360
   1 C :   -0.214138
   2 C :   -0.216861
   3 C :   -0.031655
   4 O :   -0.325710
   5 H :    0.099893
   6 H :    0.113462
   7 H :    0.127993
   8 H :    0.115724
   9 H :    0.117015
  10 H :    0.102803
  11 H :    0.106199
  12 C :   -0.036139
  13 H :    0.088080
  14 C :    0.048169
  15 C :   -0.248649
  16 C :   -0.032142
  17 O :   -0.333866
  18 H :    0.121299
  19 O :   -0.339996
  20 H :    0.097775
  21 H :    0.143270
  22 H :    0.112545
  23 H :    0.098693
  24 H :    0.101877

  Mayer bond orders larger than 0.100000
B(  0-C ,  1-C ) :   0.9410 B(  0-C ,  4-O ) :   0.8856 B(  0-C ,  5-H ) :   0.9219
B(  0-C , 19-O ) :   0.8520 B(  1-C ,  2-C ) :   0.9549 B(  1-C ,  6-H ) :   0.9376
B(  1-C ,  7-H ) :   0.9355 B(  2-C ,  3-C ) :   0.9562 B(  2-C ,  8-H ) :   0.9445
B(  2-C ,  9-H ) :   0.9449 B(  3-C ,  4-O ) :   0.8289 B(  3-C , 10-H ) :   0.9355
B(  3-C , 11-H ) :   0.9399 B( 12-C , 13-H ) :   0.9140 B( 12-C , 14-C ) :   0.9271
B( 12-C , 17-O ) :   0.8710 B( 12-C , 18-H ) :   0.9311 B( 14-C , 15-C ) :   0.9445
B( 14-C , 19-O ) :   0.8236 B( 14-C , 20-H ) :   0.9278 B( 15-C , 16-C ) :   0.9436
B( 15-C , 21-H ) :   0.9032 B( 15-C , 22-H ) :   0.9356 B( 16-C , 17-O ) :   0.8580
B( 16-C , 23-H ) :   0.9334 B( 16-C , 24-H ) :   0.9352

FINAL SINGLE POINT ENERGY      -538.429597416931

DIPOLE MOMENT
-------------
                                X             Y             Z
Electronic contribution:     -1.53426      -1.93860      -2.28939
Nuclear contribution   :      2.10979       2.70982       3.22574
                        -----------------------------------------
Total Dipole Moment    :      0.57553       0.77122       0.93635
                        -----------------------------------------
Magnitude (a.u.)       :      1.34267
Magnitude (Debye)      :      3.41280

Rotational constants in cm-1:     0.082082     0.022634     0.021055
Rotational constants in MHz :  2460.755902   678.551028   631.221064

                             ****ORCA TERMINATED NORMALLY****
TOTAL RUN TIME: 0 days 0 hours 8 minutes 25 seconds 975 msec
