                         Program Version 4.2.0 -  RELEASE  -
|  1> # Test redundant internal optimization
|  2> #
|  3> ! RKS B3LYP  Opt TightSCF SmallPrint
|  4>
|  5> %basis
|  6>         Basis "6-31G"
|  7> end
|  8>
|  9> %geom
| 10> Constraints
| 11> { D 4  0  15  12  225.0   C } # D for Dihedral angle
| 12> { D 0  15  12  16  150.0   C } # D for Dihedral angle
| 13> { D 0  4  3  2   C } # D for Dihedral angle
| 14> { D 4  3  2  1   C } # D for Dihedral angle
| 15> { D 3  2  1  0   C } # D for Dihedral angle
| 16> { D 2  1  0  4   C } # D for Dihedral angle
| 17> { D 1  0  4  3   C } # D for Dihedral angle
| 18> { D 16  20  19  18   C } # D for Dihedral angle
| 19> { D 20  19  18  17   C } # D for Dihedral angle
| 20> { D 19  18  17  16   C } # D for Dihedral angle
| 21> { D 18  17  16  20   C } # D for Dihedral angle
| 22> { D 17  16  20  19   C } # D for Dihedral angle
| 23> { D 15  12  16  20   C } # D for Dihedral angle
| 24> end
| 25> end
| 26>
| 27>
| 28> #%pal
| 29> #nprocs 8
| 30> #end
| 31>
| 32> * xyz 0 1
| 33> C  -21.048   26.222   46.251
| 34> C  -20.361   27.558   45.944
| 35> C  -20.329   28.222   47.341
| 36> C  -20.110   27.022   48.296
| 37> O  -20.473   25.807   47.535
| 38> H  -20.833   25.428   45.533
| 39> H  -19.344   27.382   45.576
| 40> H  -20.898   28.157   45.201
| 41> H  -19.543   28.978   47.434
| 42> H  -21.289   28.710   47.548
| 43> H  -20.733   27.082   49.195
| 44> H  -19.064   26.913   48.597
| 45> C  -23.415   25.773   45.218
| 46> H  -23.543   26.519   44.423
| 47> H  -22.893   24.906   44.794
| 48> O  -22.586   26.394   46.375
| 49> C  -24.823   25.300   45.675
| 50> C  -25.567   24.589   44.539
| 51> C  -24.917   23.186   44.567
| 52> C  -24.652   22.952   46.075
| 53> O  -24.706   24.280   46.723
| 54> H  -25.361   26.145   46.109
| 55> H  -26.636   24.525   44.771
| 56> O  -25.407   25.299   43.167
| 57> H  -25.557   22.412   44.131
| 58> H  -23.975   23.196   44.006
| 59> H  -23.670   22.501   46.264
| 60> H  -25.422   22.333   46.544
| 61> H  -24.344   25.375   42.912
| 62> *
| 63>
| 64>                          ****END OF INPUT****
 Total Charge           Charge          ....    0
 Multiplicity           Mult            ....    1
 Number of Electrons    NEL             ....  102
FINAL SINGLE POINT ENERGY      -652.825083989917
FINAL SINGLE POINT ENERGY      -652.848627803347
FINAL SINGLE POINT ENERGY      -652.852947699659
FINAL SINGLE POINT ENERGY      -652.853721402255
FINAL SINGLE POINT ENERGY      -652.853876048201
FINAL SINGLE POINT ENERGY      -652.853910301632
FINAL SINGLE POINT ENERGY      -652.853919757021
FINAL SINGLE POINT ENERGY      -652.853921539055
                    ***********************HURRAY********************

CARTESIAN COORDINATES (ANGSTROEM)
---------------------------------
  C    -21.019156   26.205183   46.175605
  C    -20.380247   27.575719   45.958422
  C    -20.470407   28.199041   47.372181
  C    -20.258298   26.982096   48.298689
  O    -20.519907   25.786005   47.456844
  H    -20.739893   25.433095   45.450621
  H    -19.333933   27.449497   45.654379
  H    -20.899164   28.162590   45.196052
  H    -19.726961   28.984813   47.535195
  H    -21.466996   28.625264   47.521090
  H    -20.942709   26.964249   49.150052
  H    -19.228142   26.893813   48.657028
  C    -23.224714   25.774408   45.133447
  H    -23.374828   26.526398   44.345075
  H    -22.678105   24.920619   44.701117
  O    -22.463150   26.332031   46.231126
  C    -24.586699   25.329799   45.665247
  C    -25.486625   24.674677   44.603941
  C    -24.968366   23.205380   44.604747
  C    -24.607503   22.975177   46.088754
  O    -24.484188   24.318706   46.710175
  H    -25.064697   26.194253   46.134242
  H    -26.525056   24.710932   44.940535
  O    -25.501448   25.321274   43.306980
  H    -25.718362   22.502126   44.232800
  H    -24.082880   23.127547   43.959326
  H    -23.665417   22.433783   46.220911
  H    -25.397027   22.444591   46.629590
  H    -24.684120   25.112936   42.809829

 Multiplicity           Mult            ....    1
 Number of Electrons    NEL             ....  102
 Basis Dimension        Dim             ....  149

ORBITAL ENERGIES
----------------

  NO   OCC          E(Eh)            E(eV)
   0   2.0000     -19.150944      -521.1237
   1   2.0000     -19.136816      -520.7393
   2   2.0000     -19.133991      -520.6624
   3   2.0000     -19.133798      -520.6571
   4   2.0000     -10.276647      -279.6418
   5   2.0000     -10.245505      -278.7944
   6   2.0000     -10.232772      -278.4479
   7   2.0000     -10.228871      -278.3417
   8   2.0000     -10.228368      -278.3281
   9   2.0000     -10.219260      -278.0802
  10   2.0000     -10.196039      -277.4483
  11   2.0000     -10.182228      -277.0725
  12   2.0000     -10.181416      -277.0504
  13   2.0000      -1.048953       -28.5435
  14   2.0000      -1.033238       -28.1158
  15   2.0000      -1.014329       -27.6013
  16   2.0000      -0.990648       -26.9569
  17   2.0000      -0.784511       -21.3476
  18   2.0000      -0.780926       -21.2501
  19   2.0000      -0.766119       -20.8471
  20   2.0000      -0.727400       -19.7936
  21   2.0000      -0.679467       -18.4892
  22   2.0000      -0.611067       -16.6280
  23   2.0000      -0.594786       -16.1850
  24   2.0000      -0.587735       -15.9931
  25   2.0000      -0.579432       -15.7672
  26   2.0000      -0.528757       -14.3882
  27   2.0000      -0.509941       -13.8762
  28   2.0000      -0.498003       -13.5513
  29   2.0000      -0.485651       -13.2152
  30   2.0000      -0.465244       -12.6599
  31   2.0000      -0.457948       -12.4614
  32   2.0000      -0.448705       -12.2099
  33   2.0000      -0.431116       -11.7313
  34   2.0000      -0.428148       -11.6505
  35   2.0000      -0.417552       -11.3622
  36   2.0000      -0.403917       -10.9912
  37   2.0000      -0.395432       -10.7602
  38   2.0000      -0.378916       -10.3108
  39   2.0000      -0.368537       -10.0284
  40   2.0000      -0.353665        -9.6237
  41   2.0000      -0.350365        -9.5339
  42   2.0000      -0.347453        -9.4547
  43   2.0000      -0.330378        -8.9900
  44   2.0000      -0.314107        -8.5473
  45   2.0000      -0.308360        -8.3909
  46   2.0000      -0.304903        -8.2968
  47   2.0000      -0.271171        -7.3789
  48   2.0000      -0.259749        -7.0681
  49   2.0000      -0.245046        -6.6680
  50   2.0000      -0.236877        -6.4457
  51   0.0000       0.049716         1.3528
  52   0.0000       0.073553         2.0015
  53   0.0000       0.088347         2.4041
  54   0.0000       0.095112         2.5881
  55   0.0000       0.108564         2.9542

MULLIKEN ATOMIC CHARGES
-----------------------
   0 C :    0.293176
   1 C :   -0.257032
   2 C :   -0.300494
   3 C :   -0.000659
   4 O :   -0.498610
   5 H :    0.132475
   6 H :    0.140009
   7 H :    0.142669
   8 H :    0.139535
   9 H :    0.164122
  10 H :    0.156866
  11 H :    0.138190
  12 C :   -0.007709
  13 H :    0.132772
  14 H :    0.109997
  15 O :   -0.507005
  16 C :    0.104228
  17 C :    0.074458
  18 C :   -0.324026
  19 C :   -0.014025
  20 O :   -0.499208
  21 H :    0.164800
  22 H :    0.170753
  23 O :   -0.599717
  24 H :    0.158646
  25 H :    0.130721
  26 H :    0.148822
  27 H :    0.151205
  28 H :    0.355041
Sum of atomic charges:   -0.0000000

LOEWDIN ATOMIC CHARGES
----------------------
   0 C :    0.179052
   1 C :   -0.225220
   2 C :   -0.216791
   3 C :   -0.025699
   4 O :   -0.308561
   5 H :    0.093931
   6 H :    0.110982
   7 H :    0.115553
   8 H :    0.113073
   9 H :    0.120172
  10 H :    0.110600
  11 H :    0.100549
  12 C :   -0.047183
  13 H :    0.095679
  14 H :    0.084808
  15 O :   -0.321364
  16 C :    0.022027
  17 C :    0.033443
  18 C :   -0.242435
  19 C :   -0.030835
  20 O :   -0.308668
  21 H :    0.120637
  22 H :    0.120422
  23 O :   -0.408343
  24 H :    0.122879
  25 H :    0.102338
  26 H :    0.105160
  27 H :    0.106651
  28 H :    0.277143

  Mayer bond orders larger than 0.100000
B(  0-C ,  1-C ) :   0.9366 B(  0-C ,  4-O ) :   0.9367 B(  0-C ,  5-H ) :   0.9183
B(  0-C , 15-O ) :   0.8411 B(  1-C ,  2-C ) :   0.9572 B(  1-C ,  6-H ) :   0.9357
B(  1-C ,  7-H ) :   0.9391 B(  2-C ,  3-C ) :   0.9546 B(  2-C ,  8-H ) :   0.9453
B(  2-C ,  9-H ) :   0.9432 B(  3-C ,  4-O ) :   0.8379 B(  3-C , 10-H ) :   0.9339
B(  3-C , 11-H ) :   0.9399 B( 12-C , 13-H ) :   0.9054 B( 12-C , 14-H ) :   0.9134
B( 12-C , 15-O ) :   0.8538 B( 12-C , 16-C ) :   0.9037 B( 16-C , 17-C ) :   0.8732
B( 16-C , 20-O ) :   0.8769 B( 16-C , 21-H ) :   0.9295 B( 17-C , 18-C ) :   0.9258
B( 17-C , 22-H ) :   0.9325 B( 17-C , 23-O ) :   0.8937 B( 18-C , 19-C ) :   0.9374
B( 18-C , 24-H ) :   0.9413 B( 18-C , 25-H ) :   0.9410 B( 19-C , 20-O ) :   0.8511
B( 19-C , 26-H ) :   0.9309 B( 19-C , 27-H ) :   0.9374 B( 23-O , 28-H ) :   0.7993

FINAL SINGLE POINT ENERGY      -652.853921860054

DIPOLE MOMENT
-------------
                                X             Y             Z
Electronic contribution:     -2.57624      -1.15575       0.97551
Nuclear contribution   :      3.13952       1.07153      -1.98569
                        -----------------------------------------
Total Dipole Moment    :      0.56327      -0.08422      -1.01018
                        -----------------------------------------
Magnitude (a.u.)       :      1.15967
Magnitude (Debye)      :      2.94764

Rotational constants in cm-1:     0.057728     0.012383     0.011135
Rotational constants in MHz :  1730.635013   371.246020   333.833182

                             ****ORCA TERMINATED NORMALLY****
TOTAL RUN TIME: 0 days 0 hours 24 minutes 11 seconds 748 msec
