                         Program Version 4.2.0 -  RELEASE  -
|  1> # Test redundant internal optimization
|  2> #
|  3> ! RKS B3LYP  Opt TightSCF SmallPrint
|  4>
|  5> %basis
|  6>         Basis "6-31G"
|  7> end
|  8>
|  9> %geom
| 10> Constraints
| 11> { D 4  0  15  12  285.0   C } # D for Dihedral angle
| 12> { D 0  15  12  16  195.0   C } # D for Dihedral angle
| 13> { D 0  4  3  2   C } # D for Dihedral angle
| 14> { D 4  3  2  1   C } # D for Dihedral angle
| 15> { D 3  2  1  0   C } # D for Dihedral angle
| 16> { D 2  1  0  4   C } # D for Dihedral angle
| 17> { D 1  0  4  3   C } # D for Dihedral angle
| 18> { D 16  20  19  18   C } # D for Dihedral angle
| 19> { D 20  19  18  17   C } # D for Dihedral angle
| 20> { D 19  18  17  16   C } # D for Dihedral angle
| 21> { D 18  17  16  20   C } # D for Dihedral angle
| 22> { D 17  16  20  19   C } # D for Dihedral angle
| 23> { D 15  12  16  20   C } # D for Dihedral angle
| 24> end
| 25> end
| 26>
| 27>
| 28> #%pal
| 29> #nprocs 8
| 30> #end
| 31>
| 32> * xyz 0 1
| 33> C  -21.048   26.222   46.251
| 34> C  -20.361   27.558   45.944
| 35> C  -20.329   28.222   47.341
| 36> C  -20.110   27.022   48.296
| 37> O  -20.473   25.807   47.535
| 38> H  -20.833   25.428   45.533
| 39> H  -19.344   27.382   45.576
| 40> H  -20.898   28.157   45.201
| 41> H  -19.543   28.978   47.434
| 42> H  -21.289   28.710   47.548
| 43> H  -20.733   27.082   49.195
| 44> H  -19.064   26.913   48.597
| 45> C  -23.396   25.070   46.435
| 46> H  -23.015   24.378   45.674
| 47> H  -23.282   24.595   47.418
| 48> O  -22.586   26.394   46.375
| 49> C  -24.915   25.283   46.186
| 50> C  -25.179   25.788   44.763
| 51> C  -25.070   24.482   43.941
| 52> C  -25.658   23.414   44.898
| 53> O  -25.629   24.004   46.254
| 54> H  -25.321   25.919   46.975
| 55> O  -26.612   26.380   44.666
| 56> H  -24.468   26.556   44.439
| 57> H  -25.611   24.533   42.990
| 58> H  -24.019   24.265   43.718
| 59> H  -25.076   22.487   44.898
| 60> H  -26.700   23.178   44.670
| 61> H  -27.344   25.628   44.986
| 62> *
| 63>
| 64>                          ****END OF INPUT****
 Total Charge           Charge          ....    0
 Multiplicity           Mult            ....    1
 Number of Electrons    NEL             ....  102
FINAL SINGLE POINT ENERGY      -652.840485644796
FINAL SINGLE POINT ENERGY      -652.864937325971
FINAL SINGLE POINT ENERGY      -652.868969649099
FINAL SINGLE POINT ENERGY      -652.869675553588
FINAL SINGLE POINT ENERGY      -652.869774173500
FINAL SINGLE POINT ENERGY      -652.869785801507
FINAL SINGLE POINT ENERGY      -652.869788764953
                    ***********************HURRAY********************

CARTESIAN COORDINATES (ANGSTROEM)
---------------------------------
  C    -21.102653   26.113745   46.245823
  C    -20.544108   27.497610   45.913605
  C    -20.560805   28.186078   47.297736
  C    -20.226877   27.030894   48.267702
  O    -20.490544   25.777965   47.513651
  H    -20.839431   25.306371   45.553707
  H    -19.520248   27.391708   45.537599
  H    -21.147114   28.016651   45.165787
  H    -19.842014   29.008155   47.368047
  H    -21.560719   28.581471   47.497721
  H    -20.843811   27.035971   49.169712
  H    -19.170915   27.006236   48.552770
  C    -23.270527   24.985405   46.456862
  H    -22.874959   24.254346   45.735127
  H    -23.164165   24.561468   47.460861
  O    -22.534376   26.238772   46.346828
  C    -24.738753   25.293988   46.173865
  C    -25.033318   25.820230   44.761839
  C    -25.040132   24.510081   43.933486
  C    -25.649900   23.476229   44.912944
  O    -25.526075   24.060181   46.272566
  H    -25.120038   25.983610   46.932031
  O    -26.324120   26.490523   44.717613
  H    -24.305312   26.554899   44.422595
  H    -25.631306   24.633410   43.022845
  H    -24.020332   24.234536   43.645074
  H    -25.132687   22.512237   44.892774
  H    -26.715517   23.303806   44.733156
  H    -26.975243   25.968423   45.232672

 Multiplicity           Mult            ....    1
 Number of Electrons    NEL             ....  102
 Basis Dimension        Dim             ....  149

ORBITAL ENERGIES
----------------

  NO   OCC          E(Eh)            E(eV)
   0   2.0000     -19.149557      -521.0859
   1   2.0000     -19.144697      -520.9537
   2   2.0000     -19.140535      -520.8404
   3   2.0000     -19.135160      -520.6942
   4   2.0000     -10.281281      -279.7679
   5   2.0000     -10.235787      -278.5299
   6   2.0000     -10.232743      -278.4471
   7   2.0000     -10.231763      -278.4204
   8   2.0000     -10.230130      -278.3760
   9   2.0000     -10.225303      -278.2446
  10   2.0000     -10.187815      -277.2245
  11   2.0000     -10.186553      -277.1902
  12   2.0000     -10.185280      -277.1555
  13   2.0000      -1.057280       -28.7700
  14   2.0000      -1.035660       -28.1817
  15   2.0000      -1.004081       -27.3224
  16   2.0000      -0.997200       -27.1352
  17   2.0000      -0.791061       -21.5259
  18   2.0000      -0.778435       -21.1823
  19   2.0000      -0.767478       -20.8841
  20   2.0000      -0.729674       -19.8554
  21   2.0000      -0.673725       -18.3330
  22   2.0000      -0.603858       -16.4318
  23   2.0000      -0.599344       -16.3090
  24   2.0000      -0.589230       -16.0338
  25   2.0000      -0.585295       -15.9267
  26   2.0000      -0.522617       -14.2211
  27   2.0000      -0.518883       -14.1195
  28   2.0000      -0.495387       -13.4802
  29   2.0000      -0.491625       -13.3778
  30   2.0000      -0.469810       -12.7842
  31   2.0000      -0.457227       -12.4418
  32   2.0000      -0.449460       -12.2304
  33   2.0000      -0.438768       -11.9395
  34   2.0000      -0.425281       -11.5725
  35   2.0000      -0.409793       -11.1510
  36   2.0000      -0.403064       -10.9679
  37   2.0000      -0.392171       -10.6715
  38   2.0000      -0.376944       -10.2572
  39   2.0000      -0.367833       -10.0092
  40   2.0000      -0.357745        -9.7347
  41   2.0000      -0.355229        -9.6663
  42   2.0000      -0.348982        -9.4963
  43   2.0000      -0.337334        -9.1793
  44   2.0000      -0.324204        -8.8220
  45   2.0000      -0.307077        -8.3560
  46   2.0000      -0.302385        -8.2283
  47   2.0000      -0.272395        -7.4122
  48   2.0000      -0.268610        -7.3093
  49   2.0000      -0.255478        -6.9519
  50   2.0000      -0.245864        -6.6903
  51   0.0000       0.065334         1.7778
  52   0.0000       0.073842         2.0093
  53   0.0000       0.094728         2.5777
  54   0.0000       0.099895         2.7183
  55   0.0000       0.106590         2.9005

MULLIKEN ATOMIC CHARGES
-----------------------
   0 C :    0.291237
   1 C :   -0.262052
   2 C :   -0.298546
   3 C :   -0.003096
   4 O :   -0.512163
   5 H :    0.138982
   6 H :    0.145824
   7 H :    0.155548
   8 H :    0.141567
   9 H :    0.164497
  10 H :    0.148893
  11 H :    0.142988
  12 C :    0.001255
  13 H :    0.123814
  14 H :    0.166234
  15 O :   -0.527593
  16 C :    0.054239
  17 C :    0.085684
  18 C :   -0.295332
  19 C :   -0.032938
  20 O :   -0.527440
  21 H :    0.169291
  22 O :   -0.602154
  23 H :    0.170266
  24 H :    0.162637
  25 H :    0.140505
  26 H :    0.146717
  27 H :    0.148263
  28 H :    0.362873
Sum of atomic charges:   -0.0000000

LOEWDIN ATOMIC CHARGES
----------------------
   0 C :    0.172112
   1 C :   -0.215505
   2 C :   -0.215737
   3 C :   -0.027408
   4 O :   -0.329316
   5 H :    0.094717
   6 H :    0.114550
   7 H :    0.123164
   8 H :    0.113834
   9 H :    0.120217
  10 H :    0.106424
  11 H :    0.102885
  12 C :   -0.038045
  13 H :    0.091189
  14 H :    0.114567
  15 O :   -0.328570
  16 C :    0.017169
  17 C :    0.036937
  18 C :   -0.241212
  19 C :   -0.038925
  20 O :   -0.330264
  21 H :    0.119635
  22 O :   -0.414611
  23 H :    0.124205
  24 H :    0.126879
  25 H :    0.111726
  26 H :    0.104240
  27 H :    0.103430
  28 H :    0.281711

  Mayer bond orders larger than 0.100000
B(  0-C ,  1-C ) :   0.9495 B(  0-C ,  4-O ) :   0.9108 B(  0-C ,  5-H ) :   0.9191
B(  0-C , 15-O ) :   0.8560 B(  1-C ,  2-C ) :   0.9572 B(  1-C ,  6-H ) :   0.9400
B(  1-C ,  7-H ) :   0.9361 B(  2-C ,  3-C ) :   0.9549 B(  2-C ,  8-H ) :   0.9451
B(  2-C ,  9-H ) :   0.9441 B(  3-C ,  4-O ) :   0.8364 B(  3-C , 10-H ) :   0.9357
B(  3-C , 11-H ) :   0.9403 B( 12-C , 13-H ) :   0.9186 B( 12-C , 14-H ) :   0.9168
B( 12-C , 15-O ) :   0.8162 B( 12-C , 16-C ) :   0.9076 B( 16-C , 17-C ) :   0.9102
B( 16-C , 20-O ) :   0.8434 B( 16-C , 21-H ) :   0.9243 B( 17-C , 18-C ) :   0.9124
B( 17-C , 22-O ) :   0.8924 B( 17-C , 23-H ) :   0.9249 B( 18-C , 19-C ) :   0.9425
B( 18-C , 24-H ) :   0.9375 B( 18-C , 25-H ) :   0.9355 B( 19-C , 20-O ) :   0.8442
B( 19-C , 26-H ) :   0.9354 B( 19-C , 27-H ) :   0.9377 B( 22-O , 28-H ) :   0.7955

FINAL SINGLE POINT ENERGY      -652.869789213468

DIPOLE MOMENT
-------------
                                X             Y             Z
Electronic contribution:     -3.20002      -1.48854       1.49258
Nuclear contribution   :      3.81363       1.44596      -1.96626
                        -----------------------------------------
Total Dipole Moment    :      0.61360      -0.04258      -0.47368
                        -----------------------------------------
Magnitude (a.u.)       :      0.77634
Magnitude (Debye)      :      1.97329

Rotational constants in cm-1:     0.060091     0.011995     0.011277
Rotational constants in MHz :  1801.495808   359.590748   338.064356

                             ****ORCA TERMINATED NORMALLY****
TOTAL RUN TIME: 0 days 0 hours 54 minutes 50 seconds 651 msec
