                         Program Version 4.2.0 -  RELEASE  -
|  1> # Test redundant internal optimization
|  2> #
|  3> ! RKS B3LYP  Opt TightSCF SmallPrint
|  4>
|  5> %basis
|  6>         Basis "6-31G"
|  7> end
|  8>
|  9> %geom
| 10> Constraints
| 11> { D 4  0  15  12  210.0   C } # D for Dihedral angle
| 12> { D 0  15  12  16  240.0   C } # D for Dihedral angle
| 13> { D 0  4  3  2   C } # D for Dihedral angle
| 14> { D 4  3  2  1   C } # D for Dihedral angle
| 15> { D 3  2  1  0   C } # D for Dihedral angle
| 16> { D 2  1  0  4   C } # D for Dihedral angle
| 17> { D 1  0  4  3   C } # D for Dihedral angle
| 18> { D 16  20  19  18   C } # D for Dihedral angle
| 19> { D 20  19  18  17   C } # D for Dihedral angle
| 20> { D 19  18  17  16   C } # D for Dihedral angle
| 21> { D 18  17  16  20   C } # D for Dihedral angle
| 22> { D 17  16  20  19   C } # D for Dihedral angle
| 23> { D 15  12  16  20   C } # D for Dihedral angle
| 24> end
| 25> end
| 26>
| 27>
| 28> #%pal
| 29> #nprocs 8
| 30> #end
| 31>
| 32> * xyz 0 1
| 33> C  -21.048   26.222   46.251
| 34> C  -20.361   27.558   45.944
| 35> C  -20.329   28.222   47.341
| 36> C  -20.110   27.022   48.296
| 37> O  -20.473   25.807   47.535
| 38> H  -20.833   25.428   45.533
| 39> H  -19.344   27.382   45.576
| 40> H  -20.898   28.157   45.201
| 41> H  -19.543   28.978   47.434
| 42> H  -21.289   28.710   47.548
| 43> H  -20.733   27.082   49.195
| 44> H  -19.064   26.913   48.597
| 45> C  -23.389   26.110   45.076
| 46> H  -22.695   25.820   44.277
| 47> H  -24.095   25.285   45.234
| 48> O  -22.586   26.394   46.375
| 49> C  -24.203   27.342   44.592
| 50> C  -23.278   28.495   44.185
| 51> C  -22.822   28.048   42.775
| 52> C  -24.079   27.341   42.207
| 53> O  -24.940   27.020   43.365
| 54> H  -24.943   27.603   45.351
| 55> O  -24.083   29.821   44.106
| 56> H  -22.441   28.641   44.876
| 57> H  -22.496   28.885   42.149
| 58> H  -21.985   27.344   42.856
| 59> H  -23.834   26.416   41.675
| 60> H  -24.658   27.988   41.544
| 61> H  -24.928   29.700   43.418
| 62> *
| 63>
| 64>                          ****END OF INPUT****
 Total Charge           Charge          ....    0
 Multiplicity           Mult            ....    1
 Number of Electrons    NEL             ....  102
FINAL SINGLE POINT ENERGY      -652.829284072902
FINAL SINGLE POINT ENERGY      -652.851790225670
FINAL SINGLE POINT ENERGY      -652.855879638811
FINAL SINGLE POINT ENERGY      -652.857055935272
FINAL SINGLE POINT ENERGY      -652.857196488577
FINAL SINGLE POINT ENERGY      -652.857215043283
                    ***********************HURRAY********************

CARTESIAN COORDINATES (ANGSTROEM)
---------------------------------
  C    -21.062886   26.199322   46.219894
  C    -20.291097   27.483358   45.921192
  C    -20.329197   28.209483   47.289676
  C    -20.244028   27.041060   48.294484
  O    -20.615936   25.825180   47.529492
  H    -20.847805   25.364837   45.543527
  H    -19.260120   27.217567   45.656739
  H    -20.709259   28.069513   45.102862
  H    -19.510856   28.925531   47.408651
  H    -21.277473   28.744586   47.399849
  H    -20.932337   27.145633   49.136619
  H    -19.229984   26.877414   48.671026
  C    -23.309817   26.131097   45.109355
  H    -22.676905   25.742886   44.296951
  H    -24.037588   25.354174   45.362690
  O    -22.507372   26.396805   46.295467
  C    -24.087489   27.359290   44.614078
  C    -23.287160   28.583609   44.146443
  C    -22.850564   28.148413   42.723007
  C    -24.060994   27.319962   42.223658
  O    -24.842879   26.946540   43.424797
  H    -24.817254   27.656755   45.372732
  O    -24.140499   29.761917   44.104259
  H    -22.468098   28.850216   44.807761
  H    -22.642161   29.019092   42.096956
  H    -21.944022   27.533950   42.772228
  H    -23.763400   26.409649   41.694265
  H    -24.724331   27.899435   41.573752
  H    -25.008490   29.516725   43.719589

 Multiplicity           Mult            ....    1
 Number of Electrons    NEL             ....  102
 Basis Dimension        Dim             ....  149

ORBITAL ENERGIES
----------------

  NO   OCC          E(Eh)            E(eV)
   0   2.0000     -19.149929      -521.0960
   1   2.0000     -19.142079      -520.8824
   2   2.0000     -19.141733      -520.8730
   3   2.0000     -19.141134      -520.8567
   4   2.0000     -10.284239      -279.8484
   5   2.0000     -10.244213      -278.7592
   6   2.0000     -10.237280      -278.5706
   7   2.0000     -10.236742      -278.5559
   8   2.0000     -10.234231      -278.4876
   9   2.0000     -10.226153      -278.2678
  10   2.0000     -10.195177      -277.4249
  11   2.0000     -10.190996      -277.3111
  12   2.0000     -10.188787      -277.2510
  13   2.0000      -1.054527       -28.6952
  14   2.0000      -1.042196       -28.3596
  15   2.0000      -1.010102       -27.4863
  16   2.0000      -0.995221       -27.0813
  17   2.0000      -0.789671       -21.4881
  18   2.0000      -0.784624       -21.3507
  19   2.0000      -0.771477       -20.9930
  20   2.0000      -0.735844       -20.0233
  21   2.0000      -0.678825       -18.4718
  22   2.0000      -0.610160       -16.6033
  23   2.0000      -0.603837       -16.4312
  24   2.0000      -0.596582       -16.2338
  25   2.0000      -0.585941       -15.9443
  26   2.0000      -0.526039       -14.3142
  27   2.0000      -0.521346       -14.1865
  28   2.0000      -0.500602       -13.6221
  29   2.0000      -0.492149       -13.3921
  30   2.0000      -0.477325       -12.9887
  31   2.0000      -0.459033       -12.4909
  32   2.0000      -0.457588       -12.4516
  33   2.0000      -0.440532       -11.9875
  34   2.0000      -0.424573       -11.5532
  35   2.0000      -0.420120       -11.4320
  36   2.0000      -0.409009       -11.1297
  37   2.0000      -0.396781       -10.7970
  38   2.0000      -0.379413       -10.3244
  39   2.0000      -0.373824       -10.1723
  40   2.0000      -0.365863        -9.9556
  41   2.0000      -0.359301        -9.7771
  42   2.0000      -0.354055        -9.6343
  43   2.0000      -0.335739        -9.1359
  44   2.0000      -0.313865        -8.5407
  45   2.0000      -0.312792        -8.5115
  46   2.0000      -0.306413        -8.3379
  47   2.0000      -0.276096        -7.5130
  48   2.0000      -0.267518        -7.2795
  49   2.0000      -0.261445        -7.1143
  50   2.0000      -0.240555        -6.5458
  51   0.0000       0.061292         1.6678
  52   0.0000       0.066400         1.8068
  53   0.0000       0.082643         2.2488
  54   0.0000       0.092955         2.5294
  55   0.0000       0.100496         2.7346

MULLIKEN ATOMIC CHARGES
-----------------------
   0 C :    0.297860
   1 C :   -0.273896
   2 C :   -0.303132
   3 C :   -0.000668
   4 O :   -0.498944
   5 H :    0.138491
   6 H :    0.146296
   7 H :    0.140797
   8 H :    0.144239
   9 H :    0.166059
  10 H :    0.156544
  11 H :    0.142156
  12 C :   -0.013584
  13 H :    0.119450
  14 H :    0.168508
  15 O :   -0.515979
  16 C :    0.061326
  17 C :    0.075101
  18 C :   -0.301186
  19 C :   -0.030646
  20 O :   -0.525216
  21 H :    0.169344
  22 O :   -0.604605
  23 H :    0.170641
  24 H :    0.165926
  25 H :    0.140532
  26 H :    0.149328
  27 H :    0.149918
  28 H :    0.365340
Sum of atomic charges:   -0.0000000

LOEWDIN ATOMIC CHARGES
----------------------
   0 C :    0.182603
   1 C :   -0.231578
   2 C :   -0.216839
   3 C :   -0.024621
   4 O :   -0.303255
   5 H :    0.095716
   6 H :    0.115182
   7 H :    0.111251
   8 H :    0.115607
   9 H :    0.119396
  10 H :    0.110540
  11 H :    0.102462
  12 C :   -0.038635
  13 H :    0.091362
  14 H :    0.118705
  15 O :   -0.339578
  16 C :    0.012033
  17 C :    0.034094
  18 C :   -0.242464
  19 C :   -0.038573
  20 O :   -0.329072
  21 H :    0.119156
  22 O :   -0.414157
  23 H :    0.120255
  24 H :    0.128260
  25 H :    0.109967
  26 H :    0.105025
  27 H :    0.104078
  28 H :    0.283077

  Mayer bond orders larger than 0.100000
B(  0-C ,  1-C ) :   0.9282 B(  0-C ,  4-O ) :   0.9405 B(  0-C ,  5-H ) :   0.9195
B(  0-C , 15-O ) :   0.8377 B(  1-C ,  2-C ) :   0.9539 B(  1-C ,  6-H ) :   0.9325
B(  1-C ,  7-H ) :   0.9242 B(  2-C ,  3-C ) :   0.9534 B(  2-C ,  8-H ) :   0.9448
B(  2-C ,  9-H ) :   0.9415 B(  3-C ,  4-O ) :   0.8347 B(  3-C , 10-H ) :   0.9342
B(  3-C , 11-H ) :   0.9396 B( 12-C , 13-H ) :   0.9237 B( 12-C , 14-H ) :   0.9251
B( 12-C , 15-O ) :   0.8405 B( 12-C , 16-C ) :   0.8917 B( 16-C , 17-C ) :   0.9112
B( 16-C , 20-O ) :   0.8336 B( 16-C , 21-H ) :   0.9249 B( 17-C , 18-C ) :   0.9142
B( 17-C , 22-O ) :   0.8858 B( 17-C , 23-H ) :   0.9133 B( 18-C , 19-C ) :   0.9379
B( 18-C , 24-H ) :   0.9372 B( 18-C , 25-H ) :   0.9328 B( 19-C , 20-O ) :   0.8428
B( 19-C , 26-H ) :   0.9348 B( 19-C , 27-H ) :   0.9376 B( 22-O , 28-H ) :   0.7934

FINAL SINGLE POINT ENERGY      -652.857217386201

DIPOLE MOMENT
-------------
                                X             Y             Z
Electronic contribution:     -4.27605      -2.28950       1.72741
Nuclear contribution   :      5.07816       2.62058      -2.66869
                        -----------------------------------------
Total Dipole Moment    :      0.80211       0.33108      -0.94128
                        -----------------------------------------
Magnitude (a.u.)       :      1.28024
Magnitude (Debye)      :      3.25410

Rotational constants in cm-1:     0.053399     0.014050     0.012875
Rotational constants in MHz :  1600.847946   421.198694   385.995792

                             ****ORCA TERMINATED NORMALLY****
TOTAL RUN TIME: 0 days 0 hours 22 minutes 7 seconds 16 msec
