                         Program Version 4.2.0 -  RELEASE  -
|  1> # Test redundant internal optimization
|  2> #
|  3> ! RKS B3LYP  Opt TightSCF SmallPrint
|  4>
|  5> %basis
|  6>         Basis "6-31G"
|  7> end
|  8>
|  9> %geom
| 10> Constraints
| 11> { D 4  0  15  12  60.0   C } # D for Dihedral angle
| 12> { D 0  15  12  16  255.0   C } # D for Dihedral angle
| 13> { D 0  4  3  2   C } # D for Dihedral angle
| 14> { D 4  3  2  1   C } # D for Dihedral angle
| 15> { D 3  2  1  0   C } # D for Dihedral angle
| 16> { D 2  1  0  4   C } # D for Dihedral angle
| 17> { D 1  0  4  3   C } # D for Dihedral angle
| 18> { D 16  20  19  18   C } # D for Dihedral angle
| 19> { D 20  19  18  17   C } # D for Dihedral angle
| 20> { D 19  18  17  16   C } # D for Dihedral angle
| 21> { D 18  17  16  20   C } # D for Dihedral angle
| 22> { D 17  16  20  19   C } # D for Dihedral angle
| 23> { D 15  12  16  20   C } # D for Dihedral angle
| 24> end
| 25> end
| 26>
| 27>
| 28> #%pal
| 29> #nprocs 8
| 30> #end
| 31>
| 32> * xyz 0 1
| 33> C  -21.048   26.222   46.251
| 34> C  -20.361   27.558   45.944
| 35> C  -20.329   28.222   47.341
| 36> C  -20.110   27.022   48.296
| 37> O  -20.473   25.807   47.535
| 38> H  -20.833   25.428   45.533
| 39> H  -19.344   27.382   45.576
| 40> H  -20.898   28.157   45.201
| 41> H  -19.543   28.978   47.434
| 42> H  -21.289   28.710   47.548
| 43> H  -20.733   27.082   49.195
| 44> H  -19.064   26.913   48.597
| 45> C  -23.051   27.452   47.413
| 46> H  -22.201   28.090   47.685
| 47> H  -23.836   28.089   46.987
| 48> O  -22.586   26.394   46.375
| 49> C  -23.614   26.811   48.712
| 50> C  -24.752   25.832   48.401
| 51> C  -23.970   24.579   47.940
| 52> C  -22.703   24.607   48.830
| 53> O  -22.592   25.984   49.361
| 54> H  -23.879   27.602   49.415
| 55> H  -25.322   25.617   49.312
| 56> O  -25.734   26.360   47.321
| 57> H  -24.542   23.653   48.058
| 58> H  -23.699   24.673   46.881
| 59> H  -21.792   24.363   48.273
| 60> H  -22.782   23.936   49.691
| 61> H  -25.184   26.581   46.400
| 62> *
| 63>
| 64>                          ****END OF INPUT****
 Total Charge           Charge          ....    0
 Multiplicity           Mult            ....    1
 Number of Electrons    NEL             ....  102
FINAL SINGLE POINT ENERGY      -652.789962323272
FINAL SINGLE POINT ENERGY      -652.833050482094
FINAL SINGLE POINT ENERGY      -652.852600746176
FINAL SINGLE POINT ENERGY      -652.857107180885
FINAL SINGLE POINT ENERGY      -652.858399111026
FINAL SINGLE POINT ENERGY      -652.858660381259
FINAL SINGLE POINT ENERGY      -652.858718993581
FINAL SINGLE POINT ENERGY      -652.858726633634
FINAL SINGLE POINT ENERGY      -652.858727472758
                    ***********************HURRAY********************

CARTESIAN COORDINATES (ANGSTROEM)
---------------------------------
  C    -21.106631   26.447310   46.324653
  C    -20.297780   27.687804   45.918463
  C    -19.951101   28.321266   47.300193
  C    -19.753930   27.071172   48.197066
  O    -20.406529   25.947305   47.478581
  H    -21.070079   25.653811   45.576159
  H    -19.386717   27.358218   45.407958
  H    -20.853520   28.355695   45.255381
  H    -19.041280   28.928723   47.254608
  H    -20.754331   28.967778   47.659872
  H    -20.222008   27.157064   49.180091
  H    -18.699555   26.803607   48.310055
  C    -23.171552   27.481149   47.477072
  H    -22.474284   28.229241   47.858839
  H    -23.974094   28.006548   46.946847
  O    -22.535555   26.612340   46.489081
  C    -23.786975   26.741598   48.666402
  C    -24.889269   25.733351   48.296798
  C    -24.059106   24.453040   47.970475
  C    -22.888861   24.543324   48.974799
  O    -22.840779   25.957560   49.441147
  H    -24.176265   27.515923   49.340098
  H    -25.546759   25.570221   49.153336
  O    -25.764482   26.169563   47.227181
  H    -24.648510   23.539093   48.088822
  H    -23.696619   24.520775   46.941259
  H    -21.920809   24.305290   48.533090
  H    -23.056664   23.928555   49.865114
  H    -25.289956   26.096675   46.372561

 Multiplicity           Mult            ....    1
 Number of Electrons    NEL             ....  102
 Basis Dimension        Dim             ....  149

ORBITAL ENERGIES
----------------

  NO   OCC          E(Eh)            E(eV)
   0   2.0000     -19.147321      -521.0251
   1   2.0000     -19.144905      -520.9593
   2   2.0000     -19.135596      -520.7061
   3   2.0000     -19.129197      -520.5319
   4   2.0000     -10.283903      -279.8392
   5   2.0000     -10.231273      -278.4071
   6   2.0000     -10.230444      -278.3845
   7   2.0000     -10.227286      -278.2986
   8   2.0000     -10.225360      -278.2462
   9   2.0000     -10.210740      -277.8484
  10   2.0000     -10.194682      -277.4114
  11   2.0000     -10.192981      -277.3651
  12   2.0000     -10.174012      -276.8489
  13   2.0000      -1.053937       -28.6791
  14   2.0000      -1.021740       -27.8030
  15   2.0000      -1.004293       -27.3282
  16   2.0000      -0.995694       -27.0942
  17   2.0000      -0.789899       -21.4942
  18   2.0000      -0.772825       -21.0296
  19   2.0000      -0.761454       -20.7202
  20   2.0000      -0.731923       -19.9166
  21   2.0000      -0.677713       -18.4415
  22   2.0000      -0.606895       -16.5145
  23   2.0000      -0.601302       -16.3623
  24   2.0000      -0.595033       -16.1917
  25   2.0000      -0.557719       -15.1763
  26   2.0000      -0.526162       -14.3176
  27   2.0000      -0.507069       -13.7981
  28   2.0000      -0.495263       -13.4768
  29   2.0000      -0.489454       -13.3187
  30   2.0000      -0.464491       -12.6395
  31   2.0000      -0.457555       -12.4507
  32   2.0000      -0.438459       -11.9311
  33   2.0000      -0.427248       -11.6260
  34   2.0000      -0.420752       -11.4492
  35   2.0000      -0.412516       -11.2251
  36   2.0000      -0.403023       -10.9668
  37   2.0000      -0.391853       -10.6629
  38   2.0000      -0.385700       -10.4954
  39   2.0000      -0.366753        -9.9799
  40   2.0000      -0.360226        -9.8023
  41   2.0000      -0.352638        -9.5958
  42   2.0000      -0.345385        -9.3984
  43   2.0000      -0.322862        -8.7855
  44   2.0000      -0.313353        -8.5268
  45   2.0000      -0.308762        -8.4019
  46   2.0000      -0.301419        -8.2020
  47   2.0000      -0.270901        -7.3716
  48   2.0000      -0.259924        -7.0729
  49   2.0000      -0.255270        -6.9462
  50   2.0000      -0.229251        -6.2382
  51   0.0000       0.065536         1.7833
  52   0.0000       0.086942         2.3658
  53   0.0000       0.092883         2.5275
  54   0.0000       0.097728         2.6593
  55   0.0000       0.108148         2.9429

MULLIKEN ATOMIC CHARGES
-----------------------
   0 C :    0.309523
   1 C :   -0.273587
   2 C :   -0.323135
   3 C :   -0.012113
   4 O :   -0.502649
   5 H :    0.162252
   6 H :    0.155019
   7 H :    0.150653
   8 H :    0.146399
   9 H :    0.154410
  10 H :    0.171934
  11 H :    0.145865
  12 C :   -0.034376
  13 H :    0.137606
  14 H :    0.151510
  15 O :   -0.545611
  16 C :    0.104126
  17 C :    0.087258
  18 C :   -0.315469
  19 C :   -0.011570
  20 O :   -0.525258
  21 H :    0.141785
  22 H :    0.159685
  23 O :   -0.610578
  24 H :    0.140557
  25 H :    0.161730
  26 H :    0.173215
  27 H :    0.134524
  28 H :    0.366294
Sum of atomic charges:   -0.0000000

LOEWDIN ATOMIC CHARGES
----------------------
   0 C :    0.177263
   1 C :   -0.226883
   2 C :   -0.224303
   3 C :   -0.033213
   4 O :   -0.313748
   5 H :    0.110929
   6 H :    0.121133
   7 H :    0.119605
   8 H :    0.116075
   9 H :    0.109432
  10 H :    0.117289
  11 H :    0.104594
  12 C :   -0.050164
  13 H :    0.102204
  14 H :    0.112540
  15 O :   -0.338346
  16 C :    0.011993
  17 C :    0.035964
  18 C :   -0.242044
  19 C :   -0.029625
  20 O :   -0.325076
  21 H :    0.111077
  22 H :    0.114910
  23 O :   -0.414149
  24 H :    0.113623
  25 H :    0.119503
  26 H :    0.118029
  27 H :    0.097674
  28 H :    0.283717

  Mayer bond orders larger than 0.100000
B(  0-C ,  1-C ) :   0.9225 B(  0-C ,  4-O ) :   0.9095 B(  0-C ,  5-H ) :   0.9367
B(  0-C , 15-O ) :   0.8740 B(  1-C ,  2-C ) :   0.9555 B(  1-C ,  6-H ) :   0.9347
B(  1-C ,  7-H ) :   0.9376 B(  2-C ,  3-C ) :   0.9480 B(  2-C ,  8-H ) :   0.9440
B(  2-C ,  9-H ) :   0.9348 B(  3-C ,  4-O ) :   0.8283 B(  3-C , 10-H ) :   0.9245
B(  3-C , 11-H ) :   0.9390 B( 12-C , 13-H ) :   0.9122 B( 12-C , 14-H ) :   0.9197
B( 12-C , 15-O ) :   0.8388 B( 12-C , 16-C ) :   0.8903 B( 16-C , 17-C ) :   0.8895
B( 16-C , 20-O ) :   0.8867 B( 16-C , 21-H ) :   0.9230 B( 17-C , 18-C ) :   0.9339
B( 17-C , 22-H ) :   0.9364 B( 17-C , 23-O ) :   0.8967 B( 18-C , 19-C ) :   0.9470
B( 18-C , 24-H ) :   0.9418 B( 18-C , 25-H ) :   0.9279 B( 19-C , 20-O ) :   0.8237
B( 19-C , 26-H ) :   0.9164 B( 19-C , 27-H ) :   0.9386 B( 23-O , 28-H ) :   0.7925

FINAL SINGLE POINT ENERGY      -652.858726411225

DIPOLE MOMENT
-------------
                                X             Y             Z
Electronic contribution:     -3.02574      -1.90853       0.37940
Nuclear contribution   :      3.91293       2.48562      -0.87334
                        -----------------------------------------
Total Dipole Moment    :      0.88719       0.57709      -0.49393
                        -----------------------------------------
Magnitude (a.u.)       :      1.16795
Magnitude (Debye)      :      2.96870

Rotational constants in cm-1:     0.049412     0.018361     0.016495
Rotational constants in MHz :  1481.319563   550.461085   494.516727

                             ****ORCA TERMINATED NORMALLY****
TOTAL RUN TIME: 0 days 0 hours 33 minutes 21 seconds 418 msec
