                         Program Version 4.2.0 -  RELEASE  -
|  1> # Test redundant internal optimization
|  2> #
|  3> ! RKS B3LYP  Opt TightSCF SmallPrint
|  4>
|  5> %basis
|  6>         Basis "6-31G"
|  7> end
|  8>
|  9> %geom
| 10> Constraints
| 11> { D 4  0  15  12  315.0   C } # D for Dihedral angle
| 12> { D 0  15  12  16  300.0   C } # D for Dihedral angle
| 13> { D 0  4  3  2   C } # D for Dihedral angle
| 14> { D 4  3  2  1   C } # D for Dihedral angle
| 15> { D 3  2  1  0   C } # D for Dihedral angle
| 16> { D 2  1  0  4   C } # D for Dihedral angle
| 17> { D 1  0  4  3   C } # D for Dihedral angle
| 18> { D 16  20  19  18   C } # D for Dihedral angle
| 19> { D 20  19  18  17   C } # D for Dihedral angle
| 20> { D 19  18  17  16   C } # D for Dihedral angle
| 21> { D 18  17  16  20   C } # D for Dihedral angle
| 22> { D 17  16  20  19   C } # D for Dihedral angle
| 23> { D 15  12  16  20   C } # D for Dihedral angle
| 24> end
| 25> end
| 26>
| 27>
| 28> #%pal
| 29> #nprocs 8
| 30> #end
| 31>
| 32> * xyz 0 1
| 33> C  -21.048   26.222   46.251
| 34> C  -20.361   27.558   45.944
| 35> C  -20.329   28.222   47.341
| 36> C  -20.110   27.022   48.296
| 37> O  -20.473   25.807   47.535
| 38> H  -20.833   25.428   45.533
| 39> H  -19.344   27.382   45.576
| 40> H  -20.898   28.157   45.201
| 41> H  -19.543   28.978   47.434
| 42> H  -21.289   28.710   47.548
| 43> H  -20.733   27.082   49.195
| 44> H  -19.064   26.913   48.597
| 45> C  -23.319   25.255   47.135
| 46> H  -22.932   25.196   48.160
| 47> H  -24.396   25.458   47.186
| 48> O  -22.586   26.394   46.375
| 49> C  -23.131   23.867   46.462
| 50> C  -23.960   22.789   47.170
| 51> C  -25.372   23.049   46.593
| 52> C  -25.081   23.488   45.136
| 53> O  -23.658   23.885   45.093
| 54> H  -22.065   23.644   46.392
| 55> O  -23.455   21.377   46.766
| 56> H  -23.926   22.868   48.262
| 57> H  -26.020   22.168   46.642
| 58> H  -25.862   23.857   47.149
| 59> H  -25.700   24.336   44.822
| 60> H  -25.210   22.671   44.421
| 61> H  -23.480   21.275   45.675
| 62> *
| 63>
| 64>                          ****END OF INPUT****
 Total Charge           Charge          ....    0
 Multiplicity           Mult            ....    1
 Number of Electrons    NEL             ....  102
FINAL SINGLE POINT ENERGY      -652.836634695155
FINAL SINGLE POINT ENERGY      -652.860213168851
FINAL SINGLE POINT ENERGY      -652.864609982185
FINAL SINGLE POINT ENERGY      -652.865414583069
FINAL SINGLE POINT ENERGY      -652.865530918892
FINAL SINGLE POINT ENERGY      -652.865544455620
                    ***********************HURRAY********************

CARTESIAN COORDINATES (ANGSTROEM)
---------------------------------
  C    -21.074055   26.162939   46.240363
  C    -20.461649   27.536054   45.963350
  C    -20.412742   28.149650   47.379936
  C    -20.107633   26.934164   48.283447
  O    -20.446715   25.731807   47.473879
  H    -20.855909   25.389023   45.500041
  H    -19.455192   27.404967   45.550327
  H    -21.063416   28.117459   45.261826
  H    -19.655400   28.934156   47.473725
  H    -21.388285   28.578541   47.626431
  H    -20.699641   26.920497   49.202394
  H    -19.047178   26.847395   48.537388
  C    -23.231976   25.299774   47.078371
  H    -22.874280   25.236430   48.114016
  H    -24.265251   25.656092   47.074200
  O    -22.501855   26.344078   46.373028
  C    -23.123969   23.912909   46.439252
  C    -23.956710   22.849361   47.171032
  C    -25.370583   23.091242   46.578330
  C    -25.069612   23.493416   45.112065
  O    -23.644009   23.893388   45.068461
  H    -22.075892   23.605023   46.384175
  O    -23.473327   21.510958   46.871751
  H    -23.922364   22.929724   48.258472
  H    -25.981211   22.188302   46.657396
  H    -25.877053   23.898740   47.118758
  H    -25.685173   24.330087   44.767555
  H    -25.193259   22.658916   44.414445
  H    -23.263662   21.452907   45.915585

 Multiplicity           Mult            ....    1
 Number of Electrons    NEL             ....  102
 Basis Dimension        Dim             ....  149

ORBITAL ENERGIES
----------------

  NO   OCC          E(Eh)            E(eV)
   0   2.0000     -19.142887      -520.9044
   1   2.0000     -19.140099      -520.8286
   2   2.0000     -19.139794      -520.8203
   3   2.0000     -19.137578      -520.7600
   4   2.0000     -10.274066      -279.5716
   5   2.0000     -10.241890      -278.6960
   6   2.0000     -10.231430      -278.4114
   7   2.0000     -10.230034      -278.3734
   8   2.0000     -10.227242      -278.2974
   9   2.0000     -10.226769      -278.2845
  10   2.0000     -10.189333      -277.2659
  11   2.0000     -10.184608      -277.1373
  12   2.0000     -10.182716      -277.0858
  13   2.0000      -1.053545       -28.6684
  14   2.0000      -1.034666       -28.1547
  15   2.0000      -1.004909       -27.3450
  16   2.0000      -0.990027       -26.9400
  17   2.0000      -0.789863       -21.4933
  18   2.0000      -0.780513       -21.2388
  19   2.0000      -0.763453       -20.7746
  20   2.0000      -0.732904       -19.9433
  21   2.0000      -0.671372       -18.2690
  22   2.0000      -0.604757       -16.4563
  23   2.0000      -0.602604       -16.3977
  24   2.0000      -0.597666       -16.2633
  25   2.0000      -0.566721       -15.4213
  26   2.0000      -0.524983       -14.2855
  27   2.0000      -0.509926       -13.8758
  28   2.0000      -0.494003       -13.4425
  29   2.0000      -0.488282       -13.2868
  30   2.0000      -0.473268       -12.8783
  31   2.0000      -0.457958       -12.4617
  32   2.0000      -0.449318       -12.2266
  33   2.0000      -0.439402       -11.9567
  34   2.0000      -0.422188       -11.4883
  35   2.0000      -0.405149       -11.0247
  36   2.0000      -0.399793       -10.8789
  37   2.0000      -0.392358       -10.6766
  38   2.0000      -0.376165       -10.2360
  39   2.0000      -0.366863        -9.9828
  40   2.0000      -0.359085        -9.7712
  41   2.0000      -0.355929        -9.6853
  42   2.0000      -0.347153        -9.4465
  43   2.0000      -0.332343        -9.0435
  44   2.0000      -0.328954        -8.9513
  45   2.0000      -0.307885        -8.3780
  46   2.0000      -0.295817        -8.0496
  47   2.0000      -0.272396        -7.4123
  48   2.0000      -0.266316        -7.2468
  49   2.0000      -0.256038        -6.9672
  50   2.0000      -0.237206        -6.4547
  51   0.0000       0.067532         1.8376
  52   0.0000       0.085079         2.3151
  53   0.0000       0.089502         2.4355
  54   0.0000       0.098050         2.6681
  55   0.0000       0.104061         2.8316

MULLIKEN ATOMIC CHARGES
-----------------------
   0 C :    0.282601
   1 C :   -0.260769
   2 C :   -0.299569
   3 C :   -0.008060
   4 O :   -0.520629
   5 H :    0.159890
   6 H :    0.144645
   7 H :    0.162515
   8 H :    0.141873
   9 H :    0.160468
  10 H :    0.143407
  11 H :    0.145930
  12 C :    0.002328
  13 H :    0.141983
  14 H :    0.147319
  15 O :   -0.516123
  16 C :    0.039132
  17 C :    0.075259
  18 C :   -0.299936
  19 C :   -0.029328
  20 O :   -0.517607
  21 H :    0.179081
  22 O :   -0.601148
  23 H :    0.155917
  24 H :    0.163923
  25 H :    0.144673
  26 H :    0.150138
  27 H :    0.147245
  28 H :    0.364839
Sum of atomic charges:   -0.0000000

LOEWDIN ATOMIC CHARGES
----------------------
   0 C :    0.171412
   1 C :   -0.212585
   2 C :   -0.216810
   3 C :   -0.028953
   4 O :   -0.332925
   5 H :    0.101879
   6 H :    0.113763
   7 H :    0.127238
   8 H :    0.113918
   9 H :    0.118247
  10 H :    0.102736
  11 H :    0.104319
  12 C :   -0.044025
  13 H :    0.103783
  14 H :    0.111318
  15 O :   -0.319477
  16 C :    0.001977
  17 C :    0.036538
  18 C :   -0.242238
  19 C :   -0.037933
  20 O :   -0.328335
  21 H :    0.121370
  22 O :   -0.414064
  23 H :    0.117030
  24 H :    0.126979
  25 H :    0.112833
  26 H :    0.106010
  27 H :    0.102736
  28 H :    0.283262

  Mayer bond orders larger than 0.100000
B(  0-C ,  1-C ) :   0.9490 B(  0-C ,  4-O ) :   0.8870 B(  0-C ,  5-H ) :   0.9157
B(  0-C , 15-O ) :   0.8596 B(  1-C ,  2-C ) :   0.9537 B(  1-C ,  6-H ) :   0.9399
B(  1-C ,  7-H ) :   0.9353 B(  2-C ,  3-C ) :   0.9558 B(  2-C ,  8-H ) :   0.9451
B(  2-C ,  9-H ) :   0.9446 B(  3-C ,  4-O ) :   0.8341 B(  3-C , 10-H ) :   0.9356
B(  3-C , 11-H ) :   0.9407 B( 12-C , 13-H ) :   0.9084 B( 12-C , 14-H ) :   0.9390
B( 12-C , 15-O ) :   0.8571 B( 12-C , 16-C ) :   0.8816 B( 16-C , 17-C ) :   0.8987
B( 16-C , 20-O ) :   0.8539 B( 16-C , 21-H ) :   0.9168 B( 17-C , 18-C ) :   0.9115
B( 17-C , 22-O ) :   0.8943 B( 17-C , 23-H ) :   0.9317 B( 18-C , 19-C ) :   0.9416
B( 18-C , 24-H ) :   0.9372 B( 18-C , 25-H ) :   0.9340 B( 19-C , 20-O ) :   0.8502
B( 19-C , 26-H ) :   0.9338 B( 19-C , 27-H ) :   0.9375 B( 22-O , 28-H ) :   0.7940

FINAL SINGLE POINT ENERGY      -652.865547085788

DIPOLE MOMENT
-------------
                                X             Y             Z
Electronic contribution:      0.43617      -3.68008      -1.68675
Nuclear contribution   :     -0.73690       4.41110       1.89739
                        -----------------------------------------
Total Dipole Moment    :     -0.30073       0.73102       0.21064
                        -----------------------------------------
Magnitude (a.u.)       :      0.81805
Magnitude (Debye)      :      2.07931

Rotational constants in cm-1:     0.062919     0.012792     0.011906
Rotational constants in MHz :  1886.269739   383.495799   356.939300

                             ****ORCA TERMINATED NORMALLY****
TOTAL RUN TIME: 0 days 0 hours 20 minutes 50 seconds 508 msec
