                         Program Version 4.2.1 -  RELEASE  -
|  1> # Test redundant internal optimization
|  2> #
|  3> ! RKS B3LYP  Opt TightSCF SmallPrint
|  4>
|  5> %basis
|  6>         Basis "6-31G"
|  7> end
|  8>
|  9> %geom
| 10> Constraints
| 11> { D 4  0  19  14  45.0   C } # D for Dihedral angle
| 12> { D 0  19  14  12  180.0   C } # D for Dihedral angle
| 13> { D 0  4  3  2   C } # D for Dihedral angle
| 14> { D 4  3  2  1   C } # D for Dihedral angle
| 15> { D 3  2  1  0   C } # D for Dihedral angle
| 16> { D 2  1  0  4   C } # D for Dihedral angle
| 17> { D 1  0  4  3   C } # D for Dihedral angle
| 18> { D 14  15  16  17   C } # D for Dihedral angle
| 19> { D 15  16  17  12   C } # D for Dihedral angle
| 20> { D 16  17  12  14   C } # D for Dihedral angle
| 21> { D 17  12  14  15   C } # D for Dihedral angle
| 22> { D 12  14  15  16   C } # D for Dihedral angle
| 23> end
| 24> end
| 25>
| 26>
| 27> #%pal
| 28> #nprocs 8
| 29> #end
| 30>
| 31> * xyz 0 1
| 32> C  -21.048   26.222   46.251
| 33> C  -20.361   27.558   45.944
| 34> C  -20.329   28.222   47.341
| 35> C  -20.110   27.022   48.296
| 36> O  -20.473   25.807   47.535
| 37> H  -20.833   25.428   45.533
| 38> H  -19.344   27.382   45.576
| 39> H  -20.898   28.157   45.201
| 40> H  -19.543   28.978   47.434
| 41> H  -21.289   28.710   47.548
| 42> H  -20.733   27.082   49.195
| 43> H  -19.064   26.913   48.597
| 44> C  -24.424   27.205   47.563
| 45> H  -24.759   27.977   48.274
| 46> C  -22.896   27.093   47.540
| 47> C  -22.622   26.259   48.813
| 48> C  -23.834   25.295   48.869
| 49> O  -24.877   25.879   47.998
| 50> H  -24.879   27.394   46.590
| 51> O  -22.472   26.381   46.366
| 52> H  -22.393   28.066   47.554
| 53> H  -21.667   25.727   48.776
| 54> H  -22.607   26.911   49.695
| 55> H  -24.234   25.181   49.882
| 56> H  -23.598   24.304   48.469
| 57> *
| 58>
| 59>                          ****END OF INPUT****
 Total Charge           Charge          ....    0
 Multiplicity           Mult            ....    1
 Number of Electrons    NEL             ....   86
FINAL SINGLE POINT ENERGY      -538.372061688414
FINAL SINGLE POINT ENERGY      -538.422447418377
FINAL SINGLE POINT ENERGY      -538.426079756075
FINAL SINGLE POINT ENERGY      -538.426670254027
FINAL SINGLE POINT ENERGY      -538.426784513431
FINAL SINGLE POINT ENERGY      -538.426838852656
FINAL SINGLE POINT ENERGY      -538.426846253350
FINAL SINGLE POINT ENERGY      -538.426847259556
                    ***********************HURRAY********************

CARTESIAN COORDINATES (ANGSTROEM)
---------------------------------
  C    -21.057089   26.345382   46.371506
  C    -20.316876   27.608284   45.907172
  C    -19.941079   28.278318   47.260790
  C    -19.656177   27.060737   48.173837
  O    -20.287955   25.890205   47.511520
  H    -21.012323   25.536366   45.640313
  H    -19.416047   27.311398   45.358981
  H    -20.935554   28.237192   45.263132
  H    -19.068388   28.933424   47.175292
  H    -20.771054   28.881441   47.641159
  H    -20.072613   27.169656   49.179484
  H    -18.588544   26.836161   48.251674
  C    -24.608553   27.049481   47.478205
  H    -25.141219   27.764858   48.122157
  C    -23.101306   27.129271   47.722414
  C    -22.949443   26.300281   49.014179
  C    -24.015876   25.193083   48.853198
  O    -24.958849   25.669088   47.815458
  H    -24.874641   27.213574   46.433643
  O    -22.483173   26.492987   46.561114
  H    -22.753209   28.163338   47.836244
  H    -21.947711   25.889099   49.125327
  H    -23.175713   26.941027   49.875738
  H    -24.567463   25.000977   49.780190
  H    -23.586146   24.257373   48.487271

 Multiplicity           Mult            ....    1
 Number of Electrons    NEL             ....   86
 Basis Dimension        Dim             ....  127

ORBITAL ENERGIES
----------------

  NO   OCC          E(Eh)            E(eV)
   0   2.0000     -19.151065      -521.1270
   1   2.0000     -19.140428      -520.8375
   2   2.0000     -19.121959      -520.3350
   3   2.0000     -10.280940      -279.7586
   4   2.0000     -10.241087      -278.6741
   5   2.0000     -10.235698      -278.5275
   6   2.0000     -10.218063      -278.0476
   7   2.0000     -10.213574      -277.9255
   8   2.0000     -10.197397      -277.4853
   9   2.0000     -10.190876      -277.3078
  10   2.0000     -10.178230      -276.9637
  11   2.0000      -1.054285       -28.6886
  12   2.0000      -1.011815       -27.5329
  13   2.0000      -0.989473       -26.9249
  14   2.0000      -0.793525       -21.5929
  15   2.0000      -0.782427       -21.2909
  16   2.0000      -0.740742       -20.1566
  17   2.0000      -0.721659       -19.6373
  18   2.0000      -0.621005       -16.8984
  19   2.0000      -0.607732       -16.5372
  20   2.0000      -0.593978       -16.1630
  21   2.0000      -0.562143       -15.2967
  22   2.0000      -0.523159       -14.2359
  23   2.0000      -0.504233       -13.7209
  24   2.0000      -0.487151       -13.2560
  25   2.0000      -0.480980       -13.0881
  26   2.0000      -0.451989       -12.2992
  27   2.0000      -0.449567       -12.2333
  28   2.0000      -0.425623       -11.5818
  29   2.0000      -0.410887       -11.1808
  30   2.0000      -0.408103       -11.1051
  31   2.0000      -0.386391       -10.5142
  32   2.0000      -0.377601       -10.2750
  33   2.0000      -0.366354        -9.9690
  34   2.0000      -0.364772        -9.9260
  35   2.0000      -0.362945        -9.8762
  36   2.0000      -0.341491        -9.2924
  37   2.0000      -0.324017        -8.8170
  38   2.0000      -0.307658        -8.3718
  39   2.0000      -0.292926        -7.9709
  40   2.0000      -0.265737        -7.2311
  41   2.0000      -0.254069        -6.9136
  42   2.0000      -0.228241        -6.2108
  43   0.0000       0.066020         1.7965
  44   0.0000       0.088667         2.4127
  45   0.0000       0.096233         2.6186
  46   0.0000       0.110394         3.0040
  47   0.0000       0.122009         3.3200

MULLIKEN ATOMIC CHARGES
-----------------------
   0 C :    0.303867
   1 C :   -0.269715
   2 C :   -0.315590
   3 C :   -0.017759
   4 O :   -0.508385
   5 H :    0.169649
   6 H :    0.152509
   7 H :    0.155553
   8 H :    0.148799
   9 H :    0.149134
  10 H :    0.141157
  11 H :    0.153583
  12 C :    0.010858
  13 H :    0.121606
  14 C :    0.063935
  15 C :   -0.305548
  16 C :    0.002545
  17 O :   -0.519455
  18 H :    0.163841
  19 O :   -0.523890
  20 H :    0.122233
  21 H :    0.186439
  22 H :    0.128235
  23 H :    0.131533
  24 H :    0.154867
Sum of atomic charges:   -0.0000000

LOEWDIN ATOMIC CHARGES
----------------------
   0 C :    0.178706
   1 C :   -0.227276
   2 C :   -0.222558
   3 C :   -0.035880
   4 O :   -0.320914
   5 H :    0.114468
   6 H :    0.119140
   7 H :    0.122378
   8 H :    0.117422
   9 H :    0.108289
  10 H :    0.100342
  11 H :    0.107581
  12 C :   -0.032120
  13 H :    0.089615
  14 C :    0.037831
  15 C :   -0.242410
  16 C :   -0.026241
  17 O :   -0.329342
  18 H :    0.121737
  19 O :   -0.320348
  20 H :    0.090362
  21 H :    0.136242
  22 H :    0.107099
  23 H :    0.096741
  24 H :    0.109134

  Mayer bond orders larger than 0.100000
B(  0-C ,  1-C ) :   0.9158 B(  0-C ,  4-O ) :   0.8910 B(  0-C ,  5-H ) :   0.9354
B(  0-C , 19-O ) :   0.8925 B(  1-C ,  2-C ) :   0.9566 B(  1-C ,  6-H ) :   0.9350
B(  1-C ,  7-H ) :   0.9375 B(  2-C ,  3-C ) :   0.9494 B(  2-C ,  8-H ) :   0.9442
B(  2-C ,  9-H ) :   0.9406 B(  3-C ,  4-O ) :   0.8391 B(  3-C , 10-H ) :   0.9289
B(  3-C , 11-H ) :   0.9397 B( 12-C , 13-H ) :   0.9155 B( 12-C , 14-C ) :   0.9363
B( 12-C , 17-O ) :   0.8782 B( 12-C , 18-H ) :   0.9308 B( 14-C , 15-C ) :   0.9359
B( 14-C , 19-O ) :   0.8285 B( 14-C , 20-H ) :   0.9107 B( 15-C , 16-C ) :   0.9451
B( 15-C , 21-H ) :   0.9165 B( 15-C , 22-H ) :   0.9366 B( 16-C , 17-O ) :   0.8555
B( 16-C , 23-H ) :   0.9338 B( 16-C , 24-H ) :   0.9363

FINAL SINGLE POINT ENERGY      -538.426839088048

DIPOLE MOMENT
-------------
                                X             Y             Z
Electronic contribution:     -2.59800      -3.67739      -2.27674
Nuclear contribution   :      3.71110       5.03704       2.73309
                        -----------------------------------------
Total Dipole Moment    :      1.11310       1.35965       0.45635
                        -----------------------------------------
Magnitude (a.u.)       :      1.81546
Magnitude (Debye)      :      4.61453

Rotational constants in cm-1:     0.077438     0.023648     0.021889
Rotational constants in MHz :  2321.522739   708.939656   656.205128

                             ****ORCA TERMINATED NORMALLY****
TOTAL RUN TIME: 0 days 0 hours 21 minutes 23 seconds 458 msec
