                         Program Version 4.2.1 -  RELEASE  -
|  1> # Test redundant internal optimization
|  2> #
|  3> ! RKS B3LYP  Opt TightSCF SmallPrint
|  4>
|  5> %basis
|  6>         Basis "6-31G"
|  7> end
|  8>
|  9> %geom
| 10> Constraints
| 11> { D 4  0  19  14  75.0   C } # D for Dihedral angle
| 12> { D 0  19  14  12  150.0   C } # D for Dihedral angle
| 13> { D 0  4  3  2   C } # D for Dihedral angle
| 14> { D 4  3  2  1   C } # D for Dihedral angle
| 15> { D 3  2  1  0   C } # D for Dihedral angle
| 16> { D 2  1  0  4   C } # D for Dihedral angle
| 17> { D 1  0  4  3   C } # D for Dihedral angle
| 18> { D 14  15  16  17   C } # D for Dihedral angle
| 19> { D 15  16  17  12   C } # D for Dihedral angle
| 20> { D 16  17  12  14   C } # D for Dihedral angle
| 21> { D 17  12  14  15   C } # D for Dihedral angle
| 22> { D 12  14  15  16   C } # D for Dihedral angle
| 23> end
| 24> end
| 25>
| 26>
| 27> #%pal
| 28> #nprocs 8
| 29> #end
| 30>
| 31> * xyz 0 1
| 32> C  -21.048   26.222   46.251
| 33> C  -20.361   27.558   45.944
| 34> C  -20.329   28.222   47.341
| 35> C  -20.110   27.022   48.296
| 36> O  -20.473   25.807   47.535
| 37> H  -20.833   25.428   45.533
| 38> H  -19.344   27.382   45.576
| 39> H  -20.898   28.157   45.201
| 40> H  -19.543   28.978   47.434
| 41> H  -21.289   28.710   47.548
| 42> H  -20.733   27.082   49.195
| 43> H  -19.064   26.913   48.597
| 44> C  -24.236   28.050   46.527
| 45> H  -24.436   29.093   46.820
| 46> C  -22.881   27.571   47.060
| 47> C  -23.218   27.254   48.535
| 48> C  -24.666   26.711   48.458
| 49> O  -25.210   27.147   47.152
| 50> H  -24.358   27.952   45.447
| 51> O  -22.472   26.381   46.366
| 52> H  -22.089   28.321   46.956
| 53> H  -22.526   26.535   48.985
| 54> H  -23.181   28.172   49.136
| 55> H  -25.305   27.099   49.259
| 56> H  -24.704   25.618   48.473
| 57> *
| 58>
| 59>                          ****END OF INPUT****
 Total Charge           Charge          ....    0
 Multiplicity           Mult            ....    1
 Number of Electrons    NEL             ....   86
FINAL SINGLE POINT ENERGY      -538.366708931770
FINAL SINGLE POINT ENERGY      -538.420452993871
FINAL SINGLE POINT ENERGY      -538.424405383315
FINAL SINGLE POINT ENERGY      -538.425212393190
FINAL SINGLE POINT ENERGY      -538.425363446745
FINAL SINGLE POINT ENERGY      -538.425445670490
FINAL SINGLE POINT ENERGY      -538.425456577850
FINAL SINGLE POINT ENERGY      -538.425457243797
                    ***********************HURRAY********************

CARTESIAN COORDINATES (ANGSTROEM)
---------------------------------
  C    -21.090214   26.369252   46.390492
  C    -20.205231   27.535526   45.917932
  C    -19.843416   28.238380   47.263105
  C    -19.730498   27.039286   48.241785
  O    -20.430391   25.906058   47.595542
  H    -21.060387   25.519532   45.706428
  H    -19.308169   27.122324   45.446910
  H    -20.709414   28.190360   45.201843
  H    -18.901282   28.792313   47.197510
  H    -20.615614   28.945551   47.573103
  H    -20.189573   27.236788   49.215552
  H    -18.693395   26.727105   48.395145
  C    -24.452603   28.001352   46.523803
  H    -24.815873   29.001155   46.807025
  C    -23.113820   27.706785   47.201855
  C    -23.562529   27.301298   48.621068
  C    -24.896815   26.558826   48.371092
  O    -25.344215   26.954193   47.017815
  H    -24.406514   27.912638   45.437273
  O    -22.508528   26.574242   46.511475
  H    -22.458399   28.581264   47.191835
  H    -22.813627   26.669626   49.105410
  H    -23.717013   28.199264   49.231893
  H    -25.670195   26.828427   49.099287
  H    -24.769286   25.473454   48.359823

 Multiplicity           Mult            ....    1
 Number of Electrons    NEL             ....   86
 Basis Dimension        Dim             ....  127

ORBITAL ENERGIES
----------------

  NO   OCC          E(Eh)            E(eV)
   0   2.0000     -19.143025      -520.9082
   1   2.0000     -19.142740      -520.9004
   2   2.0000     -19.124512      -520.4044
   3   2.0000     -10.280335      -279.7421
   4   2.0000     -10.241957      -278.6978
   5   2.0000     -10.232267      -278.4341
   6   2.0000     -10.220876      -278.1242
   7   2.0000     -10.216972      -278.0179
   8   2.0000     -10.197803      -277.4963
   9   2.0000     -10.195323      -277.4288
  10   2.0000     -10.183594      -277.1097
  11   2.0000      -1.052876       -28.6502
  12   2.0000      -1.013530       -27.5796
  13   2.0000      -0.991914       -26.9913
  14   2.0000      -0.792133       -21.5550
  15   2.0000      -0.785458       -21.3734
  16   2.0000      -0.741162       -20.1680
  17   2.0000      -0.723537       -19.6885
  18   2.0000      -0.622566       -16.9409
  19   2.0000      -0.608217       -16.5504
  20   2.0000      -0.596130       -16.2215
  21   2.0000      -0.564720       -15.3668
  22   2.0000      -0.526133       -14.3168
  23   2.0000      -0.506291       -13.7769
  24   2.0000      -0.484081       -13.1725
  25   2.0000      -0.480695       -13.0804
  26   2.0000      -0.451705       -12.2915
  27   2.0000      -0.451445       -12.2844
  28   2.0000      -0.425931       -11.5902
  29   2.0000      -0.418612       -11.3910
  30   2.0000      -0.410679       -11.1751
  31   2.0000      -0.388891       -10.5823
  32   2.0000      -0.376066       -10.2333
  33   2.0000      -0.368451       -10.0261
  34   2.0000      -0.365650        -9.9499
  35   2.0000      -0.363561        -9.8930
  36   2.0000      -0.345381        -9.3983
  37   2.0000      -0.317858        -8.6494
  38   2.0000      -0.304663        -8.2903
  39   2.0000      -0.291502        -7.9322
  40   2.0000      -0.268797        -7.3143
  41   2.0000      -0.255052        -6.9403
  42   2.0000      -0.229952        -6.2573
  43   0.0000       0.064869         1.7652
  44   0.0000       0.087435         2.3792
  45   0.0000       0.095845         2.6081
  46   0.0000       0.112830         3.0703
  47   0.0000       0.116273         3.1639

MULLIKEN ATOMIC CHARGES
-----------------------
   0 C :    0.302821
   1 C :   -0.282321
   2 C :   -0.316902
   3 C :   -0.008852
   4 O :   -0.504722
   5 H :    0.168968
   6 H :    0.159084
   7 H :    0.148776
   8 H :    0.146770
   9 H :    0.149418
  10 H :    0.141108
  11 H :    0.149154
  12 C :    0.013625
  13 H :    0.117755
  14 C :    0.051501
  15 C :   -0.295545
  16 C :   -0.001357
  17 O :   -0.517339
  18 H :    0.163590
  19 O :   -0.511672
  20 H :    0.124141
  21 H :    0.171951
  22 H :    0.134126
  23 H :    0.133624
  24 H :    0.162299
Sum of atomic charges:    0.0000000

LOEWDIN ATOMIC CHARGES
----------------------
   0 C :    0.174663
   1 C :   -0.229786
   2 C :   -0.224418
   3 C :   -0.034030
   4 O :   -0.323764
   5 H :    0.114648
   6 H :    0.124338
   7 H :    0.118144
   8 H :    0.116019
   9 H :    0.106695
  10 H :    0.100390
  11 H :    0.105312
  12 C :   -0.034933
  13 H :    0.088326
  14 C :    0.032908
  15 C :   -0.235559
  16 C :   -0.028110
  17 O :   -0.327768
  18 H :    0.120598
  19 O :   -0.308929
  20 H :    0.096178
  21 H :    0.130397
  22 H :    0.108830
  23 H :    0.097520
  24 H :    0.112331

  Mayer bond orders larger than 0.100000
B(  0-C ,  1-C ) :   0.9177 B(  0-C ,  4-O ) :   0.8916 B(  0-C ,  5-H ) :   0.9361
B(  0-C , 19-O ) :   0.9145 B(  1-C ,  2-C ) :   0.9548 B(  1-C ,  6-H ) :   0.9349
B(  1-C ,  7-H ) :   0.9364 B(  2-C ,  3-C ) :   0.9465 B(  2-C ,  8-H ) :   0.9446
B(  2-C ,  9-H ) :   0.9365 B(  3-C ,  4-O ) :   0.8500 B(  3-C , 10-H ) :   0.9321
B(  3-C , 11-H ) :   0.9389 B( 12-C , 13-H ) :   0.9148 B( 12-C , 14-C ) :   0.9347
B( 12-C , 17-O ) :   0.8772 B( 12-C , 18-H ) :   0.9308 B( 14-C , 15-C ) :   0.9393
B( 14-C , 19-O ) :   0.8259 B( 14-C , 20-H ) :   0.9068 B( 15-C , 16-C ) :   0.9484
B( 15-C , 21-H ) :   0.9328 B( 15-C , 22-H ) :   0.9372 B( 16-C , 17-O ) :   0.8565
B( 16-C , 23-H ) :   0.9329 B( 16-C , 24-H ) :   0.9341

FINAL SINGLE POINT ENERGY      -538.425455567330

DIPOLE MOMENT
-------------
                                X             Y             Z
Electronic contribution:     -2.62772      -4.06934      -2.03709
Nuclear contribution   :      3.79493       5.46114       2.40160
                        -----------------------------------------
Total Dipole Moment    :      1.16721       1.39181       0.36451
                        -----------------------------------------
Magnitude (a.u.)       :      1.85267
Magnitude (Debye)      :      4.70910

Rotational constants in cm-1:     0.077788     0.022343     0.021051
Rotational constants in MHz :  2332.029372   669.828885   631.088394

                             ****ORCA TERMINATED NORMALLY****
TOTAL RUN TIME: 0 days 0 hours 20 minutes 27 seconds 491 msec
