                         Program Version 4.2.0 -  RELEASE  -
|  1> # Test redundant internal optimization
|  2> #
|  3> ! RKS B3LYP  Opt TightSCF SmallPrint
|  4>
|  5> %basis
|  6>         Basis "6-31G"
|  7> end
|  8>
|  9> %geom
| 10> Constraints
| 11> { D 4  0  15  12  345.0   C } # D for Dihedral angle
| 12> { D 0  15  12  16  285.0   C } # D for Dihedral angle
| 13> { D 0  4  3  2   C } # D for Dihedral angle
| 14> { D 4  3  2  1   C } # D for Dihedral angle
| 15> { D 3  2  1  0   C } # D for Dihedral angle
| 16> { D 2  1  0  4   C } # D for Dihedral angle
| 17> { D 1  0  4  3   C } # D for Dihedral angle
| 18> { D 16  20  19  18   C } # D for Dihedral angle
| 19> { D 20  19  18  17   C } # D for Dihedral angle
| 20> { D 19  18  17  16   C } # D for Dihedral angle
| 21> { D 18  17  16  20   C } # D for Dihedral angle
| 22> { D 17  16  20  19   C } # D for Dihedral angle
| 23> { D 15  12  16  20   C } # D for Dihedral angle
| 24> end
| 25> end
| 26>
| 27>
| 28> #%pal
| 29> #nprocs 8
| 30> #end
| 31>
| 32> * xyz 0 1
| 33> C  -21.048   26.222   46.251
| 34> C  -20.361   27.558   45.944
| 35> C  -20.329   28.222   47.341
| 36> C  -20.110   27.022   48.296
| 37> O  -20.473   25.807   47.535
| 38> H  -20.833   25.428   45.533
| 39> H  -19.344   27.382   45.576
| 40> H  -20.898   28.157   45.201
| 41> H  -19.543   28.978   47.434
| 42> H  -21.289   28.710   47.548
| 43> H  -20.733   27.082   49.195
| 44> H  -19.064   26.913   48.597
| 45> C  -23.221   25.764   47.645
| 46> H  -22.613   26.025   48.521
| 47> H  -24.234   26.155   47.802
| 48> O  -22.586   26.394   46.375
| 49> C  -23.319   24.216   47.563
| 50> C  -21.929   23.572   47.512
| 51> C  -21.507   23.619   49.000
| 52> C  -22.843   23.390   49.752
| 53> O  -23.924   23.675   48.785
| 54> H  -23.975   23.943   46.734
| 55> O  -22.041   22.102   47.020
| 56> H  -21.232   24.102   46.855
| 57> H  -20.752   22.868   49.251
| 58> H  -21.092   24.605   49.241
| 59> H  -22.954   24.048   50.619
| 60> H  -22.966   22.353   50.077
| 61> H  -22.735   21.550   47.665
| 62> *
| 63>
| 64>                          ****END OF INPUT****
 Total Charge           Charge          ....    0
 Multiplicity           Mult            ....    1
 Number of Electrons    NEL             ....  102
FINAL SINGLE POINT ENERGY      -652.825408824021
FINAL SINGLE POINT ENERGY      -652.849701339675
FINAL SINGLE POINT ENERGY      -652.859855102607
FINAL SINGLE POINT ENERGY      -652.861828497678
FINAL SINGLE POINT ENERGY      -652.862193746802
FINAL SINGLE POINT ENERGY      -652.862236455866
FINAL SINGLE POINT ENERGY      -652.862241171055
                    ***********************HURRAY********************

CARTESIAN COORDINATES (ANGSTROEM)
---------------------------------
  C    -20.983925   26.289175   46.272291
  C    -20.475237   27.694959   45.948560
  C    -20.391400   28.331014   47.355487
  C    -19.962948   27.150816   48.254208
  O    -20.268178   25.916146   47.473170
  H    -20.737228   25.530596   45.524734
  H    -19.484869   27.622968   45.484614
  H    -21.149939   28.226098   45.274474
  H    -19.681609   29.162439   47.400374
  H    -21.376305   28.705939   47.649894
  H    -20.504796   27.110091   49.203300
  H    -18.887569   27.132330   48.451869
  C    -23.102103   25.724797   47.564347
  H    -22.632829   26.047102   48.502335
  H    -24.111814   26.136647   47.525850
  O    -22.424423   26.331401   46.424722
  C    -23.207046   24.188149   47.552728
  C    -21.923789   23.342043   47.576865
  C    -21.536515   23.399143   49.080273
  C    -22.912261   23.406627   49.793909
  O    -23.917025   23.800717   48.779577
  H    -23.834076   23.877763   46.710460
  O    -22.222738   21.983007   47.141873
  H    -21.128142   23.688653   46.924928
  H    -20.920451   22.539069   49.355012
  H    -20.969661   24.313896   49.268127
  H    -22.955715   24.112368   50.629756
  H    -23.200068   22.416587   50.162033
  H    -23.045341   21.681462   47.582228

 Multiplicity           Mult            ....    1
 Number of Electrons    NEL             ....  102
 Basis Dimension        Dim             ....  149

ORBITAL ENERGIES
----------------

  NO   OCC          E(Eh)            E(eV)
   0   2.0000     -19.158535      -521.3302
   1   2.0000     -19.141990      -520.8800
   2   2.0000     -19.140649      -520.8435
   3   2.0000     -19.129297      -520.5346
   4   2.0000     -10.284960      -279.8680
   5   2.0000     -10.238985      -278.6169
   6   2.0000     -10.229673      -278.3636
   7   2.0000     -10.229352      -278.3548
   8   2.0000     -10.226828      -278.2861
   9   2.0000     -10.225995      -278.2635
  10   2.0000     -10.194680      -277.4113
  11   2.0000     -10.190216      -277.2899
  12   2.0000     -10.176684      -276.9217
  13   2.0000      -1.060735       -28.8641
  14   2.0000      -1.031209       -28.0606
  15   2.0000      -0.999235       -27.1906
  16   2.0000      -0.995864       -27.0988
  17   2.0000      -0.796442       -21.6723
  18   2.0000      -0.769835       -20.9483
  19   2.0000      -0.764609       -20.8061
  20   2.0000      -0.737291       -20.0627
  21   2.0000      -0.673965       -18.3395
  22   2.0000      -0.609448       -16.5839
  23   2.0000      -0.598971       -16.2988
  24   2.0000      -0.594083       -16.1658
  25   2.0000      -0.572255       -15.5718
  26   2.0000      -0.524786       -14.2802
  27   2.0000      -0.511373       -13.9152
  28   2.0000      -0.507603       -13.8126
  29   2.0000      -0.480897       -13.0859
  30   2.0000      -0.472169       -12.8484
  31   2.0000      -0.456471       -12.4212
  32   2.0000      -0.453914       -12.3516
  33   2.0000      -0.430650       -11.7186
  34   2.0000      -0.419235       -11.4080
  35   2.0000      -0.412793       -11.2327
  36   2.0000      -0.408644       -11.1198
  37   2.0000      -0.385786       -10.4978
  38   2.0000      -0.377867       -10.2823
  39   2.0000      -0.366710        -9.9787
  40   2.0000      -0.359223        -9.7750
  41   2.0000      -0.355918        -9.6850
  42   2.0000      -0.353701        -9.6247
  43   2.0000      -0.337272        -9.1776
  44   2.0000      -0.322868        -8.7857
  45   2.0000      -0.309399        -8.4192
  46   2.0000      -0.299644        -8.1537
  47   2.0000      -0.271018        -7.3748
  48   2.0000      -0.270203        -7.3526
  49   2.0000      -0.258951        -7.0464
  50   2.0000      -0.234966        -6.3937
  51   0.0000       0.063034         1.7152
  52   0.0000       0.071741         1.9522
  53   0.0000       0.090766         2.4699
  54   0.0000       0.097226         2.6457
  55   0.0000       0.107528         2.9260

MULLIKEN ATOMIC CHARGES
-----------------------
   0 C :    0.301617
   1 C :   -0.257950
   2 C :   -0.303152
   3 C :   -0.017165
   4 O :   -0.523164
   5 H :    0.157972
   6 H :    0.146083
   7 H :    0.165770
   8 H :    0.148130
   9 H :    0.159566
  10 H :    0.144813
  11 H :    0.153817
  12 C :    0.000607
  13 H :    0.127195
  14 H :    0.166421
  15 O :   -0.539299
  16 C :    0.045862
  17 C :    0.086554
  18 C :   -0.300827
  19 C :   -0.031368
  20 O :   -0.528627
  21 H :    0.160618
  22 O :   -0.607083
  23 H :    0.175787
  24 H :    0.155554
  25 H :    0.167294
  26 H :    0.141949
  27 H :    0.141349
  28 H :    0.361676
Sum of atomic charges:   -0.0000000

LOEWDIN ATOMIC CHARGES
----------------------
   0 C :    0.177985
   1 C :   -0.215990
   2 C :   -0.216965
   3 C :   -0.032328
   4 O :   -0.325295
   5 H :    0.101533
   6 H :    0.114382
   7 H :    0.128713
   8 H :    0.117815
   9 H :    0.117651
  10 H :    0.101605
  11 H :    0.108273
  12 C :   -0.034922
  13 H :    0.094003
  14 H :    0.122986
  15 O :   -0.338940
  16 C :    0.005573
  17 C :    0.037898
  18 C :   -0.242110
  19 C :   -0.040147
  20 O :   -0.332219
  21 H :    0.114158
  22 O :   -0.418962
  23 H :    0.126301
  24 H :    0.123406
  25 H :    0.124076
  26 H :    0.101161
  27 H :    0.099910
  28 H :    0.280450

  Mayer bond orders larger than 0.100000
B(  0-C ,  1-C ) :   0.9387 B(  0-C ,  4-O ) :   0.8841 B(  0-C ,  5-H ) :   0.9218
B(  0-C , 15-O ) :   0.8481 B(  1-C ,  2-C ) :   0.9526 B(  1-C ,  6-H ) :   0.9361
B(  1-C ,  7-H ) :   0.9353 B(  2-C ,  3-C ) :   0.9555 B(  2-C ,  8-H ) :   0.9443
B(  2-C ,  9-H ) :   0.9448 B(  3-C ,  4-O ) :   0.8230 B(  3-C , 10-H ) :   0.9318
B(  3-C , 11-H ) :   0.9397 B( 12-C , 13-H ) :   0.9239 B( 12-C , 14-H ) :   0.9350
B( 12-C , 15-O ) :   0.8373 B( 12-C , 16-C ) :   0.8793 B( 16-C , 17-C ) :   0.9162
B( 16-C , 20-O ) :   0.8300 B( 16-C , 21-H ) :   0.9255 B( 17-C , 18-C ) :   0.9159
B( 17-C , 22-O ) :   0.8775 B( 17-C , 23-H ) :   0.9195 B( 18-C , 19-C ) :   0.9417
B( 18-C , 24-H ) :   0.9392 B( 18-C , 25-H ) :   0.9220 B( 19-C , 20-O ) :   0.8393
B( 19-C , 26-H ) :   0.9362 B( 19-C , 27-H ) :   0.9385 B( 22-O , 28-H ) :   0.7958

FINAL SINGLE POINT ENERGY      -652.862241657998

DIPOLE MOMENT
-------------
                                X             Y             Z
Electronic contribution:     -3.29961      -4.13523      -2.58318
Nuclear contribution   :      4.01131       5.26004       3.24758
                        -----------------------------------------
Total Dipole Moment    :      0.71170       1.12481       0.66440
                        -----------------------------------------
Magnitude (a.u.)       :      1.48766
Magnitude (Debye)      :      3.78134

Rotational constants in cm-1:     0.050813     0.015801     0.015517
Rotational constants in MHz :  1523.334883   473.703397   465.200396

                             ****ORCA TERMINATED NORMALLY****
TOTAL RUN TIME: 0 days 1 hours 10 minutes 58 seconds 383 msec
