                         Program Version 4.2.1 -  RELEASE  -
|  1> # Test redundant internal optimization
|  2> #
|  3> ! RKS B3LYP  Opt TightSCF SmallPrint
|  4>
|  5> %basis
|  6>         Basis "6-31G"
|  7> end
|  8>
|  9> %geom
| 10> Constraints
| 11> { D 4  0  19  14  210.0   C } # D for Dihedral angle
| 12> { D 0  19  14  12  180.0   C } # D for Dihedral angle
| 13> { D 0  4  3  2   C } # D for Dihedral angle
| 14> { D 4  3  2  1   C } # D for Dihedral angle
| 15> { D 3  2  1  0   C } # D for Dihedral angle
| 16> { D 2  1  0  4   C } # D for Dihedral angle
| 17> { D 1  0  4  3   C } # D for Dihedral angle
| 18> { D 14  15  16  17   C } # D for Dihedral angle
| 19> { D 15  16  17  12   C } # D for Dihedral angle
| 20> { D 16  17  12  14   C } # D for Dihedral angle
| 21> { D 17  12  14  15   C } # D for Dihedral angle
| 22> { D 12  14  15  16   C } # D for Dihedral angle
| 23> end
| 24> end
| 25>
| 26>
| 27> #%pal
| 28> #nprocs 8
| 29> #end
| 30>
| 31> * xyz 0 1
| 32> C  -21.048   26.222   46.251
| 33> C  -20.361   27.558   45.944
| 34> C  -20.329   28.222   47.341
| 35> C  -20.110   27.022   48.296
| 36> O  -20.473   25.807   47.535
| 37> H  -20.833   25.428   45.533
| 38> H  -19.344   27.382   45.576
| 39> H  -20.898   28.157   45.201
| 40> H  -19.543   28.978   47.434
| 41> H  -21.289   28.710   47.548
| 42> H  -20.733   27.082   49.195
| 43> H  -19.064   26.913   48.597
| 44> C  -24.700   26.313   45.388
| 45> H  -25.294   25.845   44.587
| 46> C  -23.197   26.114   45.155
| 47> C  -22.899   27.195   44.090
| 48> C  -23.845   28.355   44.490
| 49> O  -24.878   27.769   45.374
| 50> H  -25.059   25.957   46.355
| 51> O  -22.472   26.381   46.366
| 52> H  -22.945   25.104   44.817
| 53> H  -21.848   27.500   44.077
| 54> H  -23.151   26.820   43.090
| 55> H  -24.334   28.817   43.626
| 56> H  -23.334   29.132   45.065
| 57> *
| 58>
| 59>                          ****END OF INPUT****
 Total Charge           Charge          ....    0
 Multiplicity           Mult            ....    1
 Number of Electrons    NEL             ....   86
FINAL SINGLE POINT ENERGY      -538.420893910931
FINAL SINGLE POINT ENERGY      -538.427929772472
FINAL SINGLE POINT ENERGY      -538.428844363470
FINAL SINGLE POINT ENERGY      -538.429030123927
FINAL SINGLE POINT ENERGY      -538.429049734903
FINAL SINGLE POINT ENERGY      -538.429058063738
                    ***********************HURRAY********************

CARTESIAN COORDINATES (ANGSTROEM)
---------------------------------
  C    -20.941331   26.231129   46.208634
  C    -20.250343   27.578686   45.996307
  C    -20.344691   28.217262   47.407288
  C    -20.192078   26.996288   48.339593
  O    -20.479617   25.807346   47.500060
  H    -20.678901   25.448079   45.488285
  H    -19.203298   27.405786   45.718000
  H    -20.716769   28.194389   45.226697
  H    -19.574819   28.975165   47.578110
  H    -21.328073   28.679028   47.535085
  H    -20.891057   27.006159   49.179418
  H    -19.172083   26.874504   48.716529
  C    -24.635669   26.363051   45.493015
  H    -25.320756   25.864099   44.792410
  C    -23.179222   26.138248   45.084931
  C    -23.009517   27.172983   43.957442
  C    -23.887814   28.358458   44.424296
  O    -24.805871   27.817812   45.448616
  H    -24.834686   26.035160   46.513186
  O    -22.387583   26.372589   46.287252
  H    -22.992229   25.114530   44.728103
  H    -21.971639   27.450984   43.766834
  H    -23.407174   26.737703   43.032751
  H    -24.472547   28.793002   43.605873
  H    -23.303232   29.150560   44.902284

 Multiplicity           Mult            ....    1
 Number of Electrons    NEL             ....   86
 Basis Dimension        Dim             ....  127

ORBITAL ENERGIES
----------------

  NO   OCC          E(Eh)            E(eV)
   0   2.0000     -19.139088      -520.8011
   1   2.0000     -19.138604      -520.7879
   2   2.0000     -19.129234      -520.5329
   3   2.0000     -10.280400      -279.7439
   4   2.0000     -10.243186      -278.7313
   5   2.0000     -10.224659      -278.2271
   6   2.0000     -10.222983      -278.1815
   7   2.0000     -10.221402      -278.1385
   8   2.0000     -10.191509      -277.3251
   9   2.0000     -10.187082      -277.2046
  10   2.0000     -10.184890      -277.1449
  11   2.0000      -1.053115       -28.6567
  12   2.0000      -1.015631       -27.6367
  13   2.0000      -0.989015       -26.9125
  14   2.0000      -0.788392       -21.4532
  15   2.0000      -0.781883       -21.2761
  16   2.0000      -0.745827       -20.2950
  17   2.0000      -0.720811       -19.6143
  18   2.0000      -0.610762       -16.6197
  19   2.0000      -0.603878       -16.4324
  20   2.0000      -0.595169       -16.1954
  21   2.0000      -0.576674       -15.6921
  22   2.0000      -0.518134       -14.0991
  23   2.0000      -0.506166       -13.7735
  24   2.0000      -0.485976       -13.2241
  25   2.0000      -0.483979       -13.1697
  26   2.0000      -0.455311       -12.3896
  27   2.0000      -0.447637       -12.1808
  28   2.0000      -0.420238       -11.4353
  29   2.0000      -0.418243       -11.3810
  30   2.0000      -0.408446       -11.1144
  31   2.0000      -0.389630       -10.6024
  32   2.0000      -0.378573       -10.3015
  33   2.0000      -0.369732       -10.0609
  34   2.0000      -0.361860        -9.8467
  35   2.0000      -0.351890        -9.5754
  36   2.0000      -0.348195        -9.4749
  37   2.0000      -0.312294        -8.4980
  38   2.0000      -0.308699        -8.4001
  39   2.0000      -0.297377        -8.0921
  40   2.0000      -0.263086        -7.1589
  41   2.0000      -0.249933        -6.8010
  42   2.0000      -0.234559        -6.3827
  43   0.0000       0.070985         1.9316
  44   0.0000       0.084873         2.3095
  45   0.0000       0.098315         2.6753
  46   0.0000       0.111790         3.0420
  47   0.0000       0.117815         3.2059

MULLIKEN ATOMIC CHARGES
-----------------------
   0 C :    0.297912
   1 C :   -0.266000
   2 C :   -0.303322
   3 C :   -0.000119
   4 O :   -0.502233
   5 H :    0.134876
   6 H :    0.143005
   7 H :    0.142594
   8 H :    0.141005
   9 H :    0.169402
  10 H :    0.156191
  11 H :    0.139971
  12 C :    0.001894
  13 H :    0.125745
  14 C :    0.077482
  15 C :   -0.307468
  16 C :    0.006141
  17 O :   -0.519333
  18 H :    0.173732
  19 O :   -0.508321
  20 H :    0.126870
  21 H :    0.146108
  22 H :    0.142665
  23 H :    0.136998
  24 H :    0.144205
Sum of atomic charges:   -0.0000000

LOEWDIN ATOMIC CHARGES
----------------------
   0 C :    0.180160
   1 C :   -0.228730
   2 C :   -0.217267
   3 C :   -0.025041
   4 O :   -0.305940
   5 H :    0.094939
   6 H :    0.112914
   7 H :    0.112544
   8 H :    0.114017
   9 H :    0.122231
  10 H :    0.110190
  11 H :    0.101355
  12 C :   -0.031714
  13 H :    0.091780
  14 C :    0.039890
  15 C :   -0.241439
  16 C :   -0.027780
  17 O :   -0.328385
  18 H :    0.126760
  19 O :   -0.327075
  20 H :    0.094661
  21 H :    0.115599
  22 H :    0.115086
  23 H :    0.099087
  24 H :    0.102158

  Mayer bond orders larger than 0.100000
B(  0-C ,  1-C ) :   0.9316 B(  0-C ,  4-O ) :   0.9354 B(  0-C ,  5-H ) :   0.9186
B(  0-C , 19-O ) :   0.8355 B(  1-C ,  2-C ) :   0.9528 B(  1-C ,  6-H ) :   0.9342
B(  1-C ,  7-H ) :   0.9287 B(  2-C ,  3-C ) :   0.9550 B(  2-C ,  8-H ) :   0.9447
B(  2-C ,  9-H ) :   0.9415 B(  3-C ,  4-O ) :   0.8343 B(  3-C , 10-H ) :   0.9342
B(  3-C , 11-H ) :   0.9398 B( 12-C , 13-H ) :   0.9166 B( 12-C , 14-C ) :   0.9360
B( 12-C , 17-O ) :   0.8663 B( 12-C , 18-H ) :   0.9293 B( 14-C , 15-C ) :   0.9238
B( 14-C , 19-O ) :   0.8484 B( 14-C , 20-H ) :   0.9193 B( 15-C , 16-C ) :   0.9438
B( 15-C , 21-H ) :   0.9322 B( 15-C , 22-H ) :   0.9358 B( 16-C , 17-O ) :   0.8628
B( 16-C , 23-H ) :   0.9326 B( 16-C , 24-H ) :   0.9355

FINAL SINGLE POINT ENERGY      -538.429058477469

DIPOLE MOMENT
-------------
                                X             Y             Z
Electronic contribution:     -2.00178      -3.15341       2.24504
Nuclear contribution   :      2.75947       3.44972      -3.28734
                        -----------------------------------------
Total Dipole Moment    :      0.75769       0.29631      -1.04230
                        -----------------------------------------
Magnitude (a.u.)       :      1.32223
Magnitude (Debye)      :      3.36083

Rotational constants in cm-1:     0.074227     0.022070     0.021027
Rotational constants in MHz :  2225.263149   661.638723   630.371422

                             ****ORCA TERMINATED NORMALLY****
TOTAL RUN TIME: 0 days 0 hours 7 minutes 12 seconds 520 msec
