                         Program Version 4.2.0 -  RELEASE  -
|  1> # Test redundant internal optimization
|  2> #
|  3> ! RKS B3LYP  Opt TightSCF SmallPrint
|  4>
|  5> %basis
|  6>         Basis "6-31G"
|  7> end
|  8>
|  9> %geom
| 10> Constraints
| 11> { D 4  0  15  12  90.0   C } # D for Dihedral angle
| 12> { D 0  15  12  16  45.0   C } # D for Dihedral angle
| 13> { D 0  4  3  2   C } # D for Dihedral angle
| 14> { D 4  3  2  1   C } # D for Dihedral angle
| 15> { D 3  2  1  0   C } # D for Dihedral angle
| 16> { D 2  1  0  4   C } # D for Dihedral angle
| 17> { D 1  0  4  3   C } # D for Dihedral angle
| 18> { D 16  20  19  18   C } # D for Dihedral angle
| 19> { D 20  19  18  17   C } # D for Dihedral angle
| 20> { D 19  18  17  16   C } # D for Dihedral angle
| 21> { D 18  17  16  20   C } # D for Dihedral angle
| 22> { D 17  16  20  19   C } # D for Dihedral angle
| 23> { D 15  12  16  20   C } # D for Dihedral angle
| 24> end
| 25> end
| 26>
| 27>
| 28> #%pal
| 29> #nprocs 8
| 30> #end
| 31>
| 32> * xyz 0 1
| 33> C  -21.048   26.222   46.251
| 34> C  -20.361   27.558   45.944
| 35> C  -20.329   28.222   47.341
| 36> C  -20.110   27.022   48.296
| 37> O  -20.473   25.807   47.535
| 38> H  -20.833   25.428   45.533
| 39> H  -19.344   27.382   45.576
| 40> H  -20.898   28.157   45.201
| 41> H  -19.543   28.978   47.434
| 42> H  -21.289   28.710   47.548
| 43> H  -20.733   27.082   49.195
| 44> H  -19.064   26.913   48.597
| 45> C  -23.061   27.816   46.783
| 46> H  -24.138   27.906   46.593
| 47> H  -22.886   27.986   47.853
| 48> O  -22.586   26.394   46.375
| 49> C  -22.330   28.941   46.000
| 50> C  -22.658   28.881   44.504
| 51> C  -24.055   29.546   44.462
| 52> C  -23.960   30.631   45.564
| 53> O  -22.816   30.259   46.423
| 54> H  -21.264   28.903   46.231
| 55> O  -21.627   29.718   43.698
| 56> H  -22.661   27.861   44.104
| 57> H  -24.294   29.968   43.481
| 58> H  -24.829   28.810   44.708
| 59> H  -24.866   30.685   46.177
| 60> H  -23.749   31.623   45.157
| 61> H  -21.607   30.745   44.081
| 62> *
| 63>
| 64>                          ****END OF INPUT****
 Total Charge           Charge          ....    0
 Multiplicity           Mult            ....    1
 Number of Electrons    NEL             ....  102
FINAL SINGLE POINT ENERGY      -652.705488876863
FINAL SINGLE POINT ENERGY      -652.813968349677
FINAL SINGLE POINT ENERGY      -652.837732463296
FINAL SINGLE POINT ENERGY      -652.844534570073
FINAL SINGLE POINT ENERGY      -652.845543751984
FINAL SINGLE POINT ENERGY      -652.845785244452
FINAL SINGLE POINT ENERGY      -652.845822936626
FINAL SINGLE POINT ENERGY      -652.845832077635
FINAL SINGLE POINT ENERGY      -652.845831315723
FINAL SINGLE POINT ENERGY      -652.845820712109
                    ***********************HURRAY********************

CARTESIAN COORDINATES (ANGSTROEM)
---------------------------------
  C    -21.163448   26.265615   46.479261
  C    -20.049881   27.205944   45.989592
  C    -19.671736   27.981097   47.293819
  C    -19.855099   26.887232   48.379255
  O    -20.691945   25.834146   47.773338
  H    -21.235100   25.354677   45.883709
  H    -19.207997   26.583684   45.668852
  H    -20.331872   27.856397   45.159533
  H    -18.647296   28.363481   47.263895
  H    -20.335741   28.826265   47.478982
  H    -20.346805   27.260743   49.282701
  H    -18.906823   26.419493   48.660710
  C    -23.182974   27.980587   46.723443
  H    -24.209227   27.816822   46.386351
  H    -23.215683   28.188796   47.801548
  O    -22.548884   26.687415   46.491781
  C    -22.601325   29.225527   46.038671
  C    -22.675733   29.208822   44.504333
  C    -24.160802   29.585850   44.257786
  C    -24.464861   30.586796   45.401304
  O    -23.409580   30.387976   46.427574
  H    -21.591392   29.443264   46.373096
  O    -21.748426   30.166651   43.924942
  H    -22.409180   28.245626   44.070112
  H    -24.288451   30.023065   43.264429
  H    -24.793064   28.694667   44.324417
  H    -25.443652   30.424203   45.862514
  H    -24.402065   31.629759   45.075793
  H    -21.822959   31.019401   44.403259

 Multiplicity           Mult            ....    1
 Number of Electrons    NEL             ....  102
 Basis Dimension        Dim             ....  149

ORBITAL ENERGIES
----------------

  NO   OCC          E(Eh)            E(eV)
   0   2.0000     -19.152418      -521.1638
   1   2.0000     -19.146441      -521.0012
   2   2.0000     -19.139249      -520.8055
   3   2.0000     -19.137636      -520.7616
   4   2.0000     -10.281224      -279.7663
   5   2.0000     -10.245498      -278.7942
   6   2.0000     -10.238926      -278.6153
   7   2.0000     -10.237777      -278.5841
   8   2.0000     -10.235033      -278.5094
   9   2.0000     -10.226390      -278.2742
  10   2.0000     -10.194556      -277.4080
  11   2.0000     -10.192920      -277.3635
  12   2.0000     -10.192296      -277.3465
  13   2.0000      -1.047636       -28.5076
  14   2.0000      -1.042593       -28.3704
  15   2.0000      -1.013951       -27.5910
  16   2.0000      -0.991684       -26.9851
  17   2.0000      -0.788302       -21.4508
  18   2.0000      -0.787127       -21.4188
  19   2.0000      -0.774619       -21.0785
  20   2.0000      -0.738143       -20.0859
  21   2.0000      -0.682237       -18.5646
  22   2.0000      -0.614422       -16.7193
  23   2.0000      -0.609439       -16.5837
  24   2.0000      -0.602031       -16.3821
  25   2.0000      -0.574498       -15.6329
  26   2.0000      -0.532718       -14.4960
  27   2.0000      -0.506804       -13.7908
  28   2.0000      -0.504678       -13.7330
  29   2.0000      -0.487478       -13.2649
  30   2.0000      -0.478348       -13.0165
  31   2.0000      -0.465674       -12.6716
  32   2.0000      -0.450483       -12.2583
  33   2.0000      -0.437468       -11.9041
  34   2.0000      -0.429102       -11.6765
  35   2.0000      -0.418365       -11.3843
  36   2.0000      -0.412346       -11.2205
  37   2.0000      -0.399745       -10.8776
  38   2.0000      -0.386571       -10.5191
  39   2.0000      -0.376496       -10.2450
  40   2.0000      -0.360575        -9.8118
  41   2.0000      -0.357549        -9.7294
  42   2.0000      -0.352143        -9.5823
  43   2.0000      -0.339185        -9.2297
  44   2.0000      -0.315977        -8.5982
  45   2.0000      -0.312983        -8.5167
  46   2.0000      -0.294902        -8.0247
  47   2.0000      -0.276017        -7.5108
  48   2.0000      -0.272824        -7.4239
  49   2.0000      -0.251862        -6.8535
  50   2.0000      -0.245110        -6.6698
  51   0.0000       0.055242         1.5032
  52   0.0000       0.068934         1.8758
  53   0.0000       0.084160         2.2901
  54   0.0000       0.091851         2.4994
  55   0.0000       0.098266         2.6739

MULLIKEN ATOMIC CHARGES
-----------------------
   0 C :    0.315944
   1 C :   -0.307165
   2 C :   -0.316485
   3 C :   -0.007333
   4 O :   -0.500537
   5 H :    0.166507
   6 H :    0.159126
   7 H :    0.168182
   8 H :    0.147669
   9 H :    0.155176
  10 H :    0.145191
  11 H :    0.145931
  12 C :    0.008643
  13 H :    0.152733
  14 H :    0.151730
  15 O :   -0.542631
  16 C :    0.023575
  17 C :    0.095238
  18 C :   -0.304280
  19 C :   -0.028465
  20 O :   -0.526707
  21 H :    0.162821
  22 O :   -0.609841
  23 H :    0.164930
  24 H :    0.161899
  25 H :    0.156215
  26 H :    0.149826
  27 H :    0.147933
  28 H :    0.364176
Sum of atomic charges:   -0.0000000

LOEWDIN ATOMIC CHARGES
----------------------
   0 C :    0.182903
   1 C :   -0.235420
   2 C :   -0.223932
   3 C :   -0.032157
   4 O :   -0.317169
   5 H :    0.112816
   6 H :    0.125560
   7 H :    0.124589
   8 H :    0.117644
   9 H :    0.109248
  10 H :    0.102885
  11 H :    0.103184
  12 C :   -0.033734
  13 H :    0.114131
  14 H :    0.106546
  15 O :   -0.336965
  16 C :   -0.003110
  17 C :    0.032792
  18 C :   -0.240108
  19 C :   -0.037325
  20 O :   -0.327554
  21 H :    0.112521
  22 O :   -0.415828
  23 H :    0.119563
  24 H :    0.127265
  25 H :    0.119026
  26 H :    0.105990
  27 H :    0.103408
  28 H :    0.283231

  Mayer bond orders larger than 0.100000
B(  0-C ,  1-C ) :   0.9176 B(  0-C ,  4-O ) :   0.9039 B(  0-C ,  5-H ) :   0.9353
B(  0-C , 15-O ) :   0.8882 B(  1-C ,  2-C ) :   0.9536 B(  1-C ,  6-H ) :   0.9312
B(  1-C ,  7-H ) :   0.9203 B(  2-C ,  3-C ) :   0.9435 B(  2-C ,  8-H ) :   0.9453
B(  2-C ,  9-H ) :   0.9249 B(  3-C ,  4-O ) :   0.8469 B(  3-C , 10-H ) :   0.9348
B(  3-C , 11-H ) :   0.9386 B( 12-C , 13-H ) :   0.9356 B( 12-C , 14-H ) :   0.9162
B( 12-C , 15-O ) :   0.8401 B( 12-C , 16-C ) :   0.8792 B( 16-C , 17-C ) :   0.9019
B( 16-C , 20-O ) :   0.8329 B( 16-C , 21-H ) :   0.9031 B( 17-C , 18-C ) :   0.9156
B( 17-C , 22-O ) :   0.8746 B( 17-C , 23-H ) :   0.9260 B( 18-C , 19-C ) :   0.9398
B( 18-C , 24-H ) :   0.9380 B( 18-C , 25-H ) :   0.9325 B( 19-C , 20-O ) :   0.8403
B( 19-C , 26-H ) :   0.9351 B( 19-C , 27-H ) :   0.9381 B( 22-O , 28-H ) :   0.7959

FINAL SINGLE POINT ENERGY      -652.845816554933

DIPOLE MOMENT
-------------
                                X             Y             Z
Electronic contribution:     -1.02431      -1.92971       0.62853
Nuclear contribution   :      1.03439       2.81084      -0.98547
                        -----------------------------------------
Total Dipole Moment    :      0.01007       0.88113      -0.35694
                        -----------------------------------------
Magnitude (a.u.)       :      0.95074
Magnitude (Debye)      :      2.41658

Rotational constants in cm-1:     0.051662     0.015176     0.014384
Rotational constants in MHz :  1548.790877   454.964834   431.209008

                             ****ORCA TERMINATED NORMALLY****
TOTAL RUN TIME: 0 days 1 hours 48 minutes 56 seconds 788 msec
