                         Program Version 4.2.0 -  RELEASE  -
|  1> # Test redundant internal optimization
|  2> #
|  3> ! RKS B3LYP  Opt TightSCF SmallPrint
|  4>
|  5> %basis
|  6>         Basis "6-31G"
|  7> end
|  8>
|  9> %geom
| 10> Constraints
| 11> { D 4  0  15  12  30.0   C } # D for Dihedral angle
| 12> { D 0  15  12  16  225.0   C } # D for Dihedral angle
| 13> { D 0  4  3  2   C } # D for Dihedral angle
| 14> { D 4  3  2  1   C } # D for Dihedral angle
| 15> { D 3  2  1  0   C } # D for Dihedral angle
| 16> { D 2  1  0  4   C } # D for Dihedral angle
| 17> { D 1  0  4  3   C } # D for Dihedral angle
| 18> { D 16  20  19  18   C } # D for Dihedral angle
| 19> { D 20  19  18  17   C } # D for Dihedral angle
| 20> { D 19  18  17  16   C } # D for Dihedral angle
| 21> { D 18  17  16  20   C } # D for Dihedral angle
| 22> { D 17  16  20  19   C } # D for Dihedral angle
| 23> { D 15  12  16  20   C } # D for Dihedral angle
| 24> end
| 25> end
| 26>
| 27>
| 28> #%pal
| 29> #nprocs 8
| 30> #end
| 31>
| 32> * xyz 0 1
| 33> C  -21.048   26.222   46.251
| 34> C  -20.361   27.558   45.944
| 35> C  -20.329   28.222   47.341
| 36> C  -20.110   27.022   48.296
| 37> O  -20.473   25.807   47.535
| 38> H  -20.833   25.428   45.533
| 39> H  -19.344   27.382   45.576
| 40> H  -20.898   28.157   45.201
| 41> H  -19.543   28.978   47.434
| 42> H  -21.289   28.710   47.548
| 43> H  -20.733   27.082   49.195
| 44> H  -19.064   26.913   48.597
| 45> C  -23.091   26.824   47.779
| 46> H  -22.287   26.683   48.512
| 47> H  -23.372   27.885   47.778
| 48> O  -22.586   26.394   46.375
| 49> C  -24.328   26.009   48.248
| 50> C  -24.869   26.536   49.582
| 51> C  -25.669   27.780   49.127
| 52> C  -26.246   27.345   47.756
| 53> O  -25.443   26.185   47.312
| 54> H  -24.077   24.946   48.250
| 55> H  -25.535   25.794   50.038
| 56> O  -23.749   26.880   50.601
| 57> H  -26.451   28.065   49.837
| 58> H  -24.996   28.637   49.008
| 59> H  -26.179   28.137   47.002
| 60> H  -27.285   27.010   47.828
| 61> H  -23.070   27.622   50.167
| 62> *
| 63>
| 64>                          ****END OF INPUT****
 Total Charge           Charge          ....    0
 Multiplicity           Mult            ....    1
 Number of Electrons    NEL             ....  102
FINAL SINGLE POINT ENERGY      -652.817338532889
FINAL SINGLE POINT ENERGY      -652.842255304964
FINAL SINGLE POINT ENERGY      -652.848843571324
FINAL SINGLE POINT ENERGY      -652.851271769438
FINAL SINGLE POINT ENERGY      -652.851564198193
FINAL SINGLE POINT ENERGY      -652.851666241498
FINAL SINGLE POINT ENERGY      -652.851679904418
FINAL SINGLE POINT ENERGY      -652.851671324982
FINAL SINGLE POINT ENERGY      -652.851668223501
                    ***********************HURRAY********************

CARTESIAN COORDINATES (ANGSTROEM)
---------------------------------
  C    -21.146826   26.282212   46.389956
  C    -20.382741   27.518902   45.904404
  C    -20.034022   28.226302   47.241694
  C    -19.784933   27.039257   48.202909
  O    -20.414552   25.855123   47.560767
  H    -21.120748   25.449557   45.685466
  H    -19.472562   27.197625   45.385430
  H    -20.981529   28.133359   45.228686
  H    -19.159040   28.878101   47.159751
  H    -20.877640   28.839122   47.577710
  H    -20.220743   27.181886   49.196543
  H    -18.721866   26.805526   48.313205
  C    -23.069226   26.942624   47.884041
  H    -22.326179   26.768921   48.668718
  H    -23.308672   28.014688   47.832502
  O    -22.565580   26.506439   46.594171
  C    -24.304835   26.110940   48.225786
  C    -24.965599   26.504184   49.557957
  C    -25.857165   27.709439   49.130691
  C    -26.310918   27.306808   47.709607
  O    -25.378626   26.249951   47.247021
  H    -24.012478   25.057560   48.201310
  H    -25.584528   25.677483   49.913570
  O    -24.053389   26.776526   50.651311
  H    -26.692361   27.872774   49.816722
  H    -25.249087   28.624671   49.111481
  H    -26.285648   28.141778   47.001628
  H    -27.315606   26.873165   47.704505
  H    -23.660900   27.668079   50.553457

 Multiplicity           Mult            ....    1
 Number of Electrons    NEL             ....  102
 Basis Dimension        Dim             ....  149

ORBITAL ENERGIES
----------------

  NO   OCC          E(Eh)            E(eV)
   0   2.0000     -19.149518      -521.0849
   1   2.0000     -19.148782      -521.0649
   2   2.0000     -19.135645      -520.7074
   3   2.0000     -19.132719      -520.6278
   4   2.0000     -10.276671      -279.6424
   5   2.0000     -10.243323      -278.7350
   6   2.0000     -10.234040      -278.4824
   7   2.0000     -10.228071      -278.3200
   8   2.0000     -10.227649      -278.3085
   9   2.0000     -10.225388      -278.2470
  10   2.0000     -10.195505      -277.4338
  11   2.0000     -10.194792      -277.4144
  12   2.0000     -10.186171      -277.1798
  13   2.0000      -1.053277       -28.6611
  14   2.0000      -1.032186       -28.0872
  15   2.0000      -1.013264       -27.5723
  16   2.0000      -0.991707       -26.9857
  17   2.0000      -0.790365       -21.5069
  18   2.0000      -0.781136       -21.2558
  19   2.0000      -0.769163       -20.9300
  20   2.0000      -0.733091       -19.9484
  21   2.0000      -0.679291       -18.4845
  22   2.0000      -0.610297       -16.6070
  23   2.0000      -0.605260       -16.4700
  24   2.0000      -0.596835       -16.2407
  25   2.0000      -0.567934       -15.4543
  26   2.0000      -0.524672       -14.2770
  27   2.0000      -0.511492       -13.9184
  28   2.0000      -0.501284       -13.6406
  29   2.0000      -0.495664       -13.4877
  30   2.0000      -0.469788       -12.7836
  31   2.0000      -0.461827       -12.5670
  32   2.0000      -0.443088       -12.0570
  33   2.0000      -0.430959       -11.7270
  34   2.0000      -0.422796       -11.5049
  35   2.0000      -0.416950       -11.3458
  36   2.0000      -0.415408       -11.3038
  37   2.0000      -0.397799       -10.8247
  38   2.0000      -0.378596       -10.3021
  39   2.0000      -0.373258       -10.1569
  40   2.0000      -0.361694        -9.8422
  41   2.0000      -0.353945        -9.6313
  42   2.0000      -0.348675        -9.4879
  43   2.0000      -0.330416        -8.9911
  44   2.0000      -0.324029        -8.8173
  45   2.0000      -0.314378        -8.5546
  46   2.0000      -0.303142        -8.2489
  47   2.0000      -0.269828        -7.3424
  48   2.0000      -0.264075        -7.1859
  49   2.0000      -0.253269        -6.8918
  50   2.0000      -0.232378        -6.3233
  51   0.0000       0.046696         1.2707
  52   0.0000       0.073761         2.0072
  53   0.0000       0.085595         2.3292
  54   0.0000       0.091917         2.5012
  55   0.0000       0.103685         2.8214

MULLIKEN ATOMIC CHARGES
-----------------------
   0 C :    0.292860
   1 C :   -0.259552
   2 C :   -0.310405
   3 C :   -0.021711
   4 O :   -0.506908
   5 H :    0.166671
   6 H :    0.147400
   7 H :    0.157659
   8 H :    0.148058
   9 H :    0.145848
  10 H :    0.141691
  11 H :    0.153034
  12 C :   -0.025634
  13 H :    0.155347
  14 H :    0.116477
  15 O :   -0.514141
  16 C :    0.101123
  17 C :    0.080738
  18 C :   -0.328737
  19 C :   -0.010245
  20 O :   -0.502815
  21 H :    0.166576
  22 H :    0.169739
  23 O :   -0.598293
  24 H :    0.158832
  25 H :    0.129486
  26 H :    0.145931
  27 H :    0.148533
  28 H :    0.352437
Sum of atomic charges:    0.0000000

LOEWDIN ATOMIC CHARGES
----------------------
   0 C :    0.179217
   1 C :   -0.226201
   2 C :   -0.222617
   3 C :   -0.035861
   4 O :   -0.318028
   5 H :    0.112957
   6 H :    0.116092
   7 H :    0.123697
   8 H :    0.117579
   9 H :    0.108853
  10 H :    0.099189
  11 H :    0.107395
  12 C :   -0.055033
  13 H :    0.111671
  14 H :    0.086618
  15 O :   -0.317487
  16 C :    0.020765
  17 C :    0.033190
  18 C :   -0.242564
  19 C :   -0.030526
  20 O :   -0.312045
  21 H :    0.122097
  22 H :    0.120215
  23 O :   -0.407654
  24 H :    0.122575
  25 H :    0.101630
  26 H :    0.103269
  27 H :    0.105436
  28 H :    0.275568

  Mayer bond orders larger than 0.100000
B(  0-C ,  1-C ) :   0.9150 B(  0-C ,  4-O ) :   0.9033 B(  0-C ,  5-H ) :   0.9332
B(  0-C , 15-O ) :   0.8818 B(  1-C ,  2-C ) :   0.9554 B(  1-C ,  6-H ) :   0.9348
B(  1-C ,  7-H ) :   0.9372 B(  2-C ,  3-C ) :   0.9493 B(  2-C ,  8-H ) :   0.9448
B(  2-C ,  9-H ) :   0.9447 B(  3-C ,  4-O ) :   0.8371 B(  3-C , 10-H ) :   0.9300
B(  3-C , 11-H ) :   0.9398 B( 12-C , 13-H ) :   0.8901 B( 12-C , 14-H ) :   0.9217
B( 12-C , 15-O ) :   0.8472 B( 12-C , 16-C ) :   0.9018 B( 16-C , 17-C ) :   0.8703
B( 16-C , 20-O ) :   0.8705 B( 16-C , 21-H ) :   0.9289 B( 17-C , 18-C ) :   0.9244
B( 17-C , 22-H ) :   0.9329 B( 17-C , 23-O ) :   0.8922 B( 18-C , 19-C ) :   0.9400
B( 18-C , 24-H ) :   0.9411 B( 18-C , 25-H ) :   0.9411 B( 19-C , 20-O ) :   0.8533
B( 19-C , 26-H ) :   0.9309 B( 19-C , 27-H ) :   0.9376 B( 23-O , 28-H ) :   0.8003

FINAL SINGLE POINT ENERGY      -652.851667743862

DIPOLE MOMENT
-------------
                                X             Y             Z
Electronic contribution:     -1.65852      -5.43287      -0.73211
Nuclear contribution   :      2.00331       7.13645       1.06152
                        -----------------------------------------
Total Dipole Moment    :      0.34479       1.70358       0.32941
                        -----------------------------------------
Magnitude (a.u.)       :      1.76906
Magnitude (Debye)      :      4.49661

Rotational constants in cm-1:     0.049687     0.014273     0.012750
Rotational constants in MHz :  1489.574618   427.890888   382.241896

                             ****ORCA TERMINATED NORMALLY****
TOTAL RUN TIME: 0 days 1 hours 26 minutes 20 seconds 865 msec
