                         Program Version 4.2.0 -  RELEASE  -
|  1> # Test redundant internal optimization
|  2> #
|  3> ! RKS B3LYP  Opt TightSCF SmallPrint
|  4>
|  5> %basis
|  6>         Basis "6-31G"
|  7> end
|  8>
|  9> %geom
| 10> Constraints
| 11> { D 4  0  15  12  60.0   C } # D for Dihedral angle
| 12> { D 0  15  12  16  240.0   C } # D for Dihedral angle
| 13> { D 0  4  3  2   C } # D for Dihedral angle
| 14> { D 4  3  2  1   C } # D for Dihedral angle
| 15> { D 3  2  1  0   C } # D for Dihedral angle
| 16> { D 2  1  0  4   C } # D for Dihedral angle
| 17> { D 1  0  4  3   C } # D for Dihedral angle
| 18> { D 16  20  19  18   C } # D for Dihedral angle
| 19> { D 20  19  18  17   C } # D for Dihedral angle
| 20> { D 19  18  17  16   C } # D for Dihedral angle
| 21> { D 18  17  16  20   C } # D for Dihedral angle
| 22> { D 17  16  20  19   C } # D for Dihedral angle
| 23> { D 15  12  16  20   C } # D for Dihedral angle
| 24> end
| 25> end
| 26>
| 27>
| 28> #%pal
| 29> #nprocs 8
| 30> #end
| 31>
| 32> * xyz 0 1
| 33> C  -21.048   26.222   46.251
| 34> C  -20.361   27.558   45.944
| 35> C  -20.329   28.222   47.341
| 36> C  -20.110   27.022   48.296
| 37> O  -20.473   25.807   47.535
| 38> H  -20.833   25.428   45.533
| 39> H  -19.344   27.382   45.576
| 40> H  -20.898   28.157   45.201
| 41> H  -19.543   28.978   47.434
| 42> H  -21.289   28.710   47.548
| 43> H  -20.733   27.082   49.195
| 44> H  -19.064   26.913   48.597
| 45> C  -23.051   27.452   47.413
| 46> H  -22.171   27.909   47.883
| 47> H  -23.628   28.245   46.921
| 48> O  -22.586   26.394   46.375
| 49> C  -23.941   26.844   48.533
| 50> C  -25.149   26.106   47.944
| 51> C  -24.515   24.764   47.507
| 52> C  -23.445   24.509   48.598
| 53> O  -23.207   25.807   49.265
| 54> H  -24.195   27.625   49.251
| 55> O  -26.219   25.873   49.045
| 56> H  -25.620   26.644   47.113
| 57> H  -25.244   23.951   47.440
| 58> H  -24.043   24.873   46.523
| 59> H  -22.501   24.140   48.183
| 60> H  -23.791   23.811   49.367
| 61> H  -25.770   25.336   49.887
| 62> *
| 63>
| 64>                          ****END OF INPUT****
 Total Charge           Charge          ....    0
 Multiplicity           Mult            ....    1
 Number of Electrons    NEL             ....  102
FINAL SINGLE POINT ENERGY      -652.803198259912
FINAL SINGLE POINT ENERGY      -652.837252014620
FINAL SINGLE POINT ENERGY      -652.854392095105
FINAL SINGLE POINT ENERGY      -652.857534545082
FINAL SINGLE POINT ENERGY      -652.857940705539
FINAL SINGLE POINT ENERGY      -652.858019219156
FINAL SINGLE POINT ENERGY      -652.858033123902
FINAL SINGLE POINT ENERGY      -652.858033738378
                    ***********************HURRAY********************

CARTESIAN COORDINATES (ANGSTROEM)
---------------------------------
  C    -21.144895   26.394355   46.397479
  C    -20.324081   27.608219   45.939508
  C    -19.990566   28.306714   47.291712
  C    -19.811484   27.102433   48.252943
  O    -20.461135   25.946992   47.585457
  H    -21.100722   25.564366   45.690388
  H    -19.409713   27.248308   45.456370
  H    -20.867484   28.246109   45.237599
  H    -19.078399   28.908885   47.228575
  H    -20.797636   28.972886   47.605878
  H    -20.281878   27.246253   49.229265
  H    -18.759732   26.837179   48.393357
  C    -23.191452   27.483363   47.491510
  H    -22.440447   28.019416   48.074368
  H    -23.776123   28.214465   46.917603
  O    -22.571457   26.565668   46.543261
  C    -24.098531   26.755094   48.487777
  C    -25.267990   25.955161   47.895469
  C    -24.577817   24.617843   47.513578
  C    -23.525889   24.437180   48.636755
  O    -23.351274   25.770576   49.264440
  H    -24.478358   27.504060   49.193798
  O    -26.315551   25.773043   48.891309
  H    -25.756839   26.446352   47.053616
  H    -25.308210   23.804310   47.476724
  H    -24.091327   24.723934   46.543002
  H    -22.554395   24.112248   48.260703
  H    -23.858947   23.753869   49.425843
  H    -25.908668   25.444719   49.720713

 Multiplicity           Mult            ....    1
 Number of Electrons    NEL             ....  102
 Basis Dimension        Dim             ....  149

ORBITAL ENERGIES
----------------

  NO   OCC          E(Eh)            E(eV)
   0   2.0000     -19.146403      -521.0001
   1   2.0000     -19.144386      -520.9452
   2   2.0000     -19.131643      -520.5985
   3   2.0000     -19.129713      -520.5459
   4   2.0000     -10.282744      -279.8077
   5   2.0000     -10.234149      -278.4854
   6   2.0000     -10.230970      -278.3988
   7   2.0000     -10.230108      -278.3754
   8   2.0000     -10.228959      -278.3441
   9   2.0000     -10.213720      -277.9294
  10   2.0000     -10.195819      -277.4424
  11   2.0000     -10.193113      -277.3687
  12   2.0000     -10.169737      -276.7326
  13   2.0000      -1.054564       -28.6961
  14   2.0000      -1.026868       -27.9425
  15   2.0000      -1.000586       -27.2273
  16   2.0000      -0.992425       -27.0053
  17   2.0000      -0.790873       -21.5208
  18   2.0000      -0.777465       -21.1559
  19   2.0000      -0.759632       -20.6706
  20   2.0000      -0.732913       -19.9436
  21   2.0000      -0.675262       -18.3748
  22   2.0000      -0.607254       -16.5242
  23   2.0000      -0.603111       -16.4115
  24   2.0000      -0.590368       -16.0647
  25   2.0000      -0.565643       -15.3919
  26   2.0000      -0.523837       -14.2543
  27   2.0000      -0.508568       -13.8388
  28   2.0000      -0.495024       -13.4703
  29   2.0000      -0.484466       -13.1830
  30   2.0000      -0.471793       -12.8381
  31   2.0000      -0.458308       -12.4712
  32   2.0000      -0.444763       -12.1026
  33   2.0000      -0.432027       -11.7561
  34   2.0000      -0.423752       -11.5309
  35   2.0000      -0.415578       -11.3085
  36   2.0000      -0.398886       -10.8542
  37   2.0000      -0.384671       -10.4674
  38   2.0000      -0.380644       -10.3578
  39   2.0000      -0.363355        -9.8874
  40   2.0000      -0.361818        -9.8456
  41   2.0000      -0.355983        -9.6868
  42   2.0000      -0.347767        -9.4632
  43   2.0000      -0.323810        -8.8113
  44   2.0000      -0.316222        -8.6048
  45   2.0000      -0.307589        -8.3699
  46   2.0000      -0.294594        -8.0163
  47   2.0000      -0.270018        -7.3476
  48   2.0000      -0.261721        -7.1218
  49   2.0000      -0.254973        -6.9382
  50   2.0000      -0.233460        -6.3528
  51   0.0000       0.068775         1.8715
  52   0.0000       0.080391         2.1876
  53   0.0000       0.093912         2.5555
  54   0.0000       0.103556         2.8179
  55   0.0000       0.108614         2.9555

MULLIKEN ATOMIC CHARGES
-----------------------
   0 C :    0.306957
   1 C :   -0.271393
   2 C :   -0.322846
   3 C :   -0.012709
   4 O :   -0.501461
   5 H :    0.162973
   6 H :    0.154976
   7 H :    0.150383
   8 H :    0.147245
   9 H :    0.151185
  10 H :    0.161753
  11 H :    0.147845
  12 C :   -0.005528
  13 H :    0.142386
  14 H :    0.136330
  15 O :   -0.533305
  16 C :    0.073970
  17 C :    0.077170
  18 C :   -0.289348
  19 C :   -0.025212
  20 O :   -0.526290
  21 H :    0.150416
  22 O :   -0.604758
  23 H :    0.148227
  24 H :    0.146209
  25 H :    0.173054
  26 H :    0.168741
  27 H :    0.131067
  28 H :    0.361961
Sum of atomic charges:   -0.0000000

LOEWDIN ATOMIC CHARGES
----------------------
   0 C :    0.176661
   1 C :   -0.227296
   2 C :   -0.225886
   3 C :   -0.033546
   4 O :   -0.315987
   5 H :    0.111469
   6 H :    0.121178
   7 H :    0.119502
   8 H :    0.116495
   9 H :    0.109206
  10 H :    0.111043
  11 H :    0.105589
  12 C :   -0.038502
  13 H :    0.105597
  14 H :    0.103353
  15 O :   -0.326844
  16 C :    0.009958
  17 C :    0.038616
  18 C :   -0.242532
  19 C :   -0.034993
  20 O :   -0.329804
  21 H :    0.113097
  22 O :   -0.418887
  23 H :    0.114166
  24 H :    0.117121
  25 H :    0.129643
  26 H :    0.116540
  27 H :    0.093810
  28 H :    0.281233

  Mayer bond orders larger than 0.100000
B(  0-C ,  1-C ) :   0.9207 B(  0-C ,  4-O ) :   0.9070 B(  0-C ,  5-H ) :   0.9363
B(  0-C , 15-O ) :   0.8814 B(  1-C ,  2-C ) :   0.9547 B(  1-C ,  6-H ) :   0.9349
B(  1-C ,  7-H ) :   0.9377 B(  2-C ,  3-C ) :   0.9464 B(  2-C ,  8-H ) :   0.9444
B(  2-C ,  9-H ) :   0.9381 B(  3-C ,  4-O ) :   0.8378 B(  3-C , 10-H ) :   0.9295
B(  3-C , 11-H ) :   0.9385 B( 12-C , 13-H ) :   0.9099 B( 12-C , 14-H ) :   0.9250
B( 12-C , 15-O ) :   0.8456 B( 12-C , 16-C ) :   0.8868 B( 16-C , 17-C ) :   0.9119
B( 16-C , 20-O ) :   0.8807 B( 16-C , 21-H ) :   0.9190 B( 17-C , 18-C ) :   0.9251
B( 17-C , 22-O ) :   0.8896 B( 17-C , 23-H ) :   0.9362 B( 18-C , 19-C ) :   0.9449
B( 18-C , 24-H ) :   0.9373 B( 18-C , 25-H ) :   0.9196 B( 19-C , 20-O ) :   0.8315
B( 19-C , 26-H ) :   0.9270 B( 19-C , 27-H ) :   0.9374 B( 22-O , 28-H ) :   0.7961

FINAL SINGLE POINT ENERGY      -652.858019877916

DIPOLE MOMENT
-------------
                                X             Y             Z
Electronic contribution:     -3.18782      -2.38200       1.52430
Nuclear contribution   :      4.18525       3.20494      -1.99074
                        -----------------------------------------
Total Dipole Moment    :      0.99744       0.82294      -0.46644
                        -----------------------------------------
Magnitude (a.u.)       :      1.37465
Magnitude (Debye)      :      3.49409

Rotational constants in cm-1:     0.059566     0.015308     0.014887
Rotational constants in MHz :  1785.744223   458.920177   446.298752

                             ****ORCA TERMINATED NORMALLY****
TOTAL RUN TIME: 0 days 0 hours 52 minutes 48 seconds 570 msec
