                         Program Version 4.2.0 -  RELEASE  -
|  1> # Test redundant internal optimization
|  2> #
|  3> ! RKS B3LYP  Opt TightSCF SmallPrint
|  4>
|  5> %basis
|  6>         Basis "6-31G"
|  7> end
|  8>
|  9> %geom
| 10> Constraints
| 11> { D 4  0  15  12  210.0   C } # D for Dihedral angle
| 12> { D 0  15  12  16  150.0   C } # D for Dihedral angle
| 13> { D 0  4  3  2   C } # D for Dihedral angle
| 14> { D 4  3  2  1   C } # D for Dihedral angle
| 15> { D 3  2  1  0   C } # D for Dihedral angle
| 16> { D 2  1  0  4   C } # D for Dihedral angle
| 17> { D 1  0  4  3   C } # D for Dihedral angle
| 18> { D 16  20  19  18   C } # D for Dihedral angle
| 19> { D 20  19  18  17   C } # D for Dihedral angle
| 20> { D 19  18  17  16   C } # D for Dihedral angle
| 21> { D 18  17  16  20   C } # D for Dihedral angle
| 22> { D 17  16  20  19   C } # D for Dihedral angle
| 23> { D 15  12  16  20   C } # D for Dihedral angle
| 24> end
| 25> end
| 26>
| 27>
| 28> #%pal
| 29> #nprocs 8
| 30> #end
| 31>
| 32> * xyz 0 1
| 33> C  -21.048   26.222   46.251
| 34> C  -20.361   27.558   45.944
| 35> C  -20.329   28.222   47.341
| 36> C  -20.110   27.022   48.296
| 37> O  -20.473   25.807   47.535
| 38> H  -20.833   25.428   45.533
| 39> H  -19.344   27.382   45.576
| 40> H  -20.898   28.157   45.201
| 41> H  -19.543   28.978   47.434
| 42> H  -21.289   28.710   47.548
| 43> H  -20.733   27.082   49.195
| 44> H  -19.064   26.913   48.597
| 45> C  -23.389   26.110   45.076
| 46> H  -23.479   27.038   44.497
| 47> H  -22.869   25.368   44.457
| 48> O  -22.586   26.394   46.375
| 49> C  -24.818   25.571   45.359
| 50> C  -25.677   26.618   46.077
| 51> C  -26.090   27.541   44.906
| 52> C  -26.250   26.555   43.722
| 53> O  -25.530   25.321   44.102
| 54> H  -24.743   24.614   45.880
| 55> O  -26.924   25.942   46.710
| 56> H  -25.136   27.150   46.868
| 57> H  -27.009   28.100   45.111
| 58> H  -25.295   28.267   44.701
| 59> H  -25.826   26.945   42.791
| 60> H  -27.294   26.279   43.547
| 61> H  -27.483   25.402   45.936
| 62> *
| 63>
| 64>                          ****END OF INPUT****
 Total Charge           Charge          ....    0
 Multiplicity           Mult            ....    1
 Number of Electrons    NEL             ....  102
FINAL SINGLE POINT ENERGY      -652.835940404445
FINAL SINGLE POINT ENERGY      -652.859082921474
FINAL SINGLE POINT ENERGY      -652.862579703983
FINAL SINGLE POINT ENERGY      -652.863225245289
FINAL SINGLE POINT ENERGY      -652.863320707410
FINAL SINGLE POINT ENERGY      -652.863330613597
FINAL SINGLE POINT ENERGY      -652.863333612435
                    ***********************HURRAY********************

CARTESIAN COORDINATES (ANGSTROEM)
---------------------------------
  C    -21.127452   26.191044   46.174720
  C    -20.400192   27.509339   45.919755
  C    -20.488497   28.197099   47.303175
  C    -20.376095   27.011776   48.284867
  O    -20.689757   25.798294   47.483025
  H    -20.882703   25.376152   45.484722
  H    -19.357309   27.304048   45.650291
  H    -20.856218   28.097373   45.118109
  H    -19.701228   28.941525   47.454419
  H    -21.458695   28.692051   47.406884
  H    -21.082009   27.070036   49.116799
  H    -19.363282   26.874754   48.674761
  C    -23.287521   26.121621   44.969704
  H    -23.330203   27.025393   44.344668
  H    -22.791112   25.332160   44.388119
  O    -22.569215   26.384084   46.204467
  C    -24.688987   25.645638   45.348707
  C    -25.540150   26.671825   46.110081
  C    -26.044618   27.576343   44.957410
  C    -26.239881   26.581775   43.786106
  O    -25.459707   25.365873   44.132114
  H    -24.611210   24.710791   45.909504
  O    -26.642083   26.018088   46.798474
  H    -24.980304   27.202803   46.878045
  H    -26.969320   28.083985   45.242717
  H    -25.295403   28.337462   44.714560
  H    -25.881804   26.972446   42.828868
  H    -27.282560   26.271299   43.667980
  H    -27.025486   25.330922   46.212948

 Multiplicity           Mult            ....    1
 Number of Electrons    NEL             ....  102
 Basis Dimension        Dim             ....  149

ORBITAL ENERGIES
----------------

  NO   OCC          E(Eh)            E(eV)
   0   2.0000     -19.145761      -520.9826
   1   2.0000     -19.145106      -520.9648
   2   2.0000     -19.141920      -520.8781
   3   2.0000     -19.133281      -520.6430
   4   2.0000     -10.282810      -279.8095
   5   2.0000     -10.235063      -278.5102
   6   2.0000     -10.234472      -278.4941
   7   2.0000     -10.232408      -278.4380
   8   2.0000     -10.231704      -278.4188
   9   2.0000     -10.226179      -278.2685
  10   2.0000     -10.188871      -277.2533
  11   2.0000     -10.188219      -277.2355
  12   2.0000     -10.187010      -277.2026
  13   2.0000      -1.056231       -28.7415
  14   2.0000      -1.035586       -28.1797
  15   2.0000      -1.003262       -27.3001
  16   2.0000      -0.998410       -27.1681
  17   2.0000      -0.789824       -21.4922
  18   2.0000      -0.779127       -21.2011
  19   2.0000      -0.768303       -20.9066
  20   2.0000      -0.731279       -19.8991
  21   2.0000      -0.676059       -18.3965
  22   2.0000      -0.603756       -16.4290
  23   2.0000      -0.602311       -16.3897
  24   2.0000      -0.592249       -16.1159
  25   2.0000      -0.582697       -15.8560
  26   2.0000      -0.523284       -14.2393
  27   2.0000      -0.518559       -14.1107
  28   2.0000      -0.499047       -13.5798
  29   2.0000      -0.489651       -13.3241
  30   2.0000      -0.471098       -12.8192
  31   2.0000      -0.455591       -12.3973
  32   2.0000      -0.452538       -12.3142
  33   2.0000      -0.445424       -12.1206
  34   2.0000      -0.426202       -11.5975
  35   2.0000      -0.414691       -11.2843
  36   2.0000      -0.400684       -10.9032
  37   2.0000      -0.391563       -10.6550
  38   2.0000      -0.375565       -10.2197
  39   2.0000      -0.366657        -9.9772
  40   2.0000      -0.361635        -9.8406
  41   2.0000      -0.356613        -9.7039
  42   2.0000      -0.354903        -9.6574
  43   2.0000      -0.332147        -9.0382
  44   2.0000      -0.315507        -8.5854
  45   2.0000      -0.313755        -8.5377
  46   2.0000      -0.302014        -8.2182
  47   2.0000      -0.274243        -7.4625
  48   2.0000      -0.262363        -7.1393
  49   2.0000      -0.254336        -6.9208
  50   2.0000      -0.245644        -6.6843
  51   0.0000       0.065357         1.7785
  52   0.0000       0.070628         1.9219
  53   0.0000       0.095157         2.5894
  54   0.0000       0.097500         2.6531
  55   0.0000       0.104887         2.8541

MULLIKEN ATOMIC CHARGES
-----------------------
   0 C :    0.299774
   1 C :   -0.263774
   2 C :   -0.299129
   3 C :   -0.003308
   4 O :   -0.501518
   5 H :    0.140174
   6 H :    0.145570
   7 H :    0.141952
   8 H :    0.143016
   9 H :    0.159611
  10 H :    0.156653
  11 H :    0.142814
  12 C :   -0.008467
  13 H :    0.126236
  14 H :    0.144111
  15 O :   -0.520965
  16 C :    0.058191
  17 C :    0.095092
  18 C :   -0.298775
  19 C :   -0.028000
  20 O :   -0.529108
  21 H :    0.170028
  22 O :   -0.604374
  23 H :    0.175245
  24 H :    0.162093
  25 H :    0.144394
  26 H :    0.142449
  27 H :    0.147290
  28 H :    0.362728
Sum of atomic charges:   -0.0000000

LOEWDIN ATOMIC CHARGES
----------------------
   0 C :    0.180055
   1 C :   -0.227592
   2 C :   -0.216703
   3 C :   -0.025437
   4 O :   -0.305338
   5 H :    0.097400
   6 H :    0.114238
   7 H :    0.114417
   8 H :    0.114851
   9 H :    0.117781
  10 H :    0.110473
  11 H :    0.103052
  12 C :   -0.039542
  13 H :    0.089368
  14 H :    0.103841
  15 O :   -0.336388
  16 C :    0.017012
  17 C :    0.039708
  18 C :   -0.241783
  19 C :   -0.037509
  20 O :   -0.331894
  21 H :    0.120911
  22 O :   -0.414856
  23 H :    0.127418
  24 H :    0.126806
  25 H :    0.112763
  26 H :    0.102359
  27 H :    0.103068
  28 H :    0.281518

  Mayer bond orders larger than 0.100000
B(  0-C ,  1-C ) :   0.9322 B(  0-C ,  4-O ) :   0.9407 B(  0-C ,  5-H ) :   0.9181
B(  0-C , 15-O ) :   0.8266 B(  1-C ,  2-C ) :   0.9545 B(  1-C ,  6-H ) :   0.9343
B(  1-C ,  7-H ) :   0.9385 B(  2-C ,  3-C ) :   0.9549 B(  2-C ,  8-H ) :   0.9450
B(  2-C ,  9-H ) :   0.9444 B(  3-C ,  4-O ) :   0.8350 B(  3-C , 10-H ) :   0.9341
B(  3-C , 11-H ) :   0.9396 B( 12-C , 13-H ) :   0.9201 B( 12-C , 14-H ) :   0.9138
B( 12-C , 15-O ) :   0.8289 B( 12-C , 16-C ) :   0.9016 B( 16-C , 17-C ) :   0.9161
B( 16-C , 20-O ) :   0.8403 B( 16-C , 21-H ) :   0.9248 B( 17-C , 18-C ) :   0.9101
B( 17-C , 22-O ) :   0.8890 B( 17-C , 23-H ) :   0.9247 B( 18-C , 19-C ) :   0.9408
B( 18-C , 24-H ) :   0.9376 B( 18-C , 25-H ) :   0.9354 B( 19-C , 20-O ) :   0.8436
B( 19-C , 26-H ) :   0.9365 B( 19-C , 27-H ) :   0.9382 B( 22-O , 28-H ) :   0.7953

FINAL SINGLE POINT ENERGY      -652.863334009220

DIPOLE MOMENT
-------------
                                X             Y             Z
Electronic contribution:     -2.37397      -5.53882       1.26434
Nuclear contribution   :      2.94295       6.72691      -2.17337
                        -----------------------------------------
Total Dipole Moment    :      0.56898       1.18809      -0.90903
                        -----------------------------------------
Magnitude (a.u.)       :      1.60051
Magnitude (Debye)      :      4.06816

Rotational constants in cm-1:     0.056767     0.011960     0.011517
Rotational constants in MHz :  1701.833786   358.562662   345.283526

                             ****ORCA TERMINATED NORMALLY****
TOTAL RUN TIME: 0 days 0 hours 41 minutes 10 seconds 51 msec
