                         Program Version 4.2.0 -  RELEASE  -
|  1> # Test redundant internal optimization
|  2> #
|  3> ! RKS B3LYP  Opt TightSCF SmallPrint
|  4>
|  5> %basis
|  6>         Basis "6-31G"
|  7> end
|  8>
|  9> %geom
| 10> Constraints
| 11> { D 4  0  15  12  180.0   C } # D for Dihedral angle
| 12> { D 0  15  12  16  240.0   C } # D for Dihedral angle
| 13> { D 0  4  3  2   C } # D for Dihedral angle
| 14> { D 4  3  2  1   C } # D for Dihedral angle
| 15> { D 3  2  1  0   C } # D for Dihedral angle
| 16> { D 2  1  0  4   C } # D for Dihedral angle
| 17> { D 1  0  4  3   C } # D for Dihedral angle
| 18> { D 16  20  19  18   C } # D for Dihedral angle
| 19> { D 20  19  18  17   C } # D for Dihedral angle
| 20> { D 19  18  17  16   C } # D for Dihedral angle
| 21> { D 18  17  16  20   C } # D for Dihedral angle
| 22> { D 17  16  20  19   C } # D for Dihedral angle
| 23> { D 15  12  16  20   C } # D for Dihedral angle
| 24> end
| 25> end
| 26>
| 27>
| 28> #%pal
| 29> #nprocs 8
| 30> #end
| 31>
| 32> * xyz 0 1
| 33> C  -21.048   26.222   46.251
| 34> C  -20.361   27.558   45.944
| 35> C  -20.329   28.222   47.341
| 36> C  -20.110   27.022   48.296
| 37> O  -20.473   25.807   47.535
| 38> H  -20.833   25.428   45.533
| 39> H  -19.344   27.382   45.576
| 40> H  -20.898   28.157   45.201
| 41> H  -19.543   28.978   47.434
| 42> H  -21.289   28.710   47.548
| 43> H  -20.733   27.082   49.195
| 44> H  -19.064   26.913   48.597
| 45> C  -23.309   26.834   45.072
| 46> H  -22.571   26.938   44.267
| 47> H  -24.044   26.078   44.767
| 48> O  -22.586   26.394   46.375
| 49> C  -24.057   28.186   45.228
| 50> C  -24.852   28.531   43.964
| 51> C  -26.107   27.641   44.129
| 52> C  -26.344   27.649   45.660
| 53> O  -25.075   28.091   46.279
| 54> H  -23.347   28.955   45.539
| 55> O  -25.241   30.035   43.972
| 56> H  -24.302   28.322   43.039
| 57> H  -26.971   28.017   43.571
| 58> H  -25.897   26.625   43.776
| 59> H  -26.607   26.659   46.049
| 60> H  -27.115   28.364   45.960
| 61> H  -25.794   30.267   44.889
| 62> *
| 63>
| 64>                          ****END OF INPUT****
 Total Charge           Charge          ....    0
 Multiplicity           Mult            ....    1
 Number of Electrons    NEL             ....  102
FINAL SINGLE POINT ENERGY      -652.828112400357
FINAL SINGLE POINT ENERGY      -652.850550982381
FINAL SINGLE POINT ENERGY      -652.854191064307
FINAL SINGLE POINT ENERGY      -652.854835950236
FINAL SINGLE POINT ENERGY      -652.854916795496
FINAL SINGLE POINT ENERGY      -652.854926294886
                    ***********************HURRAY********************

CARTESIAN COORDINATES (ANGSTROEM)
---------------------------------
  C    -21.076556   26.253378   46.167400
  C    -20.385620   27.588537   45.895493
  C    -20.462394   28.280831   47.280588
  C    -20.302282   27.099029   48.258708
  O    -20.603422   25.878526   47.464838
  H    -20.823015   25.444576   45.474355
  H    -19.343506   27.399300   45.611819
  H    -20.850289   28.175144   45.097765
  H    -19.686427   29.041033   47.410778
  H    -21.439504   28.755272   47.407902
  H    -20.993578   27.141730   49.103374
  H    -19.278893   26.985352   48.627993
  C    -23.237562   26.762958   45.051038
  H    -22.547048   26.870868   44.201336
  H    -23.936015   25.950357   44.816534
  O    -22.529325   26.384270   46.263540
  C    -23.994579   28.076849   45.252764
  C    -24.810978   28.516348   44.028835
  C    -26.106714   27.677589   44.193740
  C    -26.295224   27.629017   45.730691
  O    -24.984645   27.983029   46.327333
  H    -23.289742   28.857493   45.553965
  O    -25.082277   29.944460   44.075851
  H    -24.307634   28.352331   43.074488
  H    -26.941815   28.152727   43.673160
  H    -25.966914   26.674281   43.776394
  H    -26.593479   26.640077   46.090293
  H    -27.022442   28.364530   46.088992
  H    -25.352120   30.187107   44.987033

 Multiplicity           Mult            ....    1
 Number of Electrons    NEL             ....  102
 Basis Dimension        Dim             ....  149

ORBITAL ENERGIES
----------------

  NO   OCC          E(Eh)            E(eV)
   0   2.0000     -19.142920      -520.9053
   1   2.0000     -19.142710      -520.8996
   2   2.0000     -19.138797      -520.7931
   3   2.0000     -19.136820      -520.7393
   4   2.0000     -10.279140      -279.7096
   5   2.0000     -10.246909      -278.8326
   6   2.0000     -10.237185      -278.5680
   7   2.0000     -10.235532      -278.5230
   8   2.0000     -10.231674      -278.4180
   9   2.0000     -10.222831      -278.1774
  10   2.0000     -10.192697      -277.3574
  11   2.0000     -10.188780      -277.2508
  12   2.0000     -10.185970      -277.1743
  13   2.0000      -1.052035       -28.6273
  14   2.0000      -1.039007       -28.2728
  15   2.0000      -1.009212       -27.4621
  16   2.0000      -0.991097       -26.9691
  17   2.0000      -0.787998       -21.4425
  18   2.0000      -0.785245       -21.3676
  19   2.0000      -0.769583       -20.9414
  20   2.0000      -0.732565       -19.9341
  21   2.0000      -0.677768       -18.4430
  22   2.0000      -0.607686       -16.5360
  23   2.0000      -0.601552       -16.3691
  24   2.0000      -0.594905       -16.1882
  25   2.0000      -0.581981       -15.8365
  26   2.0000      -0.523504       -14.2453
  27   2.0000      -0.514141       -13.9905
  28   2.0000      -0.500701       -13.6248
  29   2.0000      -0.493127       -13.4187
  30   2.0000      -0.473394       -12.8817
  31   2.0000      -0.458697       -12.4818
  32   2.0000      -0.455073       -12.3832
  33   2.0000      -0.442139       -12.0312
  34   2.0000      -0.430400       -11.7118
  35   2.0000      -0.408033       -11.1031
  36   2.0000      -0.404643       -11.0109
  37   2.0000      -0.396440       -10.7877
  38   2.0000      -0.377261       -10.2658
  39   2.0000      -0.374555       -10.1922
  40   2.0000      -0.362143        -9.8544
  41   2.0000      -0.356403        -9.6982
  42   2.0000      -0.353937        -9.6311
  43   2.0000      -0.334594        -9.1048
  44   2.0000      -0.314122        -8.5477
  45   2.0000      -0.308412        -8.3923
  46   2.0000      -0.299460        -8.1487
  47   2.0000      -0.274814        -7.4781
  48   2.0000      -0.262610        -7.1460
  49   2.0000      -0.256276        -6.9736
  50   2.0000      -0.237656        -6.4670
  51   0.0000       0.063067         1.7161
  52   0.0000       0.078463         2.1351
  53   0.0000       0.086108         2.3431
  54   0.0000       0.088760         2.4153
  55   0.0000       0.097170         2.6441

MULLIKEN ATOMIC CHARGES
-----------------------
   0 C :    0.299231
   1 C :   -0.282793
   2 C :   -0.303213
   3 C :    0.000089
   4 O :   -0.499945
   5 H :    0.141053
   6 H :    0.148208
   7 H :    0.139185
   8 H :    0.142412
   9 H :    0.167916
  10 H :    0.159677
  11 H :    0.140954
  12 C :   -0.015801
  13 H :    0.121712
  14 H :    0.144996
  15 O :   -0.493245
  16 C :    0.067983
  17 C :    0.074160
  18 C :   -0.297384
  19 C :   -0.026100
  20 O :   -0.508808
  21 H :    0.160756
  22 O :   -0.602197
  23 H :    0.148603
  24 H :    0.164096
  25 H :    0.145113
  26 H :    0.151909
  27 H :    0.145382
  28 H :    0.366051
Sum of atomic charges:    0.0000000

LOEWDIN ATOMIC CHARGES
----------------------
   0 C :    0.181433
   1 C :   -0.234610
   2 C :   -0.217719
   3 C :   -0.023767
   4 O :   -0.300561
   5 H :    0.096228
   6 H :    0.116060
   7 H :    0.110535
   8 H :    0.114600
   9 H :    0.119320
  10 H :    0.112459
  11 H :    0.102049
  12 C :   -0.045206
  13 H :    0.094928
  14 H :    0.105826
  15 O :   -0.325017
  16 C :    0.011579
  17 C :    0.033780
  18 C :   -0.241405
  19 C :   -0.037308
  20 O :   -0.320068
  21 H :    0.113424
  22 O :   -0.414772
  23 H :    0.113489
  24 H :    0.127322
  25 H :    0.113342
  26 H :    0.107766
  27 H :    0.102251
  28 H :    0.284041

  Mayer bond orders larger than 0.100000
B(  0-C ,  1-C ) :   0.9265 B(  0-C ,  4-O ) :   0.9433 B(  0-C ,  5-H ) :   0.9208
B(  0-C , 15-O ) :   0.8375 B(  1-C ,  2-C ) :   0.9510 B(  1-C ,  6-H ) :   0.9330
B(  1-C ,  7-H ) :   0.9321 B(  2-C ,  3-C ) :   0.9554 B(  2-C ,  8-H ) :   0.9446
B(  2-C ,  9-H ) :   0.9399 B(  3-C ,  4-O ) :   0.8329 B(  3-C , 10-H ) :   0.9337
B(  3-C , 11-H ) :   0.9399 B( 12-C , 13-H ) :   0.9117 B( 12-C , 14-H ) :   0.9280
B( 12-C , 15-O ) :   0.8538 B( 12-C , 16-C ) :   0.8861 B( 16-C , 17-C ) :   0.8940
B( 16-C , 20-O ) :   0.8699 B( 16-C , 21-H ) :   0.9235 B( 17-C , 18-C ) :   0.9128
B( 17-C , 22-O ) :   0.8930 B( 17-C , 23-H ) :   0.9340 B( 18-C , 19-C ) :   0.9380
B( 18-C , 24-H ) :   0.9369 B( 18-C , 25-H ) :   0.9335 B( 19-C , 20-O ) :   0.8492
B( 19-C , 26-H ) :   0.9341 B( 19-C , 27-H ) :   0.9376 B( 22-O , 28-H ) :   0.7931

FINAL SINGLE POINT ENERGY      -652.854928486578

DIPOLE MOMENT
-------------
                                X             Y             Z
Electronic contribution:     -0.84797      -1.60361       1.60595
Nuclear contribution   :      0.88412       1.95498      -2.39855
                        -----------------------------------------
Total Dipole Moment    :      0.03615       0.35138      -0.79260
                        -----------------------------------------
Magnitude (a.u.)       :      0.86775
Magnitude (Debye)      :      2.20565

Rotational constants in cm-1:     0.057430     0.012801     0.012234
Rotational constants in MHz :  1721.718344   383.762215   366.773697

                             ****ORCA TERMINATED NORMALLY****
TOTAL RUN TIME: 0 days 0 hours 53 minutes 18 seconds 697 msec
