                         Program Version 4.2.0 -  RELEASE  -
|  1> # Test redundant internal optimization
|  2> #
|  3> ! RKS B3LYP  Opt TightSCF SmallPrint
|  4>
|  5> %basis
|  6>         Basis "6-31G"
|  7> end
|  8>
|  9> %geom
| 10> Constraints
| 11> { D 4  0  15  12  300.0   C } # D for Dihedral angle
| 12> { D 0  15  12  16  180.0   C } # D for Dihedral angle
| 13> { D 0  4  3  2   C } # D for Dihedral angle
| 14> { D 4  3  2  1   C } # D for Dihedral angle
| 15> { D 3  2  1  0   C } # D for Dihedral angle
| 16> { D 2  1  0  4   C } # D for Dihedral angle
| 17> { D 1  0  4  3   C } # D for Dihedral angle
| 18> { D 16  20  19  18   C } # D for Dihedral angle
| 19> { D 20  19  18  17   C } # D for Dihedral angle
| 20> { D 19  18  17  16   C } # D for Dihedral angle
| 21> { D 18  17  16  20   C } # D for Dihedral angle
| 22> { D 17  16  20  19   C } # D for Dihedral angle
| 23> { D 15  12  16  20   C } # D for Dihedral angle
| 24> end
| 25> end
| 26>
| 27>
| 28> #%pal
| 29> #nprocs 8
| 30> #end
| 31>
| 32> * xyz 0 1
| 33> C  -21.048   26.222   46.251
| 34> C  -20.361   27.558   45.944
| 35> C  -20.329   28.222   47.341
| 36> C  -20.110   27.022   48.296
| 37> O  -20.473   25.807   47.535
| 38> H  -20.833   25.428   45.533
| 39> H  -19.344   27.382   45.576
| 40> H  -20.898   28.157   45.201
| 41> H  -19.543   28.978   47.434
| 42> H  -21.289   28.710   47.548
| 43> H  -20.733   27.082   49.195
| 44> H  -19.064   26.913   48.597
| 45> C  -23.362   25.116   46.798
| 46> H  -23.185   24.325   46.059
| 47> H  -23.010   24.759   47.774
| 48> O  -22.586   26.394   46.375
| 49> C  -24.894   25.351   46.904
| 50> C  -25.214   26.510   47.856
| 51> C  -24.933   27.739   46.958
| 52> C  -25.381   27.260   45.555
| 53> O  -25.437   25.783   45.613
| 54> H  -25.383   24.410   47.159
| 55> H  -26.270   26.477   48.145
| 56> O  -24.351   26.497   49.147
| 57> H  -25.470   28.635   47.285
| 58> H  -23.861   27.971   46.963
| 59> H  -24.684   27.563   44.766
| 60> H  -26.384   27.611   45.295
| 61> H  -23.289   26.530   48.880
| 62> *
| 63>
| 64>                          ****END OF INPUT****
 Total Charge           Charge          ....    0
 Multiplicity           Mult            ....    1
 Number of Electrons    NEL             ....  102
FINAL SINGLE POINT ENERGY      -652.838502661030
FINAL SINGLE POINT ENERGY      -652.862895490643
FINAL SINGLE POINT ENERGY      -652.867251090780
FINAL SINGLE POINT ENERGY      -652.868635427272
FINAL SINGLE POINT ENERGY      -652.868757062946
FINAL SINGLE POINT ENERGY      -652.868779506141
FINAL SINGLE POINT ENERGY      -652.868779924429
                    ***********************HURRAY********************

CARTESIAN COORDINATES (ANGSTROEM)
---------------------------------
  C    -21.071339   26.145731   46.269939
  C    -20.420740   27.491597   45.947689
  C    -20.384305   28.165277   47.338330
  C    -20.125830   26.980996   48.297353
  O    -20.478018   25.754964   47.532642
  H    -20.853694   25.330233   45.571878
  H    -19.408808   27.317537   45.566542
  H    -20.988638   28.057152   45.206147
  H    -19.607331   28.932359   47.413454
  H    -21.348540   28.638258   47.549166
  H    -20.730609   27.019495   49.207897
  H    -19.072850   26.882326   48.575396
  C    -23.231327   25.140626   46.784815
  H    -23.053072   24.340853   46.052552
  H    -22.864719   24.805414   47.761426
  O    -22.498270   26.336939   46.363182
  C    -24.727561   25.416193   46.860910
  C    -25.149953   26.520161   47.846779
  C    -24.989171   27.805476   46.977964
  C    -25.399379   27.316404   45.572223
  O    -25.314778   25.833799   45.595493
  H    -25.202627   24.461555   47.117272
  H    -26.189279   26.373255   48.147304
  O    -24.401410   26.536360   49.086260
  H    -25.613915   28.627103   47.339733
  H    -23.941315   28.112424   46.991297
  H    -24.737910   27.691222   44.786453
  H    -26.434611   27.570329   45.325362
  H    -23.478999   26.807963   48.897543

 Multiplicity           Mult            ....    1
 Number of Electrons    NEL             ....  102
 Basis Dimension        Dim             ....  149

ORBITAL ENERGIES
----------------

  NO   OCC          E(Eh)            E(eV)
   0   2.0000     -19.154780      -521.2281
   1   2.0000     -19.150702      -521.1171
   2   2.0000     -19.138783      -520.7928
   3   2.0000     -19.131420      -520.5924
   4   2.0000     -10.285830      -279.8917
   5   2.0000     -10.235836      -278.5312
   6   2.0000     -10.235120      -278.5118
   7   2.0000     -10.229300      -278.3534
   8   2.0000     -10.227338      -278.3000
   9   2.0000     -10.219836      -278.0959
  10   2.0000     -10.195840      -277.4429
  11   2.0000     -10.193816      -277.3878
  12   2.0000     -10.178079      -276.9596
  13   2.0000      -1.063941       -28.9513
  14   2.0000      -1.026079       -27.9210
  15   2.0000      -1.008736       -27.4491
  16   2.0000      -0.999874       -27.2079
  17   2.0000      -0.797429       -21.6991
  18   2.0000      -0.772051       -21.0086
  19   2.0000      -0.764856       -20.8128
  20   2.0000      -0.735694       -20.0192
  21   2.0000      -0.676324       -18.4037
  22   2.0000      -0.608772       -16.5655
  23   2.0000      -0.600565       -16.3422
  24   2.0000      -0.596903       -16.2426
  25   2.0000      -0.571915       -15.5626
  26   2.0000      -0.526414       -14.3245
  27   2.0000      -0.512309       -13.9406
  28   2.0000      -0.501766       -13.6537
  29   2.0000      -0.490228       -13.3398
  30   2.0000      -0.469272       -12.7695
  31   2.0000      -0.465959       -12.6794
  32   2.0000      -0.442181       -12.0324
  33   2.0000      -0.425942       -11.5905
  34   2.0000      -0.419293       -11.4095
  35   2.0000      -0.418341       -11.3836
  36   2.0000      -0.405170       -11.0252
  37   2.0000      -0.398790       -10.8516
  38   2.0000      -0.384804       -10.4711
  39   2.0000      -0.367143        -9.9905
  40   2.0000      -0.366466        -9.9720
  41   2.0000      -0.355490        -9.6734
  42   2.0000      -0.348855        -9.4928
  43   2.0000      -0.340861        -9.2753
  44   2.0000      -0.322556        -8.7772
  45   2.0000      -0.307467        -8.3666
  46   2.0000      -0.304591        -8.2883
  47   2.0000      -0.274412        -7.4671
  48   2.0000      -0.264854        -7.2070
  49   2.0000      -0.260020        -7.0755
  50   2.0000      -0.238038        -6.4774
  51   0.0000       0.043763         1.1908
  52   0.0000       0.084787         2.3072
  53   0.0000       0.088062         2.3963
  54   0.0000       0.096873         2.6360
  55   0.0000       0.104606         2.8465

MULLIKEN ATOMIC CHARGES
-----------------------
   0 C :    0.296269
   1 C :   -0.264431
   2 C :   -0.305289
   3 C :   -0.011646
   4 O :   -0.513163
   5 H :    0.150480
   6 H :    0.151195
   7 H :    0.159637
   8 H :    0.148499
   9 H :    0.155008
  10 H :    0.143043
  11 H :    0.151173
  12 C :   -0.019424
  13 H :    0.145918
  14 H :    0.158506
  15 O :   -0.536518
  16 C :    0.087444
  17 C :    0.083992
  18 C :   -0.314824
  19 C :    0.003035
  20 O :   -0.522913
  21 H :    0.149652
  22 H :    0.161409
  23 O :   -0.606905
  24 H :    0.142304
  25 H :    0.162414
  26 H :    0.145163
  27 H :    0.137750
  28 H :    0.362218
Sum of atomic charges:   -0.0000000

LOEWDIN ATOMIC CHARGES
----------------------
   0 C :    0.173125
   1 C :   -0.213552
   2 C :   -0.217482
   3 C :   -0.030594
   4 O :   -0.328476
   5 H :    0.099416
   6 H :    0.117844
   7 H :    0.125588
   8 H :    0.117090
   9 H :    0.112519
  10 H :    0.101340
  11 H :    0.107283
  12 C :   -0.051048
  13 H :    0.105849
  14 H :    0.110889
  15 O :   -0.333386
  16 C :    0.019489
  17 C :    0.038134
  18 C :   -0.243138
  19 C :   -0.023488
  20 O :   -0.323854
  21 H :    0.115448
  22 H :    0.116052
  23 O :   -0.410210
  24 H :    0.114273
  25 H :    0.117859
  26 H :    0.104483
  27 H :    0.099677
  28 H :    0.278871

  Mayer bond orders larger than 0.100000
B(  0-C ,  1-C ) :   0.9497 B(  0-C ,  4-O ) :   0.8958 B(  0-C ,  5-H ) :   0.9182
B(  0-C , 15-O ) :   0.8569 B(  1-C ,  2-C ) :   0.9540 B(  1-C ,  6-H ) :   0.9390
B(  1-C ,  7-H ) :   0.9355 B(  2-C ,  3-C ) :   0.9532 B(  2-C ,  8-H ) :   0.9445
B(  2-C ,  9-H ) :   0.9433 B(  3-C ,  4-O ) :   0.8377 B(  3-C , 10-H ) :   0.9339
B(  3-C , 11-H ) :   0.9397 B( 12-C , 13-H ) :   0.9221 B( 12-C , 14-H ) :   0.8990
B( 12-C , 15-O ) :   0.8161 B( 12-C , 16-C ) :   0.9184 B( 16-C , 17-C ) :   0.8863
B( 16-C , 20-O ) :   0.8772 B( 16-C , 21-H ) :   0.9284 B( 17-C , 18-C ) :   0.9313
B( 17-C , 22-H ) :   0.9366 B( 17-C , 23-O ) :   0.9013 B( 18-C , 19-C ) :   0.9459
B( 18-C , 24-H ) :   0.9418 B( 18-C , 25-H ) :   0.9256 B( 19-C , 20-O ) :   0.8376
B( 19-C , 26-H ) :   0.9327 B( 19-C , 27-H ) :   0.9386 B( 23-O , 28-H ) :   0.7896

FINAL SINGLE POINT ENERGY      -652.868778057755

DIPOLE MOMENT
-------------
                                X             Y             Z
Electronic contribution:     -2.39352      -4.57795      -0.11288
Nuclear contribution   :      3.26947       5.53442      -0.09030
                        -----------------------------------------
Total Dipole Moment    :      0.87594       0.95647      -0.20318
                        -----------------------------------------
Magnitude (a.u.)       :      1.31278
Magnitude (Debye)      :      3.33683

Rotational constants in cm-1:     0.045253     0.016791     0.015981
Rotational constants in MHz :  1356.662774   503.369251   479.087603

                             ****ORCA TERMINATED NORMALLY****
TOTAL RUN TIME: 0 days 0 hours 19 minutes 18 seconds 111 msec
