                         Program Version 4.2.0 -  RELEASE  -
|  1> # Test redundant internal optimization
|  2> #
|  3> ! RKS B3LYP  Opt TightSCF SmallPrint
|  4>
|  5> %basis
|  6>         Basis "6-31G"
|  7> end
|  8>
|  9> %geom
| 10> Constraints
| 11> { D 4  0  15  12  255.0   C } # D for Dihedral angle
| 12> { D 0  15  12  16  270.0   C } # D for Dihedral angle
| 13> { D 0  4  3  2   C } # D for Dihedral angle
| 14> { D 4  3  2  1   C } # D for Dihedral angle
| 15> { D 3  2  1  0   C } # D for Dihedral angle
| 16> { D 2  1  0  4   C } # D for Dihedral angle
| 17> { D 1  0  4  3   C } # D for Dihedral angle
| 18> { D 16  20  19  18   C } # D for Dihedral angle
| 19> { D 20  19  18  17   C } # D for Dihedral angle
| 20> { D 19  18  17  16   C } # D for Dihedral angle
| 21> { D 18  17  16  20   C } # D for Dihedral angle
| 22> { D 17  16  20  19   C } # D for Dihedral angle
| 23> { D 15  12  16  20   C } # D for Dihedral angle
| 24> end
| 25> end
| 26>
| 27>
| 28> #%pal
| 29> #nprocs 8
| 30> #end
| 31>
| 32> * xyz 0 1
| 33> C  -21.048   26.222   46.251
| 34> C  -20.361   27.558   45.944
| 35> C  -20.329   28.222   47.341
| 36> C  -20.110   27.022   48.296
| 37> O  -20.473   25.807   47.535
| 38> H  -20.833   25.428   45.533
| 39> H  -19.344   27.382   45.576
| 40> H  -20.898   28.157   45.201
| 41> H  -19.543   28.978   47.434
| 42> H  -21.289   28.710   47.548
| 43> H  -20.733   27.082   49.195
| 44> H  -19.064   26.913   48.597
| 45> C  -23.431   25.260   45.734
| 46> H  -22.872   24.317   45.787
| 47> H  -24.376   25.130   46.278
| 48> O  -22.586   26.394   46.375
| 49> C  -23.778   25.538   44.245
| 50> C  -24.707   24.458   43.679
| 51> C  -26.079   24.899   44.241
| 52> C  -25.987   26.445   44.222
| 53> O  -24.550   26.779   44.121
| 54> H  -22.853   25.678   43.682
| 55> O  -24.706   24.514   42.126
| 56> H  -24.427   23.445   43.987
| 57> H  -26.921   24.523   43.649
| 58> H  -26.201   24.532   45.267
| 59> H  -26.398   26.901   45.129
| 60> H  -26.481   26.882   43.350
| 61> H  -24.985   25.521   41.795
| 62> *
| 63>
| 64>                          ****END OF INPUT****
 Total Charge           Charge          ....    0
 Multiplicity           Mult            ....    1
 Number of Electrons    NEL             ....  102
FINAL SINGLE POINT ENERGY      -652.833513253127
FINAL SINGLE POINT ENERGY      -652.856723284035
FINAL SINGLE POINT ENERGY      -652.860771283501
FINAL SINGLE POINT ENERGY      -652.861515339095
FINAL SINGLE POINT ENERGY      -652.861603226462
FINAL SINGLE POINT ENERGY      -652.861612045592
                    ***********************HURRAY********************

CARTESIAN COORDINATES (ANGSTROEM)
---------------------------------
  C    -21.081571   26.162673   46.181800
  C    -20.484994   27.539287   45.889184
  C    -20.466348   28.183031   47.295364
  C    -20.157433   26.985762   48.221515
  O    -20.467152   25.769109   47.429009
  H    -20.848387   25.378267   45.455196
  H    -19.466550   27.419908   45.500642
  H    -21.082553   28.098454   45.166547
  H    -19.723430   28.981544   47.384018
  H    -21.453039   28.598796   47.519401
  H    -20.766251   26.977873   49.128972
  H    -19.099717   26.920484   48.494473
  C    -23.355245   25.270173   45.779782
  H    -22.851140   24.293863   45.844845
  H    -24.241156   25.240916   46.420596
  O    -22.513236   26.314854   46.332498
  C    -23.744648   25.553744   44.327088
  C    -24.681824   24.497703   43.722593
  C    -26.064652   24.963748   44.249932
  C    -25.936610   26.507462   44.247995
  O    -24.486558   26.810069   44.192313
  H    -22.840163   25.664180   43.719358
  O    -24.622235   24.523509   42.269563
  H    -24.436313   23.472054   44.001454
  H    -26.866254   24.598565   43.603564
  H    -26.235680   24.578366   45.261357
  H    -26.362466   26.969228   45.143935
  H    -26.396742   26.966697   43.367191
  H    -24.630653   25.456680   41.967814

 Multiplicity           Mult            ....    1
 Number of Electrons    NEL             ....  102
 Basis Dimension        Dim             ....  149

ORBITAL ENERGIES
----------------

  NO   OCC          E(Eh)            E(eV)
   0   2.0000     -19.143330      -520.9165
   1   2.0000     -19.142042      -520.8814
   2   2.0000     -19.139874      -520.8224
   3   2.0000     -19.134024      -520.6633
   4   2.0000     -10.276235      -279.6306
   5   2.0000     -10.246223      -278.8139
   6   2.0000     -10.236595      -278.5519
   7   2.0000     -10.233984      -278.4809
   8   2.0000     -10.232729      -278.4467
   9   2.0000     -10.219999      -278.1003
  10   2.0000     -10.192723      -277.3581
  11   2.0000     -10.179835      -277.0074
  12   2.0000     -10.179504      -276.9984
  13   2.0000      -1.050269       -28.5793
  14   2.0000      -1.038306       -28.2537
  15   2.0000      -1.008902       -27.4536
  16   2.0000      -0.991066       -26.9683
  17   2.0000      -0.788936       -21.4680
  18   2.0000      -0.780424       -21.2364
  19   2.0000      -0.767241       -20.8777
  20   2.0000      -0.730086       -19.8666
  21   2.0000      -0.674502       -18.3541
  22   2.0000      -0.607699       -16.5363
  23   2.0000      -0.601880       -16.3780
  24   2.0000      -0.592644       -16.1267
  25   2.0000      -0.576785       -15.6951
  26   2.0000      -0.528567       -14.3830
  27   2.0000      -0.512816       -13.9544
  28   2.0000      -0.492730       -13.4079
  29   2.0000      -0.489882       -13.3304
  30   2.0000      -0.472493       -12.8572
  31   2.0000      -0.455499       -12.3948
  32   2.0000      -0.452118       -12.3028
  33   2.0000      -0.441949       -12.0260
  34   2.0000      -0.425711       -11.5842
  35   2.0000      -0.412638       -11.2284
  36   2.0000      -0.398081       -10.8323
  37   2.0000      -0.394889       -10.7455
  38   2.0000      -0.375594       -10.2204
  39   2.0000      -0.368198       -10.0192
  40   2.0000      -0.358629        -9.7588
  41   2.0000      -0.351546        -9.5660
  42   2.0000      -0.346790        -9.4366
  43   2.0000      -0.334395        -9.0994
  44   2.0000      -0.318248        -8.6600
  45   2.0000      -0.310371        -8.4456
  46   2.0000      -0.300137        -8.1672
  47   2.0000      -0.274432        -7.4677
  48   2.0000      -0.269928        -7.3451
  49   2.0000      -0.251083        -6.8323
  50   2.0000      -0.237045        -6.4503
  51   0.0000       0.063216         1.7202
  52   0.0000       0.083865         2.2821
  53   0.0000       0.088129         2.3981
  54   0.0000       0.095874         2.6089
  55   0.0000       0.099878         2.7178

MULLIKEN ATOMIC CHARGES
-----------------------
   0 C :    0.278183
   1 C :   -0.254329
   2 C :   -0.300713
   3 C :   -0.000549
   4 O :   -0.507307
   5 H :    0.135691
   6 H :    0.140496
   7 H :    0.161497
   8 H :    0.139229
   9 H :    0.166576
  10 H :    0.148185
  11 H :    0.139428
  12 C :   -0.015929
  13 H :    0.135022
  14 H :    0.152331
  15 O :   -0.500168
  16 C :    0.062331
  17 C :    0.077609
  18 C :   -0.294983
  19 C :   -0.028697
  20 O :   -0.511103
  21 H :    0.156765
  22 O :   -0.601127
  23 H :    0.151508
  24 H :    0.163632
  25 H :    0.143958
  26 H :    0.151551
  27 H :    0.145742
  28 H :    0.365174
Sum of atomic charges:    0.0000000

LOEWDIN ATOMIC CHARGES
----------------------
   0 C :    0.172115
   1 C :   -0.218361
   2 C :   -0.216200
   3 C :   -0.026774
   4 O :   -0.324169
   5 H :    0.095419
   6 H :    0.111381
   7 H :    0.125635
   8 H :    0.112711
   9 H :    0.121320
  10 H :    0.106123
  11 H :    0.101025
  12 C :   -0.040519
  13 H :    0.100835
  14 H :    0.112564
  15 O :   -0.317393
  16 C :    0.004477
  17 C :    0.034840
  18 C :   -0.240477
  19 C :   -0.037710
  20 O :   -0.323407
  21 H :    0.112220
  22 O :   -0.414097
  23 H :    0.115233
  24 H :    0.127356
  25 H :    0.113217
  26 H :    0.106878
  27 H :    0.102297
  28 H :    0.283461

  Mayer bond orders larger than 0.100000
B(  0-C ,  1-C ) :   0.9450 B(  0-C ,  4-O ) :   0.9226 B(  0-C ,  5-H ) :   0.9181
B(  0-C , 15-O ) :   0.8518 B(  1-C ,  2-C ) :   0.9578 B(  1-C ,  6-H ) :   0.9389
B(  1-C ,  7-H ) :   0.9350 B(  2-C ,  3-C ) :   0.9546 B(  2-C ,  8-H ) :   0.9454
B(  2-C ,  9-H ) :   0.9432 B(  3-C ,  4-O ) :   0.8385 B(  3-C , 10-H ) :   0.9355
B(  3-C , 11-H ) :   0.9401 B( 12-C , 13-H ) :   0.9131 B( 12-C , 14-H ) :   0.9375
B( 12-C , 15-O ) :   0.8638 B( 12-C , 16-C ) :   0.8773 B( 16-C , 17-C ) :   0.8967
B( 16-C , 20-O ) :   0.8661 B( 16-C , 21-H ) :   0.9260 B( 17-C , 18-C ) :   0.9130
B( 17-C , 22-O ) :   0.8933 B( 17-C , 23-H ) :   0.9331 B( 18-C , 19-C ) :   0.9385
B( 18-C , 24-H ) :   0.9376 B( 18-C , 25-H ) :   0.9341 B( 19-C , 20-O ) :   0.8478
B( 19-C , 26-H ) :   0.9339 B( 19-C , 27-H ) :   0.9378 B( 22-O , 28-H ) :   0.7939

FINAL SINGLE POINT ENERGY      -652.861613791668

DIPOLE MOMENT
-------------
                                X             Y             Z
Electronic contribution:     -0.05826      -1.94983      -1.76120
Nuclear contribution   :     -0.27458       2.23821       1.83246
                        -----------------------------------------
Total Dipole Moment    :     -0.33284       0.28838       0.07125
                        -----------------------------------------
Magnitude (a.u.)       :      0.44612
Magnitude (Debye)      :      1.13394

Rotational constants in cm-1:     0.066296     0.011349     0.011085
Rotational constants in MHz :  1987.494105   340.221642   332.314208

                             ****ORCA TERMINATED NORMALLY****
TOTAL RUN TIME: 0 days 1 hours 29 minutes 56 seconds 883 msec
