                         Program Version 4.2.0 -  RELEASE  -
|  1> # Test redundant internal optimization
|  2> #
|  3> ! RKS B3LYP  Opt TightSCF SmallPrint
|  4>
|  5> %basis
|  6>         Basis "6-31G"
|  7> end
|  8>
|  9> %geom
| 10> Constraints
| 11> { D 4  0  15  12  75.0   C } # D for Dihedral angle
| 12> { D 0  15  12  16  120.0   C } # D for Dihedral angle
| 13> { D 0  4  3  2   C } # D for Dihedral angle
| 14> { D 4  3  2  1   C } # D for Dihedral angle
| 15> { D 3  2  1  0   C } # D for Dihedral angle
| 16> { D 2  1  0  4   C } # D for Dihedral angle
| 17> { D 1  0  4  3   C } # D for Dihedral angle
| 18> { D 16  20  19  18   C } # D for Dihedral angle
| 19> { D 20  19  18  17   C } # D for Dihedral angle
| 20> { D 19  18  17  16   C } # D for Dihedral angle
| 21> { D 18  17  16  20   C } # D for Dihedral angle
| 22> { D 17  16  20  19   C } # D for Dihedral angle
| 23> { D 15  12  16  20   C } # D for Dihedral angle
| 24> end
| 25> end
| 26>
| 27>
| 28> #%pal
| 29> #nprocs 8
| 30> #end
| 31>
| 32> * xyz 0 1
| 33> C  -21.048   26.222   46.251
| 34> C  -20.361   27.558   45.944
| 35> C  -20.329   28.222   47.341
| 36> C  -20.110   27.022   48.296
| 37> O  -20.473   25.807   47.535
| 38> H  -20.833   25.428   45.533
| 39> H  -19.344   27.382   45.576
| 40> H  -20.898   28.157   45.201
| 41> H  -19.543   28.978   47.434
| 42> H  -21.289   28.710   47.548
| 43> H  -20.733   27.082   49.195
| 44> H  -19.064   26.913   48.597
| 45> C  -23.049   27.675   47.122
| 46> H  -23.631   27.387   48.006
| 47> H  -22.182   28.259   47.457
| 48> O  -22.586   26.394   46.375
| 49> C  -23.929   28.601   46.237
| 50> C  -25.250   27.920   45.862
| 51> C  -26.079   28.109   47.155
| 52> C  -25.619   29.497   47.668
| 53> O  -24.338   29.791   46.990
| 54> H  -23.341   28.947   45.386
| 55> H  -25.719   28.446   45.022
| 56> O  -25.078   26.427   45.469
| 57> H  -27.158   28.067   46.977
| 58> H  -25.829   27.326   47.880
| 59> H  -25.463   29.512   48.751
| 60> H  -26.317   30.294   47.399
| 61> H  -24.610   25.881   46.296
| 62> *
| 63>
| 64>                          ****END OF INPUT****
 Total Charge           Charge          ....    0
 Multiplicity           Mult            ....    1
 Number of Electrons    NEL             ....  102
FINAL SINGLE POINT ENERGY      -652.778232485649
FINAL SINGLE POINT ENERGY      -652.826871006626
FINAL SINGLE POINT ENERGY      -652.848581376485
FINAL SINGLE POINT ENERGY      -652.854749705963
FINAL SINGLE POINT ENERGY      -652.856740115177
FINAL SINGLE POINT ENERGY      -652.857956364925
FINAL SINGLE POINT ENERGY      -652.858555660418
FINAL SINGLE POINT ENERGY      -652.858726504093
FINAL SINGLE POINT ENERGY      -652.858758433903
FINAL SINGLE POINT ENERGY      -652.858760196418
                    ***********************HURRAY********************

CARTESIAN COORDINATES (ANGSTROEM)
---------------------------------
  C    -21.231192   26.366658   46.459067
  C    -20.309513   27.480064   45.941160
  C    -19.858482   28.172671   47.262774
  C    -19.766855   26.980698   48.248082
  O    -20.553820   25.880404   47.633981
  H    -21.288165   25.515532   45.778952
  H    -19.456204   27.013136   45.439366
  H    -20.803429   28.156319   45.238508
  H    -18.892630   28.675739   47.151610
  H    -20.577784   28.926804   47.588780
  H    -20.177271   27.201667   49.237625
  H    -18.743955   26.610886   48.359472
  C    -23.182905   27.822299   47.355065
  H    -23.775521   27.437924   48.191561
  H    -22.405463   28.469529   47.759819
  O    -22.637447   26.655362   46.649825
  C    -24.053246   28.622519   46.378655
  C    -25.290740   27.873389   45.855502
  C    -26.277247   28.021091   47.050401
  C    -25.952022   29.423504   47.603931
  O    -24.602715   29.786591   47.070947
  H    -23.429300   29.003848   45.564238
  H    -25.687037   28.415427   44.989561
  O    -25.078414   26.511055   45.440725
  H    -27.317668   27.921821   46.730193
  H    -26.072768   27.230197   47.779725
  H    -25.917114   29.463523   48.697219
  H    -26.643427   30.190766   47.244001
  H    -24.220666   26.184577   45.802254

 Multiplicity           Mult            ....    1
 Number of Electrons    NEL             ....  102
 Basis Dimension        Dim             ....  149

ORBITAL ENERGIES
----------------

  NO   OCC          E(Eh)            E(eV)
   0   2.0000     -19.163972      -521.4782
   1   2.0000     -19.151438      -521.1371
   2   2.0000     -19.142217      -520.8862
   3   2.0000     -19.113309      -520.0996
   4   2.0000     -10.292702      -280.0787
   5   2.0000     -10.240454      -278.6569
   6   2.0000     -10.237703      -278.5821
   7   2.0000     -10.235878      -278.5324
   8   2.0000     -10.230950      -278.3983
   9   2.0000     -10.228246      -278.3247
  10   2.0000     -10.202040      -277.6116
  11   2.0000     -10.201822      -277.6057
  12   2.0000     -10.179485      -276.9979
  13   2.0000      -1.063242       -28.9323
  14   2.0000      -1.026980       -27.9456
  15   2.0000      -1.009366       -27.4662
  16   2.0000      -0.992456       -27.0061
  17   2.0000      -0.798044       -21.7159
  18   2.0000      -0.780342       -21.2342
  19   2.0000      -0.769471       -20.9384
  20   2.0000      -0.739550       -20.1242
  21   2.0000      -0.685708       -18.6591
  22   2.0000      -0.614596       -16.7240
  23   2.0000      -0.603279       -16.4161
  24   2.0000      -0.597233       -16.2515
  25   2.0000      -0.577725       -15.7207
  26   2.0000      -0.537857       -14.6358
  27   2.0000      -0.511787       -13.9264
  28   2.0000      -0.509472       -13.8634
  29   2.0000      -0.489201       -13.3118
  30   2.0000      -0.475909       -12.9501
  31   2.0000      -0.461983       -12.5712
  32   2.0000      -0.444562       -12.0972
  33   2.0000      -0.437390       -11.9020
  34   2.0000      -0.426822       -11.6144
  35   2.0000      -0.424650       -11.5553
  36   2.0000      -0.412383       -11.2215
  37   2.0000      -0.393877       -10.7179
  38   2.0000      -0.389799       -10.6070
  39   2.0000      -0.372714       -10.1421
  40   2.0000      -0.368395       -10.0245
  41   2.0000      -0.357863        -9.7380
  42   2.0000      -0.349531        -9.5112
  43   2.0000      -0.340659        -9.2698
  44   2.0000      -0.325028        -8.8445
  45   2.0000      -0.318390        -8.6638
  46   2.0000      -0.288687        -7.8556
  47   2.0000      -0.279951        -7.6178
  48   2.0000      -0.269918        -7.3448
  49   2.0000      -0.248791        -6.7700
  50   2.0000      -0.240872        -6.5545
  51   0.0000       0.053119         1.4455
  52   0.0000       0.067956         1.8492
  53   0.0000       0.089173         2.4265
  54   0.0000       0.093488         2.5439
  55   0.0000       0.103139         2.8066

MULLIKEN ATOMIC CHARGES
-----------------------
   0 C :    0.315246
   1 C :   -0.283375
   2 C :   -0.322294
   3 C :   -0.012846
   4 O :   -0.498047
   5 H :    0.171545
   6 H :    0.163424
   7 H :    0.154151
   8 H :    0.150675
   9 H :    0.159542
  10 H :    0.150198
  11 H :    0.153536
  12 C :   -0.029143
  13 H :    0.160079
  14 H :    0.152183
  15 O :   -0.563244
  16 C :    0.057425
  17 C :    0.121808
  18 C :   -0.300908
  19 C :   -0.028398
  20 O :   -0.522752
  21 H :    0.151010
  22 H :    0.145864
  23 O :   -0.640039
  24 H :    0.151709
  25 H :    0.149188
  26 H :    0.144834
  27 H :    0.151710
  28 H :    0.396919
Sum of atomic charges:   -0.0000000

LOEWDIN ATOMIC CHARGES
----------------------
   0 C :    0.179325
   1 C :   -0.227726
   2 C :   -0.224101
   3 C :   -0.032836
   4 O :   -0.314920
   5 H :    0.116133
   6 H :    0.126246
   7 H :    0.120212
   8 H :    0.118620
   9 H :    0.111837
  10 H :    0.106030
  11 H :    0.108124
  12 C :   -0.047063
  13 H :    0.111664
  14 H :    0.110332
  15 O :   -0.332302
  16 C :    0.012683
  17 C :    0.042496
  18 C :   -0.237138
  19 C :   -0.034232
  20 O :   -0.327176
  21 H :    0.109166
  22 H :    0.105079
  23 O :   -0.433651
  24 H :    0.121750
  25 H :    0.112872
  26 H :    0.102754
  27 H :    0.106941
  28 H :    0.288881

  Mayer bond orders larger than 0.100000
B(  0-C ,  1-C ) :   0.9236 B(  0-C ,  4-O ) :   0.9237 B(  0-C ,  5-H ) :   0.9347
B(  0-C , 15-O ) :   0.8506 B(  1-C ,  2-C ) :   0.9535 B(  1-C ,  6-H ) :   0.9335
B(  1-C ,  7-H ) :   0.9343 B(  2-C ,  3-C ) :   0.9458 B(  2-C ,  8-H ) :   0.9435
B(  2-C ,  9-H ) :   0.9344 B(  3-C ,  4-O ) :   0.8406 B(  3-C , 10-H ) :   0.9340
B(  3-C , 11-H ) :   0.9384 B( 12-C , 13-H ) :   0.9314 B( 12-C , 14-H ) :   0.9121
B( 12-C , 15-O ) :   0.7787 B( 12-C , 16-C ) :   0.8949 B( 16-C , 17-C ) :   0.9136
B( 16-C , 20-O ) :   0.8545 B( 16-C , 21-H ) :   0.9300 B( 17-C , 18-C ) :   0.8999
B( 17-C , 22-H ) :   0.9315 B( 17-C , 23-O ) :   0.9374 B( 18-C , 19-C ) :   0.9413
B( 18-C , 24-H ) :   0.9443 B( 18-C , 25-H ) :   0.9424 B( 19-C , 20-O ) :   0.8301
B( 19-C , 26-H ) :   0.9337 B( 19-C , 27-H ) :   0.9378 B( 23-O , 28-H ) :   0.7227

FINAL SINGLE POINT ENERGY      -652.858753540720

DIPOLE MOMENT
-------------
                                X             Y             Z
Electronic contribution:     -1.33507      -2.99052      -1.53365
Nuclear contribution   :      2.29034       3.84230       1.95468
                        -----------------------------------------
Total Dipole Moment    :      0.95528       0.85178       0.42103
                        -----------------------------------------
Magnitude (a.u.)       :      1.34735
Magnitude (Debye)      :      3.42470

Rotational constants in cm-1:     0.053284     0.014142     0.012757
Rotational constants in MHz :  1597.414645   423.959042   382.445718

                             ****ORCA TERMINATED NORMALLY****
TOTAL RUN TIME: 0 days 0 hours 34 minutes 7 seconds 746 msec
