                         Program Version 4.2.0 -  RELEASE  -
|  1> # Test redundant internal optimization
|  2> #
|  3> ! RKS B3LYP  Opt TightSCF SmallPrint
|  4>
|  5> %basis
|  6>         Basis "6-31G"
|  7> end
|  8>
|  9> %geom
| 10> Constraints
| 11> { D 4  0  15  12  0.0   C } # D for Dihedral angle
| 12> { D 0  15  12  16  240.0   C } # D for Dihedral angle
| 13> { D 0  4  3  2   C } # D for Dihedral angle
| 14> { D 4  3  2  1   C } # D for Dihedral angle
| 15> { D 3  2  1  0   C } # D for Dihedral angle
| 16> { D 2  1  0  4   C } # D for Dihedral angle
| 17> { D 1  0  4  3   C } # D for Dihedral angle
| 18> { D 16  20  19  18   C } # D for Dihedral angle
| 19> { D 20  19  18  17   C } # D for Dihedral angle
| 20> { D 19  18  17  16   C } # D for Dihedral angle
| 21> { D 18  17  16  20   C } # D for Dihedral angle
| 22> { D 17  16  20  19   C } # D for Dihedral angle
| 23> { D 15  12  16  20   C } # D for Dihedral angle
| 24> end
| 25> end
| 26>
| 27>
| 28> #%pal
| 29> #nprocs 8
| 30> #end
| 31>
| 32> * xyz 0 1
| 33> C  -21.048   26.222   46.251
| 34> C  -20.361   27.558   45.944
| 35> C  -20.329   28.222   47.341
| 36> C  -20.110   27.022   48.296
| 37> O  -20.473   25.807   47.535
| 38> H  -20.833   25.428   45.533
| 39> H  -19.344   27.382   45.576
| 40> H  -20.898   28.157   45.201
| 41> H  -19.543   28.978   47.434
| 42> H  -21.289   28.710   47.548
| 43> H  -20.733   27.082   49.195
| 44> H  -19.064   26.913   48.597
| 45> C  -23.172   26.101   47.783
| 46> H  -22.357   25.822   48.464
| 47> H  -23.666   26.994   48.187
| 48> O  -22.586   26.394   46.375
| 49> C  -24.214   24.948   47.772
| 50> C  -25.342   25.227   46.772
| 51> C  -24.673   24.842   45.430
| 52> C  -23.765   23.649   45.820
| 53> O  -23.601   23.707   47.289
| 54> H  -24.552   24.762   48.793
| 55> O  -26.554   24.302   47.065
| 56> H  -25.688   26.266   46.791
| 57> H  -25.399   24.578   44.654
| 58> H  -24.072   25.679   45.056
| 59> H  -22.779   23.699   45.346
| 60> H  -24.222   22.683   45.585
| 61> H  -26.232   23.255   47.050
| 62> *
| 63>
| 64>                          ****END OF INPUT****
 Total Charge           Charge          ....    0
 Multiplicity           Mult            ....    1
 Number of Electrons    NEL             ....  102
FINAL SINGLE POINT ENERGY      -652.833378796112
FINAL SINGLE POINT ENERGY      -652.855717990978
FINAL SINGLE POINT ENERGY      -652.860084037653
FINAL SINGLE POINT ENERGY      -652.861375285380
FINAL SINGLE POINT ENERGY      -652.861492956823
FINAL SINGLE POINT ENERGY      -652.861511343889
                    ***********************HURRAY********************

CARTESIAN COORDINATES (ANGSTROEM)
---------------------------------
  C    -21.064783   26.239378   46.362312
  C    -20.434487   27.587153   46.011580
  C    -20.293355   28.243776   47.405263
  C    -19.970319   27.048101   48.326434
  O    -20.386314   25.832749   47.565714
  H    -20.895207   25.446680   45.631084
  H    -19.452483   27.418122   45.554581
  H    -21.055047   28.163836   45.322543
  H    -19.512099   29.009511   47.432535
  H    -21.238699   28.715554   47.693210
  H    -20.512210   27.070187   49.275597
  H    -18.900941   26.935292   48.523468
  C    -23.170238   26.114774   47.766116
  H    -22.418813   25.815426   48.500697
  H    -23.665868   27.036492   48.099109
  O    -22.517674   26.379940   46.491439
  C    -24.198388   24.986161   47.660422
  C    -25.361147   25.195934   46.680306
  C    -24.728525   24.743647   45.337629
  C    -23.794664   23.585185   45.766421
  O    -23.587409   23.729729   47.226812
  H    -24.593038   24.812612   48.669900
  O    -26.504434   24.375014   47.056440
  H    -25.738741   26.218894   46.657613
  H    -25.501483   24.430698   44.630526
  H    -24.149937   25.566699   44.914588
  H    -22.823280   23.622859   45.265695
  H    -24.238192   22.597502   45.601209
  H    -26.191224   23.467095   47.253756

 Multiplicity           Mult            ....    1
 Number of Electrons    NEL             ....  102
 Basis Dimension        Dim             ....  149

ORBITAL ENERGIES
----------------

  NO   OCC          E(Eh)            E(eV)
   0   2.0000     -19.154790      -521.2283
   1   2.0000     -19.141699      -520.8721
   2   2.0000     -19.134081      -520.6648
   3   2.0000     -19.130126      -520.5572
   4   2.0000     -10.283175      -279.8194
   5   2.0000     -10.235833      -278.5312
   6   2.0000     -10.231414      -278.4109
   7   2.0000     -10.227510      -278.3047
   8   2.0000     -10.227118      -278.2940
   9   2.0000     -10.220187      -278.1054
  10   2.0000     -10.194631      -277.4100
  11   2.0000     -10.189207      -277.2624
  12   2.0000     -10.172196      -276.7995
  13   2.0000      -1.058186       -28.7947
  14   2.0000      -1.028490       -27.9866
  15   2.0000      -1.000018       -27.2119
  16   2.0000      -0.991191       -26.9717
  17   2.0000      -0.794711       -21.6252
  18   2.0000      -0.774041       -21.0627
  19   2.0000      -0.761521       -20.7220
  20   2.0000      -0.735271       -20.0077
  21   2.0000      -0.670876       -18.2555
  22   2.0000      -0.607771       -16.5383
  23   2.0000      -0.600498       -16.3404
  24   2.0000      -0.592534       -16.1237
  25   2.0000      -0.565943       -15.4001
  26   2.0000      -0.525619       -14.3028
  27   2.0000      -0.508934       -13.8488
  28   2.0000      -0.495186       -13.4747
  29   2.0000      -0.485813       -13.2197
  30   2.0000      -0.473027       -12.8717
  31   2.0000      -0.461193       -12.5497
  32   2.0000      -0.447317       -12.1721
  33   2.0000      -0.437182       -11.8963
  34   2.0000      -0.420274       -11.4362
  35   2.0000      -0.409503       -11.1432
  36   2.0000      -0.396288       -10.7835
  37   2.0000      -0.383342       -10.4313
  38   2.0000      -0.376233       -10.2378
  39   2.0000      -0.368430       -10.0255
  40   2.0000      -0.363897        -9.9021
  41   2.0000      -0.357833        -9.7371
  42   2.0000      -0.348776        -9.4907
  43   2.0000      -0.334194        -9.0939
  44   2.0000      -0.322757        -8.7827
  45   2.0000      -0.307286        -8.3617
  46   2.0000      -0.294323        -8.0089
  47   2.0000      -0.270667        -7.3652
  48   2.0000      -0.264620        -7.2007
  49   2.0000      -0.255915        -6.9638
  50   2.0000      -0.234171        -6.3721
  51   0.0000       0.069452         1.8899
  52   0.0000       0.079038         2.1507
  53   0.0000       0.097014         2.6399
  54   0.0000       0.102000         2.7756
  55   0.0000       0.107060         2.9132

MULLIKEN ATOMIC CHARGES
-----------------------
   0 C :    0.306466
   1 C :   -0.257101
   2 C :   -0.308376
   3 C :   -0.019844
   4 O :   -0.503292
   5 H :    0.158009
   6 H :    0.145665
   7 H :    0.158798
   8 H :    0.149415
   9 H :    0.155570
  10 H :    0.146395
  11 H :    0.154193
  12 C :   -0.018092
  13 H :    0.175791
  14 H :    0.126957
  15 O :   -0.545100
  16 C :    0.074483
  17 C :    0.080760
  18 C :   -0.288158
  19 C :   -0.019007
  20 O :   -0.524307
  21 H :    0.149370
  22 O :   -0.606746
  23 H :    0.148528
  24 H :    0.147773
  25 H :    0.171627
  26 H :    0.144100
  27 H :    0.134339
  28 H :    0.361785
Sum of atomic charges:    0.0000000

LOEWDIN ATOMIC CHARGES
----------------------
   0 C :    0.185481
   1 C :   -0.221125
   2 C :   -0.219508
   3 C :   -0.032639
   4 O :   -0.310262
   5 H :    0.104837
   6 H :    0.114358
   7 H :    0.124791
   8 H :    0.118332
   9 H :    0.114831
  10 H :    0.103376
  11 H :    0.109016
  12 C :   -0.044099
  13 H :    0.121382
  14 H :    0.097179
  15 O :   -0.345737
  16 C :    0.010493
  17 C :    0.038570
  18 C :   -0.242633
  19 C :   -0.032503
  20 O :   -0.328560
  21 H :    0.112983
  22 O :   -0.419578
  23 H :    0.114517
  24 H :    0.118009
  25 H :    0.128885
  26 H :    0.102858
  27 H :    0.095707
  28 H :    0.281038

  Mayer bond orders larger than 0.100000
B(  0-C ,  1-C ) :   0.9304 B(  0-C ,  4-O ) :   0.9198 B(  0-C ,  5-H ) :   0.9273
B(  0-C , 15-O ) :   0.8311 B(  1-C ,  2-C ) :   0.9535 B(  1-C ,  6-H ) :   0.9349
B(  1-C ,  7-H ) :   0.9361 B(  2-C ,  3-C ) :   0.9521 B(  2-C ,  8-H ) :   0.9447
B(  2-C ,  9-H ) :   0.9456 B(  3-C ,  4-O ) :   0.8285 B(  3-C , 10-H ) :   0.9328
B(  3-C , 11-H ) :   0.9405 B( 12-C , 13-H ) :   0.9022 B( 12-C , 14-H ) :   0.9210
B( 12-C , 15-O ) :   0.8523 B( 12-C , 16-C ) :   0.8938 B( 16-C , 17-C ) :   0.9121
B( 16-C , 20-O ) :   0.8725 B( 16-C , 21-H ) :   0.9199 B( 17-C , 18-C ) :   0.9254
B( 17-C , 22-O ) :   0.8873 B( 17-C , 23-H ) :   0.9362 B( 18-C , 19-C ) :   0.9450
B( 18-C , 24-H ) :   0.9371 B( 18-C , 25-H ) :   0.9193 B( 19-C , 20-O ) :   0.8425
B( 19-C , 26-H ) :   0.9334 B( 19-C , 27-H ) :   0.9380 B( 22-O , 28-H ) :   0.7965

FINAL SINGLE POINT ENERGY      -652.861512100035

DIPOLE MOMENT
-------------
                                X             Y             Z
Electronic contribution:     -2.60902      -4.17815       1.20633
Nuclear contribution   :      3.52853       5.18960      -1.36207
                        -----------------------------------------
Total Dipole Moment    :      0.91951       1.01144      -0.15574
                        -----------------------------------------
Magnitude (a.u.)       :      1.37578
Magnitude (Debye)      :      3.49696

Rotational constants in cm-1:     0.062946     0.013675     0.013541
Rotational constants in MHz :  1887.059968   409.953078   405.941579

                             ****ORCA TERMINATED NORMALLY****
TOTAL RUN TIME: 0 days 0 hours 34 minutes 53 seconds 802 msec
