                         Program Version 4.2.0 -  RELEASE  -
|  1> # Test redundant internal optimization
|  2> #
|  3> ! RKS B3LYP  Opt TightSCF SmallPrint
|  4>
|  5> %basis
|  6>         Basis "6-31G"
|  7> end
|  8>
|  9> %geom
| 10> Constraints
| 11> { D 4  0  15  12  285.0   C } # D for Dihedral angle
| 12> { D 0  15  12  16  165.0   C } # D for Dihedral angle
| 13> { D 0  4  3  2   C } # D for Dihedral angle
| 14> { D 4  3  2  1   C } # D for Dihedral angle
| 15> { D 3  2  1  0   C } # D for Dihedral angle
| 16> { D 2  1  0  4   C } # D for Dihedral angle
| 17> { D 1  0  4  3   C } # D for Dihedral angle
| 18> { D 16  20  19  18   C } # D for Dihedral angle
| 19> { D 20  19  18  17   C } # D for Dihedral angle
| 20> { D 19  18  17  16   C } # D for Dihedral angle
| 21> { D 18  17  16  20   C } # D for Dihedral angle
| 22> { D 17  16  20  19   C } # D for Dihedral angle
| 23> { D 15  12  16  20   C } # D for Dihedral angle
| 24> end
| 25> end
| 26>
| 27>
| 28> #%pal
| 29> #nprocs 8
| 30> #end
| 31>
| 32> * xyz 0 1
| 33> C  -21.048   26.222   46.251
| 34> C  -20.361   27.558   45.944
| 35> C  -20.329   28.222   47.341
| 36> C  -20.110   27.022   48.296
| 37> O  -20.473   25.807   47.535
| 38> H  -20.833   25.428   45.533
| 39> H  -19.344   27.382   45.576
| 40> H  -20.898   28.157   45.201
| 41> H  -19.543   28.978   47.434
| 42> H  -21.289   28.710   47.548
| 43> H  -20.733   27.082   49.195
| 44> H  -19.064   26.913   48.597
| 45> C  -23.396   25.070   46.435
| 46> H  -23.429   24.620   45.435
| 47> H  -22.915   24.356   47.116
| 48> O  -22.586   26.394   46.375
| 49> C  -24.855   25.280   46.925
| 50> C  -25.588   23.943   47.083
| 51> C  -25.040   23.444   48.441
| 52> C  -24.871   24.752   49.254
| 53> O  -24.865   25.858   48.273
| 54> H  -25.354   25.994   46.267
| 55> H  -26.669   24.110   47.140
| 56> O  -25.307   22.953   45.920
| 57> H  -25.710   22.731   48.933
| 58> H  -24.072   22.950   48.298
| 59> H  -23.935   24.773   49.824
| 60> H  -25.706   24.930   49.937
| 61> H  -24.229   22.769   45.844
| 62> *
| 63>
| 64>                          ****END OF INPUT****
 Total Charge           Charge          ....    0
 Multiplicity           Mult            ....    1
 Number of Electrons    NEL             ....  102
FINAL SINGLE POINT ENERGY      -652.830894042246
FINAL SINGLE POINT ENERGY      -652.856431173924
FINAL SINGLE POINT ENERGY      -652.861378187293
FINAL SINGLE POINT ENERGY      -652.862287091794
FINAL SINGLE POINT ENERGY      -652.862448152048
FINAL SINGLE POINT ENERGY      -652.862480675944
FINAL SINGLE POINT ENERGY      -652.862487266974
FINAL SINGLE POINT ENERGY      -652.862489222142
                    ***********************HURRAY********************

CARTESIAN COORDINATES (ANGSTROEM)
---------------------------------
  C    -21.060060   26.161344   46.216988
  C    -20.515664   27.569216   45.973864
  C    -20.535719   28.165579   47.399472
  C    -20.188470   26.954105   48.292322
  O    -20.441087   25.748985   47.460830
  H    -20.795604   25.403355   45.472286
  H    -19.492238   27.500772   45.587465
  H    -21.129711   28.127166   45.264213
  H    -19.825041   28.988723   47.521436
  H    -21.540152   28.532598   47.627192
  H    -20.807378   26.896957   49.190936
  H    -19.131868   26.920968   48.575075
  C    -23.205823   25.020642   46.393669
  H    -23.256949   24.578122   45.387935
  H    -22.675024   24.330802   47.064565
  O    -22.488990   26.283200   46.348118
  C    -24.616326   25.302507   46.903148
  C    -25.483682   24.041213   47.053764
  C    -25.033971   23.509167   48.447227
  C    -24.770592   24.808251   49.238932
  O    -24.621167   25.894879   48.237144
  H    -25.076302   26.046569   46.246277
  H    -26.537366   24.327374   47.076509
  O    -25.388713   23.084953   45.970154
  H    -25.792191   22.872250   48.910962
  H    -24.116204   22.916795   48.333621
  H    -23.862466   24.758038   49.847938
  H    -25.613411   25.079951   49.881965
  H    -24.549834   22.583520   46.026993

 Multiplicity           Mult            ....    1
 Number of Electrons    NEL             ....  102
 Basis Dimension        Dim             ....  149

ORBITAL ENERGIES
----------------

  NO   OCC          E(Eh)            E(eV)
   0   2.0000     -19.149158      -521.0751
   1   2.0000     -19.139817      -520.8209
   2   2.0000     -19.135508      -520.7036
   3   2.0000     -19.134482      -520.6757
   4   2.0000     -10.274576      -279.5854
   5   2.0000     -10.244018      -278.7539
   6   2.0000     -10.228731      -278.3379
   7   2.0000     -10.228382      -278.3284
   8   2.0000     -10.226575      -278.2793
   9   2.0000     -10.219907      -278.0978
  10   2.0000     -10.194433      -277.4046
  11   2.0000     -10.180293      -277.0199
  12   2.0000     -10.178530      -276.9719
  13   2.0000      -1.051689       -28.6179
  14   2.0000      -1.032097       -28.0848
  15   2.0000      -1.013598       -27.5814
  16   2.0000      -0.989686       -26.9307
  17   2.0000      -0.785552       -21.3760
  18   2.0000      -0.779873       -21.2214
  19   2.0000      -0.764077       -20.7916
  20   2.0000      -0.725954       -19.7542
  21   2.0000      -0.676576       -18.4106
  22   2.0000      -0.610112       -16.6020
  23   2.0000      -0.593587       -16.1523
  24   2.0000      -0.585317       -15.9273
  25   2.0000      -0.576744       -15.6940
  26   2.0000      -0.529402       -14.4058
  27   2.0000      -0.509628       -13.8677
  28   2.0000      -0.492544       -13.4028
  29   2.0000      -0.484711       -13.1896
  30   2.0000      -0.470302       -12.7976
  31   2.0000      -0.456188       -12.4135
  32   2.0000      -0.440177       -11.9778
  33   2.0000      -0.434718       -11.8293
  34   2.0000      -0.424974       -11.5641
  35   2.0000      -0.413920       -11.2633
  36   2.0000      -0.397846       -10.8259
  37   2.0000      -0.397430       -10.8146
  38   2.0000      -0.376427       -10.2431
  39   2.0000      -0.372567       -10.1381
  40   2.0000      -0.352365        -9.5883
  41   2.0000      -0.349047        -9.4980
  42   2.0000      -0.341387        -9.2896
  43   2.0000      -0.329363        -8.9624
  44   2.0000      -0.322923        -8.7872
  45   2.0000      -0.313734        -8.5371
  46   2.0000      -0.296054        -8.0560
  47   2.0000      -0.270873        -7.3708
  48   2.0000      -0.262678        -7.1478
  49   2.0000      -0.247150        -6.7253
  50   2.0000      -0.240441        -6.5427
  51   0.0000       0.051733         1.4077
  52   0.0000       0.078783         2.1438
  53   0.0000       0.091962         2.5024
  54   0.0000       0.099978         2.7205
  55   0.0000       0.104112         2.8330

MULLIKEN ATOMIC CHARGES
-----------------------
   0 C :    0.284681
   1 C :   -0.259806
   2 C :   -0.298752
   3 C :   -0.001195
   4 O :   -0.515377
   5 H :    0.135703
   6 H :    0.141610
   7 H :    0.156616
   8 H :    0.137329
   9 H :    0.173697
  10 H :    0.150943
  11 H :    0.138547
  12 C :   -0.014517
  13 H :    0.130276
  14 H :    0.141054
  15 O :   -0.510432
  16 C :    0.088887
  17 C :    0.083831
  18 C :   -0.331097
  19 C :   -0.010884
  20 O :   -0.504014
  21 H :    0.165245
  22 H :    0.168855
  23 O :   -0.600517
  24 H :    0.158817
  25 H :    0.136836
  26 H :    0.148276
  27 H :    0.149092
  28 H :    0.356297
Sum of atomic charges:   -0.0000000

LOEWDIN ATOMIC CHARGES
----------------------
   0 C :    0.171387
   1 C :   -0.214716
   2 C :   -0.215630
   3 C :   -0.026586
   4 O :   -0.333614
   5 H :    0.093934
   6 H :    0.112161
   7 H :    0.124092
   8 H :    0.111762
   9 H :    0.124908
  10 H :    0.107473
  11 H :    0.100506
  12 C :   -0.055037
  13 H :    0.096529
  14 H :    0.099053
  15 O :   -0.314858
  16 C :    0.022005
  17 C :    0.035445
  18 C :   -0.243256
  19 C :   -0.030416
  20 O :   -0.313259
  21 H :    0.119842
  22 H :    0.119700
  23 O :   -0.407922
  24 H :    0.122620
  25 H :    0.105513
  26 H :    0.104796
  27 H :    0.105485
  28 H :    0.278080

  Mayer bond orders larger than 0.100000
B(  0-C ,  1-C ) :   0.9503 B(  0-C ,  4-O ) :   0.9045 B(  0-C ,  5-H ) :   0.9190
B(  0-C , 15-O ) :   0.8685 B(  1-C ,  2-C ) :   0.9570 B(  1-C ,  6-H ) :   0.9410
B(  1-C ,  7-H ) :   0.9363 B(  2-C ,  3-C ) :   0.9566 B(  2-C ,  8-H ) :   0.9453
B(  2-C ,  9-H ) :   0.9414 B(  3-C ,  4-O ) :   0.8344 B(  3-C , 10-H ) :   0.9353
B(  3-C , 11-H ) :   0.9405 B( 12-C , 13-H ) :   0.9056 B( 12-C , 14-H ) :   0.9116
B( 12-C , 15-O ) :   0.8376 B( 12-C , 16-C ) :   0.9087 B( 16-C , 17-C ) :   0.8749
B( 16-C , 20-O ) :   0.8738 B( 16-C , 21-H ) :   0.9289 B( 17-C , 18-C ) :   0.9240
B( 17-C , 22-H ) :   0.9331 B( 17-C , 23-O ) :   0.8970 B( 18-C , 19-C ) :   0.9392
B( 18-C , 24-H ) :   0.9414 B( 18-C , 25-H ) :   0.9395 B( 19-C , 20-O ) :   0.8504
B( 19-C , 26-H ) :   0.9309 B( 19-C , 27-H ) :   0.9373 B( 23-O , 28-H ) :   0.7983

FINAL SINGLE POINT ENERGY      -652.862489598783

DIPOLE MOMENT
-------------
                                X             Y             Z
Electronic contribution:     -2.42354      -1.24160      -2.03213
Nuclear contribution   :      2.91830       0.89513       2.33000
                        -----------------------------------------
Total Dipole Moment    :      0.49476      -0.34646       0.29787
                        -----------------------------------------
Magnitude (a.u.)       :      0.67346
Magnitude (Debye)      :      1.71181

Rotational constants in cm-1:     0.053195     0.013710     0.012511
Rotational constants in MHz :  1594.760774   411.024144   375.063538

                             ****ORCA TERMINATED NORMALLY****
TOTAL RUN TIME: 0 days 0 hours 26 minutes 55 seconds 689 msec
