                         Program Version 4.2.0 -  RELEASE  -
|  1> # Test redundant internal optimization
|  2> #
|  3> ! RKS B3LYP  Opt TightSCF SmallPrint
|  4>
|  5> %basis
|  6>         Basis "6-31G"
|  7> end
|  8>
|  9> %geom
| 10> Constraints
| 11> { D 4  0  15  12  255.0   C } # D for Dihedral angle
| 12> { D 0  15  12  16  120.0   C } # D for Dihedral angle
| 13> { D 0  4  3  2   C } # D for Dihedral angle
| 14> { D 4  3  2  1   C } # D for Dihedral angle
| 15> { D 3  2  1  0   C } # D for Dihedral angle
| 16> { D 2  1  0  4   C } # D for Dihedral angle
| 17> { D 1  0  4  3   C } # D for Dihedral angle
| 18> { D 16  20  19  18   C } # D for Dihedral angle
| 19> { D 20  19  18  17   C } # D for Dihedral angle
| 20> { D 19  18  17  16   C } # D for Dihedral angle
| 21> { D 18  17  16  20   C } # D for Dihedral angle
| 22> { D 17  16  20  19   C } # D for Dihedral angle
| 23> { D 15  12  16  20   C } # D for Dihedral angle
| 24> end
| 25> end
| 26>
| 27>
| 28> #%pal
| 29> #nprocs 8
| 30> #end
| 31>
| 32> * xyz 0 1
| 33> C  -21.048   26.222   46.251
| 34> C  -20.361   27.558   45.944
| 35> C  -20.329   28.222   47.341
| 36> C  -20.110   27.022   48.296
| 37> O  -20.473   25.807   47.535
| 38> H  -20.833   25.428   45.533
| 39> H  -19.344   27.382   45.576
| 40> H  -20.898   28.157   45.201
| 41> H  -19.543   28.978   47.434
| 42> H  -21.289   28.710   47.548
| 43> H  -20.733   27.082   49.195
| 44> H  -19.064   26.913   48.597
| 45> C  -23.431   25.260   45.734
| 46> H  -24.069   25.683   44.947
| 47> H  -22.778   24.506   45.276
| 48> O  -22.586   26.394   46.375
| 49> C  -24.342   24.534   46.762
| 50> C  -25.072   23.349   46.121
| 51> C  -23.965   22.269   46.106
| 52> C  -23.182   22.550   47.413
| 53> O  -23.533   23.927   47.824
| 54> H  -24.998   25.266   47.238
| 55> O  -26.260   22.906   47.018
| 56> H  -25.460   23.574   45.121
| 57> H  -24.366   21.250   46.072
| 58> H  -23.319   22.404   45.231
| 59> H  -22.097   22.483   47.274
| 60> H  -23.477   21.885   48.229
| 61> H  -25.895   22.676   48.025
| 62> *
| 63>
| 64>                          ****END OF INPUT****
 Total Charge           Charge          ....    0
 Multiplicity           Mult            ....    1
 Number of Electrons    NEL             ....  102
FINAL SINGLE POINT ENERGY      -652.832485932493
FINAL SINGLE POINT ENERGY      -652.855444345253
FINAL SINGLE POINT ENERGY      -652.859422919557
FINAL SINGLE POINT ENERGY      -652.860144752955
FINAL SINGLE POINT ENERGY      -652.860233674897
FINAL SINGLE POINT ENERGY      -652.860243417674
FINAL SINGLE POINT ENERGY      -652.860245508796
                    ***********************HURRAY********************

CARTESIAN COORDINATES (ANGSTROEM)
---------------------------------
  C    -21.031659   26.170400   46.191032
  C    -20.478710   27.577332   45.965412
  C    -20.513181   28.168588   47.395803
  C    -20.181240   26.945638   48.280079
  O    -20.431239   25.754130   47.432869
  H    -20.757410   25.422807   45.439905
  H    -19.447621   27.508871   45.598236
  H    -21.075362   28.144409   45.248064
  H    -19.801383   28.988370   47.530960
  H    -21.518662   28.539986   47.614444
  H    -20.809086   26.877202   49.171373
  H    -19.127526   26.906908   48.573355
  C    -23.285606   25.243564   45.677629
  H    -23.934936   25.719590   44.930370
  H    -22.643911   24.512956   45.163042
  O    -22.471942   26.274931   46.287839
  C    -24.153885   24.555109   46.731981
  C    -25.014557   23.412342   46.176359
  C    -24.006410   22.233420   46.163113
  C    -23.143933   22.499765   47.422367
  O    -23.356096   23.922469   47.782233
  H    -24.767604   25.313530   47.227454
  O    -26.144379   23.142707   47.050640
  H    -25.450857   23.618029   45.197341
  H    -24.533772   21.277025   46.198581
  H    -23.400691   22.258597   45.250319
  H    -22.076011   22.334612   47.252871
  H    -23.458504   21.898125   48.281126
  H    -25.838828   23.175589   47.982203

 Multiplicity           Mult            ....    1
 Number of Electrons    NEL             ....  102
 Basis Dimension        Dim             ....  149

ORBITAL ENERGIES
----------------

  NO   OCC          E(Eh)            E(eV)
   0   2.0000     -19.139082      -520.8009
   1   2.0000     -19.136898      -520.7415
   2   2.0000     -19.136857      -520.7404
   3   2.0000     -19.130918      -520.5788
   4   2.0000     -10.276261      -279.6313
   5   2.0000     -10.241609      -278.6884
   6   2.0000     -10.234458      -278.4938
   7   2.0000     -10.230541      -278.3872
   8   2.0000     -10.226748      -278.2840
   9   2.0000     -10.217419      -278.0301
  10   2.0000     -10.188580      -277.2454
  11   2.0000     -10.180324      -277.0207
  12   2.0000     -10.179676      -277.0031
  13   2.0000      -1.048259       -28.5246
  14   2.0000      -1.033289       -28.1172
  15   2.0000      -1.003833       -27.3157
  16   2.0000      -0.990088       -26.9417
  17   2.0000      -0.786744       -21.4084
  18   2.0000      -0.778387       -21.1810
  19   2.0000      -0.764323       -20.7983
  20   2.0000      -0.726863       -19.7790
  21   2.0000      -0.672471       -18.2989
  22   2.0000      -0.602100       -16.3840
  23   2.0000      -0.592520       -16.1233
  24   2.0000      -0.590502       -16.0684
  25   2.0000      -0.584036       -15.8924
  26   2.0000      -0.524147       -14.2628
  27   2.0000      -0.510047       -13.8791
  28   2.0000      -0.491272       -13.3682
  29   2.0000      -0.483413       -13.1543
  30   2.0000      -0.473507       -12.8848
  31   2.0000      -0.455973       -12.4077
  32   2.0000      -0.451178       -12.2772
  33   2.0000      -0.434645       -11.8273
  34   2.0000      -0.425005       -11.5650
  35   2.0000      -0.406636       -11.0651
  36   2.0000      -0.395326       -10.7574
  37   2.0000      -0.391540       -10.6544
  38   2.0000      -0.372470       -10.1354
  39   2.0000      -0.369651       -10.0587
  40   2.0000      -0.351972        -9.5777
  41   2.0000      -0.350797        -9.5457
  42   2.0000      -0.344636        -9.3780
  43   2.0000      -0.331707        -9.0262
  44   2.0000      -0.314003        -8.5444
  45   2.0000      -0.302945        -8.2436
  46   2.0000      -0.301231        -8.1969
  47   2.0000      -0.269835        -7.3426
  48   2.0000      -0.264419        -7.1952
  49   2.0000      -0.247709        -6.7405
  50   2.0000      -0.234254        -6.3744
  51   0.0000       0.067041         1.8243
  52   0.0000       0.083840         2.2814
  53   0.0000       0.088493         2.4080
  54   0.0000       0.102164         2.7800
  55   0.0000       0.110466         3.0059

MULLIKEN ATOMIC CHARGES
-----------------------
   0 C :    0.289664
   1 C :   -0.255380
   2 C :   -0.299364
   3 C :    0.000578
   4 O :   -0.496533
   5 H :    0.134260
   6 H :    0.140439
   7 H :    0.147535
   8 H :    0.137962
   9 H :    0.163198
  10 H :    0.155124
  11 H :    0.137124
  12 C :   -0.000141
  13 H :    0.136611
  14 H :    0.120527
  15 O :   -0.513402
  16 C :    0.074485
  17 C :    0.078479
  18 C :   -0.291388
  19 C :   -0.034850
  20 O :   -0.503891
  21 H :    0.166713
  22 O :   -0.603651
  23 H :    0.146974
  24 H :    0.161643
  25 H :    0.138333
  26 H :    0.157163
  27 H :    0.145941
  28 H :    0.365846
Sum of atomic charges:   -0.0000000

LOEWDIN ATOMIC CHARGES
----------------------
   0 C :    0.177148
   1 C :   -0.219541
   2 C :   -0.216284
   3 C :   -0.026087
   4 O :   -0.315275
   5 H :    0.094188
   6 H :    0.111178
   7 H :    0.118940
   8 H :    0.112012
   9 H :    0.119630
  10 H :    0.109751
  11 H :    0.099933
  12 C :   -0.036718
  13 H :    0.102595
  14 H :    0.092684
  15 O :   -0.322993
  16 C :    0.011845
  17 C :    0.034334
  18 C :   -0.240428
  19 C :   -0.039315
  20 O :   -0.316735
  21 H :    0.119417
  22 O :   -0.414960
  23 H :    0.113016
  24 H :    0.126300
  25 H :    0.109853
  26 H :    0.109354
  27 H :    0.102362
  28 H :    0.283797

  Mayer bond orders larger than 0.100000
B(  0-C ,  1-C ) :   0.9448 B(  0-C ,  4-O ) :   0.9325 B(  0-C ,  5-H ) :   0.9188
B(  0-C , 15-O ) :   0.8488 B(  1-C ,  2-C ) :   0.9593 B(  1-C ,  6-H ) :   0.9389
B(  1-C ,  7-H ) :   0.9382 B(  2-C ,  3-C ) :   0.9540 B(  2-C ,  8-H ) :   0.9455
B(  2-C ,  9-H ) :   0.9438 B(  3-C ,  4-O ) :   0.8394 B(  3-C , 10-H ) :   0.9340
B(  3-C , 11-H ) :   0.9401 B( 12-C , 13-H ) :   0.9228 B( 12-C , 14-H ) :   0.9191
B( 12-C , 15-O ) :   0.8566 B( 12-C , 16-C ) :   0.8902 B( 16-C , 17-C ) :   0.8959
B( 16-C , 20-O ) :   0.8737 B( 16-C , 21-H ) :   0.9253 B( 17-C , 18-C ) :   0.9092
B( 17-C , 22-O ) :   0.8911 B( 17-C , 23-H ) :   0.9338 B( 18-C , 19-C ) :   0.9397
B( 18-C , 24-H ) :   0.9378 B( 18-C , 25-H ) :   0.9352 B( 19-C , 20-O ) :   0.8504
B( 19-C , 26-H ) :   0.9321 B( 19-C , 27-H ) :   0.9377 B( 22-O , 28-H ) :   0.7935

FINAL SINGLE POINT ENERGY      -652.860245693910

DIPOLE MOMENT
-------------
                                X             Y             Z
Electronic contribution:     -2.94116      -1.45557       1.66933
Nuclear contribution   :      3.54339       1.55071      -2.39879
                        -----------------------------------------
Total Dipole Moment    :      0.60223       0.09514      -0.72946
                        -----------------------------------------
Magnitude (a.u.)       :      0.95071
Magnitude (Debye)      :      2.41651

Rotational constants in cm-1:     0.063661     0.012724     0.012067
Rotational constants in MHz :  1908.504699   381.465339   361.769783

                             ****ORCA TERMINATED NORMALLY****
TOTAL RUN TIME: 0 days 1 hours 24 minutes 18 seconds 323 msec
