                         Program Version 4.2.0 -  RELEASE  -
|  1> # Test redundant internal optimization
|  2> #
|  3> ! RKS B3LYP  Opt TightSCF SmallPrint
|  4>
|  5> %basis
|  6>         Basis "6-31G"
|  7> end
|  8>
|  9> %geom
| 10> Constraints
| 11> { D 4  0  15  12  330.0   C } # D for Dihedral angle
| 12> { D 0  15  12  16  240.0   C } # D for Dihedral angle
| 13> { D 0  4  3  2   C } # D for Dihedral angle
| 14> { D 4  3  2  1   C } # D for Dihedral angle
| 15> { D 3  2  1  0   C } # D for Dihedral angle
| 16> { D 2  1  0  4   C } # D for Dihedral angle
| 17> { D 1  0  4  3   C } # D for Dihedral angle
| 18> { D 16  20  19  18   C } # D for Dihedral angle
| 19> { D 20  19  18  17   C } # D for Dihedral angle
| 20> { D 19  18  17  16   C } # D for Dihedral angle
| 21> { D 18  17  16  20   C } # D for Dihedral angle
| 22> { D 17  16  20  19   C } # D for Dihedral angle
| 23> { D 15  12  16  20   C } # D for Dihedral angle
| 24> end
| 25> end
| 26>
| 27>
| 28> #%pal
| 29> #nprocs 8
| 30> #end
| 31>
| 32> * xyz 0 1
| 33> C  -21.048   26.222   46.251
| 34> C  -20.361   27.558   45.944
| 35> C  -20.329   28.222   47.341
| 36> C  -20.110   27.022   48.296
| 37> O  -20.473   25.807   47.535
| 38> H  -20.833   25.428   45.533
| 39> H  -19.344   27.382   45.576
| 40> H  -20.898   28.157   45.201
| 41> H  -19.543   28.978   47.434
| 42> H  -21.289   28.710   47.548
| 43> H  -20.733   27.082   49.195
| 44> H  -19.064   26.913   48.597
| 45> C  -23.271   25.476   47.424
| 46> H  -22.510   24.854   47.912
| 47> H  -23.768   26.078   48.195
| 48> O  -22.586   26.394   46.375
| 49> C  -24.339   24.538   46.795
| 50> C  -23.700   23.540   45.823
| 51> C  -23.121   22.484   46.794
| 52> C  -24.164   22.450   47.940
| 53> O  -24.952   23.695   47.828
| 54> H  -25.136   25.144   46.362
| 55> O  -24.791   22.910   44.914
| 56> H  -22.936   23.992   45.181
| 57> H  -22.985   21.505   46.324
| 58> H  -22.144   22.813   47.169
| 59> H  -23.698   22.408   48.930
| 60> H  -24.863   21.615   47.843
| 61> H  -25.568   22.450   45.536
| 62> *
| 63>
| 64>                          ****END OF INPUT****
 Total Charge           Charge          ....    0
 Multiplicity           Mult            ....    1
 Number of Electrons    NEL             ....  102
FINAL SINGLE POINT ENERGY      -652.839422616601
FINAL SINGLE POINT ENERGY      -652.861489943525
FINAL SINGLE POINT ENERGY      -652.865033241543
FINAL SINGLE POINT ENERGY      -652.865649851307
FINAL SINGLE POINT ENERGY      -652.865738092391
FINAL SINGLE POINT ENERGY      -652.865750310184
                    ***********************HURRAY********************

CARTESIAN COORDINATES (ANGSTROEM)
---------------------------------
  C    -21.060995   26.141118   46.315178
  C    -20.491787   27.512130   45.953206
  C    -20.433331   28.202242   47.333394
  C    -20.078796   27.047898   48.295199
  O    -20.402056   25.793762   47.553327
  H    -20.828998   25.331804   45.616281
  H    -19.489615   27.386358   45.527681
  H    -21.122597   28.039257   45.234600
  H    -19.696239   29.010314   47.368412
  H    -21.414673   28.620152   47.576062
  H    -20.654882   27.063955   49.223686
  H    -19.012331   26.997859   48.531461
  C    -23.190446   25.469669   47.450903
  H    -22.462032   24.891469   48.026703
  H    -23.706132   26.152181   48.134051
  O    -22.505343   26.277461   46.442226
  C    -24.223598   24.560883   46.782338
  C    -23.645119   23.517658   45.815282
  C    -23.136775   22.429190   46.795996
  C    -24.182550   22.466798   47.937656
  O    -24.893079   23.763535   47.817783
  H    -24.991468   25.162856   46.288865
  O    -24.679444   23.003485   44.930123
  H    -22.873548   23.916665   45.158394
  H    -23.083349   21.457015   46.299990
  H    -22.136580   22.684307   47.162760
  H    -23.728588   22.400208   48.930824
  H    -24.935782   21.677907   47.844550
  H    -25.496868   22.848863   45.449069

 Multiplicity           Mult            ....    1
 Number of Electrons    NEL             ....  102
 Basis Dimension        Dim             ....  149

ORBITAL ENERGIES
----------------

  NO   OCC          E(Eh)            E(eV)
   0   2.0000     -19.152972      -521.1789
   1   2.0000     -19.142730      -520.9002
   2   2.0000     -19.141821      -520.8754
   3   2.0000     -19.133075      -520.6374
   4   2.0000     -10.283184      -279.8196
   5   2.0000     -10.234891      -278.5055
   6   2.0000     -10.233500      -278.4677
   7   2.0000     -10.228759      -278.3387
   8   2.0000     -10.228012      -278.3184
   9   2.0000     -10.223174      -278.1867
  10   2.0000     -10.190446      -277.2961
  11   2.0000     -10.188138      -277.2333
  12   2.0000     -10.184333      -277.1298
  13   2.0000      -1.057863       -28.7859
  14   2.0000      -1.033297       -28.1174
  15   2.0000      -1.001942       -27.2642
  16   2.0000      -0.994375       -27.0583
  17   2.0000      -0.793983       -21.6054
  18   2.0000      -0.775960       -21.1149
  19   2.0000      -0.765340       -20.8260
  20   2.0000      -0.733941       -19.9716
  21   2.0000      -0.672173       -18.2908
  22   2.0000      -0.605144       -16.4668
  23   2.0000      -0.599832       -16.3223
  24   2.0000      -0.593473       -16.1492
  25   2.0000      -0.576618       -15.6906
  26   2.0000      -0.520289       -14.1578
  27   2.0000      -0.517775       -14.0894
  28   2.0000      -0.500364       -13.6156
  29   2.0000      -0.489031       -13.3072
  30   2.0000      -0.471131       -12.8201
  31   2.0000      -0.457652       -12.4534
  32   2.0000      -0.451230       -12.2786
  33   2.0000      -0.433283       -11.7902
  34   2.0000      -0.418709       -11.3936
  35   2.0000      -0.413098       -11.2410
  36   2.0000      -0.406898       -11.0722
  37   2.0000      -0.389657       -10.6031
  38   2.0000      -0.375989       -10.2312
  39   2.0000      -0.365054        -9.9336
  40   2.0000      -0.363214        -9.8836
  41   2.0000      -0.355892        -9.6843
  42   2.0000      -0.351666        -9.5693
  43   2.0000      -0.336534        -9.1576
  44   2.0000      -0.328039        -8.9264
  45   2.0000      -0.304252        -8.2791
  46   2.0000      -0.300907        -8.1881
  47   2.0000      -0.271154        -7.3785
  48   2.0000      -0.269018        -7.3204
  49   2.0000      -0.261492        -7.1156
  50   2.0000      -0.238131        -6.4799
  51   0.0000       0.068610         1.8670
  52   0.0000       0.074002         2.0137
  53   0.0000       0.095276         2.5926
  54   0.0000       0.098732         2.6866
  55   0.0000       0.102871         2.7993

MULLIKEN ATOMIC CHARGES
-----------------------
   0 C :    0.294282
   1 C :   -0.258405
   2 C :   -0.301636
   3 C :   -0.013002
   4 O :   -0.516205
   5 H :    0.147560
   6 H :    0.144688
   7 H :    0.164395
   8 H :    0.145707
   9 H :    0.162034
  10 H :    0.148948
  11 H :    0.149840
  12 C :   -0.026971
  13 H :    0.164057
  14 H :    0.150349
  15 O :   -0.537828
  16 C :    0.063869
  17 C :    0.089269
  18 C :   -0.303512
  19 C :   -0.025187
  20 O :   -0.528969
  21 H :    0.163664
  22 O :   -0.606202
  23 H :    0.161732
  24 H :    0.160589
  25 H :    0.153911
  26 H :    0.144728
  27 H :    0.145346
  28 H :    0.362947
Sum of atomic charges:   -0.0000000

LOEWDIN ATOMIC CHARGES
----------------------
   0 C :    0.177712
   1 C :   -0.215219
   2 C :   -0.216704
   3 C :   -0.029740
   4 O :   -0.324883
   5 H :    0.095624
   6 H :    0.113826
   7 H :    0.128002
   8 H :    0.116392
   9 H :    0.119120
  10 H :    0.105908
  11 H :    0.106675
  12 C :   -0.047373
  13 H :    0.112830
  14 H :    0.110019
  15 O :   -0.341945
  16 C :    0.013614
  17 C :    0.037566
  18 C :   -0.242451
  19 C :   -0.037082
  20 O :   -0.332378
  21 H :    0.116457
  22 O :   -0.416332
  23 H :    0.119495
  24 H :    0.125770
  25 H :    0.117643
  26 H :    0.103593
  27 H :    0.102082
  28 H :    0.281777

  Mayer bond orders larger than 0.100000
B(  0-C ,  1-C ) :   0.9447 B(  0-C ,  4-O ) :   0.9056 B(  0-C ,  5-H ) :   0.9191
B(  0-C , 15-O ) :   0.8482 B(  1-C ,  2-C ) :   0.9537 B(  1-C ,  6-H ) :   0.9374
B(  1-C ,  7-H ) :   0.9348 B(  2-C ,  3-C ) :   0.9563 B(  2-C ,  8-H ) :   0.9445
B(  2-C ,  9-H ) :   0.9443 B(  3-C ,  4-O ) :   0.8258 B(  3-C , 10-H ) :   0.9353
B(  3-C , 11-H ) :   0.9405 B( 12-C , 13-H ) :   0.9112 B( 12-C , 14-H ) :   0.9314
B( 12-C , 15-O ) :   0.8220 B( 12-C , 16-C ) :   0.8931 B( 16-C , 17-C ) :   0.9117
B( 16-C , 20-O ) :   0.8376 B( 16-C , 21-H ) :   0.9274 B( 17-C , 18-C ) :   0.9124
B( 17-C , 22-O ) :   0.8889 B( 17-C , 23-H ) :   0.9271 B( 18-C , 19-C ) :   0.9400
B( 18-C , 24-H ) :   0.9385 B( 18-C , 25-H ) :   0.9326 B( 19-C , 20-O ) :   0.8443
B( 19-C , 26-H ) :   0.9361 B( 19-C , 27-H ) :   0.9384 B( 22-O , 28-H ) :   0.7953

FINAL SINGLE POINT ENERGY      -652.865753009545

DIPOLE MOMENT
-------------
                                X             Y             Z
Electronic contribution:     -4.01065      -1.94485      -1.64141
Nuclear contribution   :      4.90623       2.33561       2.21970
                        -----------------------------------------
Total Dipole Moment    :      0.89558       0.39076       0.57829
                        -----------------------------------------
Magnitude (a.u.)       :      1.13542
Magnitude (Debye)      :      2.88600

Rotational constants in cm-1:     0.057583     0.013276     0.012593
Rotational constants in MHz :  1726.286981   397.993214   377.525816

                             ****ORCA TERMINATED NORMALLY****
TOTAL RUN TIME: 0 days 0 hours 25 minutes 49 seconds 102 msec
