                         Program Version 4.2.0 -  RELEASE  -
|  1> # Test redundant internal optimization
|  2> #
|  3> ! RKS B3LYP  Opt TightSCF SmallPrint
|  4>
|  5> %basis
|  6>         Basis "6-31G"
|  7> end
|  8>
|  9> %geom
| 10> Constraints
| 11> { D 4  0  15  12  315.0   C } # D for Dihedral angle
| 12> { D 0  15  12  16  165.0   C } # D for Dihedral angle
| 13> { D 0  4  3  2   C } # D for Dihedral angle
| 14> { D 4  3  2  1   C } # D for Dihedral angle
| 15> { D 3  2  1  0   C } # D for Dihedral angle
| 16> { D 2  1  0  4   C } # D for Dihedral angle
| 17> { D 1  0  4  3   C } # D for Dihedral angle
| 18> { D 16  20  19  18   C } # D for Dihedral angle
| 19> { D 20  19  18  17   C } # D for Dihedral angle
| 20> { D 19  18  17  16   C } # D for Dihedral angle
| 21> { D 18  17  16  20   C } # D for Dihedral angle
| 22> { D 17  16  20  19   C } # D for Dihedral angle
| 23> { D 15  12  16  20   C } # D for Dihedral angle
| 24> end
| 25> end
| 26>
| 27>
| 28> #%pal
| 29> #nprocs 8
| 30> #end
| 31>
| 32> * xyz 0 1
| 33> C  -21.048   26.222   46.251
| 34> C  -20.361   27.558   45.944
| 35> C  -20.329   28.222   47.341
| 36> C  -20.110   27.022   48.296
| 37> O  -20.473   25.807   47.535
| 38> H  -20.833   25.428   45.533
| 39> H  -19.344   27.382   45.576
| 40> H  -20.898   28.157   45.201
| 41> H  -19.543   28.978   47.434
| 42> H  -21.289   28.710   47.548
| 43> H  -20.733   27.082   49.195
| 44> H  -19.064   26.913   48.597
| 45> C  -23.319   25.255   47.135
| 46> H  -23.372   24.367   46.492
| 47> H  -22.769   24.986   48.046
| 48> O  -22.586   26.394   46.375
| 49> C  -24.764   25.644   47.552
| 50> C  -25.415   24.543   48.398
| 51> C  -24.780   24.798   49.786
| 52> C  -24.646   26.341   49.833
| 53> O  -24.745   26.814   48.436
| 54> H  -25.331   25.924   46.661
| 55> H  -26.500   24.689   48.436
| 56> O  -25.132   23.114   47.860
| 57> H  -25.388   24.407   50.608
| 58> H  -23.794   24.323   49.842
| 59> H  -23.689   26.666   50.255
| 60> H  -25.459   26.814   50.392
| 61> H  -24.051   22.943   47.814
| 62> *
| 63>
| 64>                          ****END OF INPUT****
 Total Charge           Charge          ....    0
 Multiplicity           Mult            ....    1
 Number of Electrons    NEL             ....  102
FINAL SINGLE POINT ENERGY      -652.831736038417
FINAL SINGLE POINT ENERGY      -652.856654463517
FINAL SINGLE POINT ENERGY      -652.861571373997
FINAL SINGLE POINT ENERGY      -652.862412832762
FINAL SINGLE POINT ENERGY      -652.862559049745
FINAL SINGLE POINT ENERGY      -652.862587129355
FINAL SINGLE POINT ENERGY      -652.862591215998
                    ***********************HURRAY********************

CARTESIAN COORDINATES (ANGSTROEM)
---------------------------------
  C    -21.065927   26.178419   46.250993
  C    -20.551732   27.593326   45.986625
  C    -20.510366   28.182371   47.412849
  C    -20.105625   26.976263   48.286723
  O    -20.383344   25.766246   47.462302
  H    -20.820339   25.421350   45.498256
  H    -19.550186   27.539387   45.544605
  H    -21.211341   28.145824   45.314324
  H    -19.807033   29.015595   47.504754
  H    -21.509572   28.531628   47.687227
  H    -20.678555   26.909337   49.215401
  H    -19.036739   26.952417   48.518686
  C    -23.136852   25.180244   47.127996
  H    -23.218395   24.298943   46.473581
  H    -22.531665   24.913450   48.002236
  O    -22.496550   26.275912   46.421801
  C    -24.532836   25.651673   47.521544
  C    -25.335333   24.615909   48.328858
  C    -24.795385   24.849345   49.771686
  C    -24.551500   26.373370   49.802335
  O    -24.499345   26.827348   48.389173
  H    -25.058378   25.967882   46.616206
  H    -26.398605   24.860125   48.274445
  O    -25.251326   23.250438   47.856537
  H    -25.500994   24.514040   50.536524
  H    -23.859832   24.290293   49.904421
  H    -23.614404   26.644341   50.300525
  H    -25.372265   26.915190   50.282432
  H    -24.380576   22.862333   48.078955

 Multiplicity           Mult            ....    1
 Number of Electrons    NEL             ....  102
 Basis Dimension        Dim             ....  149

ORBITAL ENERGIES
----------------

  NO   OCC          E(Eh)            E(eV)
   0   2.0000     -19.148599      -521.0599
   1   2.0000     -19.142894      -520.9046
   2   2.0000     -19.138591      -520.7875
   3   2.0000     -19.135787      -520.7112
   4   2.0000     -10.275614      -279.6137
   5   2.0000     -10.244085      -278.7557
   6   2.0000     -10.230102      -278.3752
   7   2.0000     -10.228067      -278.3199
   8   2.0000     -10.225534      -278.2509
   9   2.0000     -10.223401      -278.1929
  10   2.0000     -10.194546      -277.4077
  11   2.0000     -10.181289      -277.0470
  12   2.0000     -10.180531      -277.0263
  13   2.0000      -1.053420       -28.6650
  14   2.0000      -1.032085       -28.0845
  15   2.0000      -1.014078       -27.5945
  16   2.0000      -0.990003       -26.9394
  17   2.0000      -0.787553       -21.4304
  18   2.0000      -0.780531       -21.2393
  19   2.0000      -0.765037       -20.8177
  20   2.0000      -0.728490       -19.8232
  21   2.0000      -0.676222       -18.4009
  22   2.0000      -0.610415       -16.6102
  23   2.0000      -0.597239       -16.2517
  24   2.0000      -0.586801       -15.9677
  25   2.0000      -0.572784       -15.5862
  26   2.0000      -0.529536       -14.4094
  27   2.0000      -0.509533       -13.8651
  28   2.0000      -0.493046       -13.4165
  29   2.0000      -0.488654       -13.2969
  30   2.0000      -0.471558       -12.8317
  31   2.0000      -0.457009       -12.4359
  32   2.0000      -0.441006       -12.0004
  33   2.0000      -0.435619       -11.8538
  34   2.0000      -0.426263       -11.5992
  35   2.0000      -0.411468       -11.1966
  36   2.0000      -0.401025       -10.9125
  37   2.0000      -0.396274       -10.7832
  38   2.0000      -0.377096       -10.2613
  39   2.0000      -0.371008       -10.0956
  40   2.0000      -0.355917        -9.6850
  41   2.0000      -0.351337        -9.5604
  42   2.0000      -0.343708        -9.3528
  43   2.0000      -0.333676        -9.0798
  44   2.0000      -0.324941        -8.8421
  45   2.0000      -0.313515        -8.5312
  46   2.0000      -0.295754        -8.0479
  47   2.0000      -0.270215        -7.3529
  48   2.0000      -0.259462        -7.0603
  49   2.0000      -0.254024        -6.9124
  50   2.0000      -0.241455        -6.5703
  51   0.0000       0.053423         1.4537
  52   0.0000       0.065883         1.7928
  53   0.0000       0.093653         2.5484
  54   0.0000       0.100259         2.7282
  55   0.0000       0.104404         2.8410

MULLIKEN ATOMIC CHARGES
-----------------------
   0 C :    0.294817
   1 C :   -0.261215
   2 C :   -0.301046
   3 C :   -0.010689
   4 O :   -0.518603
   5 H :    0.142406
   6 H :    0.141383
   7 H :    0.163206
   8 H :    0.138771
   9 H :    0.178842
  10 H :    0.142760
  11 H :    0.144299
  12 C :   -0.014775
  13 H :    0.128467
  14 H :    0.147578
  15 O :   -0.521029
  16 C :    0.094131
  17 C :    0.079232
  18 C :   -0.320592
  19 C :   -0.014181
  20 O :   -0.506955
  21 H :    0.164208
  22 H :    0.170075
  23 O :   -0.600947
  24 H :    0.156878
  25 H :    0.134909
  26 H :    0.139627
  27 H :    0.150470
  28 H :    0.357971
Sum of atomic charges:    0.0000000

LOEWDIN ATOMIC CHARGES
----------------------
   0 C :    0.176142
   1 C :   -0.213879
   2 C :   -0.217277
   3 C :   -0.029145
   4 O :   -0.331095
   5 H :    0.094972
   6 H :    0.111969
   7 H :    0.127555
   8 H :    0.112887
   9 H :    0.127422
  10 H :    0.101966
  11 H :    0.103242
  12 C :   -0.056090
  13 H :    0.095928
  14 H :    0.101839
  15 O :   -0.320062
  16 C :    0.022885
  17 C :    0.034804
  18 C :   -0.241422
  19 C :   -0.031390
  20 O :   -0.315444
  21 H :    0.119706
  22 H :    0.119895
  23 O :   -0.407316
  24 H :    0.122234
  25 H :    0.105007
  26 H :    0.099761
  27 H :    0.105965
  28 H :    0.278944

  Mayer bond orders larger than 0.100000
B(  0-C ,  1-C ) :   0.9501 B(  0-C ,  4-O ) :   0.8951 B(  0-C ,  5-H ) :   0.9203
B(  0-C , 15-O ) :   0.8582 B(  1-C ,  2-C ) :   0.9551 B(  1-C ,  6-H ) :   0.9397
B(  1-C ,  7-H ) :   0.9348 B(  2-C ,  3-C ) :   0.9570 B(  2-C ,  8-H ) :   0.9447
B(  2-C ,  9-H ) :   0.9384 B(  3-C ,  4-O ) :   0.8318 B(  3-C , 10-H ) :   0.9353
B(  3-C , 11-H ) :   0.9407 B( 12-C , 13-H ) :   0.9068 B( 12-C , 14-H ) :   0.9077
B( 12-C , 15-O ) :   0.8359 B( 12-C , 16-C ) :   0.9077 B( 16-C , 17-C ) :   0.8773
B( 16-C , 20-O ) :   0.8659 B( 16-C , 21-H ) :   0.9291 B( 17-C , 18-C ) :   0.9235
B( 17-C , 22-H ) :   0.9329 B( 17-C , 23-O ) :   0.8975 B( 18-C , 19-C ) :   0.9388
B( 18-C , 24-H ) :   0.9416 B( 18-C , 25-H ) :   0.9410 B( 19-C , 20-O ) :   0.8524
B( 19-C , 26-H ) :   0.9314 B( 19-C , 27-H ) :   0.9373 B( 23-O , 28-H ) :   0.7976

FINAL SINGLE POINT ENERGY      -652.862591601456

DIPOLE MOMENT
-------------
                                X             Y             Z
Electronic contribution:     -2.54307      -2.31618      -2.84645
Nuclear contribution   :      3.15072       2.36905       3.60828
                        -----------------------------------------
Total Dipole Moment    :      0.60764       0.05287       0.76183
                        -----------------------------------------
Magnitude (a.u.)       :      0.97591
Magnitude (Debye)      :      2.48057

Rotational constants in cm-1:     0.049854     0.014793     0.013615
Rotational constants in MHz :  1494.598604   443.485770   408.176451

                             ****ORCA TERMINATED NORMALLY****
TOTAL RUN TIME: 0 days 0 hours 25 minutes 58 seconds 933 msec
