                         Program Version 4.2.0 -  RELEASE  -
|  1> # Test redundant internal optimization
|  2> #
|  3> ! RKS B3LYP  Opt TightSCF SmallPrint
|  4>
|  5> %basis
|  6>         Basis "6-31G"
|  7> end
|  8>
|  9> %geom
| 10> Constraints
| 11> { D 4  0  15  12  60.0   C } # D for Dihedral angle
| 12> { D 0  15  12  16  285.0   C } # D for Dihedral angle
| 13> { D 0  4  3  2   C } # D for Dihedral angle
| 14> { D 4  3  2  1   C } # D for Dihedral angle
| 15> { D 3  2  1  0   C } # D for Dihedral angle
| 16> { D 2  1  0  4   C } # D for Dihedral angle
| 17> { D 1  0  4  3   C } # D for Dihedral angle
| 18> { D 16  20  19  18   C } # D for Dihedral angle
| 19> { D 20  19  18  17   C } # D for Dihedral angle
| 20> { D 19  18  17  16   C } # D for Dihedral angle
| 21> { D 18  17  16  20   C } # D for Dihedral angle
| 22> { D 17  16  20  19   C } # D for Dihedral angle
| 23> { D 15  12  16  20   C } # D for Dihedral angle
| 24> end
| 25> end
| 26>
| 27>
| 28> #%pal
| 29> #nprocs 8
| 30> #end
| 31>
| 32> * xyz 0 1
| 33> C  -21.048   26.222   46.251
| 34> C  -20.361   27.558   45.944
| 35> C  -20.329   28.222   47.341
| 36> C  -20.110   27.022   48.296
| 37> O  -20.473   25.807   47.535
| 38> H  -20.833   25.428   45.533
| 39> H  -19.344   27.382   45.576
| 40> H  -20.898   28.157   45.201
| 41> H  -19.543   28.978   47.434
| 42> H  -21.289   28.710   47.548
| 43> H  -20.733   27.082   49.195
| 44> H  -19.064   26.913   48.597
| 45> C  -23.051   27.452   47.413
| 46> H  -22.450   28.362   47.296
| 47> H  -24.105   27.712   47.251
| 48> O  -22.586   26.394   46.375
| 49> C  -22.907   26.958   48.880
| 50> C  -23.480   27.977   49.869
| 51> C  -24.998   27.699   49.762
| 52> C  -25.060   26.167   49.542
| 53> O  -23.713   25.752   49.096
| 54> H  -21.866   26.684   49.064
| 55> H  -23.119   27.765   50.882
| 56> O  -23.111   29.444   49.517
| 57> H  -25.552   28.016   50.652
| 58> H  -25.419   28.230   48.900
| 59> H  -25.794   25.882   48.780
| 60> H  -25.277   25.621   50.465
| 61> H  -23.464   29.682   48.507
| 62> *
| 63>
| 64>                          ****END OF INPUT****
 Total Charge           Charge          ....    0
 Multiplicity           Mult            ....    1
 Number of Electrons    NEL             ....  102
FINAL SINGLE POINT ENERGY      -652.766675950251
FINAL SINGLE POINT ENERGY      -652.817693244581
FINAL SINGLE POINT ENERGY      -652.840335517279
FINAL SINGLE POINT ENERGY      -652.846361751829
FINAL SINGLE POINT ENERGY      -652.847419841471
FINAL SINGLE POINT ENERGY      -652.847778098557
FINAL SINGLE POINT ENERGY      -652.847835523590
FINAL SINGLE POINT ENERGY      -652.847856101498
FINAL SINGLE POINT ENERGY      -652.847858429642
                    ***********************HURRAY********************

CARTESIAN COORDINATES (ANGSTROEM)
---------------------------------
  C    -21.108610   26.330553   46.385663
  C    -20.274089   27.510951   45.863108
  C    -19.840660   28.214505   47.184795
  C    -19.647399   27.018458   48.151213
  O    -20.370348   25.873760   47.543707
  H    -21.109910   25.484256   45.696653
  H    -19.401028   27.116393   45.332839
  H    -20.837580   28.157746   45.185740
  H    -18.918236   28.792054   47.067993
  H    -20.614254   28.899009   47.544337
  H    -20.039785   27.208459   49.154463
  H    -18.599419   26.715904   48.235242
  C    -23.107995   27.491782   47.478664
  H    -22.637699   28.480768   47.398523
  H    -24.143516   27.578412   47.133470
  O    -22.528248   26.547459   46.539866
  C    -23.075328   27.033605   48.941670
  C    -23.752580   28.024415   49.902437
  C    -25.256176   27.643109   49.749271
  C    -25.198396   26.112030   49.546991
  O    -23.806317   25.786159   49.148889
  H    -22.050397   26.812966   49.237001
  H    -23.413572   27.827342   50.922026
  O    -23.438751   29.422458   49.672418
  H    -25.849353   27.936364   50.619778
  H    -25.675873   28.148362   48.868949
  H    -25.885295   25.759263   48.771176
  H    -25.402563   25.565449   50.472408
  H    -23.993622   29.786009   48.952710

 Multiplicity           Mult            ....    1
 Number of Electrons    NEL             ....  102
 Basis Dimension        Dim             ....  149

ORBITAL ENERGIES
----------------

  NO   OCC          E(Eh)            E(eV)
   0   2.0000     -19.153266      -521.1869
   1   2.0000     -19.141054      -520.8546
   2   2.0000     -19.138762      -520.7922
   3   2.0000     -19.133449      -520.6476
   4   2.0000     -10.274036      -279.5707
   5   2.0000     -10.246369      -278.8179
   6   2.0000     -10.230497      -278.3860
   7   2.0000     -10.228607      -278.3346
   8   2.0000     -10.227472      -278.3037
   9   2.0000     -10.226753      -278.2841
  10   2.0000     -10.197404      -277.4855
  11   2.0000     -10.190671      -277.3023
  12   2.0000     -10.187017      -277.2028
  13   2.0000      -1.047078       -28.4924
  14   2.0000      -1.034215       -28.1424
  15   2.0000      -1.014049       -27.5937
  16   2.0000      -0.992977       -27.0203
  17   2.0000      -0.785563       -21.3762
  18   2.0000      -0.783429       -21.3182
  19   2.0000      -0.769468       -20.9383
  20   2.0000      -0.731671       -19.9098
  21   2.0000      -0.683239       -18.5919
  22   2.0000      -0.612420       -16.6648
  23   2.0000      -0.603980       -16.4351
  24   2.0000      -0.601107       -16.3570
  25   2.0000      -0.563470       -15.3328
  26   2.0000      -0.522915       -14.2292
  27   2.0000      -0.512134       -13.9359
  28   2.0000      -0.503720       -13.7069
  29   2.0000      -0.492789       -13.4095
  30   2.0000      -0.465242       -12.6599
  31   2.0000      -0.454083       -12.3562
  32   2.0000      -0.443950       -12.0805
  33   2.0000      -0.431916       -11.7530
  34   2.0000      -0.429707       -11.6929
  35   2.0000      -0.418359       -11.3841
  36   2.0000      -0.412354       -11.2207
  37   2.0000      -0.400523       -10.8988
  38   2.0000      -0.380104       -10.3432
  39   2.0000      -0.376092       -10.2340
  40   2.0000      -0.360077        -9.7982
  41   2.0000      -0.358143        -9.7456
  42   2.0000      -0.338953        -9.2234
  43   2.0000      -0.330102        -8.9825
  44   2.0000      -0.317415        -8.6373
  45   2.0000      -0.313847        -8.5402
  46   2.0000      -0.301598        -8.2069
  47   2.0000      -0.272798        -7.4232
  48   2.0000      -0.260512        -7.0889
  49   2.0000      -0.255766        -6.9597
  50   2.0000      -0.232549        -6.3280
  51   0.0000       0.047944         1.3046
  52   0.0000       0.075097         2.0435
  53   0.0000       0.080695         2.1958
  54   0.0000       0.087284         2.3751
  55   0.0000       0.097179         2.6444

MULLIKEN ATOMIC CHARGES
-----------------------
   0 C :    0.301817
   1 C :   -0.275731
   2 C :   -0.315966
   3 C :   -0.019200
   4 O :   -0.499973
   5 H :    0.168703
   6 H :    0.153984
   7 H :    0.148244
   8 H :    0.145941
   9 H :    0.155767
  10 H :    0.142342
  11 H :    0.150453
  12 C :   -0.022725
  13 H :    0.121813
  14 H :    0.146456
  15 O :   -0.511086
  16 C :    0.081908
  17 C :    0.084593
  18 C :   -0.327770
  19 C :   -0.010200
  20 O :   -0.499177
  21 H :    0.176445
  22 H :    0.164811
  23 O :   -0.604653
  24 H :    0.157726
  25 H :    0.131595
  26 H :    0.147402
  27 H :    0.149893
  28 H :    0.356587
Sum of atomic charges:    0.0000000

LOEWDIN ATOMIC CHARGES
----------------------
   0 C :    0.175589
   1 C :   -0.229344
   2 C :   -0.224263
   3 C :   -0.036427
   4 O :   -0.316966
   5 H :    0.114627
   6 H :    0.120582
   7 H :    0.118330
   8 H :    0.116134
   9 H :    0.110774
  10 H :    0.098976
  11 H :    0.105902
  12 C :   -0.050468
  13 H :    0.091358
  14 H :    0.108974
  15 O :   -0.308568
  16 C :    0.009662
  17 C :    0.033585
  18 C :   -0.241580
  19 C :   -0.030476
  20 O :   -0.309059
  21 H :    0.122616
  22 H :    0.118171
  23 O :   -0.412092
  24 H :    0.122222
  25 H :    0.102812
  26 H :    0.104442
  27 H :    0.106386
  28 H :    0.278102

  Mayer bond orders larger than 0.100000
B(  0-C ,  1-C ) :   0.9140 B(  0-C ,  4-O ) :   0.8975 B(  0-C ,  5-H ) :   0.9373
B(  0-C , 15-O ) :   0.9027 B(  1-C ,  2-C ) :   0.9560 B(  1-C ,  6-H ) :   0.9358
B(  1-C ,  7-H ) :   0.9381 B(  2-C ,  3-C ) :   0.9475 B(  2-C ,  8-H ) :   0.9447
B(  2-C ,  9-H ) :   0.9377 B(  3-C ,  4-O ) :   0.8449 B(  3-C , 10-H ) :   0.9222
B(  3-C , 11-H ) :   0.9400 B( 12-C , 13-H ) :   0.8962 B( 12-C , 14-H ) :   0.9406
B( 12-C , 15-O ) :   0.8657 B( 12-C , 16-C ) :   0.8831 B( 16-C , 17-C ) :   0.8683
B( 16-C , 20-O ) :   0.8662 B( 16-C , 21-H ) :   0.9159 B( 17-C , 18-C ) :   0.9254
B( 17-C , 22-H ) :   0.9331 B( 17-C , 23-O ) :   0.8910 B( 18-C , 19-C ) :   0.9381
B( 18-C , 24-H ) :   0.9417 B( 18-C , 25-H ) :   0.9406 B( 19-C , 20-O ) :   0.8551
B( 19-C , 26-H ) :   0.9305 B( 19-C , 27-H ) :   0.9371 B( 23-O , 28-H ) :   0.7988

FINAL SINGLE POINT ENERGY      -652.847858126010

DIPOLE MOMENT
-------------
                                X             Y             Z
Electronic contribution:     -0.59105      -3.90787      -0.04532
Nuclear contribution   :      0.21502       5.27074      -0.07968
                        -----------------------------------------
Total Dipole Moment    :     -0.37603       1.36287      -0.12500
                        -----------------------------------------
Magnitude (a.u.)       :      1.41931
Magnitude (Debye)      :      3.60760

Rotational constants in cm-1:     0.047414     0.016316     0.014671
Rotational constants in MHz :  1421.436969   489.130493   439.815936

                             ****ORCA TERMINATED NORMALLY****
TOTAL RUN TIME: 0 days 1 hours 20 minutes 10 seconds 421 msec
