                         Program Version 4.2.1 -  RELEASE  -
|  1> # Test redundant internal optimization
|  2> #
|  3> ! RKS B3LYP  Opt TightSCF SmallPrint
|  4>
|  5> %basis
|  6>         Basis "6-31G"
|  7> end
|  8>
|  9> %geom
| 10> Constraints
| 11> { D 4  0  19  14  240.0   C } # D for Dihedral angle
| 12> { D 0  19  14  12  15.0   C } # D for Dihedral angle
| 13> { D 0  4  3  2   C } # D for Dihedral angle
| 14> { D 4  3  2  1   C } # D for Dihedral angle
| 15> { D 3  2  1  0   C } # D for Dihedral angle
| 16> { D 2  1  0  4   C } # D for Dihedral angle
| 17> { D 1  0  4  3   C } # D for Dihedral angle
| 18> { D 14  15  16  17   C } # D for Dihedral angle
| 19> { D 15  16  17  12   C } # D for Dihedral angle
| 20> { D 16  17  12  14   C } # D for Dihedral angle
| 21> { D 17  12  14  15   C } # D for Dihedral angle
| 22> { D 12  14  15  16   C } # D for Dihedral angle
| 23> end
| 24> end
| 25>
| 26>
| 27> #%pal
| 28> #nprocs 8
| 29> #end
| 30>
| 31> * xyz 0 1
| 32> C  -21.048   26.222   46.251
| 33> C  -20.361   27.558   45.944
| 34> C  -20.329   28.222   47.341
| 35> C  -20.110   27.022   48.296
| 36> O  -20.473   25.807   47.535
| 37> H  -20.833   25.428   45.533
| 38> H  -19.344   27.382   45.576
| 39> H  -20.898   28.157   45.201
| 40> H  -19.543   28.978   47.434
| 41> H  -21.289   28.710   47.548
| 42> H  -20.733   27.082   49.195
| 43> H  -19.064   26.913   48.597
| 44> C  -22.344   24.414   44.938
| 45> H  -22.807   23.931   44.063
| 46> C  -23.235   25.530   45.496
| 47> C  -24.282   24.724   46.300
| 48> C  -23.458   23.538   46.861
| 49> O  -22.226   23.459   46.046
| 50> H  -21.332   24.729   44.679
| 51> O  -22.472   26.381   46.366
| 52> H  -23.686   26.151   44.714
| 53> H  -24.757   25.314   47.090
| 54> H  -25.074   24.362   45.632
| 55> H  -23.994   22.585   46.794
| 56> H  -23.149   23.698   47.898
| 57> *
| 58>
| 59>                          ****END OF INPUT****
 Total Charge           Charge          ....    0
 Multiplicity           Mult            ....    1
 Number of Electrons    NEL             ....   86
FINAL SINGLE POINT ENERGY      -538.396216562329
FINAL SINGLE POINT ENERGY      -538.425865053506
FINAL SINGLE POINT ENERGY      -538.427545092575
FINAL SINGLE POINT ENERGY      -538.427755121485
FINAL SINGLE POINT ENERGY      -538.427805739883
FINAL SINGLE POINT ENERGY      -538.427815139986
                    ***********************HURRAY********************

CARTESIAN COORDINATES (ANGSTROEM)
---------------------------------
  C    -20.836851   26.206617   46.238676
  C    -20.268668   27.606357   45.998849
  C    -20.442705   28.264282   47.389704
  C    -20.193665   27.087854   48.360239
  O    -20.356048   25.853188   47.555165
  H    -20.476386   25.432464   45.563623
  H    -19.207084   27.529604   45.734870
  H    -20.795420   28.136302   45.201918
  H    -19.750790   29.095664   47.553478
  H    -21.466184   28.636987   47.491638
  H    -20.902414   27.062644   49.192528
  H    -19.173198   27.074040   48.755713
  C    -22.539112   24.233902   44.760783
  H    -23.229373   23.854315   43.991430
  C    -23.166467   25.459952   45.421995
  C    -24.169491   24.810300   46.392479
  C    -23.446857   23.522221   46.849429
  O    -22.379256   23.273443   45.850296
  H    -21.561916   24.381410   44.298648
  O    -22.279617   26.285040   46.252772
  H    -23.643801   26.125439   44.694167
  H    -24.393906   25.491602   47.215353
  H    -25.102726   24.575659   45.865673
  H    -24.111376   22.652444   46.885080
  H    -22.947687   23.645271   47.813496

 Multiplicity           Mult            ....    1
 Number of Electrons    NEL             ....   86
 Basis Dimension        Dim             ....  127

ORBITAL ENERGIES
----------------

  NO   OCC          E(Eh)            E(eV)
   0   2.0000     -19.135046      -520.6911
   1   2.0000     -19.130487      -520.5670
   2   2.0000     -19.130206      -520.5594
   3   2.0000     -10.273618      -279.5594
   4   2.0000     -10.242876      -278.7228
   5   2.0000     -10.229139      -278.3490
   6   2.0000     -10.218183      -278.0509
   7   2.0000     -10.217757      -278.0393
   8   2.0000     -10.181735      -277.0591
   9   2.0000     -10.180299      -277.0200
  10   2.0000     -10.180185      -277.0169
  11   2.0000      -1.045332       -28.4449
  12   2.0000      -1.013978       -27.5917
  13   2.0000      -0.982918       -26.7466
  14   2.0000      -0.788830       -21.4652
  15   2.0000      -0.773544       -21.0492
  16   2.0000      -0.737690       -20.0736
  17   2.0000      -0.721175       -19.6242
  18   2.0000      -0.618315       -16.8252
  19   2.0000      -0.595101       -16.1935
  20   2.0000      -0.591439       -16.0939
  21   2.0000      -0.563228       -15.3262
  22   2.0000      -0.525998       -14.3131
  23   2.0000      -0.499198       -13.5839
  24   2.0000      -0.482826       -13.1384
  25   2.0000      -0.474657       -12.9161
  26   2.0000      -0.448714       -12.2101
  27   2.0000      -0.445933       -12.1345
  28   2.0000      -0.425077       -11.5669
  29   2.0000      -0.414171       -11.2702
  30   2.0000      -0.396876       -10.7995
  31   2.0000      -0.377499       -10.2723
  32   2.0000      -0.371991       -10.1224
  33   2.0000      -0.363687        -9.8964
  34   2.0000      -0.359021        -9.7695
  35   2.0000      -0.351005        -9.5513
  36   2.0000      -0.343121        -9.3368
  37   2.0000      -0.314595        -8.5606
  38   2.0000      -0.305920        -8.3245
  39   2.0000      -0.290958        -7.9174
  40   2.0000      -0.259175        -7.0525
  41   2.0000      -0.240105        -6.5336
  42   2.0000      -0.236795        -6.4435
  43   0.0000       0.080257         2.1839
  44   0.0000       0.099594         2.7101
  45   0.0000       0.105373         2.8673
  46   0.0000       0.109432         2.9778
  47   0.0000       0.115899         3.1538

MULLIKEN ATOMIC CHARGES
-----------------------
   0 C :    0.288126
   1 C :   -0.249997
   2 C :   -0.297418
   3 C :   -0.001259
   4 O :   -0.498578
   5 H :    0.152276
   6 H :    0.141005
   7 H :    0.140926
   8 H :    0.137553
   9 H :    0.159933
  10 H :    0.146380
  11 H :    0.138841
  12 C :   -0.038197
  13 H :    0.134020
  14 C :    0.100183
  15 C :   -0.288977
  16 C :   -0.004794
  17 O :   -0.517828
  18 H :    0.154313
  19 O :   -0.537530
  20 H :    0.134399
  21 H :    0.168229
  22 H :    0.135035
  23 H :    0.136478
  24 H :    0.166881
Sum of atomic charges:   -0.0000000

LOEWDIN ATOMIC CHARGES
----------------------
   0 C :    0.176886
   1 C :   -0.221222
   2 C :   -0.216472
   3 C :   -0.028306
   4 O :   -0.315503
   5 H :    0.104424
   6 H :    0.111188
   7 H :    0.115702
   8 H :    0.111922
   9 H :    0.117947
  10 H :    0.104774
  11 H :    0.100553
  12 C :   -0.052449
  13 H :    0.098212
  14 C :    0.047518
  15 C :   -0.227121
  16 C :   -0.028557
  17 O :   -0.329344
  18 H :    0.110883
  19 O :   -0.334684
  20 H :    0.101162
  21 H :    0.130179
  22 H :    0.107774
  23 H :    0.099191
  24 H :    0.115342

  Mayer bond orders larger than 0.100000
B(  0-C ,  1-C ) :   0.9380 B(  0-C ,  4-O ) :   0.9231 B(  0-C ,  5-H ) :   0.9108
B(  0-C , 19-O ) :   0.8406 B(  1-C ,  2-C ) :   0.9577 B(  1-C ,  6-H ) :   0.9375
B(  1-C ,  7-H ) :   0.9397 B(  2-C ,  3-C ) :   0.9534 B(  2-C ,  8-H ) :   0.9459
B(  2-C ,  9-H ) :   0.9441 B(  3-C ,  4-O ) :   0.8439 B(  3-C , 10-H ) :   0.9352
B(  3-C , 11-H ) :   0.9398 B( 12-C , 13-H ) :   0.9093 B( 12-C , 14-C ) :   0.9245
B( 12-C , 17-O ) :   0.8693 B( 12-C , 18-H ) :   0.9233 B( 14-C , 15-C ) :   0.9418
B( 14-C , 19-O ) :   0.8406 B( 14-C , 20-H ) :   0.9271 B( 15-C , 16-C ) :   0.9479
B( 15-C , 21-H ) :   0.9356 B( 15-C , 22-H ) :   0.9387 B( 16-C , 17-O ) :   0.8426
B( 16-C , 23-H ) :   0.9345 B( 16-C , 24-H ) :   0.9332

FINAL SINGLE POINT ENERGY      -538.427816387063

DIPOLE MOMENT
-------------
                                X             Y             Z
Electronic contribution:      0.70221      -3.01950      -0.26284
Nuclear contribution   :     -1.17783       3.95897      -0.25451
                        -----------------------------------------
Total Dipole Moment    :     -0.47562       0.93947      -0.51735
                        -----------------------------------------
Magnitude (a.u.)       :      1.17323
Magnitude (Debye)      :      2.98212

Rotational constants in cm-1:     0.076756     0.022384     0.021507
Rotational constants in MHz :  2301.099949   671.044068   644.749017

                             ****ORCA TERMINATED NORMALLY****
TOTAL RUN TIME: 0 days 0 hours 7 minutes 7 seconds 227 msec
