                         Program Version 4.2.0 -  RELEASE  -
|  1> # Test redundant internal optimization
|  2> #
|  3> ! RKS B3LYP  Opt TightSCF SmallPrint
|  4>
|  5> %basis
|  6>         Basis "6-31G"
|  7> end
|  8>
|  9> %geom
| 10> Constraints
| 11> { D 4  0  15  12  345.0   C } # D for Dihedral angle
| 12> { D 0  15  12  16  330.0   C } # D for Dihedral angle
| 13> { D 0  4  3  2   C } # D for Dihedral angle
| 14> { D 4  3  2  1   C } # D for Dihedral angle
| 15> { D 3  2  1  0   C } # D for Dihedral angle
| 16> { D 2  1  0  4   C } # D for Dihedral angle
| 17> { D 1  0  4  3   C } # D for Dihedral angle
| 18> { D 16  20  19  18   C } # D for Dihedral angle
| 19> { D 20  19  18  17   C } # D for Dihedral angle
| 20> { D 19  18  17  16   C } # D for Dihedral angle
| 21> { D 18  17  16  20   C } # D for Dihedral angle
| 22> { D 17  16  20  19   C } # D for Dihedral angle
| 23> { D 15  12  16  20   C } # D for Dihedral angle
| 24> end
| 25> end
| 26>
| 27>
| 28> #%pal
| 29> #nprocs 8
| 30> #end
| 31>
| 32> * xyz 0 1
| 33> C  -21.048   26.222   46.251
| 34> C  -20.361   27.558   45.944
| 35> C  -20.329   28.222   47.341
| 36> C  -20.110   27.022   48.296
| 37> O  -20.473   25.807   47.535
| 38> H  -20.833   25.428   45.533
| 39> H  -19.344   27.382   45.576
| 40> H  -20.898   28.157   45.201
| 41> H  -19.543   28.978   47.434
| 42> H  -21.289   28.710   47.548
| 43> H  -20.733   27.082   49.195
| 44> H  -19.064   26.913   48.597
| 45> C  -23.221   25.764   47.645
| 46> H  -23.236   26.510   48.450
| 47> H  -24.255   25.455   47.445
| 48> O  -22.586   26.394   46.375
| 49> C  -22.443   24.517   48.150
| 50> C  -23.160   23.855   49.331
| 51> C  -24.278   23.060   48.615
| 52> C  -23.598   22.609   47.297
| 53> O  -22.416   23.477   47.116
| 54> H  -21.407   24.798   48.349
| 55> H  -22.477   23.176   49.854
| 56> O  -23.715   24.878   50.360
| 57> H  -24.644   22.214   49.206
| 58> H  -25.131   23.716   48.404
| 59> H  -24.258   22.714   46.428
| 60> H  -23.237   21.577   47.346
| 61> H  -24.403   25.569   49.860
| 62> *
| 63>
| 64>                          ****END OF INPUT****
 Total Charge           Charge          ....    0
 Multiplicity           Mult            ....    1
 Number of Electrons    NEL             ....  102
FINAL SINGLE POINT ENERGY      -652.804309384876
FINAL SINGLE POINT ENERGY      -652.829151303075
FINAL SINGLE POINT ENERGY      -652.846765395828
FINAL SINGLE POINT ENERGY      -652.849558641347
FINAL SINGLE POINT ENERGY      -652.850113674865
FINAL SINGLE POINT ENERGY      -652.850215994987
FINAL SINGLE POINT ENERGY      -652.850227008587
FINAL SINGLE POINT ENERGY      -652.850228314590
                    ***********************HURRAY********************

CARTESIAN COORDINATES (ANGSTROEM)
---------------------------------
  C    -20.957007   26.273362   46.268478
  C    -20.487055   27.691977   45.941822
  C    -20.294034   28.293434   47.353733
  C    -19.784824   27.093736   48.182752
  O    -20.143195   25.877945   47.396817
  H    -20.766119   25.524654   45.496710
  H    -19.535449   27.640805   45.399882
  H    -21.216638   28.233675   45.336858
  H    -19.589870   29.131076   47.363167
  H    -21.254892   28.650848   47.736963
  H    -20.246658   27.023253   49.171932
  H    -18.696582   27.081038   48.292808
  C    -23.091737   25.702015   47.619648
  H    -23.193561   26.455840   48.415313
  H    -24.088761   25.492603   47.216499
  O    -22.393140   26.308371   46.494849
  C    -22.491955   24.441890   48.256247
  C    -23.378352   23.866181   49.375739
  C    -24.441420   23.060916   48.563426
  C    -23.615315   22.522416   47.372317
  O    -22.383809   23.343914   47.295353
  H    -21.477149   24.641730   48.588653
  H    -22.780440   23.191357   49.992045
  O    -23.920936   24.831078   50.310884
  H    -24.900176   22.265559   49.156713
  H    -25.238794   23.736787   48.228079
  H    -24.151125   22.587890   46.419659
  H    -23.300071   21.485426   47.526047
  H    -24.670936   25.314225   49.908605

 Multiplicity           Mult            ....    1
 Number of Electrons    NEL             ....  102
 Basis Dimension        Dim             ....  149

ORBITAL ENERGIES
----------------

  NO   OCC          E(Eh)            E(eV)
   0   2.0000     -19.147650      -521.0341
   1   2.0000     -19.144980      -520.9614
   2   2.0000     -19.131170      -520.5856
   3   2.0000     -19.130137      -520.5575
   4   2.0000     -10.273900      -279.5670
   5   2.0000     -10.241381      -278.6821
   6   2.0000     -10.227993      -278.3179
   7   2.0000     -10.227919      -278.3158
   8   2.0000     -10.226545      -278.2784
   9   2.0000     -10.218901      -278.0704
  10   2.0000     -10.192648      -277.3561
  11   2.0000     -10.186437      -277.1870
  12   2.0000     -10.181029      -277.0399
  13   2.0000      -1.046950       -28.4889
  14   2.0000      -1.029752       -28.0210
  15   2.0000      -1.010448       -27.4957
  16   2.0000      -0.985197       -26.8086
  17   2.0000      -0.787552       -21.4304
  18   2.0000      -0.778254       -21.1774
  19   2.0000      -0.761863       -20.7314
  20   2.0000      -0.731045       -19.8927
  21   2.0000      -0.676298       -18.4030
  22   2.0000      -0.608139       -16.5483
  23   2.0000      -0.599600       -16.3160
  24   2.0000      -0.596981       -16.2447
  25   2.0000      -0.561362       -15.2754
  26   2.0000      -0.519737       -14.1427
  27   2.0000      -0.508943       -13.8491
  28   2.0000      -0.498343       -13.5606
  29   2.0000      -0.485153       -13.2017
  30   2.0000      -0.463553       -12.6139
  31   2.0000      -0.454936       -12.3794
  32   2.0000      -0.440237       -11.9795
  33   2.0000      -0.426608       -11.6086
  34   2.0000      -0.425046       -11.5661
  35   2.0000      -0.411022       -11.1845
  36   2.0000      -0.406727       -11.0676
  37   2.0000      -0.396337       -10.7849
  38   2.0000      -0.378180       -10.2908
  39   2.0000      -0.367689       -10.0053
  40   2.0000      -0.356624        -9.7042
  41   2.0000      -0.356260        -9.6943
  42   2.0000      -0.344965        -9.3870
  43   2.0000      -0.330286        -8.9875
  44   2.0000      -0.319379        -8.6907
  45   2.0000      -0.311464        -8.4754
  46   2.0000      -0.299077        -8.1383
  47   2.0000      -0.269146        -7.3238
  48   2.0000      -0.258235        -7.0269
  49   2.0000      -0.244831        -6.6622
  50   2.0000      -0.229192        -6.2366
  51   0.0000       0.052965         1.4412
  52   0.0000       0.076436         2.0799
  53   0.0000       0.087753         2.3879
  54   0.0000       0.094366         2.5678
  55   0.0000       0.109569         2.9815

MULLIKEN ATOMIC CHARGES
-----------------------
   0 C :    0.317340
   1 C :   -0.259426
   2 C :   -0.305645
   3 C :   -0.020489
   4 O :   -0.511544
   5 H :    0.164512
   6 H :    0.143762
   7 H :    0.160081
   8 H :    0.144814
   9 H :    0.155376
  10 H :    0.145766
  11 H :    0.152013
  12 C :    0.006781
  13 H :    0.124179
  14 H :    0.137038
  15 O :   -0.552696
  16 C :    0.061633
  17 C :    0.084060
  18 C :   -0.323521
  19 C :   -0.010747
  20 O :   -0.513128
  21 H :    0.199216
  22 H :    0.167259
  23 O :   -0.602475
  24 H :    0.155183
  25 H :    0.132223
  26 H :    0.143627
  27 H :    0.148993
  28 H :    0.355816
Sum of atomic charges:   -0.0000000

LOEWDIN ATOMIC CHARGES
----------------------
   0 C :    0.189220
   1 C :   -0.217793
   2 C :   -0.218268
   3 C :   -0.034668
   4 O :   -0.316266
   5 H :    0.108308
   6 H :    0.113037
   7 H :    0.125757
   8 H :    0.115863
   9 H :    0.115153
  10 H :    0.103183
  11 H :    0.107043
  12 C :   -0.040312
  13 H :    0.092473
  14 H :    0.103670
  15 O :   -0.341840
  16 C :   -0.000451
  17 C :    0.035736
  18 C :   -0.242202
  19 C :   -0.031085
  20 O :   -0.319352
  21 H :    0.133760
  22 H :    0.118927
  23 O :   -0.409346
  24 H :    0.121192
  25 H :    0.103004
  26 H :    0.102379
  27 H :    0.105357
  28 H :    0.277519

  Mayer bond orders larger than 0.100000
B(  0-C ,  1-C ) :   0.9342 B(  0-C ,  4-O ) :   0.8932 B(  0-C ,  5-H ) :   0.9260
B(  0-C , 15-O ) :   0.8413 B(  1-C ,  2-C ) :   0.9542 B(  1-C ,  6-H ) :   0.9366
B(  1-C ,  7-H ) :   0.9365 B(  2-C ,  3-C ) :   0.9554 B(  2-C ,  8-H ) :   0.9449
B(  2-C ,  9-H ) :   0.9457 B(  3-C ,  4-O ) :   0.8318 B(  3-C , 10-H ) :   0.9329
B(  3-C , 11-H ) :   0.9396 B( 12-C , 13-H ) :   0.9054 B( 12-C , 14-H ) :   0.9366
B( 12-C , 15-O ) :   0.8466 B( 12-C , 16-C ) :   0.8979 B( 16-C , 17-C ) :   0.8642
B( 16-C , 20-O ) :   0.8502 B( 16-C , 21-H ) :   0.9031 B( 17-C , 18-C ) :   0.9220
B( 17-C , 22-H ) :   0.9338 B( 17-C , 23-O ) :   0.8943 B( 18-C , 19-C ) :   0.9405
B( 18-C , 24-H ) :   0.9423 B( 18-C , 25-H ) :   0.9405 B( 19-C , 20-O ) :   0.8508
B( 19-C , 26-H ) :   0.9315 B( 19-C , 27-H ) :   0.9376 B( 23-O , 28-H ) :   0.7988

FINAL SINGLE POINT ENERGY      -652.850228150987

DIPOLE MOMENT
-------------
                                X             Y             Z
Electronic contribution:      0.52401      -2.50581      -0.29508
Nuclear contribution   :     -1.07848       2.99934       0.36844
                        -----------------------------------------
Total Dipole Moment    :     -0.55447       0.49354       0.07336
                        -----------------------------------------
Magnitude (a.u.)       :      0.74592
Magnitude (Debye)      :      1.89598

Rotational constants in cm-1:     0.052397     0.015067     0.013744
Rotational constants in MHz :  1570.825391   451.709064   412.038789

                             ****ORCA TERMINATED NORMALLY****
TOTAL RUN TIME: 0 days 0 hours 30 minutes 41 seconds 70 msec
