                         Program Version 4.2.0 -  RELEASE  -
|  1> # Test redundant internal optimization
|  2> #
|  3> ! RKS B3LYP  Opt TightSCF SmallPrint
|  4>
|  5> %basis
|  6>         Basis "6-31G"
|  7> end
|  8>
|  9> %geom
| 10> Constraints
| 11> { D 4  0  15  12  270.0   C } # D for Dihedral angle
| 12> { D 0  15  12  16  240.0   C } # D for Dihedral angle
| 13> { D 0  4  3  2   C } # D for Dihedral angle
| 14> { D 4  3  2  1   C } # D for Dihedral angle
| 15> { D 3  2  1  0   C } # D for Dihedral angle
| 16> { D 2  1  0  4   C } # D for Dihedral angle
| 17> { D 1  0  4  3   C } # D for Dihedral angle
| 18> { D 16  20  19  18   C } # D for Dihedral angle
| 19> { D 20  19  18  17   C } # D for Dihedral angle
| 20> { D 19  18  17  16   C } # D for Dihedral angle
| 21> { D 18  17  16  20   C } # D for Dihedral angle
| 22> { D 17  16  20  19   C } # D for Dihedral angle
| 23> { D 15  12  16  20   C } # D for Dihedral angle
| 24> end
| 25> end
| 26>
| 27>
| 28> #%pal
| 29> #nprocs 8
| 30> #end
| 31>
| 32> * xyz 0 1
| 33> C  -21.048   26.222   46.251
| 34> C  -20.361   27.558   45.944
| 35> C  -20.329   28.222   47.341
| 36> C  -20.110   27.022   48.296
| 37> O  -20.473   25.807   47.535
| 38> H  -20.833   25.428   45.533
| 39> H  -19.344   27.382   45.576
| 40> H  -20.898   28.157   45.201
| 41> H  -19.543   28.978   47.434
| 42> H  -21.289   28.710   47.548
| 43> H  -20.733   27.082   49.195
| 44> H  -19.064   26.913   48.597
| 45> C  -23.420   25.119   46.072
| 46> H  -22.741   24.293   45.824
| 47> H  -24.008   24.827   46.952
| 48> O  -22.586   26.394   46.375
| 49> C  -24.406   25.313   44.887
| 50> C  -23.656   25.559   43.573
| 51> C  -23.228   24.123   43.184
| 52> C  -24.417   23.258   43.672
| 53> O  -25.165   24.082   44.645
| 54> H  -25.129   26.089   45.147
| 55> H  -24.337   25.976   42.824
| 56> O  -22.450   26.525   43.730
| 57> H  -23.044   24.012   42.111
| 58> H  -22.307   23.849   43.712
| 59> H  -24.090   22.334   44.160
| 60> H  -25.109   23.005   42.864
| 61> H  -21.754   26.126   44.477
| 62> *
| 63>
| 64>                          ****END OF INPUT****
 Total Charge           Charge          ....    0
 Multiplicity           Mult            ....    1
 Number of Electrons    NEL             ....  102
FINAL SINGLE POINT ENERGY      -652.816954531424
FINAL SINGLE POINT ENERGY      -652.846377305253
FINAL SINGLE POINT ENERGY      -652.855708075642
FINAL SINGLE POINT ENERGY      -652.858095059368
FINAL SINGLE POINT ENERGY      -652.858561461675
FINAL SINGLE POINT ENERGY      -652.858731911560
FINAL SINGLE POINT ENERGY      -652.859071909156
FINAL SINGLE POINT ENERGY      -652.859219901272
FINAL SINGLE POINT ENERGY      -652.859326565184
FINAL SINGLE POINT ENERGY      -652.859360898879
FINAL SINGLE POINT ENERGY      -652.860815102803
FINAL SINGLE POINT ENERGY      -652.861766713609
FINAL SINGLE POINT ENERGY      -652.862528154743
FINAL SINGLE POINT ENERGY      -652.863015839772
FINAL SINGLE POINT ENERGY      -652.863527120432
FINAL SINGLE POINT ENERGY      -652.863790037757
FINAL SINGLE POINT ENERGY      -652.863880951002
FINAL SINGLE POINT ENERGY      -652.863879301716
FINAL SINGLE POINT ENERGY      -652.863891694864
                    ***********************HURRAY********************

CARTESIAN COORDINATES (ANGSTROEM)
---------------------------------
  C    -21.017177   26.119944   46.266052
  C    -20.359157   27.463535   45.949214
  C    -20.392553   28.170628   47.327028
  C    -20.173829   27.003345   48.314857
  O    -20.483594   25.766819   47.555964
  H    -20.786712   25.303434   45.579885
  H    -19.327551   27.280792   45.627781
  H    -20.864473   28.027095   45.162629
  H    -19.625500   28.945220   47.420661
  H    -21.372844   28.631100   47.481245
  H    -20.827876   27.051739   49.189028
  H    -19.134630   26.915042   48.645008
  C    -23.308880   25.149250   46.102471
  H    -22.677305   24.264316   45.957320
  H    -23.915521   24.985308   46.997162
  O    -22.459313   26.327073   46.337248
  C    -24.244258   25.346299   44.900864
  C    -23.574272   25.541943   43.532633
  C    -23.212291   24.079385   43.146508
  C    -24.388069   23.265367   43.729098
  O    -25.049217   24.138437   44.736053
  H    -24.943829   26.158143   45.125013
  H    -24.317686   25.940526   42.829825
  O    -22.404778   26.393592   43.534054
  H    -23.102915   23.952199   42.066174
  H    -22.257301   23.822591   43.615415
  H    -24.068743   22.339806   44.217386
  H    -25.145936   23.024408   42.978013
  H    -22.435790   26.957667   44.335411

 Multiplicity           Mult            ....    1
 Number of Electrons    NEL             ....  102
 Basis Dimension        Dim             ....  149

ORBITAL ENERGIES
----------------

  NO   OCC          E(Eh)            E(eV)
   0   2.0000     -19.154465      -521.2195
   1   2.0000     -19.144346      -520.9441
   2   2.0000     -19.141974      -520.8796
   3   2.0000     -19.135311      -520.6983
   4   2.0000     -10.283648      -279.8323
   5   2.0000     -10.239964      -278.6436
   6   2.0000     -10.236547      -278.5506
   7   2.0000     -10.232965      -278.4531
   8   2.0000     -10.230845      -278.3955
   9   2.0000     -10.226924      -278.2888
  10   2.0000     -10.190392      -277.2947
  11   2.0000     -10.188037      -277.2306
  12   2.0000     -10.187057      -277.2039
  13   2.0000      -1.057770       -28.7834
  14   2.0000      -1.031940       -28.0805
  15   2.0000      -1.012352       -27.5475
  16   2.0000      -0.996955       -27.1285
  17   2.0000      -0.791771       -21.5452
  18   2.0000      -0.777919       -21.1682
  19   2.0000      -0.768050       -20.8997
  20   2.0000      -0.732968       -19.9451
  21   2.0000      -0.678969       -18.4757
  22   2.0000      -0.604103       -16.4385
  23   2.0000      -0.601702       -16.3731
  24   2.0000      -0.594532       -16.1780
  25   2.0000      -0.582581       -15.8528
  26   2.0000      -0.523311       -14.2400
  27   2.0000      -0.521794       -14.1987
  28   2.0000      -0.500948       -13.6315
  29   2.0000      -0.492156       -13.3923
  30   2.0000      -0.468352       -12.7445
  31   2.0000      -0.456746       -12.4287
  32   2.0000      -0.444791       -12.1034
  33   2.0000      -0.437839       -11.9142
  34   2.0000      -0.433043       -11.7837
  35   2.0000      -0.418848       -11.3974
  36   2.0000      -0.404403       -11.0044
  37   2.0000      -0.389811       -10.6073
  38   2.0000      -0.381637       -10.3849
  39   2.0000      -0.368156       -10.0180
  40   2.0000      -0.360068        -9.7979
  41   2.0000      -0.354388        -9.6434
  42   2.0000      -0.352457        -9.5908
  43   2.0000      -0.340157        -9.2561
  44   2.0000      -0.329695        -8.9715
  45   2.0000      -0.307627        -8.3709
  46   2.0000      -0.297078        -8.0839
  47   2.0000      -0.281426        -7.6580
  48   2.0000      -0.265480        -7.2241
  49   2.0000      -0.259765        -7.0686
  50   2.0000      -0.241548        -6.5729
  51   0.0000       0.053907         1.4669
  52   0.0000       0.071716         1.9515
  53   0.0000       0.089831         2.4444
  54   0.0000       0.097489         2.6528
  55   0.0000       0.107767         2.9325

MULLIKEN ATOMIC CHARGES
-----------------------
   0 C :    0.280249
   1 C :   -0.271765
   2 C :   -0.299487
   3 C :   -0.001058
   4 O :   -0.508288
   5 H :    0.161476
   6 H :    0.155091
   7 H :    0.150247
   8 H :    0.143824
   9 H :    0.162616
  10 H :    0.150973
  11 H :    0.143435
  12 C :   -0.002234
  13 H :    0.140426
  14 H :    0.168180
  15 O :   -0.544443
  16 C :    0.044498
  17 C :    0.109189
  18 C :   -0.300462
  19 C :   -0.019985
  20 O :   -0.518327
  21 H :    0.157682
  22 H :    0.145983
  23 O :   -0.633930
  24 H :    0.155352
  25 H :    0.150664
  26 H :    0.146764
  27 H :    0.151491
  28 H :    0.381841
Sum of atomic charges:   -0.0000000

LOEWDIN ATOMIC CHARGES
----------------------
   0 C :    0.169410
   1 C :   -0.216032
   2 C :   -0.216696
   3 C :   -0.025959
   4 O :   -0.320691
   5 H :    0.105632
   6 H :    0.119713
   7 H :    0.117671
   8 H :    0.114825
   9 H :    0.119126
  10 H :    0.107619
  11 H :    0.103326
  12 C :   -0.039037
  13 H :    0.103828
  14 H :    0.119098
  15 O :   -0.344295
  16 C :    0.009933
  17 C :    0.037001
  18 C :   -0.228684
  19 C :   -0.031387
  20 O :   -0.320378
  21 H :    0.112866
  22 H :    0.100924
  23 O :   -0.425762
  24 H :    0.122724
  25 H :    0.113709
  26 H :    0.104160
  27 H :    0.106780
  28 H :    0.280577

  Mayer bond orders larger than 0.100000
B(  0-C ,  1-C ) :   0.9463 B(  0-C ,  4-O ) :   0.9213 B(  0-C ,  5-H ) :   0.9114
B(  0-C , 15-O ) :   0.8162 B(  1-C ,  2-C ) :   0.9521 B(  1-C ,  6-H ) :   0.9384
B(  1-C ,  7-H ) :   0.9326 B(  2-C ,  3-C ) :   0.9544 B(  2-C ,  8-H ) :   0.9451
B(  2-C ,  9-H ) :   0.9442 B(  3-C ,  4-O ) :   0.8351 B(  3-C , 10-H ) :   0.9352
B(  3-C , 11-H ) :   0.9402 B( 12-C , 13-H ) :   0.9247 B( 12-C , 14-H ) :   0.9317
B( 12-C , 15-O ) :   0.8070 B( 12-C , 16-C ) :   0.8976 B( 16-C , 17-C ) :   0.9142
B( 16-C , 20-O ) :   0.8534 B( 16-C , 21-H ) :   0.9288 B( 17-C , 18-C ) :   0.9227
B( 17-C , 22-H ) :   0.9222 B( 17-C , 23-O ) :   0.9037 B( 18-C , 19-C ) :   0.9421
B( 18-C , 24-H ) :   0.9436 B( 18-C , 25-H ) :   0.9401 B( 19-C , 20-O ) :   0.8345
B( 19-C , 26-H ) :   0.9333 B( 19-C , 27-H ) :   0.9374 B( 23-O , 28-H ) :   0.7387

FINAL SINGLE POINT ENERGY      -652.863896960988

DIPOLE MOMENT
-------------
                                X             Y             Z
Electronic contribution:     -2.81276      -1.14396       0.53656
Nuclear contribution   :      3.19808       1.47032      -0.64639
                        -----------------------------------------
Total Dipole Moment    :      0.38532       0.32636      -0.10983
                        -----------------------------------------
Magnitude (a.u.)       :      0.51676
Magnitude (Debye)      :      1.31351

Rotational constants in cm-1:     0.061399     0.013806     0.012737
Rotational constants in MHz :  1840.698212   413.899728   381.850229

                             ****ORCA TERMINATED NORMALLY****
TOTAL RUN TIME: 0 days 1 hours 54 minutes 26 seconds 178 msec
