                         Program Version 4.2.0 -  RELEASE  -
|  1> # Test redundant internal optimization
|  2> #
|  3> ! RKS B3LYP  Opt TightSCF SmallPrint
|  4>
|  5> %basis
|  6>         Basis "6-31G"
|  7> end
|  8>
|  9> %geom
| 10> Constraints
| 11> { D 4  0  15  12  225.0   C } # D for Dihedral angle
| 12> { D 0  15  12  16  135.0   C } # D for Dihedral angle
| 13> { D 0  4  3  2   C } # D for Dihedral angle
| 14> { D 4  3  2  1   C } # D for Dihedral angle
| 15> { D 3  2  1  0   C } # D for Dihedral angle
| 16> { D 2  1  0  4   C } # D for Dihedral angle
| 17> { D 1  0  4  3   C } # D for Dihedral angle
| 18> { D 16  20  19  18   C } # D for Dihedral angle
| 19> { D 20  19  18  17   C } # D for Dihedral angle
| 20> { D 19  18  17  16   C } # D for Dihedral angle
| 21> { D 18  17  16  20   C } # D for Dihedral angle
| 22> { D 17  16  20  19   C } # D for Dihedral angle
| 23> { D 15  12  16  20   C } # D for Dihedral angle
| 24> end
| 25> end
| 26>
| 27>
| 28> #%pal
| 29> #nprocs 8
| 30> #end
| 31>
| 32> * xyz 0 1
| 33> C  -21.048   26.222   46.251
| 34> C  -20.361   27.558   45.944
| 35> C  -20.329   28.222   47.341
| 36> C  -20.110   27.022   48.296
| 37> O  -20.473   25.807   47.535
| 38> H  -20.833   25.428   45.533
| 39> H  -19.344   27.382   45.576
| 40> H  -20.898   28.157   45.201
| 41> H  -19.543   28.978   47.434
| 42> H  -21.289   28.710   47.548
| 43> H  -20.733   27.082   49.195
| 44> H  -19.064   26.913   48.597
| 45> C  -23.415   25.773   45.218
| 46> H  -23.771   26.573   44.557
| 47> H  -22.795   25.089   44.624
| 48> O  -22.586   26.394   46.375
| 49> C  -24.648   24.973   45.724
| 50> C  -24.234   23.889   46.727
| 51> C  -24.046   24.716   48.022
| 52> C  -25.143   25.804   47.908
| 53> O  -25.548   25.846   46.485
| 54> H  -25.211   24.603   44.866
| 55> H  -25.044   23.161   46.848
| 56> O  -22.948   23.127   46.307
| 57> H  -24.149   24.113   48.929
| 58> H  -23.049   25.173   48.034
| 59> H  -24.785   26.794   48.209
| 60> H  -26.036   25.558   48.489
| 61> H  -22.124   23.838   46.180
| 62> *
| 63>
| 64>                          ****END OF INPUT****
 Total Charge           Charge          ....    0
 Multiplicity           Mult            ....    1
 Number of Electrons    NEL             ....  102
FINAL SINGLE POINT ENERGY      -652.830984126965
FINAL SINGLE POINT ENERGY      -652.854774494877
FINAL SINGLE POINT ENERGY      -652.860133183291
FINAL SINGLE POINT ENERGY      -652.862882784114
FINAL SINGLE POINT ENERGY      -652.863496832196
FINAL SINGLE POINT ENERGY      -652.863687895919
FINAL SINGLE POINT ENERGY      -652.863696424330
FINAL SINGLE POINT ENERGY      -652.863695296534
                    ***********************HURRAY********************

CARTESIAN COORDINATES (ANGSTROEM)
---------------------------------
  C    -21.059418   26.231514   46.165306
  C    -20.364330   27.565769   45.892785
  C    -20.396931   28.232586   47.288883
  C    -20.219547   27.036676   48.250388
  O    -20.551488   25.824999   47.452598
  H    -20.828219   25.431064   45.454533
  H    -19.332822   27.381842   45.569585
  H    -20.876187   28.150548   45.124787
  H    -19.614335   28.986427   47.414990
  H    -21.368861   28.710237   47.443855
  H    -20.884991   27.076470   49.115818
  H    -19.187484   26.911993   48.590256
  C    -23.314536   25.847878   45.200163
  H    -23.656980   26.665348   44.555071
  H    -22.728251   25.139798   44.598617
  O    -22.493333   26.410460   46.267507
  C    -24.526476   25.109406   45.758716
  C    -24.203298   23.926545   46.689305
  C    -24.038447   24.637719   48.069677
  C    -25.083224   25.771786   47.988625
  O    -25.416553   25.944949   46.552384
  H    -25.114426   24.778380   44.892967
  H    -25.041539   23.225263   46.698957
  O    -23.043327   23.155417   46.278730
  H    -24.225857   23.955807   48.904917
  H    -23.025921   25.039923   48.145367
  H    -24.701760   26.720865   48.374854
  H    -26.017351   25.521335   48.501439
  H    -22.241109   23.513997   46.711919

 Multiplicity           Mult            ....    1
 Number of Electrons    NEL             ....  102
 Basis Dimension        Dim             ....  149

ORBITAL ENERGIES
----------------

  NO   OCC          E(Eh)            E(eV)
   0   2.0000     -19.152078      -521.1545
   1   2.0000     -19.147821      -521.0387
   2   2.0000     -19.135018      -520.6903
   3   2.0000     -19.128736      -520.5194
   4   2.0000     -10.288481      -279.9638
   5   2.0000     -10.233202      -278.4596
   6   2.0000     -10.232189      -278.4320
   7   2.0000     -10.229645      -278.3628
   8   2.0000     -10.225245      -278.2431
   9   2.0000     -10.216984      -278.0183
  10   2.0000     -10.191607      -277.3277
  11   2.0000     -10.191392      -277.3219
  12   2.0000     -10.174242      -276.8552
  13   2.0000      -1.061544       -28.8861
  14   2.0000      -1.022385       -27.8205
  15   2.0000      -1.005055       -27.3489
  16   2.0000      -0.998511       -27.1709
  17   2.0000      -0.792901       -21.5759
  18   2.0000      -0.769905       -20.9502
  19   2.0000      -0.761600       -20.7242
  20   2.0000      -0.734682       -19.9917
  21   2.0000      -0.675234       -18.3740
  22   2.0000      -0.606277       -16.4976
  23   2.0000      -0.600578       -16.3425
  24   2.0000      -0.596936       -16.2435
  25   2.0000      -0.568598       -15.4723
  26   2.0000      -0.526473       -14.3261
  27   2.0000      -0.503044       -13.6885
  28   2.0000      -0.500050       -13.6071
  29   2.0000      -0.490864       -13.3571
  30   2.0000      -0.472820       -12.8661
  31   2.0000      -0.452757       -12.3201
  32   2.0000      -0.448126       -12.1941
  33   2.0000      -0.427970       -11.6457
  34   2.0000      -0.423265       -11.5176
  35   2.0000      -0.409447       -11.1416
  36   2.0000      -0.407724       -11.0947
  37   2.0000      -0.397415       -10.8142
  38   2.0000      -0.374317       -10.1857
  39   2.0000      -0.365551        -9.9472
  40   2.0000      -0.361675        -9.8417
  41   2.0000      -0.354865        -9.6564
  42   2.0000      -0.349059        -9.4984
  43   2.0000      -0.325676        -8.8621
  44   2.0000      -0.319131        -8.6840
  45   2.0000      -0.308967        -8.4074
  46   2.0000      -0.306473        -8.3395
  47   2.0000      -0.273761        -7.4494
  48   2.0000      -0.258601        -7.0369
  49   2.0000      -0.257851        -7.0165
  50   2.0000      -0.232213        -6.3188
  51   0.0000       0.064839         1.7644
  52   0.0000       0.080409         2.1880
  53   0.0000       0.088193         2.3999
  54   0.0000       0.100373         2.7313
  55   0.0000       0.109873         2.9898

MULLIKEN ATOMIC CHARGES
-----------------------
   0 C :    0.278304
   1 C :   -0.252660
   2 C :   -0.301314
   3 C :   -0.004266
   4 O :   -0.516850
   5 H :    0.145313
   6 H :    0.144544
   7 H :    0.151931
   8 H :    0.145133
   9 H :    0.167171
  10 H :    0.152647
  11 H :    0.145802
  12 C :   -0.014043
  13 H :    0.149871
  14 H :    0.139365
  15 O :   -0.523417
  16 C :    0.096166
  17 C :    0.089408
  18 C :   -0.331651
  19 C :    0.001418
  20 O :   -0.522339
  21 H :    0.144483
  22 H :    0.157641
  23 O :   -0.622359
  24 H :    0.139553
  25 H :    0.183396
  26 H :    0.143709
  27 H :    0.138345
  28 H :    0.374695
Sum of atomic charges:   -0.0000000

LOEWDIN ATOMIC CHARGES
----------------------
   0 C :    0.170492
   1 C :   -0.221948
   2 C :   -0.216122
   3 C :   -0.025922
   4 O :   -0.323183
   5 H :    0.098165
   6 H :    0.113726
   7 H :    0.120807
   8 H :    0.116087
   9 H :    0.121737
  10 H :    0.108078
  11 H :    0.104352
  12 C :   -0.042250
  13 H :    0.106808
  14 H :    0.104738
  15 O :   -0.332917
  16 C :    0.017084
  17 C :    0.038314
  18 C :   -0.247321
  19 C :   -0.022932
  20 O :   -0.323742
  21 H :    0.112140
  22 H :    0.112499
  23 O :   -0.420123
  24 H :    0.112469
  25 H :    0.128811
  26 H :    0.104116
  27 H :    0.099215
  28 H :    0.286822

  Mayer bond orders larger than 0.100000
B(  0-C ,  1-C ) :   0.9392 B(  0-C ,  4-O ) :   0.9065 B(  0-C ,  5-H ) :   0.9144
B(  0-C , 15-O ) :   0.8457 B(  1-C ,  2-C ) :   0.9546 B(  1-C ,  6-H ) :   0.9347
B(  1-C ,  7-H ) :   0.9384 B(  2-C ,  3-C ) :   0.9557 B(  2-C ,  8-H ) :   0.9446
B(  2-C ,  9-H ) :   0.9425 B(  3-C ,  4-O ) :   0.8284 B(  3-C , 10-H ) :   0.9348
B(  3-C , 11-H ) :   0.9398 B( 12-C , 13-H ) :   0.9266 B( 12-C , 14-H ) :   0.9023
B( 12-C , 15-O ) :   0.8342 B( 12-C , 16-C ) :   0.9113 B( 16-C , 17-C ) :   0.8868
B( 16-C , 20-O ) :   0.8821 B( 16-C , 21-H ) :   0.9261 B( 17-C , 18-C ) :   0.9427
B( 17-C , 22-H ) :   0.9354 B( 17-C , 23-O ) :   0.8935 B( 18-C , 19-C ) :   0.9451
B( 18-C , 24-H ) :   0.9413 B( 18-C , 25-H ) :   0.9124 B( 19-C , 20-O ) :   0.8377
B( 19-C , 26-H ) :   0.9335 B( 19-C , 27-H ) :   0.9383 B( 23-O , 28-H ) :   0.7858

FINAL SINGLE POINT ENERGY      -652.863697039010

DIPOLE MOMENT
-------------
                                X             Y             Z
Electronic contribution:     -2.62190      -3.26643      -1.67653
Nuclear contribution   :      3.57376       4.06414       1.83454
                        -----------------------------------------
Total Dipole Moment    :      0.95186       0.79771       0.15800
                        -----------------------------------------
Magnitude (a.u.)       :      1.25194
Magnitude (Debye)      :      3.18217

Rotational constants in cm-1:     0.045195     0.016655     0.016361
Rotational constants in MHz :  1354.902962   499.317843   490.493752

                             ****ORCA TERMINATED NORMALLY****
TOTAL RUN TIME: 0 days 0 hours 23 minutes 54 seconds 764 msec
