                         Program Version 4.2.0 -  RELEASE  -
|  1> # Test redundant internal optimization
|  2> #
|  3> ! RKS B3LYP  Opt TightSCF SmallPrint
|  4>
|  5> %basis
|  6>         Basis "6-31G"
|  7> end
|  8>
|  9> %geom
| 10> Constraints
| 11> { D 4  0  15  12  135.0   C } # D for Dihedral angle
| 12> { D 0  15  12  16  105.0   C } # D for Dihedral angle
| 13> { D 0  4  3  2   C } # D for Dihedral angle
| 14> { D 4  3  2  1   C } # D for Dihedral angle
| 15> { D 3  2  1  0   C } # D for Dihedral angle
| 16> { D 2  1  0  4   C } # D for Dihedral angle
| 17> { D 1  0  4  3   C } # D for Dihedral angle
| 18> { D 16  20  19  18   C } # D for Dihedral angle
| 19> { D 20  19  18  17   C } # D for Dihedral angle
| 20> { D 19  18  17  16   C } # D for Dihedral angle
| 21> { D 18  17  16  20   C } # D for Dihedral angle
| 22> { D 17  16  20  19   C } # D for Dihedral angle
| 23> { D 15  12  16  20   C } # D for Dihedral angle
| 24> end
| 25> end
| 26>
| 27>
| 28> #%pal
| 29> #nprocs 8
| 30> #end
| 31>
| 32> * xyz 0 1
| 33> C  -21.048   26.222   46.251
| 34> C  -20.361   27.558   45.944
| 35> C  -20.329   28.222   47.341
| 36> C  -20.110   27.022   48.296
| 37> O  -20.473   25.807   47.535
| 38> H  -20.833   25.428   45.533
| 39> H  -19.344   27.382   45.576
| 40> H  -20.898   28.157   45.201
| 41> H  -19.543   28.978   47.434
| 42> H  -21.289   28.710   47.548
| 43> H  -20.733   27.082   49.195
| 44> H  -19.064   26.913   48.597
| 45> C  -23.162   27.680   45.721
| 46> H  -23.872   28.151   46.411
| 47> H  -22.358   28.398   45.513
| 48> O  -22.586   26.394   46.375
| 49> C  -23.898   27.394   44.382
| 50> C  -25.144   26.530   44.606
| 51> C  -26.162   27.575   45.122
| 52> C  -25.789   28.851   44.327
| 53> O  -24.420   28.639   43.809
| 54> H  -23.187   26.985   43.663
| 55> O  -25.618   25.921   43.259
| 56> H  -24.979   25.711   45.315
| 57> H  -27.201   27.271   44.960
| 58> H  -26.024   27.735   46.198
| 59> H  -25.802   29.752   44.949
| 60> H  -26.440   29.010   43.463
| 61> H  -25.791   26.723   42.532
| 62> *
| 63>
| 64>                          ****END OF INPUT****
 Total Charge           Charge          ....    0
 Multiplicity           Mult            ....    1
 Number of Electrons    NEL             ....  102
FINAL SINGLE POINT ENERGY      -652.822959177753
FINAL SINGLE POINT ENERGY      -652.846310076799
FINAL SINGLE POINT ENERGY      -652.853649085344
FINAL SINGLE POINT ENERGY      -652.855663630305
FINAL SINGLE POINT ENERGY      -652.855973074274
FINAL SINGLE POINT ENERGY      -652.856039860741
FINAL SINGLE POINT ENERGY      -652.856046069906
                    ***********************HURRAY********************

CARTESIAN COORDINATES (ANGSTROEM)
---------------------------------
  C    -21.157904   26.330400   46.212761
  C    -20.220649   27.505202   45.927613
  C    -20.141625   28.199581   47.312642
  C    -20.204024   27.006346   48.291938
  O    -20.747582   25.868764   47.511328
  H    -21.045178   25.478987   45.538915
  H    -19.244002   27.092672   45.651384
  H    -20.536352   28.169102   45.119559
  H    -19.227753   28.789329   47.430391
  H    -20.997141   28.869110   47.454635
  H    -20.855878   27.188277   49.150352
  H    -19.215911   26.700353   48.647260
  C    -23.185148   27.838940   45.719066
  H    -23.877572   28.218932   46.478900
  H    -22.456756   28.626755   45.508315
  O    -22.585211   26.638229   46.276505
  C    -23.931775   27.498203   44.427165
  C    -25.110754   26.530563   44.597479
  C    -26.222156   27.479791   45.109568
  C    -25.936289   28.803026   44.356356
  O    -24.535371   28.714389   43.867969
  H    -23.225287   27.120474   43.680935
  O    -25.465036   25.916832   43.326695
  H    -24.887017   25.706919   45.273325
  H    -27.211200   27.070326   44.888980
  H    -26.140302   27.611315   46.194037
  H    -26.034209   29.686952   44.993989
  H    -26.575277   28.934187   43.477739
  H    -25.484639   26.607043   42.630201

 Multiplicity           Mult            ....    1
 Number of Electrons    NEL             ....  102
 Basis Dimension        Dim             ....  149

ORBITAL ENERGIES
----------------

  NO   OCC          E(Eh)            E(eV)
   0   2.0000     -19.145975      -520.9885
   1   2.0000     -19.141924      -520.8782
   2   2.0000     -19.140111      -520.8289
   3   2.0000     -19.134433      -520.6744
   4   2.0000     -10.283158      -279.8190
   5   2.0000     -10.234493      -278.4947
   6   2.0000     -10.234174      -278.4860
   7   2.0000     -10.232783      -278.4482
   8   2.0000     -10.232252      -278.4337
   9   2.0000     -10.228116      -278.3212
  10   2.0000     -10.196058      -277.4488
  11   2.0000     -10.194895      -277.4172
  12   2.0000     -10.187407      -277.2134
  13   2.0000      -1.052154       -28.6306
  14   2.0000      -1.035828       -28.1863
  15   2.0000      -1.003900       -27.3175
  16   2.0000      -0.994017       -27.0486
  17   2.0000      -0.792679       -21.5699
  18   2.0000      -0.780629       -21.2420
  19   2.0000      -0.769295       -20.9336
  20   2.0000      -0.735183       -20.0054
  21   2.0000      -0.680511       -18.5176
  22   2.0000      -0.606304       -16.4984
  23   2.0000      -0.602867       -16.4048
  24   2.0000      -0.601250       -16.3608
  25   2.0000      -0.572383       -15.5753
  26   2.0000      -0.526724       -14.3329
  27   2.0000      -0.514505       -14.0004
  28   2.0000      -0.502663       -13.6782
  29   2.0000      -0.492808       -13.4100
  30   2.0000      -0.473854       -12.8942
  31   2.0000      -0.460455       -12.5296
  32   2.0000      -0.451800       -12.2941
  33   2.0000      -0.439084       -11.9481
  34   2.0000      -0.428008       -11.6467
  35   2.0000      -0.411963       -11.2101
  36   2.0000      -0.407075       -11.0771
  37   2.0000      -0.392061       -10.6685
  38   2.0000      -0.383920       -10.4470
  39   2.0000      -0.367113        -9.9897
  40   2.0000      -0.365343        -9.9415
  41   2.0000      -0.359359        -9.7787
  42   2.0000      -0.356948        -9.7131
  43   2.0000      -0.330610        -8.9964
  44   2.0000      -0.316597        -8.6150
  45   2.0000      -0.307438        -8.3658
  46   2.0000      -0.294323        -8.0089
  47   2.0000      -0.277436        -7.5494
  48   2.0000      -0.265499        -7.2246
  49   2.0000      -0.258165        -7.0250
  50   2.0000      -0.239087        -6.5059
  51   0.0000       0.063453         1.7266
  52   0.0000       0.070971         1.9312
  53   0.0000       0.093395         2.5414
  54   0.0000       0.095991         2.6121
  55   0.0000       0.103756         2.8234

MULLIKEN ATOMIC CHARGES
-----------------------
   0 C :    0.318557
   1 C :   -0.306623
   2 C :   -0.304709
   3 C :   -0.001263
   4 O :   -0.493729
   5 H :    0.158002
   6 H :    0.157844
   7 H :    0.151000
   8 H :    0.146906
   9 H :    0.153648
  10 H :    0.151151
  11 H :    0.144910
  12 C :   -0.019568
  13 H :    0.144459
  14 H :    0.144192
  15 O :   -0.530214
  16 C :    0.057684
  17 C :    0.092378
  18 C :   -0.304566
  19 C :   -0.032456
  20 O :   -0.528236
  21 H :    0.154980
  22 O :   -0.602811
  23 H :    0.181273
  24 H :    0.161360
  25 H :    0.152791
  26 H :    0.144664
  27 H :    0.148089
  28 H :    0.360289
Sum of atomic charges:    0.0000000

LOEWDIN ATOMIC CHARGES
----------------------
   0 C :    0.184000
   1 C :   -0.233987
   2 C :   -0.219081
   3 C :   -0.027729
   4 O :   -0.307777
   5 H :    0.105946
   6 H :    0.123367
   7 H :    0.116624
   8 H :    0.116889
   9 H :    0.111796
  10 H :    0.107507
  11 H :    0.104156
  12 C :   -0.042091
  13 H :    0.104722
  14 H :    0.104263
  15 O :   -0.335967
  16 C :    0.006999
  17 C :    0.038479
  18 C :   -0.242413
  19 C :   -0.038643
  20 O :   -0.334340
  21 H :    0.111813
  22 O :   -0.414615
  23 H :    0.130375
  24 H :    0.126543
  25 H :    0.116749
  26 H :    0.103248
  27 H :    0.103030
  28 H :    0.280138

  Mayer bond orders larger than 0.100000
B(  0-C ,  1-C ) :   0.9333 B(  0-C ,  4-O ) :   0.9281 B(  0-C ,  5-H ) :   0.9281
B(  0-C , 15-O ) :   0.8463 B(  1-C ,  2-C ) :   0.9489 B(  1-C ,  6-H ) :   0.9328
B(  1-C ,  7-H ) :   0.9263 B(  2-C ,  3-C ) :   0.9514 B(  2-C ,  8-H ) :   0.9454
B(  2-C ,  9-H ) :   0.9435 B(  3-C ,  4-O ) :   0.8415 B(  3-C , 10-H ) :   0.9344
B(  3-C , 11-H ) :   0.9395 B( 12-C , 13-H ) :   0.9338 B( 12-C , 14-H ) :   0.9066
B( 12-C , 15-O ) :   0.8409 B( 12-C , 16-C ) :   0.8815 B( 16-C , 17-C ) :   0.9131
B( 16-C , 20-O ) :   0.8407 B( 16-C , 21-H ) :   0.9285 B( 17-C , 18-C ) :   0.9134
B( 17-C , 22-O ) :   0.8883 B( 17-C , 23-H ) :   0.9223 B( 18-C , 19-C ) :   0.9410
B( 18-C , 24-H ) :   0.9380 B( 18-C , 25-H ) :   0.9332 B( 19-C , 20-O ) :   0.8434
B( 19-C , 26-H ) :   0.9360 B( 19-C , 27-H ) :   0.9379 B( 22-O , 28-H ) :   0.7973

FINAL SINGLE POINT ENERGY      -652.856047179745

DIPOLE MOMENT
-------------
                                X             Y             Z
Electronic contribution:     -1.31165      -4.11987      -2.26626
Nuclear contribution   :      1.67755       5.52373       2.45971
                        -----------------------------------------
Total Dipole Moment    :      0.36590       1.40386       0.19345
                        -----------------------------------------
Magnitude (a.u.)       :      1.46360
Magnitude (Debye)      :      3.72017

Rotational constants in cm-1:     0.060629     0.012127     0.011472
Rotational constants in MHz :  1817.609037   363.548779   343.931911

                             ****ORCA TERMINATED NORMALLY****
TOTAL RUN TIME: 0 days 0 hours 22 minutes 3 seconds 306 msec
