                         Program Version 4.2.0 -  RELEASE  -
|  1> # Test redundant internal optimization
|  2> #
|  3> ! RKS B3LYP  Opt TightSCF SmallPrint
|  4>
|  5> %basis
|  6>         Basis "6-31G"
|  7> end
|  8>
|  9> %geom
| 10> Constraints
| 11> { D 4  0  15  12  0.0   C } # D for Dihedral angle
| 12> { D 0  15  12  16  150.0   C } # D for Dihedral angle
| 13> { D 0  4  3  2   C } # D for Dihedral angle
| 14> { D 4  3  2  1   C } # D for Dihedral angle
| 15> { D 3  2  1  0   C } # D for Dihedral angle
| 16> { D 2  1  0  4   C } # D for Dihedral angle
| 17> { D 1  0  4  3   C } # D for Dihedral angle
| 18> { D 16  20  19  18   C } # D for Dihedral angle
| 19> { D 20  19  18  17   C } # D for Dihedral angle
| 20> { D 19  18  17  16   C } # D for Dihedral angle
| 21> { D 18  17  16  20   C } # D for Dihedral angle
| 22> { D 17  16  20  19   C } # D for Dihedral angle
| 23> { D 15  12  16  20   C } # D for Dihedral angle
| 24> end
| 25> end
| 26>
| 27>
| 28> #%pal
| 29> #nprocs 8
| 30> #end
| 31>
| 32> * xyz 0 1
| 33> C  -21.048   26.222   46.251
| 34> C  -20.361   27.558   45.944
| 35> C  -20.329   28.222   47.341
| 36> C  -20.110   27.022   48.296
| 37> O  -20.473   25.807   47.535
| 38> H  -20.833   25.428   45.533
| 39> H  -19.344   27.382   45.576
| 40> H  -20.898   28.157   45.201
| 41> H  -19.543   28.978   47.434
| 42> H  -21.289   28.710   47.548
| 43> H  -20.733   27.082   49.195
| 44> H  -19.064   26.913   48.597
| 45> C  -23.172   26.101   47.783
| 46> H  -23.432   25.037   47.853
| 47> H  -22.431   26.324   48.562
| 48> O  -22.586   26.394   46.375
| 49> C  -24.445   26.937   48.090
| 50> C  -24.928   26.708   49.526
| 51> C  -23.958   27.607   50.330
| 52> C  -23.730   28.812   49.384
| 53> O  -24.143   28.371   48.034
| 54> H  -25.197   26.738   47.323
| 55> H  -25.961   27.059   49.637
| 56> O  -24.868   25.218   49.961
| 57> H  -24.365   27.909   51.300
| 58> H  -23.016   27.075   50.512
| 59> H  -22.680   29.127   49.352
| 60> H  -24.351   29.673   49.646
| 61> H  -23.843   24.845   49.860
| 62> *
| 63>
| 64>                          ****END OF INPUT****
 Total Charge           Charge          ....    0
 Multiplicity           Mult            ....    1
 Number of Electrons    NEL             ....  102
FINAL SINGLE POINT ENERGY      -652.824838074509
FINAL SINGLE POINT ENERGY      -652.848695139152
FINAL SINGLE POINT ENERGY      -652.853789957600
FINAL SINGLE POINT ENERGY      -652.854801484554
FINAL SINGLE POINT ENERGY      -652.854953727040
FINAL SINGLE POINT ENERGY      -652.854996710271
FINAL SINGLE POINT ENERGY      -652.855000830011
                    ***********************HURRAY********************

CARTESIAN COORDINATES (ANGSTROEM)
---------------------------------
  C    -21.087728   26.248967   46.292539
  C    -20.507850   27.620194   45.944045
  C    -20.247013   28.216623   47.345776
  C    -19.826621   26.989062   48.182184
  O    -20.293918   25.797987   47.414946
  H    -20.970023   25.490962   45.514115
  H    -19.573943   27.487640   45.385054
  H    -21.204326   28.215104   45.350050
  H    -19.478328   28.995457   47.338489
  H    -21.177834   28.650619   47.724503
  H    -20.276296   26.966824   49.179929
  H    -18.741483   26.887838   48.278644
  C    -23.049939   26.028113   47.864828
  H    -23.341692   24.968562   47.895413
  H    -22.302394   26.191872   48.647447
  O    -22.512811   26.357134   46.560402
  C    -24.287014   26.895945   48.079025
  C    -24.977408   26.702061   49.440536
  C    -24.130943   27.632648   50.361630
  C    -23.772393   28.806717   49.425898
  O    -23.983631   28.326838   48.033788
  H    -24.971667   26.718361   47.245012
  H    -26.006306   27.062030   49.378707
  O    -25.100078   25.334283   49.896418
  H    -24.683351   27.947979   51.250559
  H    -23.232948   27.095592   50.695636
  H    -22.735296   29.139272   49.536614
  H    -24.432716   29.667022   49.568953
  H    -24.225051   24.974292   50.147863

 Multiplicity           Mult            ....    1
 Number of Electrons    NEL             ....  102
 Basis Dimension        Dim             ....  149

ORBITAL ENERGIES
----------------

  NO   OCC          E(Eh)            E(eV)
   0   2.0000     -19.150126      -521.1014
   1   2.0000     -19.150046      -521.0992
   2   2.0000     -19.140653      -520.8437
   3   2.0000     -19.133547      -520.6503
   4   2.0000     -10.276890      -279.6484
   5   2.0000     -10.246162      -278.8123
   6   2.0000     -10.233241      -278.4606
   7   2.0000     -10.233180      -278.4590
   8   2.0000     -10.229250      -278.3521
   9   2.0000     -10.228076      -278.3201
  10   2.0000     -10.197181      -277.4794
  11   2.0000     -10.186507      -277.1890
  12   2.0000     -10.180969      -277.0383
  13   2.0000      -1.053201       -28.6590
  14   2.0000      -1.034085       -28.1389
  15   2.0000      -1.016619       -27.6636
  16   2.0000      -0.989952       -26.9380
  17   2.0000      -0.788934       -21.4680
  18   2.0000      -0.783347       -21.3159
  19   2.0000      -0.769743       -20.9458
  20   2.0000      -0.733128       -19.9494
  21   2.0000      -0.679283       -18.4842
  22   2.0000      -0.612739       -16.6735
  23   2.0000      -0.602148       -16.3853
  24   2.0000      -0.591802       -16.1037
  25   2.0000      -0.572901       -15.5894
  26   2.0000      -0.529842       -14.4177
  27   2.0000      -0.512002       -13.9323
  28   2.0000      -0.499311       -13.5870
  29   2.0000      -0.492486       -13.4012
  30   2.0000      -0.471658       -12.8345
  31   2.0000      -0.458104       -12.4657
  32   2.0000      -0.447170       -12.1681
  33   2.0000      -0.436163       -11.8686
  34   2.0000      -0.428633       -11.6637
  35   2.0000      -0.415125       -11.2961
  36   2.0000      -0.404900       -11.0179
  37   2.0000      -0.398097       -10.8328
  38   2.0000      -0.381240       -10.3741
  39   2.0000      -0.368853       -10.0370
  40   2.0000      -0.359971        -9.7953
  41   2.0000      -0.355726        -9.6798
  42   2.0000      -0.345674        -9.4063
  43   2.0000      -0.337644        -9.1878
  44   2.0000      -0.325900        -8.8682
  45   2.0000      -0.314732        -8.5643
  46   2.0000      -0.304950        -8.2981
  47   2.0000      -0.271785        -7.3956
  48   2.0000      -0.263989        -7.1835
  49   2.0000      -0.250705        -6.8220
  50   2.0000      -0.238223        -6.4824
  51   0.0000       0.047415         1.2902
  52   0.0000       0.056302         1.5321
  53   0.0000       0.090239         2.4555
  54   0.0000       0.092133         2.5071
  55   0.0000       0.103612         2.8194

MULLIKEN ATOMIC CHARGES
-----------------------
   0 C :    0.300714
   1 C :   -0.252098
   2 C :   -0.322024
   3 C :   -0.024180
   4 O :   -0.513531
   5 H :    0.155263
   6 H :    0.140680
   7 H :    0.168944
   8 H :    0.144072
   9 H :    0.179910
  10 H :    0.134289
  11 H :    0.152296
  12 C :   -0.003105
  13 H :    0.135013
  14 H :    0.130493
  15 O :   -0.534645
  16 C :    0.096985
  17 C :    0.079516
  18 C :   -0.322551
  19 C :   -0.010802
  20 O :   -0.508240
  21 H :    0.167610
  22 H :    0.171306
  23 O :   -0.598072
  24 H :    0.158123
  25 H :    0.132356
  26 H :    0.132635
  27 H :    0.151511
  28 H :    0.357530
Sum of atomic charges:   -0.0000000

LOEWDIN ATOMIC CHARGES
----------------------
   0 C :    0.185370
   1 C :   -0.218631
   2 C :   -0.224129
   3 C :   -0.034907
   4 O :   -0.322471
   5 H :    0.103976
   6 H :    0.111467
   7 H :    0.130414
   8 H :    0.116144
   9 H :    0.124007
  10 H :    0.094972
  11 H :    0.107060
  12 C :   -0.043676
  13 H :    0.099374
  14 H :    0.094662
  15 O :   -0.331374
  16 C :    0.019599
  17 C :    0.034926
  18 C :   -0.242321
  19 C :   -0.031830
  20 O :   -0.317080
  21 H :    0.121060
  22 H :    0.120862
  23 O :   -0.405425
  24 H :    0.123322
  25 H :    0.103264
  26 H :    0.095975
  27 H :    0.106688
  28 H :    0.278699

  Mayer bond orders larger than 0.100000
B(  0-C ,  1-C ) :   0.9311 B(  0-C ,  4-O ) :   0.9084 B(  0-C ,  5-H ) :   0.9294
B(  0-C , 15-O ) :   0.8459 B(  1-C ,  2-C ) :   0.9531 B(  1-C ,  6-H ) :   0.9360
B(  1-C ,  7-H ) :   0.9341 B(  2-C ,  3-C ) :   0.9533 B(  2-C ,  8-H ) :   0.9443
B(  2-C ,  9-H ) :   0.9282 B(  3-C ,  4-O ) :   0.8322 B(  3-C , 10-H ) :   0.9305
B(  3-C , 11-H ) :   0.9402 B( 12-C , 13-H ) :   0.9104 B( 12-C , 14-H ) :   0.9114
B( 12-C , 15-O ) :   0.8410 B( 12-C , 16-C ) :   0.9009 B( 16-C , 17-C ) :   0.8752
B( 16-C , 20-O ) :   0.8615 B( 16-C , 21-H ) :   0.9278 B( 17-C , 18-C ) :   0.9216
B( 17-C , 22-H ) :   0.9323 B( 17-C , 23-O ) :   0.8994 B( 18-C , 19-C ) :   0.9393
B( 18-C , 24-H ) :   0.9420 B( 18-C , 25-H ) :   0.9409 B( 19-C , 20-O ) :   0.8538
B( 19-C , 26-H ) :   0.9277 B( 19-C , 27-H ) :   0.9380 B( 23-O , 28-H ) :   0.7970

FINAL SINGLE POINT ENERGY      -652.855001437849

DIPOLE MOMENT
-------------
                                X             Y             Z
Electronic contribution:     -3.24240      -3.84314      -2.70908
Nuclear contribution   :      4.07319       4.53057       3.62385
                        -----------------------------------------
Total Dipole Moment    :      0.83079       0.68742       0.91477
                        -----------------------------------------
Magnitude (a.u.)       :      1.41406
Magnitude (Debye)      :      3.59425

Rotational constants in cm-1:     0.045864     0.016382     0.015142
Rotational constants in MHz :  1374.978376   491.124841   453.936584

                             ****ORCA TERMINATED NORMALLY****
TOTAL RUN TIME: 0 days 0 hours 26 minutes 43 seconds 9 msec
