                         Program Version 4.2.0 -  RELEASE  -
|  1> # Test redundant internal optimization
|  2> #
|  3> ! RKS B3LYP  Opt TightSCF SmallPrint
|  4>
|  5> %basis
|  6>         Basis "6-31G"
|  7> end
|  8>
|  9> %geom
| 10> Constraints
| 11> { D 4  0  15  12  255.0   C } # D for Dihedral angle
| 12> { D 0  15  12  16  315.0   C } # D for Dihedral angle
| 13> { D 0  4  3  2   C } # D for Dihedral angle
| 14> { D 4  3  2  1   C } # D for Dihedral angle
| 15> { D 3  2  1  0   C } # D for Dihedral angle
| 16> { D 2  1  0  4   C } # D for Dihedral angle
| 17> { D 1  0  4  3   C } # D for Dihedral angle
| 18> { D 16  20  19  18   C } # D for Dihedral angle
| 19> { D 20  19  18  17   C } # D for Dihedral angle
| 20> { D 19  18  17  16   C } # D for Dihedral angle
| 21> { D 18  17  16  20   C } # D for Dihedral angle
| 22> { D 17  16  20  19   C } # D for Dihedral angle
| 23> { D 15  12  16  20   C } # D for Dihedral angle
| 24> end
| 25> end
| 26>
| 27>
| 28> #%pal
| 29> #nprocs 8
| 30> #end
| 31>
| 32> * xyz 0 1
| 33> C  -21.048   26.222   46.251
| 34> C  -20.361   27.558   45.944
| 35> C  -20.329   28.222   47.341
| 36> C  -20.110   27.022   48.296
| 37> O  -20.473   25.807   47.535
| 38> H  -20.833   25.428   45.533
| 39> H  -19.344   27.382   45.576
| 40> H  -20.898   28.157   45.201
| 41> H  -19.543   28.978   47.434
| 42> H  -21.289   28.710   47.548
| 43> H  -20.733   27.082   49.195
| 44> H  -19.064   26.913   48.597
| 45> C  -23.431   25.260   45.734
| 46> H  -23.397   24.373   46.379
| 47> H  -24.479   25.571   45.634
| 48> O  -22.586   26.394   46.375
| 49> C  -22.922   24.856   44.322
| 50> C  -23.845   23.819   43.673
| 51> C  -25.008   24.707   43.169
| 52> C  -24.295   26.016   42.750
| 53> O  -22.972   26.005   43.411
| 54> H  -21.877   24.549   44.393
| 55> O  -23.123   23.133   42.481
| 56> H  -24.176   23.041   44.370
| 57> H  -25.563   24.251   42.342
| 58> H  -25.717   24.897   43.983
| 59> H  -24.844   26.912   43.062
| 60> H  -24.116   26.068   41.672
| 61> H  -22.783   23.894   41.770
| 62> *
| 63>
| 64>                          ****END OF INPUT****
 Total Charge           Charge          ....    0
 Multiplicity           Mult            ....    1
 Number of Electrons    NEL             ....  102
FINAL SINGLE POINT ENERGY      -652.830111103015
FINAL SINGLE POINT ENERGY      -652.853643960038
FINAL SINGLE POINT ENERGY      -652.858320245841
FINAL SINGLE POINT ENERGY      -652.859171296931
FINAL SINGLE POINT ENERGY      -652.859302800179
FINAL SINGLE POINT ENERGY      -652.859316542405
                    ***********************HURRAY********************

CARTESIAN COORDINATES (ANGSTROEM)
---------------------------------
  C    -20.952503   26.197917   46.181269
  C    -20.394459   27.604617   45.963352
  C    -20.464922   28.198337   47.389559
  C    -20.154834   26.980633   48.289059
  O    -20.381321   25.781986   47.444504
  H    -20.647834   25.455949   45.443717
  H    -19.355383   27.534194   45.620316
  H    -20.977880   28.159376   45.226711
  H    -19.757158   29.018921   47.540937
  H    -21.475510   28.570694   47.581453
  H    -20.803263   26.920881   49.167056
  H    -19.109004   26.945100   48.609710
  C    -23.258418   25.303557   45.688834
  H    -23.288544   24.414789   46.338568
  H    -24.245958   25.771700   45.701619
  O    -22.390155   26.310429   46.278223
  C    -22.897026   24.849354   44.271948
  C    -23.903334   23.840684   43.697367
  C    -25.038320   24.776080   43.198298
  C    -24.266648   26.025601   42.701481
  O    -22.919431   25.962401   43.316871
  H    -21.889997   24.426664   44.236147
  O    -23.311339   23.080974   42.609760
  H    -24.241130   23.093738   44.416799
  H    -25.618202   24.290399   42.409506
  H    -25.716775   25.025834   44.020887
  H    -24.747689   26.963457   42.994739
  H    -24.125629   26.029739   41.615941
  H    -22.826334   23.692996   42.016370

 Multiplicity           Mult            ....    1
 Number of Electrons    NEL             ....  102
 Basis Dimension        Dim             ....  149

ORBITAL ENERGIES
----------------

  NO   OCC          E(Eh)            E(eV)
   0   2.0000     -19.147974      -521.0429
   1   2.0000     -19.144450      -520.9470
   2   2.0000     -19.137550      -520.7592
   3   2.0000     -19.130451      -520.5660
   4   2.0000     -10.272281      -279.5230
   5   2.0000     -10.249168      -278.8940
   6   2.0000     -10.240624      -278.6616
   7   2.0000     -10.236758      -278.5564
   8   2.0000     -10.234209      -278.4870
   9   2.0000     -10.217456      -278.0311
  10   2.0000     -10.195649      -277.4377
  11   2.0000     -10.177473      -276.9431
  12   2.0000     -10.175540      -276.8905
  13   2.0000      -1.047935       -28.5158
  14   2.0000      -1.039797       -28.2943
  15   2.0000      -1.011858       -27.5340
  16   2.0000      -0.987193       -26.8629
  17   2.0000      -0.791299       -21.5323
  18   2.0000      -0.778884       -21.1945
  19   2.0000      -0.768148       -20.9024
  20   2.0000      -0.730617       -19.8811
  21   2.0000      -0.674857       -18.3638
  22   2.0000      -0.610574       -16.6146
  23   2.0000      -0.609266       -16.5790
  24   2.0000      -0.590046       -16.0560
  25   2.0000      -0.568046       -15.4573
  26   2.0000      -0.532636       -14.4938
  27   2.0000      -0.513484       -13.9726
  28   2.0000      -0.492143       -13.3919
  29   2.0000      -0.486457       -13.2372
  30   2.0000      -0.474228       -12.9044
  31   2.0000      -0.456474       -12.4213
  32   2.0000      -0.452531       -12.3140
  33   2.0000      -0.437459       -11.9039
  34   2.0000      -0.429787       -11.6951
  35   2.0000      -0.409606       -11.1459
  36   2.0000      -0.400134       -10.8882
  37   2.0000      -0.394341       -10.7306
  38   2.0000      -0.378580       -10.3017
  39   2.0000      -0.369690       -10.0598
  40   2.0000      -0.360816        -9.8183
  41   2.0000      -0.349239        -9.5033
  42   2.0000      -0.344677        -9.3791
  43   2.0000      -0.336333        -9.1521
  44   2.0000      -0.316962        -8.6250
  45   2.0000      -0.310682        -8.4541
  46   2.0000      -0.299775        -8.1573
  47   2.0000      -0.277969        -7.5639
  48   2.0000      -0.265266        -7.2183
  49   2.0000      -0.247400        -6.7321
  50   2.0000      -0.239006        -6.5037
  51   0.0000       0.060294         1.6407
  52   0.0000       0.085011         2.3133
  53   0.0000       0.088939         2.4201
  54   0.0000       0.091830         2.4988
  55   0.0000       0.098879         2.6906

MULLIKEN ATOMIC CHARGES
-----------------------
   0 C :    0.282538
   1 C :   -0.250227
   2 C :   -0.299200
   3 C :   -0.000214
   4 O :   -0.510762
   5 H :    0.144127
   6 H :    0.138966
   7 H :    0.161986
   8 H :    0.137015
   9 H :    0.161349
  10 H :    0.146439
  11 H :    0.138046
  12 C :    0.019230
  13 H :    0.136270
  14 H :    0.147864
  15 O :   -0.519878
  16 C :    0.029071
  17 C :    0.081617
  18 C :   -0.302276
  19 C :   -0.028097
  20 O :   -0.519464
  21 H :    0.169404
  22 O :   -0.600455
  23 H :    0.157279
  24 H :    0.165322
  25 H :    0.149892
  26 H :    0.150401
  27 H :    0.149139
  28 H :    0.364620
Sum of atomic charges:   -0.0000000

LOEWDIN ATOMIC CHARGES
----------------------
   0 C :    0.175131
   1 C :   -0.215794
   2 C :   -0.216795
   3 C :   -0.027195
   4 O :   -0.326035
   5 H :    0.098953
   6 H :    0.110774
   7 H :    0.126328
   8 H :    0.111632
   9 H :    0.118721
  10 H :    0.104888
  11 H :    0.100250
  12 C :   -0.035884
  13 H :    0.099683
  14 H :    0.112503
  15 O :   -0.322488
  16 C :   -0.001023
  17 C :    0.038149
  18 C :   -0.241715
  19 C :   -0.037232
  20 O :   -0.330357
  21 H :    0.114682
  22 O :   -0.412292
  23 H :    0.118037
  24 H :    0.127802
  25 H :    0.115392
  26 H :    0.106756
  27 H :    0.103758
  28 H :    0.283370

  Mayer bond orders larger than 0.100000
B(  0-C ,  1-C ) :   0.9473 B(  0-C ,  4-O ) :   0.9122 B(  0-C ,  5-H ) :   0.9126
B(  0-C , 15-O ) :   0.8485 B(  1-C ,  2-C ) :   0.9572 B(  1-C ,  6-H ) :   0.9398
B(  1-C ,  7-H ) :   0.9349 B(  2-C ,  3-C ) :   0.9541 B(  2-C ,  8-H ) :   0.9457
B(  2-C ,  9-H ) :   0.9441 B(  3-C ,  4-O ) :   0.8414 B(  3-C , 10-H ) :   0.9356
B(  3-C , 11-H ) :   0.9403 B( 12-C , 13-H ) :   0.9092 B( 12-C , 14-H ) :   0.9375
B( 12-C , 15-O ) :   0.8606 B( 12-C , 16-C ) :   0.8886 B( 16-C , 17-C ) :   0.8938
B( 16-C , 20-O ) :   0.8555 B( 16-C , 21-H ) :   0.9141 B( 17-C , 18-C ) :   0.9122
B( 17-C , 22-O ) :   0.8931 B( 17-C , 23-H ) :   0.9317 B( 18-C , 19-C ) :   0.9405
B( 18-C , 24-H ) :   0.9372 B( 18-C , 25-H ) :   0.9329 B( 19-C , 20-O ) :   0.8457
B( 19-C , 26-H ) :   0.9346 B( 19-C , 27-H ) :   0.9371 B( 22-O , 28-H ) :   0.7943

FINAL SINGLE POINT ENERGY      -652.859317899246

DIPOLE MOMENT
-------------
                                X             Y             Z
Electronic contribution:      0.81588      -3.47358      -1.01464
Nuclear contribution   :     -1.38159       4.11083       0.67548
                        -----------------------------------------
Total Dipole Moment    :     -0.56571       0.63725      -0.33916
                        -----------------------------------------
Magnitude (a.u.)       :      0.91714
Magnitude (Debye)      :      2.33118

Rotational constants in cm-1:     0.066010     0.012011     0.011421
Rotational constants in MHz :  1978.923562   360.069596   342.382835

                             ****ORCA TERMINATED NORMALLY****
TOTAL RUN TIME: 0 days 0 hours 19 minutes 34 seconds 638 msec
