                         Program Version 4.2.1 -  RELEASE  -
|  1> # Test redundant internal optimization
|  2> #
|  3> ! RKS B3LYP  Opt TightSCF SmallPrint
|  4>
|  5> %basis
|  6>         Basis "6-31G"
|  7> end
|  8>
|  9> %geom
| 10> Constraints
| 11> { D 4  0  19  14  315.0   C } # D for Dihedral angle
| 12> { D 0  19  14  12  255.0   C } # D for Dihedral angle
| 13> { D 0  4  3  2   C } # D for Dihedral angle
| 14> { D 4  3  2  1   C } # D for Dihedral angle
| 15> { D 3  2  1  0   C } # D for Dihedral angle
| 16> { D 2  1  0  4   C } # D for Dihedral angle
| 17> { D 1  0  4  3   C } # D for Dihedral angle
| 18> { D 14  15  16  17   C } # D for Dihedral angle
| 19> { D 15  16  17  12   C } # D for Dihedral angle
| 20> { D 16  17  12  14   C } # D for Dihedral angle
| 21> { D 17  12  14  15   C } # D for Dihedral angle
| 22> { D 12  14  15  16   C } # D for Dihedral angle
| 23> end
| 24> end
| 25>
| 26>
| 27> #%pal
| 28> #nprocs 8
| 29> #end
| 30>
| 31> * xyz 0 1
| 32> C  -21.048   26.222   46.251
| 33> C  -20.361   27.558   45.944
| 34> C  -20.329   28.222   47.341
| 35> C  -20.110   27.022   48.296
| 36> O  -20.473   25.807   47.535
| 37> H  -20.833   25.428   45.533
| 38> H  -19.344   27.382   45.576
| 39> H  -20.898   28.157   45.201
| 40> H  -19.543   28.978   47.434
| 41> H  -21.289   28.710   47.548
| 42> H  -20.733   27.082   49.195
| 43> H  -19.064   26.913   48.597
| 44> C  -23.874   24.412   46.083
| 45> H  -24.612   23.776   46.597
| 46> C  -23.132   25.318   47.072
| 47> C  -22.098   24.340   47.678
| 48> C  -21.737   23.424   46.482
| 49> O  -22.818   23.587   45.485
| 50> H  -24.366   24.941   45.265
| 51> O  -22.472   26.381   46.366
| 52> H  -23.791   25.761   47.826
| 53> H  -21.222   24.850   48.092
| 54> H  -22.558   23.757   48.485
| 55> H  -21.668   22.368   46.767
| 56> H  -20.802   23.720   45.995
| 57> *
| 58>
| 59>                          ****END OF INPUT****
 Total Charge           Charge          ....    0
 Multiplicity           Mult            ....    1
 Number of Electrons    NEL             ....   86
FINAL SINGLE POINT ENERGY      -538.362979237072
FINAL SINGLE POINT ENERGY      -538.394154270224
FINAL SINGLE POINT ENERGY      -538.410924332545
FINAL SINGLE POINT ENERGY      -538.420820701825
FINAL SINGLE POINT ENERGY      -538.426442366569
FINAL SINGLE POINT ENERGY      -538.429397237231
FINAL SINGLE POINT ENERGY      -538.430563235066
FINAL SINGLE POINT ENERGY      -538.430897394363
FINAL SINGLE POINT ENERGY      -538.431049133424
FINAL SINGLE POINT ENERGY      -538.431135852626
FINAL SINGLE POINT ENERGY      -538.431182796170
FINAL SINGLE POINT ENERGY      -538.431198354224
FINAL SINGLE POINT ENERGY      -538.431201508858
                    ***********************HURRAY********************

CARTESIAN COORDINATES (ANGSTROEM)
---------------------------------
  C    -20.868702   26.320104   46.199646
  C    -20.470307   27.775979   45.949110
  C    -20.377920   28.329096   47.389708
  C    -19.835578   27.127854   48.196383
  O    -20.082830   25.926453   47.352144
  H    -20.596736   25.613487   45.409655
  H    -19.494842   27.800219   45.449989
  H    -21.203246   28.298394   45.331760
  H    -19.726477   29.204949   47.464832
  H    -21.376076   28.608136   47.738431
  H    -20.338948   26.994456   49.158164
  H    -18.754931   27.174976   48.359714
  C    -23.789829   24.438078   45.962610
  H    -24.685081   23.943066   46.369268
  C    -23.064489   25.234946   47.047446
  C    -22.296681   24.121388   47.788141
  C    -21.916123   23.135363   46.660982
  O    -22.806370   23.444854   45.515351
  H    -24.062576   25.050312   45.102745
  O    -22.300232   26.306959   46.391917
  H    -23.756015   25.764267   47.709975
  H    -21.430102   24.487352   48.332797
  H    -22.997154   23.652561   48.490564
  H    -22.058406   22.088317   46.950948
  H    -20.885351   23.274434   46.321723

 Multiplicity           Mult            ....    1
 Number of Electrons    NEL             ....   86
 Basis Dimension        Dim             ....  127

ORBITAL ENERGIES
----------------

  NO   OCC          E(Eh)            E(eV)
   0   2.0000     -19.146618      -521.0060
   1   2.0000     -19.136234      -520.7234
   2   2.0000     -19.125533      -520.4322
   3   2.0000     -10.278306      -279.6869
   4   2.0000     -10.237486      -278.5762
   5   2.0000     -10.229895      -278.3696
   6   2.0000     -10.215550      -277.9792
   7   2.0000     -10.214684      -277.9557
   8   2.0000     -10.186873      -277.1989
   9   2.0000     -10.184042      -277.1219
  10   2.0000     -10.177336      -276.9394
  11   2.0000      -1.050705       -28.5911
  12   2.0000      -1.009722       -27.4759
  13   2.0000      -0.985678       -26.8217
  14   2.0000      -0.793122       -21.5819
  15   2.0000      -0.773639       -21.0518
  16   2.0000      -0.741098       -20.1663
  17   2.0000      -0.717234       -19.5169
  18   2.0000      -0.615401       -16.7459
  19   2.0000      -0.599752       -16.3201
  20   2.0000      -0.593130       -16.1399
  21   2.0000      -0.562100       -15.2955
  22   2.0000      -0.518529       -14.1099
  23   2.0000      -0.493899       -13.4397
  24   2.0000      -0.485712       -13.2169
  25   2.0000      -0.480568       -13.0769
  26   2.0000      -0.450669       -12.2633
  27   2.0000      -0.444676       -12.1003
  28   2.0000      -0.414579       -11.2813
  29   2.0000      -0.410200       -11.1621
  30   2.0000      -0.405083       -11.0229
  31   2.0000      -0.388694       -10.5769
  32   2.0000      -0.369997       -10.0681
  33   2.0000      -0.363874        -9.9015
  34   2.0000      -0.358231        -9.7480
  35   2.0000      -0.354464        -9.6454
  36   2.0000      -0.344154        -9.3649
  37   2.0000      -0.325912        -8.8685
  38   2.0000      -0.302375        -8.2280
  39   2.0000      -0.291494        -7.9319
  40   2.0000      -0.260075        -7.0770
  41   2.0000      -0.253925        -6.9097
  42   2.0000      -0.230816        -6.2808
  43   0.0000       0.077623         2.1122
  44   0.0000       0.097163         2.6439
  45   0.0000       0.104056         2.8315
  46   0.0000       0.110362         3.0031
  47   0.0000       0.116919         3.1815

MULLIKEN ATOMIC CHARGES
-----------------------
   0 C :    0.306059
   1 C :   -0.259539
   2 C :   -0.298591
   3 C :   -0.013635
   4 O :   -0.518762
   5 H :    0.159852
   6 H :    0.145031
   7 H :    0.162162
   8 H :    0.142043
   9 H :    0.159648
  10 H :    0.142191
  11 H :    0.149213
  12 C :   -0.000318
  13 H :    0.119132
  14 C :    0.088932
  15 C :   -0.317785
  16 C :   -0.014483
  17 O :   -0.527500
  18 H :    0.163784
  19 O :   -0.546860
  20 H :    0.139398
  21 H :    0.192511
  22 H :    0.136229
  23 H :    0.135674
  24 H :    0.155614
Sum of atomic charges:    0.0000000

LOEWDIN ATOMIC CHARGES
----------------------
   0 C :    0.181538
   1 C :   -0.213371
   2 C :   -0.216053
   3 C :   -0.031656
   4 O :   -0.327668
   5 H :    0.101569
   6 H :    0.113772
   7 H :    0.127133
   8 H :    0.114406
   9 H :    0.117978
  10 H :    0.101970
  11 H :    0.105486
  12 C :   -0.042424
  13 H :    0.088212
  14 C :    0.046626
  15 C :   -0.243102
  16 C :   -0.033353
  17 O :   -0.337699
  18 H :    0.119576
  19 O :   -0.336785
  20 H :    0.106259
  21 H :    0.140691
  22 H :    0.112207
  23 H :    0.098764
  24 H :    0.105925

  Mayer bond orders larger than 0.100000
B(  0-C ,  1-C ) :   0.9424 B(  0-C ,  4-O ) :   0.8839 B(  0-C ,  5-H ) :   0.9176
B(  0-C , 19-O ) :   0.8543 B(  1-C ,  2-C ) :   0.9558 B(  1-C ,  6-H ) :   0.9392
B(  1-C ,  7-H ) :   0.9360 B(  2-C ,  3-C ) :   0.9572 B(  2-C ,  8-H ) :   0.9450
B(  2-C ,  9-H ) :   0.9444 B(  3-C ,  4-O ) :   0.8314 B(  3-C , 10-H ) :   0.9351
B(  3-C , 11-H ) :   0.9399 B( 12-C , 13-H ) :   0.9129 B( 12-C , 14-C ) :   0.9181
B( 12-C , 17-O ) :   0.8681 B( 12-C , 18-H ) :   0.9328 B( 14-C , 15-C ) :   0.9451
B( 14-C , 19-O ) :   0.8393 B( 14-C , 20-H ) :   0.9335 B( 15-C , 16-C ) :   0.9470
B( 15-C , 21-H ) :   0.9105 B( 15-C , 22-H ) :   0.9336 B( 16-C , 17-O ) :   0.8524
B( 16-C , 23-H ) :   0.9347 B( 16-C , 24-H ) :   0.9314

FINAL SINGLE POINT ENERGY      -538.431202203950

DIPOLE MOMENT
-------------
                                X             Y             Z
Electronic contribution:     -1.04017      -2.04860      -2.36799
Nuclear contribution   :      1.21610       2.83130       3.26338
                        -----------------------------------------
Total Dipole Moment    :      0.17594       0.78270       0.89540
                        -----------------------------------------
Magnitude (a.u.)       :      1.20221
Magnitude (Debye)      :      3.05578

Rotational constants in cm-1:     0.078995     0.023846     0.021954
Rotational constants in MHz :  2368.210039   714.879706   658.154017

                             ****ORCA TERMINATED NORMALLY****
TOTAL RUN TIME: 0 days 0 hours 16 minutes 57 seconds 82 msec
