                         Program Version 4.2.0 -  RELEASE  -
|  1> # Test redundant internal optimization
|  2> #
|  3> ! RKS B3LYP  Opt TightSCF SmallPrint
|  4>
|  5> %basis
|  6>         Basis "6-31G"
|  7> end
|  8>
|  9> %geom
| 10> Constraints
| 11> { D 4  0  15  12  30.0   C } # D for Dihedral angle
| 12> { D 0  15  12  16  195.0   C } # D for Dihedral angle
| 13> { D 0  4  3  2   C } # D for Dihedral angle
| 14> { D 4  3  2  1   C } # D for Dihedral angle
| 15> { D 3  2  1  0   C } # D for Dihedral angle
| 16> { D 2  1  0  4   C } # D for Dihedral angle
| 17> { D 1  0  4  3   C } # D for Dihedral angle
| 18> { D 16  20  19  18   C } # D for Dihedral angle
| 19> { D 20  19  18  17   C } # D for Dihedral angle
| 20> { D 19  18  17  16   C } # D for Dihedral angle
| 21> { D 18  17  16  20   C } # D for Dihedral angle
| 22> { D 17  16  20  19   C } # D for Dihedral angle
| 23> { D 15  12  16  20   C } # D for Dihedral angle
| 24> end
| 25> end
| 26>
| 27>
| 28> #%pal
| 29> #nprocs 8
| 30> #end
| 31>
| 32> * xyz 0 1
| 33> C  -21.048   26.222   46.251
| 34> C  -20.361   27.558   45.944
| 35> C  -20.329   28.222   47.341
| 36> C  -20.110   27.022   48.296
| 37> O  -20.473   25.807   47.535
| 38> H  -20.833   25.428   45.533
| 39> H  -19.344   27.382   45.576
| 40> H  -20.898   28.157   45.201
| 41> H  -19.543   28.978   47.434
| 42> H  -21.289   28.710   47.548
| 43> H  -20.733   27.082   49.195
| 44> H  -19.064   26.913   48.597
| 45> C  -23.091   26.824   47.779
| 46> H  -22.576   26.232   48.546
| 47> H  -22.871   27.884   47.959
| 48> O  -22.586   26.394   46.375
| 49> C  -24.622   26.623   47.954
| 50> C  -25.000   25.139   47.888
| 51> C  -24.618   24.655   49.307
| 52> C  -24.955   25.877   50.198
| 53> O  -25.044   27.044   49.295
| 54> H  -25.150   27.257   47.239
| 55> H  -26.078   25.033   47.720
| 56> O  -24.252   24.368   46.766
| 57> H  -25.164   23.755   49.609
| 58> H  -23.547   24.427   49.351
| 59> H  -24.187   26.067   50.955
| 60> H  -25.924   25.778   50.694
| 61> H  -23.170   24.461   46.915
| 62> *
| 63>
| 64>                          ****END OF INPUT****
 Total Charge           Charge          ....    0
 Multiplicity           Mult            ....    1
 Number of Electrons    NEL             ....  102
FINAL SINGLE POINT ENERGY      -652.823945417979
FINAL SINGLE POINT ENERGY      -652.849614157516
FINAL SINGLE POINT ENERGY      -652.857313078032
FINAL SINGLE POINT ENERGY      -652.860489656970
FINAL SINGLE POINT ENERGY      -652.861937730506
FINAL SINGLE POINT ENERGY      -652.862937840662
FINAL SINGLE POINT ENERGY      -652.863398121422
FINAL SINGLE POINT ENERGY      -652.863511043062
FINAL SINGLE POINT ENERGY      -652.863535624784
                    ***********************HURRAY********************

CARTESIAN COORDINATES (ANGSTROEM)
---------------------------------
  C    -21.108929   26.263726   46.436304
  C    -20.416044   27.535196   45.938111
  C    -20.149281   28.295529   47.264101
  C    -19.847598   27.154752   48.262196
  O    -20.384491   25.914215   47.630655
  H    -21.021054   25.418465   45.752420
  H    -19.475957   27.256347   45.449524
  H    -21.033223   28.094943   45.231891
  H    -19.311885   28.995338   47.181911
  H    -21.031469   28.869169   47.563411
  H    -20.324972   27.288048   49.236464
  H    -18.776582   26.988288   48.404607
  C    -23.086313   26.838811   47.922443
  H    -22.564977   26.305706   48.722712
  H    -22.949791   27.916553   48.057032
  O    -22.554212   26.399826   46.623294
  C    -24.588044   26.528918   47.944123
  C    -24.961679   25.038913   47.863485
  C    -24.699935   24.569054   49.324143
  C    -25.108102   25.795488   50.165237
  O    -25.119668   26.964245   49.234838
  H    -25.092872   27.119412   47.174936
  H    -26.034016   24.963722   47.648038
  O    -24.264507   24.267076   46.869018
  H    -25.277450   23.674526   49.571138
  H    -23.638199   24.323608   49.433936
  H    -24.416122   26.008712   50.985980
  H    -26.120567   25.712312   50.570197
  H    -23.502061   24.798103   46.538854

 Multiplicity           Mult            ....    1
 Number of Electrons    NEL             ....  102
 Basis Dimension        Dim             ....  149

ORBITAL ENERGIES
----------------

  NO   OCC          E(Eh)            E(eV)
   0   2.0000     -19.163731      -521.4716
   1   2.0000     -19.161439      -521.4093
   2   2.0000     -19.139180      -520.8036
   3   2.0000     -19.109946      -520.0081
   4   2.0000     -10.293407      -280.0979
   5   2.0000     -10.242282      -278.7067
   6   2.0000     -10.236589      -278.5517
   7   2.0000     -10.232762      -278.4476
   8   2.0000     -10.227632      -278.3080
   9   2.0000     -10.225042      -278.2375
  10   2.0000     -10.201968      -277.6097
  11   2.0000     -10.197815      -277.4966
  12   2.0000     -10.176005      -276.9032
  13   2.0000      -1.068491       -29.0751
  14   2.0000      -1.024995       -27.8915
  15   2.0000      -1.008540       -27.4438
  16   2.0000      -0.990335       -26.9484
  17   2.0000      -0.800350       -21.7786
  18   2.0000      -0.777420       -21.1547
  19   2.0000      -0.766443       -20.8560
  20   2.0000      -0.738482       -20.0951
  21   2.0000      -0.679496       -18.4900
  22   2.0000      -0.614709       -16.7271
  23   2.0000      -0.601755       -16.3746
  24   2.0000      -0.593953       -16.1623
  25   2.0000      -0.576368       -15.6838
  26   2.0000      -0.528373       -14.3778
  27   2.0000      -0.518329       -14.1044
  28   2.0000      -0.509878       -13.8745
  29   2.0000      -0.486666       -13.2428
  30   2.0000      -0.475414       -12.9367
  31   2.0000      -0.464283       -12.6338
  32   2.0000      -0.443296       -12.0627
  33   2.0000      -0.432506       -11.7691
  34   2.0000      -0.426111       -11.5951
  35   2.0000      -0.419876       -11.4254
  36   2.0000      -0.409881       -11.1534
  37   2.0000      -0.389281       -10.5929
  38   2.0000      -0.386035       -10.5046
  39   2.0000      -0.371427       -10.1070
  40   2.0000      -0.367887       -10.0107
  41   2.0000      -0.359282        -9.7766
  42   2.0000      -0.351890        -9.5754
  43   2.0000      -0.337321        -9.1790
  44   2.0000      -0.335040        -9.1169
  45   2.0000      -0.321424        -8.7464
  46   2.0000      -0.292594        -7.9619
  47   2.0000      -0.276961        -7.5365
  48   2.0000      -0.265095        -7.2136
  49   2.0000      -0.247594        -6.7374
  50   2.0000      -0.239607        -6.5200
  51   0.0000       0.057293         1.5590
  52   0.0000       0.070786         1.9262
  53   0.0000       0.086362         2.3500
  54   0.0000       0.098264         2.6739
  55   0.0000       0.101606         2.7648

MULLIKEN ATOMIC CHARGES
-----------------------
   0 C :    0.299311
   1 C :   -0.259505
   2 C :   -0.319258
   3 C :   -0.018941
   4 O :   -0.506352
   5 H :    0.169263
   6 H :    0.154352
   7 H :    0.161393
   8 H :    0.153050
   9 H :    0.158516
  10 H :    0.149394
  11 H :    0.157541
  12 C :   -0.023919
  13 H :    0.162745
  14 H :    0.150894
  15 O :   -0.561141
  16 C :    0.047622
  17 C :    0.121471
  18 C :   -0.303805
  19 C :   -0.020269
  20 O :   -0.523066
  21 H :    0.161053
  22 H :    0.145848
  23 O :   -0.639136
  24 H :    0.150262
  25 H :    0.150991
  26 H :    0.140477
  27 H :    0.148742
  28 H :    0.392468
Sum of atomic charges:   -0.0000000

LOEWDIN ATOMIC CHARGES
----------------------
   0 C :    0.178856
   1 C :   -0.222279
   2 C :   -0.222160
   3 C :   -0.032767
   4 O :   -0.314724
   5 H :    0.113778
   6 H :    0.119997
   7 H :    0.125693
   8 H :    0.120096
   9 H :    0.114078
  10 H :    0.105218
  11 H :    0.110505
  12 C :   -0.049788
  13 H :    0.109725
  14 H :    0.104044
  15 O :   -0.340499
  16 C :    0.019628
  17 C :    0.042873
  18 C :   -0.237418
  19 C :   -0.032430
  20 O :   -0.325361
  21 H :    0.115603
  22 H :    0.104213
  23 O :   -0.433946
  24 H :    0.120942
  25 H :    0.114085
  26 H :    0.100742
  27 H :    0.105873
  28 H :    0.285425

  Mayer bond orders larger than 0.100000
B(  0-C ,  1-C ) :   0.9257 B(  0-C ,  4-O ) :   0.9234 B(  0-C ,  5-H ) :   0.9331
B(  0-C , 15-O ) :   0.8246 B(  1-C ,  2-C ) :   0.9535 B(  1-C ,  6-H ) :   0.9341
B(  1-C ,  7-H ) :   0.9358 B(  2-C ,  3-C ) :   0.9500 B(  2-C ,  8-H ) :   0.9438
B(  2-C ,  9-H ) :   0.9404 B(  3-C ,  4-O ) :   0.8272 B(  3-C , 10-H ) :   0.9325
B(  3-C , 11-H ) :   0.9396 B( 12-C , 13-H ) :   0.9113 B( 12-C , 14-H ) :   0.9157
B( 12-C , 15-O ) :   0.7864 B( 12-C , 16-C ) :   0.9084 B( 16-C , 17-C ) :   0.9162
B( 16-C , 20-O ) :   0.8568 B( 16-C , 21-H ) :   0.9285 B( 17-C , 18-C ) :   0.8996
B( 17-C , 22-H ) :   0.9298 B( 17-C , 23-O ) :   0.9356 B( 18-C , 19-C ) :   0.9394
B( 18-C , 24-H ) :   0.9450 B( 18-C , 25-H ) :   0.9425 B( 19-C , 20-O ) :   0.8303
B( 19-C , 26-H ) :   0.9347 B( 19-C , 27-H ) :   0.9386 B( 23-O , 28-H ) :   0.7228

FINAL SINGLE POINT ENERGY      -652.863538128292

DIPOLE MOMENT
-------------
                                X             Y             Z
Electronic contribution:     -2.69600      -2.29253      -2.23147
Nuclear contribution   :      3.86107       3.34046       2.51644
                        -----------------------------------------
Total Dipole Moment    :      1.16507       1.04793       0.28497
                        -----------------------------------------
Magnitude (a.u.)       :      1.59272
Magnitude (Debye)      :      4.04837

Rotational constants in cm-1:     0.049862     0.015090     0.013889
Rotational constants in MHz :  1494.834920   452.378291   416.380288

                             ****ORCA TERMINATED NORMALLY****
TOTAL RUN TIME: 0 days 0 hours 47 minutes 59 seconds 442 msec
