                         Program Version 4.2.0 -  RELEASE  -
|  1> # Test redundant internal optimization
|  2> #
|  3> ! RKS B3LYP  Opt TightSCF SmallPrint
|  4>
|  5> %basis
|  6>         Basis "6-31G"
|  7> end
|  8>
|  9> %geom
| 10> Constraints
| 11> { D 4  0  15  12  105.0   C } # D for Dihedral angle
| 12> { D 0  15  12  16  240.0   C } # D for Dihedral angle
| 13> { D 0  4  3  2   C } # D for Dihedral angle
| 14> { D 4  3  2  1   C } # D for Dihedral angle
| 15> { D 3  2  1  0   C } # D for Dihedral angle
| 16> { D 2  1  0  4   C } # D for Dihedral angle
| 17> { D 1  0  4  3   C } # D for Dihedral angle
| 18> { D 16  20  19  18   C } # D for Dihedral angle
| 19> { D 20  19  18  17   C } # D for Dihedral angle
| 20> { D 19  18  17  16   C } # D for Dihedral angle
| 21> { D 18  17  16  20   C } # D for Dihedral angle
| 22> { D 17  16  20  19   C } # D for Dihedral angle
| 23> { D 15  12  16  20   C } # D for Dihedral angle
| 24> end
| 25> end
| 26>
| 27>
| 28> #%pal
| 29> #nprocs 8
| 30> #end
| 31>
| 32> * xyz 0 1
| 33> C  -21.048   26.222   46.251
| 34> C  -20.361   27.558   45.944
| 35> C  -20.329   28.222   47.341
| 36> C  -20.110   27.022   48.296
| 37> O  -20.473   25.807   47.535
| 38> H  -20.833   25.428   45.533
| 39> H  -19.344   27.382   45.576
| 40> H  -20.898   28.157   45.201
| 41> H  -19.543   28.978   47.434
| 42> H  -21.289   28.710   47.548
| 43> H  -20.733   27.082   49.195
| 44> H  -19.064   26.913   48.597
| 45> C  -23.085   27.864   46.420
| 46> H  -22.224   28.541   46.345
| 47> H  -23.756   28.068   45.576
| 48> O  -22.586   26.394   46.375
| 49> C  -23.854   28.198   47.728
| 50> C  -24.430   29.617   47.689
| 51> C  -25.691   29.420   46.814
| 52> C  -26.178   28.005   47.214
| 53> O  -25.032   27.334   47.864
| 54> H  -23.208   27.995   48.585
| 55> O  -24.822   30.074   49.121
| 56> H  -23.734   30.352   47.270
| 57> H  -26.452   30.188   46.988
| 58> H  -25.421   29.450   45.752
| 59> H  -26.498   27.412   46.350
| 60> H  -26.992   28.034   47.945
| 61> H  -25.519   29.352   49.560
| 62> *
| 63>
| 64>                          ****END OF INPUT****
 Total Charge           Charge          ....    0
 Multiplicity           Mult            ....    1
 Number of Electrons    NEL             ....  102
FINAL SINGLE POINT ENERGY      -652.806898116287
FINAL SINGLE POINT ENERGY      -652.833811349056
FINAL SINGLE POINT ENERGY      -652.846261822870
FINAL SINGLE POINT ENERGY      -652.848685002717
FINAL SINGLE POINT ENERGY      -652.849099478019
FINAL SINGLE POINT ENERGY      -652.849140389848
FINAL SINGLE POINT ENERGY      -652.849144508756
                    ***********************HURRAY********************

CARTESIAN COORDINATES (ANGSTROEM)
---------------------------------
  C    -21.168771   26.356938   46.358479
  C    -20.191092   27.468193   45.951224
  C    -19.943880   28.199295   47.304717
  C    -19.987453   27.030836   48.322770
  O    -20.663448   25.909036   47.635259
  H    -21.124565   25.476635   45.715698
  H    -19.267077   26.998485   45.600073
  H    -20.564219   28.121129   45.157194
  H    -18.981970   28.720985   47.321559
  H    -20.722447   28.938141   47.514905
  H    -20.539378   27.277937   49.234638
  H    -18.988069   26.680689   48.596657
  C    -23.130555   28.008817   46.393896
  H    -22.355520   28.779681   46.323621
  H    -23.764960   28.089217   45.502321
  O    -22.582341   26.665134   46.389625
  C    -23.966478   28.237359   47.655668
  C    -24.628700   29.620558   47.717530
  C    -25.895885   29.404630   46.846907
  C    -26.287830   27.939293   47.162441
  O    -25.086963   27.300090   47.751598
  H    -23.340874   28.055703   48.535249
  O    -24.967842   29.970885   49.087433
  H    -23.995983   30.435744   47.361965
  H    -26.673416   30.124906   47.113551
  H    -25.654064   29.534516   45.785753
  H    -26.588194   27.379535   46.271800
  H    -27.088947   27.868880   47.905337
  H    -25.356078   29.185756   49.529133

 Multiplicity           Mult            ....    1
 Number of Electrons    NEL             ....  102
 Basis Dimension        Dim             ....  149

ORBITAL ENERGIES
----------------

  NO   OCC          E(Eh)            E(eV)
   0   2.0000     -19.140912      -520.8507
   1   2.0000     -19.139757      -520.8193
   2   2.0000     -19.138787      -520.7929
   3   2.0000     -19.137058      -520.7458
   4   2.0000     -10.278918      -279.7036
   5   2.0000     -10.245329      -278.7896
   6   2.0000     -10.236458      -278.5482
   7   2.0000     -10.234501      -278.4949
   8   2.0000     -10.229972      -278.3717
   9   2.0000     -10.227769      -278.3117
  10   2.0000     -10.196575      -277.4629
  11   2.0000     -10.196274      -277.4547
  12   2.0000     -10.191749      -277.3316
  13   2.0000      -1.049023       -28.5454
  14   2.0000      -1.036656       -28.2089
  15   2.0000      -1.007296       -27.4099
  16   2.0000      -0.992965       -27.0199
  17   2.0000      -0.791027       -21.5249
  18   2.0000      -0.787344       -21.4247
  19   2.0000      -0.770915       -20.9777
  20   2.0000      -0.734327       -19.9821
  21   2.0000      -0.681452       -18.5433
  22   2.0000      -0.608846       -16.5675
  23   2.0000      -0.605369       -16.4729
  24   2.0000      -0.599787       -16.3210
  25   2.0000      -0.574778       -15.6405
  26   2.0000      -0.522314       -14.2129
  27   2.0000      -0.520122       -14.1532
  28   2.0000      -0.502881       -13.6841
  29   2.0000      -0.493487       -13.4285
  30   2.0000      -0.473363       -12.8809
  31   2.0000      -0.460339       -12.5265
  32   2.0000      -0.449295       -12.2259
  33   2.0000      -0.442714       -12.0469
  34   2.0000      -0.429920       -11.6987
  35   2.0000      -0.418750       -11.3948
  36   2.0000      -0.400883       -10.9086
  37   2.0000      -0.394725       -10.7410
  38   2.0000      -0.383901       -10.4465
  39   2.0000      -0.373963       -10.1760
  40   2.0000      -0.365986        -9.9590
  41   2.0000      -0.362117        -9.8537
  42   2.0000      -0.351725        -9.5709
  43   2.0000      -0.334482        -9.1017
  44   2.0000      -0.314276        -8.5519
  45   2.0000      -0.307974        -8.3804
  46   2.0000      -0.290302        -7.8995
  47   2.0000      -0.273039        -7.4298
  48   2.0000      -0.270413        -7.3583
  49   2.0000      -0.252685        -6.8759
  50   2.0000      -0.237580        -6.4649
  51   0.0000       0.061723         1.6796
  52   0.0000       0.073206         1.9920
  53   0.0000       0.081684         2.2227
  54   0.0000       0.092495         2.5169
  55   0.0000       0.095498         2.5986

MULLIKEN ATOMIC CHARGES
-----------------------
   0 C :    0.312126
   1 C :   -0.303300
   2 C :   -0.314702
   3 C :   -0.006770
   4 O :   -0.493854
   5 H :    0.164326
   6 H :    0.160326
   7 H :    0.147119
   8 H :    0.147674
   9 H :    0.150665
  10 H :    0.147717
  11 H :    0.146736
  12 C :   -0.008648
  13 H :    0.122879
  14 H :    0.141354
  15 O :   -0.511224
  16 C :    0.075080
  17 C :    0.075528
  18 C :   -0.298313
  19 C :   -0.033351
  20 O :   -0.503317
  21 H :    0.164659
  22 O :   -0.602613
  23 H :    0.145396
  24 H :    0.164898
  25 H :    0.142163
  26 H :    0.152938
  27 H :    0.147439
  28 H :    0.367066
Sum of atomic charges:   -0.0000000

LOEWDIN ATOMIC CHARGES
----------------------
   0 C :    0.179208
   1 C :   -0.233652
   2 C :   -0.224057
   3 C :   -0.032225
   4 O :   -0.315290
   5 H :    0.110771
   6 H :    0.125339
   7 H :    0.115110
   8 H :    0.116948
   9 H :    0.107397
  10 H :    0.103954
  11 H :    0.104629
  12 C :   -0.042044
  13 H :    0.096716
  14 H :    0.102966
  15 O :   -0.312958
  16 C :    0.012954
  17 C :    0.033077
  18 C :   -0.241921
  19 C :   -0.039709
  20 O :   -0.316051
  21 H :    0.117466
  22 O :   -0.414900
  23 H :    0.111833
  24 H :    0.127442
  25 H :    0.111767
  26 H :    0.107437
  27 H :    0.103059
  28 H :    0.284735

  Mayer bond orders larger than 0.100000
B(  0-C ,  1-C ) :   0.9264 B(  0-C ,  4-O ) :   0.9063 B(  0-C ,  5-H ) :   0.9341
B(  0-C , 15-O ) :   0.8938 B(  1-C ,  2-C ) :   0.9514 B(  1-C ,  6-H ) :   0.9339
B(  1-C ,  7-H ) :   0.9315 B(  2-C ,  3-C ) :   0.9456 B(  2-C ,  8-H ) :   0.9457
B(  2-C ,  9-H ) :   0.9387 B(  3-C ,  4-O ) :   0.8509 B(  3-C , 10-H ) :   0.9324
B(  3-C , 11-H ) :   0.9389 B( 12-C , 13-H ) :   0.9003 B( 12-C , 14-H ) :   0.9308
B( 12-C , 15-O ) :   0.8522 B( 12-C , 16-C ) :   0.8856 B( 16-C , 17-C ) :   0.8944
B( 16-C , 20-O ) :   0.8693 B( 16-C , 21-H ) :   0.9247 B( 17-C , 18-C ) :   0.9121
B( 17-C , 22-O ) :   0.8929 B( 17-C , 23-H ) :   0.9339 B( 18-C , 19-C ) :   0.9397
B( 18-C , 24-H ) :   0.9365 B( 18-C , 25-H ) :   0.9339 B( 19-C , 20-O ) :   0.8527
B( 19-C , 26-H ) :   0.9330 B( 19-C , 27-H ) :   0.9371 B( 22-O , 28-H ) :   0.7926

FINAL SINGLE POINT ENERGY      -652.849130881296

DIPOLE MOMENT
-------------
                                X             Y             Z
Electronic contribution:     -2.07162      -4.39523       2.16673
Nuclear contribution   :      2.48388       5.61783      -3.05244
                        -----------------------------------------
Total Dipole Moment    :      0.41226       1.22259      -0.88571
                        -----------------------------------------
Magnitude (a.u.)       :      1.56498
Magnitude (Debye)      :      3.97787

Rotational constants in cm-1:     0.052454     0.013722     0.012816
Rotational constants in MHz :  1572.529303   411.366040   384.200859

                             ****ORCA TERMINATED NORMALLY****
TOTAL RUN TIME: 0 days 1 hours 14 minutes 14 seconds 785 msec
