                         Program Version 4.2.0 -  RELEASE  -
|  1> # Test redundant internal optimization
|  2> #
|  3> ! RKS B3LYP  Opt TightSCF SmallPrint
|  4>
|  5> %basis
|  6>         Basis "6-31G"
|  7> end
|  8>
|  9> %geom
| 10> Constraints
| 11> { D 4  0  15  12  180.0   C } # D for Dihedral angle
| 12> { D 0  15  12  16  15.0   C } # D for Dihedral angle
| 13> { D 0  4  3  2   C } # D for Dihedral angle
| 14> { D 4  3  2  1   C } # D for Dihedral angle
| 15> { D 3  2  1  0   C } # D for Dihedral angle
| 16> { D 2  1  0  4   C } # D for Dihedral angle
| 17> { D 1  0  4  3   C } # D for Dihedral angle
| 18> { D 16  20  19  18   C } # D for Dihedral angle
| 19> { D 20  19  18  17   C } # D for Dihedral angle
| 20> { D 19  18  17  16   C } # D for Dihedral angle
| 21> { D 18  17  16  20   C } # D for Dihedral angle
| 22> { D 17  16  20  19   C } # D for Dihedral angle
| 23> { D 15  12  16  20   C } # D for Dihedral angle
| 24> end
| 25> end
| 26>
| 27>
| 28> #%pal
| 29> #nprocs 8
| 30> #end
| 31>
| 32> * xyz 0 1
| 33> C  -21.048   26.222   46.251
| 34> C  -20.361   27.558   45.944
| 35> C  -20.329   28.222   47.341
| 36> C  -20.110   27.022   48.296
| 37> O  -20.473   25.807   47.535
| 38> H  -20.833   25.428   45.533
| 39> H  -19.344   27.382   45.576
| 40> H  -20.898   28.157   45.201
| 41> H  -19.543   28.978   47.434
| 42> H  -21.289   28.710   47.548
| 43> H  -20.733   27.082   49.195
| 44> H  -19.064   26.913   48.597
| 45> C  -23.309   26.834   45.072
| 46> H  -24.217   26.232   44.941
| 47> H  -23.602   27.889   45.134
| 48> O  -22.586   26.394   46.375
| 49> C  -22.423   26.662   43.807
| 50> C  -23.122   27.212   42.559
| 51> C  -22.883   28.733   42.710
| 52> C  -21.474   28.806   43.350
| 53> O  -21.203   27.470   43.922
| 54> H  -22.110   25.619   43.728
| 55> O  -22.430   26.672   41.278
| 56> H  -24.186   26.952   42.513
| 57> H  -22.936   29.268   41.756
| 58> H  -23.634   29.168   43.380
| 59> H  -21.413   29.556   44.146
| 60> H  -20.691   29.006   42.613
| 61> H  -21.363   26.922   41.303
| 62> *
| 63>
| 64>                          ****END OF INPUT****
 Total Charge           Charge          ....    0
 Multiplicity           Mult            ....    1
 Number of Electrons    NEL             ....  102
FINAL SINGLE POINT ENERGY      -652.765211579178
FINAL SINGLE POINT ENERGY      -652.823474330296
FINAL SINGLE POINT ENERGY      -652.843935075545
FINAL SINGLE POINT ENERGY      -652.847790622758
FINAL SINGLE POINT ENERGY      -652.848458085016
FINAL SINGLE POINT ENERGY      -652.848613539371
FINAL SINGLE POINT ENERGY      -652.848622972935
FINAL SINGLE POINT ENERGY      -652.848625440898
                    ***********************HURRAY********************

CARTESIAN COORDINATES (ANGSTROEM)
---------------------------------
  C    -20.798340   26.190492   46.338643
  C    -19.986369   27.480115   46.224138
  C    -20.293405   28.179071   47.574760
  C    -20.402443   26.987070   48.548707
  O    -20.613695   25.790593   47.702874
  H    -20.472856   25.367404   45.698331
  H    -18.923051   27.214536   46.163955
  H    -20.241538   28.066056   45.345722
  H    -19.512720   28.888154   47.866576
  H    -21.244851   28.716217   47.512832
  H    -21.240794   27.072972   49.245362
  H    -19.479988   26.813373   49.112294
  C    -22.981820   26.818676   45.028155
  H    -23.861613   26.164224   44.995759
  H    -23.338826   27.841377   45.221040
  O    -22.242982   26.401671   46.210541
  C    -22.344031   26.772779   43.629911
  C    -23.302690   27.275517   42.538745
  C    -23.057326   28.809827   42.583656
  C    -21.546033   28.912653   42.905564
  O    -21.142371   27.590227   43.454526
  H    -22.033709   25.744883   43.410242
  O    -22.965609   26.711512   41.243934
  H    -24.344515   27.001938   42.707070
  H    -23.323121   29.268986   41.628438
  H    -23.664594   29.269453   43.370395
  H    -21.320207   29.687490   43.644924
  H    -20.933187   29.088401   42.016919
  H    -21.994314   26.750334   41.113987

 Multiplicity           Mult            ....    1
 Number of Electrons    NEL             ....  102
 Basis Dimension        Dim             ....  149

ORBITAL ENERGIES
----------------

  NO   OCC          E(Eh)            E(eV)
   0   2.0000     -19.158856      -521.3390
   1   2.0000     -19.148556      -521.0587
   2   2.0000     -19.130364      -520.5637
   3   2.0000     -19.128336      -520.5085
   4   2.0000     -10.272314      -279.5239
   5   2.0000     -10.253788      -279.0197
   6   2.0000     -10.246632      -278.8250
   7   2.0000     -10.244489      -278.7667
   8   2.0000     -10.236721      -278.5553
   9   2.0000     -10.216413      -278.0027
  10   2.0000     -10.200506      -277.5699
  11   2.0000     -10.177491      -276.9436
  12   2.0000     -10.168086      -276.6877
  13   2.0000      -1.051185       -28.6042
  14   2.0000      -1.040697       -28.3188
  15   2.0000      -1.018174       -27.7059
  16   2.0000      -0.979875       -26.6638
  17   2.0000      -0.795896       -21.6574
  18   2.0000      -0.776905       -21.1407
  19   2.0000      -0.772301       -21.0154
  20   2.0000      -0.730391       -19.8749
  21   2.0000      -0.678230       -18.4556
  22   2.0000      -0.616246       -16.7689
  23   2.0000      -0.610504       -16.6127
  24   2.0000      -0.589654       -16.0453
  25   2.0000      -0.565256       -15.3814
  26   2.0000      -0.532949       -14.5023
  27   2.0000      -0.516436       -14.0529
  28   2.0000      -0.494244       -13.4491
  29   2.0000      -0.486124       -13.2281
  30   2.0000      -0.476647       -12.9702
  31   2.0000      -0.457674       -12.4539
  32   2.0000      -0.449899       -12.2424
  33   2.0000      -0.444895       -12.1062
  34   2.0000      -0.426330       -11.6010
  35   2.0000      -0.412683       -11.2297
  36   2.0000      -0.408489       -11.1155
  37   2.0000      -0.394926       -10.7465
  38   2.0000      -0.383802       -10.4438
  39   2.0000      -0.371034       -10.0963
  40   2.0000      -0.360900        -9.8206
  41   2.0000      -0.355881        -9.6840
  42   2.0000      -0.344987        -9.3876
  43   2.0000      -0.337414        -9.1815
  44   2.0000      -0.319231        -8.6867
  45   2.0000      -0.305697        -8.3184
  46   2.0000      -0.294383        -8.0106
  47   2.0000      -0.282121        -7.6769
  48   2.0000      -0.253380        -6.8948
  49   2.0000      -0.248968        -6.7748
  50   2.0000      -0.240901        -6.5552
  51   0.0000       0.051745         1.4081
  52   0.0000       0.078642         2.1400
  53   0.0000       0.085911         2.3378
  54   0.0000       0.088803         2.4164
  55   0.0000       0.099119         2.6972

MULLIKEN ATOMIC CHARGES
-----------------------
   0 C :    0.311419
   1 C :   -0.277544
   2 C :   -0.305980
   3 C :    0.003245
   4 O :   -0.499769
   5 H :    0.141602
   6 H :    0.137128
   7 H :    0.180043
   8 H :    0.136130
   9 H :    0.149331
  10 H :    0.148887
  11 H :    0.139247
  12 C :    0.023351
  13 H :    0.151063
  14 H :    0.124198
  15 O :   -0.541033
  16 C :    0.040407
  17 C :    0.080220
  18 C :   -0.295973
  19 C :   -0.035432
  20 O :   -0.523656
  21 H :    0.166727
  22 O :   -0.599953
  23 H :    0.159097
  24 H :    0.166679
  25 H :    0.151930
  26 H :    0.148474
  27 H :    0.154470
  28 H :    0.365691
Sum of atomic charges:   -0.0000000

LOEWDIN ATOMIC CHARGES
----------------------
   0 C :    0.194193
   1 C :   -0.236766
   2 C :   -0.220681
   3 C :   -0.026192
   4 O :   -0.302473
   5 H :    0.098317
   6 H :    0.112029
   7 H :    0.130154
   8 H :    0.111296
   9 H :    0.111573
  10 H :    0.106257
  11 H :    0.100492
  12 C :   -0.037313
  13 H :    0.114614
  14 H :    0.092554
  15 O :   -0.347667
  16 C :    0.000805
  17 C :    0.039901
  18 C :   -0.240119
  19 C :   -0.039081
  20 O :   -0.327217
  21 H :    0.115787
  22 O :   -0.410802
  23 H :    0.119037
  24 H :    0.129089
  25 H :    0.116607
  26 H :    0.104981
  27 H :    0.106520
  28 H :    0.284103

  Mayer bond orders larger than 0.100000
B(  0-C ,  1-C ) :   0.9359 B(  0-C ,  4-O ) :   0.9357 B(  0-C ,  5-H ) :   0.9249
B(  0-C , 15-O ) :   0.8098 B(  1-C ,  2-C ) :   0.9459 B(  1-C ,  6-H ) :   0.9353
B(  1-C ,  7-H ) :   0.9087 B(  2-C ,  3-C ) :   0.9536 B(  2-C ,  8-H ) :   0.9455
B(  2-C ,  9-H ) :   0.9470 B(  3-C ,  4-O ) :   0.8357 B(  3-C , 10-H ) :   0.9360
B(  3-C , 11-H ) :   0.9397 B( 12-C , 13-H ) :   0.9176 B( 12-C , 14-H ) :   0.9230
B( 12-C , 15-O ) :   0.8599 B( 12-C , 16-C ) :   0.8962 B( 16-C , 17-C ) :   0.8912
B( 16-C , 20-O ) :   0.8395 B( 16-C , 21-H ) :   0.9233 B( 17-C , 18-C ) :   0.9116
B( 17-C , 22-O ) :   0.8937 B( 17-C , 23-H ) :   0.9325 B( 18-C , 19-C ) :   0.9436
B( 18-C , 24-H ) :   0.9366 B( 18-C , 25-H ) :   0.9314 B( 19-C , 20-O ) :   0.8356
B( 19-C , 26-H ) :   0.9327 B( 19-C , 27-H ) :   0.9374 B( 22-O , 28-H ) :   0.7944

FINAL SINGLE POINT ENERGY      -652.848627164087

DIPOLE MOMENT
-------------
                                X             Y             Z
Electronic contribution:     -0.62621      -5.55194      -1.17392
Nuclear contribution   :      0.73256       7.04464       0.58829
                        -----------------------------------------
Total Dipole Moment    :      0.10635       1.49271      -0.58564
                        -----------------------------------------
Magnitude (a.u.)       :      1.60700
Magnitude (Debye)      :      4.08468

Rotational constants in cm-1:     0.062859     0.013509     0.012523
Rotational constants in MHz :  1884.453181   404.977074   375.431792

                             ****ORCA TERMINATED NORMALLY****
TOTAL RUN TIME: 0 days 0 hours 28 minutes 9 seconds 148 msec
