                         Program Version 4.2.1 -  RELEASE  -
|  1> # Test redundant internal optimization
|  2> #
|  3> ! RKS B3LYP  Opt TightSCF SmallPrint
|  4>
|  5> %basis
|  6>         Basis "6-31G"
|  7> end
|  8>
|  9> %geom
| 10> Constraints
| 11> { D 4  0  19  14  225.0   C } # D for Dihedral angle
| 12> { D 0  19  14  12  120.0   C } # D for Dihedral angle
| 13> { D 0  4  3  2   C } # D for Dihedral angle
| 14> { D 4  3  2  1   C } # D for Dihedral angle
| 15> { D 3  2  1  0   C } # D for Dihedral angle
| 16> { D 2  1  0  4   C } # D for Dihedral angle
| 17> { D 1  0  4  3   C } # D for Dihedral angle
| 18> { D 14  15  16  17   C } # D for Dihedral angle
| 19> { D 15  16  17  12   C } # D for Dihedral angle
| 20> { D 16  17  12  14   C } # D for Dihedral angle
| 21> { D 17  12  14  15   C } # D for Dihedral angle
| 22> { D 12  14  15  16   C } # D for Dihedral angle
| 23> end
| 24> end
| 25>
| 26>
| 27> #%pal
| 28> #nprocs 8
| 29> #end
| 30>
| 31> * xyz 0 1
| 32> C  -21.048   26.222   46.251
| 33> C  -20.361   27.558   45.944
| 34> C  -20.329   28.222   47.341
| 35> C  -20.110   27.022   48.296
| 36> O  -20.473   25.807   47.535
| 37> H  -20.833   25.428   45.533
| 38> H  -19.344   27.382   45.576
| 39> H  -20.898   28.157   45.201
| 40> H  -19.543   28.978   47.434
| 41> H  -21.289   28.710   47.548
| 42> H  -20.733   27.082   49.195
| 43> H  -19.064   26.913   48.597
| 44> C  -24.179   24.731   45.828
| 45> H  -24.546   24.077   45.021
| 46> C  -23.222   25.800   45.287
| 47> C  -24.208   26.831   44.690
| 48> C  -25.413   26.769   45.660
| 49> O  -25.286   25.498   46.408
| 50> H  -23.764   24.115   46.627
| 51> O  -22.472   26.381   46.366
| 52> H  -22.515   25.410   44.546
| 53> H  -23.781   27.836   44.619
| 54> H  -24.509   26.524   43.680
| 55> H  -26.376   26.782   45.138
| 56> H  -25.399   27.578   46.397
| 57> *
| 58>
| 59>                          ****END OF INPUT****
 Total Charge           Charge          ....    0
 Multiplicity           Mult            ....    1
 Number of Electrons    NEL             ....   86
FINAL SINGLE POINT ENERGY      -538.428121843653
FINAL SINGLE POINT ENERGY      -538.430265497477
FINAL SINGLE POINT ENERGY      -538.430443870101
FINAL SINGLE POINT ENERGY      -538.430479033286
FINAL SINGLE POINT ENERGY      -538.430487732376
FINAL SINGLE POINT ENERGY      -538.430489150468
                    ***********************HURRAY********************

CARTESIAN COORDINATES (ANGSTROEM)
---------------------------------
  C    -20.980905   26.203054   46.221306
  C    -20.328872   27.557023   45.945098
  C    -20.381839   28.228950   47.338776
  C    -20.166333   27.040648   48.301043
  O    -20.460542   25.820788   47.505828
  H    -20.725232   25.406041   45.515225
  H    -19.290536   27.404405   45.626117
  H    -20.853720   28.124061   45.172268
  H    -19.624863   29.009326   47.460436
  H    -21.369482   28.673385   47.493709
  H    -20.833004   27.060930   49.166313
  H    -19.130334   26.950404   48.641063
  C    -24.193489   24.730089   45.825502
  H    -24.603889   24.088230   45.030578
  C    -23.233430   25.768308   45.242551
  C    -24.211903   26.825661   44.693670
  C    -25.372889   26.799871   45.716442
  O    -25.247394   25.525454   46.455035
  H    -23.733437   24.117068   46.601621
  O    -22.423575   26.351663   46.304242
  H    -22.585943   25.348973   44.460754
  H    -23.735758   27.805944   44.615280
  H    -24.556540   26.524420   43.697567
  H    -26.356412   26.842980   45.235859
  H    -25.294679   27.605326   46.451716

 Multiplicity           Mult            ....    1
 Number of Electrons    NEL             ....   86
 Basis Dimension        Dim             ....  127

ORBITAL ENERGIES
----------------

  NO   OCC          E(Eh)            E(eV)
   0   2.0000     -19.138218      -520.7774
   1   2.0000     -19.138117      -520.7747
   2   2.0000     -19.125547      -520.4326
   3   2.0000     -10.280704      -279.7522
   4   2.0000     -10.242705      -278.7182
   5   2.0000     -10.222917      -278.1797
   6   2.0000     -10.218775      -278.0670
   7   2.0000     -10.218355      -278.0556
   8   2.0000     -10.186372      -277.1853
   9   2.0000     -10.185577      -277.1636
  10   2.0000     -10.184860      -277.1441
  11   2.0000      -1.052011       -28.6267
  12   2.0000      -1.012795       -27.5596
  13   2.0000      -0.989176       -26.9168
  14   2.0000      -0.789406       -21.4808
  15   2.0000      -0.778110       -21.1734
  16   2.0000      -0.738560       -20.0973
  17   2.0000      -0.721100       -19.6221
  18   2.0000      -0.607037       -16.5183
  19   2.0000      -0.598071       -16.2743
  20   2.0000      -0.595887       -16.2149
  21   2.0000      -0.580760       -15.8033
  22   2.0000      -0.520728       -14.1697
  23   2.0000      -0.503511       -13.7012
  24   2.0000      -0.483378       -13.1534
  25   2.0000      -0.476979       -12.9793
  26   2.0000      -0.448955       -12.2167
  27   2.0000      -0.444017       -12.0823
  28   2.0000      -0.432102       -11.7581
  29   2.0000      -0.411756       -11.2045
  30   2.0000      -0.409250       -11.1363
  31   2.0000      -0.384510       -10.4630
  32   2.0000      -0.371881       -10.1194
  33   2.0000      -0.362918        -9.8755
  34   2.0000      -0.356411        -9.6984
  35   2.0000      -0.354550        -9.6478
  36   2.0000      -0.347569        -9.4578
  37   2.0000      -0.314120        -8.5476
  38   2.0000      -0.308419        -8.3925
  39   2.0000      -0.299231        -8.1425
  40   2.0000      -0.263061        -7.1583
  41   2.0000      -0.248466        -6.7611
  42   2.0000      -0.229090        -6.2338
  43   0.0000       0.073545         2.0013
  44   0.0000       0.087465         2.3800
  45   0.0000       0.096760         2.6330
  46   0.0000       0.113811         3.0970
  47   0.0000       0.124943         3.3999

MULLIKEN ATOMIC CHARGES
-----------------------
   0 C :    0.285943
   1 C :   -0.255231
   2 C :   -0.300020
   3 C :   -0.000531
   4 O :   -0.501537
   5 H :    0.136409
   6 H :    0.141622
   7 H :    0.141172
   8 H :    0.140954
   9 H :    0.162512
  10 H :    0.156176
  11 H :    0.140199
  12 C :    0.013021
  13 H :    0.118708
  14 C :    0.058173
  15 C :   -0.285858
  16 C :    0.008500
  17 O :   -0.518411
  18 H :    0.170055
  19 O :   -0.507653
  20 H :    0.122756
  21 H :    0.150716
  22 H :    0.138487
  23 H :    0.131532
  24 H :    0.152306
Sum of atomic charges:   -0.0000000

LOEWDIN ATOMIC CHARGES
----------------------
   0 C :    0.177973
   1 C :   -0.224980
   2 C :   -0.216759
   3 C :   -0.025313
   4 O :   -0.310883
   5 H :    0.095528
   6 H :    0.111845
   7 H :    0.114332
   8 H :    0.113790
   9 H :    0.119409
  10 H :    0.110335
  11 H :    0.101575
  12 C :   -0.039812
  13 H :    0.088598
  14 C :    0.039490
  15 C :   -0.229267
  16 C :   -0.026774
  17 O :   -0.328175
  18 H :    0.123979
  19 O :   -0.327123
  20 H :    0.095600
  21 H :    0.120881
  22 H :    0.111249
  23 H :    0.096746
  24 H :    0.107756

  Mayer bond orders larger than 0.100000
B(  0-C ,  1-C ) :   0.9367 B(  0-C ,  4-O ) :   0.9362 B(  0-C ,  5-H ) :   0.9175
B(  0-C , 19-O ) :   0.8443 B(  1-C ,  2-C ) :   0.9566 B(  1-C ,  6-H ) :   0.9351
B(  1-C ,  7-H ) :   0.9388 B(  2-C ,  3-C ) :   0.9546 B(  2-C ,  8-H ) :   0.9451
B(  2-C ,  9-H ) :   0.9434 B(  3-C ,  4-O ) :   0.8363 B(  3-C , 10-H ) :   0.9340
B(  3-C , 11-H ) :   0.9398 B( 12-C , 13-H ) :   0.9119 B( 12-C , 14-C ) :   0.9231
B( 12-C , 17-O ) :   0.8726 B( 12-C , 18-H ) :   0.9312 B( 14-C , 15-C ) :   0.9474
B( 14-C , 19-O ) :   0.8335 B( 14-C , 20-H ) :   0.9183 B( 15-C , 16-C ) :   0.9462
B( 15-C , 21-H ) :   0.9402 B( 15-C , 22-H ) :   0.9395 B( 16-C , 17-O ) :   0.8600
B( 16-C , 23-H ) :   0.9336 B( 16-C , 24-H ) :   0.9363

FINAL SINGLE POINT ENERGY      -538.430489460862

DIPOLE MOMENT
-------------
                                X             Y             Z
Electronic contribution:     -1.00126      -3.79106       2.07857
Nuclear contribution   :      1.67128       4.60485      -3.27249
                        -----------------------------------------
Total Dipole Moment    :      0.67002       0.81379      -1.19392
                        -----------------------------------------
Magnitude (a.u.)       :      1.59268
Magnitude (Debye)      :      4.04826

Rotational constants in cm-1:     0.078386     0.020067     0.019140
Rotational constants in MHz :  2349.940281   601.593290   573.812916

                             ****ORCA TERMINATED NORMALLY****
TOTAL RUN TIME: 0 days 0 hours 8 minutes 5 seconds 859 msec
