                         Program Version 4.2.0 -  RELEASE  -
|  1> # Test redundant internal optimization
|  2> #
|  3> ! RKS B3LYP  Opt TightSCF SmallPrint
|  4>
|  5> %basis
|  6>         Basis "6-31G"
|  7> end
|  8>
|  9> %geom
| 10> Constraints
| 11> { D 4  0  15  12  165.0   C } # D for Dihedral angle
| 12> { D 0  15  12  16  90.0   C } # D for Dihedral angle
| 13> { D 0  4  3  2   C } # D for Dihedral angle
| 14> { D 4  3  2  1   C } # D for Dihedral angle
| 15> { D 3  2  1  0   C } # D for Dihedral angle
| 16> { D 2  1  0  4   C } # D for Dihedral angle
| 17> { D 1  0  4  3   C } # D for Dihedral angle
| 18> { D 16  20  19  18   C } # D for Dihedral angle
| 19> { D 20  19  18  17   C } # D for Dihedral angle
| 20> { D 19  18  17  16   C } # D for Dihedral angle
| 21> { D 18  17  16  20   C } # D for Dihedral angle
| 22> { D 17  16  20  19   C } # D for Dihedral angle
| 23> { D 15  12  16  20   C } # D for Dihedral angle
| 24> end
| 25> end
| 26>
| 27>
| 28> #%pal
| 29> #nprocs 8
| 30> #end
| 31>
| 32> * xyz 0 1
| 33> C  -21.048   26.222   46.251
| 34> C  -20.361   27.558   45.944
| 35> C  -20.329   28.222   47.341
| 36> C  -20.110   27.022   48.296
| 37> O  -20.473   25.807   47.535
| 38> H  -20.833   25.428   45.533
| 39> H  -19.344   27.382   45.576
| 40> H  -20.898   28.157   45.201
| 41> H  -19.543   28.978   47.434
| 42> H  -21.289   28.710   47.548
| 43> H  -20.733   27.082   49.195
| 44> H  -19.064   26.913   48.597
| 45> C  -23.260   27.170   45.210
| 46> H  -24.140   27.702   45.592
| 47> H  -22.567   27.911   44.791
| 48> O  -22.586   26.394   46.375
| 49> C  -23.715   26.239   44.052
| 50> C  -24.269   27.047   42.874
| 51> C  -22.969   27.526   42.184
| 52> C  -22.001   26.335   42.393
| 53> O  -22.566   25.521   43.490
| 54> H  -24.401   25.487   44.447
| 55> H  -24.843   26.395   42.206
| 56> O  -25.184   28.222   43.316
| 57> H  -23.114   27.766   41.125
| 58> H  -22.588   28.426   42.682
| 59> H  -20.991   26.659   42.670
| 60> H  -21.937   25.690   41.512
| 61> H  -24.630   28.890   43.984
| 62> *
| 63>
| 64>                          ****END OF INPUT****
 Total Charge           Charge          ....    0
 Multiplicity           Mult            ....    1
 Number of Electrons    NEL             ....  102
FINAL SINGLE POINT ENERGY      -652.823473265531
FINAL SINGLE POINT ENERGY      -652.847503728130
FINAL SINGLE POINT ENERGY      -652.852686456123
FINAL SINGLE POINT ENERGY      -652.853547009239
FINAL SINGLE POINT ENERGY      -652.853670210015
FINAL SINGLE POINT ENERGY      -652.853700689313
FINAL SINGLE POINT ENERGY      -652.853704306709
                    ***********************HURRAY********************

CARTESIAN COORDINATES (ANGSTROEM)
---------------------------------
  C    -21.002886   26.266688   46.205322
  C    -20.195953   27.549773   46.006998
  C    -20.278600   28.206281   47.410678
  C    -20.256525   26.983742   48.352569
  O    -20.617134   25.818210   47.510664
  H    -20.795227   25.464203   45.497281
  H    -19.162299   27.270114   45.771810
  H    -20.550925   28.202130   45.205776
  H    -19.450104   28.895508   47.599954
  H    -21.217881   28.758733   47.512901
  H    -20.974937   27.059643   49.172767
  H    -19.261363   26.781060   48.759798
  C    -23.134940   27.238065   45.240882
  H    -24.009290   27.680098   45.729813
  H    -22.506613   28.051448   44.851840
  O    -22.453001   26.482532   46.271258
  C    -23.602417   26.314799   44.114019
  C    -24.308908   27.017495   42.941722
  C    -23.098982   27.514777   42.094783
  C    -22.058934   26.388975   42.285593
  O    -22.476190   25.618845   43.487754
  H    -24.220114   25.530518   44.559652
  H    -24.895962   26.288509   42.379425
  O    -25.262233   28.041489   43.313935
  H    -23.365078   27.674874   41.046817
  H    -22.736891   28.468579   42.500021
  H    -21.043260   26.767937   42.437960
  H    -22.048632   25.687315   41.446230
  H    -24.800722   28.838658   43.645780

 Multiplicity           Mult            ....    1
 Number of Electrons    NEL             ....  102
 Basis Dimension        Dim             ....  149

ORBITAL ENERGIES
----------------

  NO   OCC          E(Eh)            E(eV)
   0   2.0000     -19.153840      -521.2025
   1   2.0000     -19.145836      -520.9847
   2   2.0000     -19.134182      -520.6676
   3   2.0000     -19.133558      -520.6506
   4   2.0000     -10.271117      -279.4913
   5   2.0000     -10.249004      -278.8896
   6   2.0000     -10.237275      -278.5704
   7   2.0000     -10.232137      -278.4306
   8   2.0000     -10.230958      -278.3985
   9   2.0000     -10.221625      -278.1446
  10   2.0000     -10.200554      -277.5712
  11   2.0000     -10.188278      -277.2371
  12   2.0000     -10.187426      -277.2139
  13   2.0000      -1.047790       -28.5118
  14   2.0000      -1.037195       -28.2235
  15   2.0000      -1.020758       -27.7762
  16   2.0000      -0.986258       -26.8375
  17   2.0000      -0.787693       -21.4342
  18   2.0000      -0.785014       -21.3613
  19   2.0000      -0.769133       -20.9292
  20   2.0000      -0.730839       -19.8871
  21   2.0000      -0.684852       -18.6358
  22   2.0000      -0.616713       -16.7816
  23   2.0000      -0.601988       -16.3809
  24   2.0000      -0.593211       -16.1421
  25   2.0000      -0.568989       -15.4830
  26   2.0000      -0.532989       -14.5034
  27   2.0000      -0.510059       -13.8794
  28   2.0000      -0.502223       -13.6662
  29   2.0000      -0.491225       -13.3669
  30   2.0000      -0.471100       -12.8193
  31   2.0000      -0.459116       -12.4932
  32   2.0000      -0.447380       -12.1738
  33   2.0000      -0.439628       -11.9629
  34   2.0000      -0.430017       -11.7014
  35   2.0000      -0.420607       -11.4453
  36   2.0000      -0.404324       -11.0022
  37   2.0000      -0.400661       -10.9025
  38   2.0000      -0.384606       -10.4657
  39   2.0000      -0.375377       -10.2145
  40   2.0000      -0.361458        -9.8358
  41   2.0000      -0.352604        -9.5948
  42   2.0000      -0.351999        -9.5784
  43   2.0000      -0.335418        -9.1272
  44   2.0000      -0.320415        -8.7189
  45   2.0000      -0.308259        -8.3882
  46   2.0000      -0.293324        -7.9818
  47   2.0000      -0.274819        -7.4782
  48   2.0000      -0.268892        -7.3169
  49   2.0000      -0.252295        -6.8653
  50   2.0000      -0.234373        -6.3776
  51   0.0000       0.044106         1.2002
  52   0.0000       0.060280         1.6403
  53   0.0000       0.085986         2.3398
  54   0.0000       0.096397         2.6231
  55   0.0000       0.098623         2.6837

MULLIKEN ATOMIC CHARGES
-----------------------
   0 C :    0.310239
   1 C :   -0.296249
   2 C :   -0.298145
   3 C :    0.002252
   4 O :   -0.498048
   5 H :    0.173674
   6 H :    0.151709
   7 H :    0.136188
   8 H :    0.140818
   9 H :    0.152602
  10 H :    0.152677
  11 H :    0.140414
  12 C :   -0.031516
  13 H :    0.154277
  14 H :    0.105537
  15 O :   -0.510220
  16 C :    0.095634
  17 C :    0.081865
  18 C :   -0.316103
  19 C :   -0.018159
  20 O :   -0.514538
  21 H :    0.171223
  22 H :    0.171076
  23 O :   -0.597498
  24 H :    0.159473
  25 H :    0.128532
  26 H :    0.141052
  27 H :    0.155888
  28 H :    0.355344
Sum of atomic charges:    0.0000000

LOEWDIN ATOMIC CHARGES
----------------------
   0 C :    0.184085
   1 C :   -0.234646
   2 C :   -0.217966
   3 C :   -0.025859
   4 O :   -0.301511
   5 H :    0.112935
   6 H :    0.118620
   7 H :    0.108082
   8 H :    0.113326
   9 H :    0.113117
  10 H :    0.108572
  11 H :    0.101748
  12 C :   -0.052818
  13 H :    0.115035
  14 H :    0.081784
  15 O :   -0.326576
  16 C :    0.010612
  17 C :    0.034594
  18 C :   -0.240321
  19 C :   -0.032759
  20 O :   -0.321264
  21 H :    0.122970
  22 H :    0.121129
  23 O :   -0.405701
  24 H :    0.123843
  25 H :    0.101977
  26 H :    0.100536
  27 H :    0.108864
  28 H :    0.277593

  Mayer bond orders larger than 0.100000
B(  0-C ,  1-C ) :   0.9301 B(  0-C ,  4-O ) :   0.9264 B(  0-C ,  5-H ) :   0.9132
B(  0-C , 15-O ) :   0.8247 B(  1-C ,  2-C ) :   0.9482 B(  1-C ,  6-H ) :   0.9343
B(  1-C ,  7-H ) :   0.9284 B(  2-C ,  3-C ) :   0.9559 B(  2-C ,  8-H ) :   0.9453
B(  2-C ,  9-H ) :   0.9464 B(  3-C ,  4-O ) :   0.8402 B(  3-C , 10-H ) :   0.9344
B(  3-C , 11-H ) :   0.9399 B( 12-C , 13-H ) :   0.9219 B( 12-C , 14-H ) :   0.9107
B( 12-C , 15-O ) :   0.8801 B( 12-C , 16-C ) :   0.8902 B( 16-C , 17-C ) :   0.8681
B( 16-C , 20-O ) :   0.8543 B( 16-C , 21-H ) :   0.9286 B( 17-C , 18-C ) :   0.9211
B( 17-C , 22-H ) :   0.9319 B( 17-C , 23-O ) :   0.9008 B( 18-C , 19-C ) :   0.9381
B( 18-C , 24-H ) :   0.9415 B( 18-C , 25-H ) :   0.9418 B( 19-C , 20-O ) :   0.8477
B( 19-C , 26-H ) :   0.9316 B( 19-C , 27-H ) :   0.9370 B( 23-O , 28-H ) :   0.7984

FINAL SINGLE POINT ENERGY      -652.853705150427

DIPOLE MOMENT
-------------
                                X             Y             Z
Electronic contribution:     -3.54602      -5.07646       1.10907
Nuclear contribution   :      4.32038       6.76636      -2.01875
                        -----------------------------------------
Total Dipole Moment    :      0.77436       1.68990      -0.90967
                        -----------------------------------------
Magnitude (a.u.)       :      2.06952
Magnitude (Debye)      :      5.26030

Rotational constants in cm-1:     0.055536     0.013532     0.012869
Rotational constants in MHz :  1664.921198   405.668202   385.813038

                             ****ORCA TERMINATED NORMALLY****
TOTAL RUN TIME: 0 days 1 hours 40 minutes 37 seconds 566 msec
