                         Program Version 4.2.1 -  RELEASE  -
|  1> # Test redundant internal optimization
|  2> #
|  3> ! RKS B3LYP  Opt TightSCF SmallPrint
|  4>
|  5> %basis
|  6>         Basis "6-31G"
|  7> end
|  8>
|  9> %geom
| 10> Constraints
| 11> { D 4  0  19  14  225.0   C } # D for Dihedral angle
| 12> { D 0  19  14  12  345.0   C } # D for Dihedral angle
| 13> { D 0  4  3  2   C } # D for Dihedral angle
| 14> { D 4  3  2  1   C } # D for Dihedral angle
| 15> { D 3  2  1  0   C } # D for Dihedral angle
| 16> { D 2  1  0  4   C } # D for Dihedral angle
| 17> { D 1  0  4  3   C } # D for Dihedral angle
| 18> { D 14  15  16  17   C } # D for Dihedral angle
| 19> { D 15  16  17  12   C } # D for Dihedral angle
| 20> { D 16  17  12  14   C } # D for Dihedral angle
| 21> { D 17  12  14  15   C } # D for Dihedral angle
| 22> { D 12  14  15  16   C } # D for Dihedral angle
| 23> end
| 24> end
| 25>
| 26>
| 27> #%pal
| 28> #nprocs 8
| 29> #end
| 30>
| 31> * xyz 0 1
| 32> C  -21.048   26.222   46.251
| 33> C  -20.361   27.558   45.944
| 34> C  -20.329   28.222   47.341
| 35> C  -20.110   27.022   48.296
| 36> O  -20.473   25.807   47.535
| 37> H  -20.833   25.428   45.533
| 38> H  -19.344   27.382   45.576
| 39> H  -20.898   28.157   45.201
| 40> H  -19.543   28.978   47.434
| 41> H  -21.289   28.710   47.548
| 42> H  -20.733   27.082   49.195
| 43> H  -19.064   26.913   48.597
| 44> C  -22.291   25.486   44.110
| 45> H  -22.861   25.318   43.182
| 46> C  -23.222   25.800   45.287
| 47> C  -23.730   24.391   45.671
| 48> C  -22.500   23.488   45.402
| 49> O  -21.600   24.257   44.515
| 50> H  -21.523   26.239   43.926
| 51> O  -22.472   26.381   46.366
| 52> H  -24.033   26.487   45.022
| 53> H  -24.073   24.331   46.709
| 54> H  -24.569   24.103   45.025
| 55> H  -22.769   22.546   44.911
| 56> H  -21.939   23.264   46.314
| 57> *
| 58>
| 59>                          ****END OF INPUT****
 Total Charge           Charge          ....    0
 Multiplicity           Mult            ....    1
 Number of Electrons    NEL             ....   86
FINAL SINGLE POINT ENERGY      -538.413498363244
FINAL SINGLE POINT ENERGY      -538.428574858952
FINAL SINGLE POINT ENERGY      -538.430303913713
FINAL SINGLE POINT ENERGY      -538.430684021397
FINAL SINGLE POINT ENERGY      -538.430742963904
FINAL SINGLE POINT ENERGY      -538.430761550404
FINAL SINGLE POINT ENERGY      -538.430763322829
                    ***********************HURRAY********************

CARTESIAN COORDINATES (ANGSTROEM)
---------------------------------
  C    -20.830403   26.238798   46.250390
  C    -20.225828   27.622785   46.014982
  C    -20.381856   28.281763   47.407252
  C    -20.163935   27.096707   48.373665
  O    -20.360295   25.870639   47.561452
  H    -20.522389   25.448907   45.564945
  H    -19.166880   27.517461   45.749274
  H    -20.735148   28.173912   45.220432
  H    -19.668130   29.094139   47.573020
  H    -21.395279   28.680312   47.511301
  H    -20.873712   27.085415   49.205209
  H    -19.143971   27.052732   48.768095
  C    -22.426081   25.366491   43.958376
  H    -23.160037   25.252469   43.147970
  C    -23.135433   25.764321   45.255988
  C    -23.694772   24.408089   45.731124
  C    -22.610298   23.394664   45.298121
  O    -21.786723   24.083352   44.266354
  H    -21.644415   26.056753   43.633994
  O    -22.286877   26.343135   46.297403
  H    -23.924036   26.502858   45.085990
  H    -23.860103   24.423408   46.810112
  H    -24.648908   24.200452   45.231845
  H    -23.027645   22.483112   44.859379
  H    -21.933845   23.129326   46.114326

 Multiplicity           Mult            ....    1
 Number of Electrons    NEL             ....   86
 Basis Dimension        Dim             ....  127

ORBITAL ENERGIES
----------------

  NO   OCC          E(Eh)            E(eV)
   0   2.0000     -19.139844      -520.8216
   1   2.0000     -19.132463      -520.6208
   2   2.0000     -19.131471      -520.5938
   3   2.0000     -10.268018      -279.4070
   4   2.0000     -10.242336      -278.7081
   5   2.0000     -10.232035      -278.4278
   6   2.0000     -10.223548      -278.1969
   7   2.0000     -10.218094      -278.0485
   8   2.0000     -10.183172      -277.0982
   9   2.0000     -10.179688      -277.0034
  10   2.0000     -10.179190      -276.9898
  11   2.0000      -1.044575       -28.4243
  12   2.0000      -1.019015       -27.7288
  13   2.0000      -0.982578       -26.7373
  14   2.0000      -0.787006       -21.4155
  15   2.0000      -0.773909       -21.0591
  16   2.0000      -0.741014       -20.1640
  17   2.0000      -0.720787       -19.6136
  18   2.0000      -0.616909       -16.7870
  19   2.0000      -0.599925       -16.3248
  20   2.0000      -0.591034       -16.0829
  21   2.0000      -0.562756       -15.3134
  22   2.0000      -0.523143       -14.2354
  23   2.0000      -0.501753       -13.6534
  24   2.0000      -0.479256       -13.0412
  25   2.0000      -0.477964       -13.0061
  26   2.0000      -0.451293       -12.2803
  27   2.0000      -0.446909       -12.1610
  28   2.0000      -0.421287       -11.4638
  29   2.0000      -0.413920       -11.2633
  30   2.0000      -0.398675       -10.8485
  31   2.0000      -0.387300       -10.5390
  32   2.0000      -0.372063       -10.1244
  33   2.0000      -0.368111       -10.0168
  34   2.0000      -0.356816        -9.7095
  35   2.0000      -0.350435        -9.5358
  36   2.0000      -0.343729        -9.3533
  37   2.0000      -0.318144        -8.6571
  38   2.0000      -0.306580        -8.3425
  39   2.0000      -0.295740        -8.0475
  40   2.0000      -0.258139        -7.0243
  41   2.0000      -0.242931        -6.6105
  42   2.0000      -0.238869        -6.5000
  43   0.0000       0.079033         2.1506
  44   0.0000       0.096702         2.6314
  45   0.0000       0.099860         2.7173
  46   0.0000       0.107089         2.9140
  47   0.0000       0.120888         3.2895

MULLIKEN ATOMIC CHARGES
-----------------------
   0 C :    0.266738
   1 C :   -0.253908
   2 C :   -0.298889
   3 C :   -0.000580
   4 O :   -0.509362
   5 H :    0.187156
   6 H :    0.142352
   7 H :    0.137599
   8 H :    0.137739
   9 H :    0.159865
  10 H :    0.148367
  11 H :    0.138483
  12 C :   -0.047343
  13 H :    0.139414
  14 C :    0.089000
  15 C :   -0.284537
  16 C :   -0.018895
  17 O :   -0.521318
  18 H :    0.158230
  19 O :   -0.532536
  20 H :    0.145140
  21 H :    0.173001
  22 H :    0.135233
  23 H :    0.141359
  24 H :    0.167693
Sum of atomic charges:   -0.0000000

LOEWDIN ATOMIC CHARGES
----------------------
   0 C :    0.167726
   1 C :   -0.224544
   2 C :   -0.217006
   3 C :   -0.027127
   4 O :   -0.312604
   5 H :    0.118996
   6 H :    0.112069
   7 H :    0.112461
   8 H :    0.112160
   9 H :    0.118112
  10 H :    0.105928
  11 H :    0.100392
  12 C :   -0.056529
  13 H :    0.102275
  14 C :    0.044373
  15 C :   -0.232527
  16 C :   -0.033612
  17 O :   -0.335624
  18 H :    0.113411
  19 O :   -0.337518
  20 H :    0.109650
  21 H :    0.132641
  22 H :    0.109749
  23 H :    0.102776
  24 H :    0.114373

  Mayer bond orders larger than 0.100000
B(  0-C ,  1-C ) :   0.9367 B(  0-C ,  4-O ) :   0.9150 B(  0-C ,  5-H ) :   0.8904
B(  0-C , 19-O ) :   0.8162 B(  1-C ,  2-C ) :   0.9544 B(  1-C ,  6-H ) :   0.9360
B(  1-C ,  7-H ) :   0.9395 B(  2-C ,  3-C ) :   0.9553 B(  2-C ,  8-H ) :   0.9456
B(  2-C ,  9-H ) :   0.9439 B(  3-C ,  4-O ) :   0.8414 B(  3-C , 10-H ) :   0.9351
B(  3-C , 11-H ) :   0.9400 B( 12-C , 13-H ) :   0.9158 B( 12-C , 14-C ) :   0.9249
B( 12-C , 17-O ) :   0.8544 B( 12-C , 18-H ) :   0.9285 B( 14-C , 15-C ) :   0.9279
B( 14-C , 19-O ) :   0.8694 B( 14-C , 20-H ) :   0.9313 B( 15-C , 16-C ) :   0.9504
B( 15-C , 21-H ) :   0.9352 B( 15-C , 22-H ) :   0.9374 B( 16-C , 17-O ) :   0.8352
B( 16-C , 23-H ) :   0.9358 B( 16-C , 24-H ) :   0.9332

FINAL SINGLE POINT ENERGY      -538.430763896885

DIPOLE MOMENT
-------------
                                X             Y             Z
Electronic contribution:      0.37762      -2.32364      -0.24394
Nuclear contribution   :     -0.92784       3.01142      -0.04859
                        -----------------------------------------
Total Dipole Moment    :     -0.55022       0.68778      -0.29253
                        -----------------------------------------
Magnitude (a.u.)       :      0.92809
Magnitude (Debye)      :      2.35902

Rotational constants in cm-1:     0.078802     0.022485     0.021583
Rotational constants in MHz :  2362.425072   674.087863   647.045479

                             ****ORCA TERMINATED NORMALLY****
TOTAL RUN TIME: 0 days 0 hours 9 minutes 41 seconds 12 msec
