                         Program Version 4.2.0 -  RELEASE  -
|  1> # Test redundant internal optimization
|  2> #
|  3> ! RKS B3LYP  Opt TightSCF SmallPrint
|  4>
|  5> %basis
|  6>         Basis "6-31G"
|  7> end
|  8>
|  9> %geom
| 10> Constraints
| 11> { D 4  0  15  12  135.0   C } # D for Dihedral angle
| 12> { D 0  15  12  16  75.0   C } # D for Dihedral angle
| 13> { D 0  4  3  2   C } # D for Dihedral angle
| 14> { D 4  3  2  1   C } # D for Dihedral angle
| 15> { D 3  2  1  0   C } # D for Dihedral angle
| 16> { D 2  1  0  4   C } # D for Dihedral angle
| 17> { D 1  0  4  3   C } # D for Dihedral angle
| 18> { D 16  20  19  18   C } # D for Dihedral angle
| 19> { D 20  19  18  17   C } # D for Dihedral angle
| 20> { D 19  18  17  16   C } # D for Dihedral angle
| 21> { D 18  17  16  20   C } # D for Dihedral angle
| 22> { D 17  16  20  19   C } # D for Dihedral angle
| 23> { D 15  12  16  20   C } # D for Dihedral angle
| 24> end
| 25> end
| 26>
| 27>
| 28> #%pal
| 29> #nprocs 8
| 30> #end
| 31>
| 32> * xyz 0 1
| 33> C  -21.048   26.222   46.251
| 34> C  -20.361   27.558   45.944
| 35> C  -20.329   28.222   47.341
| 36> C  -20.110   27.022   48.296
| 37> O  -20.473   25.807   47.535
| 38> H  -20.833   25.428   45.533
| 39> H  -19.344   27.382   45.576
| 40> H  -20.898   28.157   45.201
| 41> H  -19.543   28.978   47.434
| 42> H  -21.289   28.710   47.548
| 43> H  -20.733   27.082   49.195
| 44> H  -19.064   26.913   48.597
| 45> C  -23.162   27.680   45.721
| 46> H  -24.180   27.850   46.092
| 47> H  -22.550   28.552   45.985
| 48> O  -22.586   26.394   46.375
| 49> C  -23.215   27.592   44.170
| 50> C  -24.188   26.501   43.708
| 51> C  -25.554   27.210   43.869
| 52> C  -25.233   28.680   43.500
| 53> O  -23.766   28.829   43.606
| 54> H  -22.200   27.487   43.782
| 55> O  -23.924   26.150   42.218
| 56> H  -24.114   25.580   44.297
| 57> H  -26.332   26.780   43.231
| 58> H  -25.894   27.137   44.909
| 59> H  -25.715   29.396   44.174
| 60> H  -25.509   28.921   42.470
| 61> H  -23.993   27.058   41.607
| 62> *
| 63>
| 64>                          ****END OF INPUT****
 Total Charge           Charge          ....    0
 Multiplicity           Mult            ....    1
 Number of Electrons    NEL             ....  102
FINAL SINGLE POINT ENERGY      -652.827100648433
FINAL SINGLE POINT ENERGY      -652.850051436080
FINAL SINGLE POINT ENERGY      -652.854168053084
FINAL SINGLE POINT ENERGY      -652.856189523705
FINAL SINGLE POINT ENERGY      -652.856379719488
FINAL SINGLE POINT ENERGY      -652.856418153366
FINAL SINGLE POINT ENERGY      -652.856422221348
                    ***********************HURRAY********************

CARTESIAN COORDINATES (ANGSTROEM)
---------------------------------
  C    -21.126830   26.298691   46.236793
  C    -20.240281   27.508977   45.931553
  C    -20.177277   28.223032   47.310475
  C    -20.182424   27.035717   48.299893
  O    -20.685309   25.870406   47.535764
  H    -20.987497   25.445248   45.570919
  H    -19.248720   27.140100   45.647658
  H    -20.598744   28.154427   45.126781
  H    -19.284727   28.847246   47.413534
  H    -21.054909   28.860639   47.457070
  H    -20.832858   27.198387   49.163281
  H    -19.179248   26.773785   48.648228
  C    -23.178925   27.740162   45.722396
  H    -24.174045   27.776384   46.173028
  H    -22.655330   28.664097   45.995203
  O    -22.565869   26.557629   46.305100
  C    -23.275620   27.662133   44.194615
  C    -24.161096   26.526524   43.661873
  C    -25.578022   27.130464   43.829311
  C    -25.361036   28.635920   43.536844
  O    -23.902946   28.885513   43.679097
  H    -22.278024   27.608880   43.748607
  O    -23.851011   26.236554   42.270175
  H    -24.020778   25.589525   44.199060
  H    -26.282566   26.659225   43.139737
  H    -25.939401   26.969851   44.850499
  H    -25.901352   29.288441   44.228987
  H    -25.634819   28.909988   42.513588
  H    -23.780334   27.080052   41.774932

 Multiplicity           Mult            ....    1
 Number of Electrons    NEL             ....  102
 Basis Dimension        Dim             ....  149

ORBITAL ENERGIES
----------------

  NO   OCC          E(Eh)            E(eV)
   0   2.0000     -19.148653      -521.0613
   1   2.0000     -19.142431      -520.8920
   2   2.0000     -19.139783      -520.8200
   3   2.0000     -19.138436      -520.7833
   4   2.0000     -10.281661      -279.7782
   5   2.0000     -10.238715      -278.6096
   6   2.0000     -10.235732      -278.5284
   7   2.0000     -10.234746      -278.5016
   8   2.0000     -10.234145      -278.4852
   9   2.0000     -10.227365      -278.3007
  10   2.0000     -10.195053      -277.4215
  11   2.0000     -10.193948      -277.3914
  12   2.0000     -10.189952      -277.2827
  13   2.0000      -1.052046       -28.6276
  14   2.0000      -1.038720       -28.2650
  15   2.0000      -1.007373       -27.4120
  16   2.0000      -0.994361       -27.0580
  17   2.0000      -0.791102       -21.5270
  18   2.0000      -0.782670       -21.2975
  19   2.0000      -0.770131       -20.9563
  20   2.0000      -0.737162       -20.0592
  21   2.0000      -0.681106       -18.5338
  22   2.0000      -0.606642       -16.5076
  23   2.0000      -0.605026       -16.4636
  24   2.0000      -0.604102       -16.4384
  25   2.0000      -0.572947       -15.5907
  26   2.0000      -0.530321       -14.4308
  27   2.0000      -0.512072       -13.9342
  28   2.0000      -0.500898       -13.6301
  29   2.0000      -0.493924       -13.4404
  30   2.0000      -0.475780       -12.9466
  31   2.0000      -0.461857       -12.5678
  32   2.0000      -0.450742       -12.2653
  33   2.0000      -0.440831       -11.9956
  34   2.0000      -0.427520       -11.6334
  35   2.0000      -0.414549       -11.2804
  36   2.0000      -0.407713       -11.0944
  37   2.0000      -0.395243       -10.7551
  38   2.0000      -0.383904       -10.4466
  39   2.0000      -0.371812       -10.1175
  40   2.0000      -0.365147        -9.9362
  41   2.0000      -0.359115        -9.7720
  42   2.0000      -0.357733        -9.7344
  43   2.0000      -0.333509        -9.0752
  44   2.0000      -0.316414        -8.6101
  45   2.0000      -0.310151        -8.4396
  46   2.0000      -0.297267        -8.0891
  47   2.0000      -0.276398        -7.5212
  48   2.0000      -0.268779        -7.3139
  49   2.0000      -0.257464        -7.0060
  50   2.0000      -0.241133        -6.5616
  51   0.0000       0.061628         1.6770
  52   0.0000       0.071235         1.9384
  53   0.0000       0.086203         2.3457
  54   0.0000       0.096001         2.6123
  55   0.0000       0.099452         2.7062

MULLIKEN ATOMIC CHARGES
-----------------------
   0 C :    0.316510
   1 C :   -0.309102
   2 C :   -0.304777
   3 C :   -0.001535
   4 O :   -0.495600
   5 H :    0.159667
   6 H :    0.157859
   7 H :    0.152702
   8 H :    0.147197
   9 H :    0.155329
  10 H :    0.151724
  11 H :    0.144621
  12 C :   -0.020578
  13 H :    0.154890
  14 H :    0.140321
  15 O :   -0.525280
  16 C :    0.043834
  17 C :    0.089270
  18 C :   -0.302312
  19 C :   -0.029591
  20 O :   -0.527563
  21 H :    0.158628
  22 O :   -0.602564
  23 H :    0.176307
  24 H :    0.164870
  25 H :    0.149302
  26 H :    0.149594
  27 H :    0.144991
  28 H :    0.361285
Sum of atomic charges:    0.0000000

LOEWDIN ATOMIC CHARGES
----------------------
   0 C :    0.181608
   1 C :   -0.234392
   2 C :   -0.218495
   3 C :   -0.027874
   4 O :   -0.306811
   5 H :    0.106597
   6 H :    0.123507
   7 H :    0.117182
   8 H :    0.116939
   9 H :    0.111750
  10 H :    0.107696
  11 H :    0.104029
  12 C :   -0.043234
  13 H :    0.114455
  14 H :    0.099809
  15 O :   -0.332966
  16 C :   -0.000173
  17 C :    0.037050
  18 C :   -0.240868
  19 C :   -0.037639
  20 O :   -0.332823
  21 H :    0.109528
  22 O :   -0.415044
  23 H :    0.127612
  24 H :    0.127809
  25 H :    0.116191
  26 H :    0.105355
  27 H :    0.102374
  28 H :    0.280827

  Mayer bond orders larger than 0.100000
B(  0-C ,  1-C ) :   0.9315 B(  0-C ,  4-O ) :   0.9271 B(  0-C ,  5-H ) :   0.9276
B(  0-C , 15-O ) :   0.8430 B(  1-C ,  2-C ) :   0.9489 B(  1-C ,  6-H ) :   0.9337
B(  1-C ,  7-H ) :   0.9240 B(  2-C ,  3-C ) :   0.9510 B(  2-C ,  8-H ) :   0.9452
B(  2-C ,  9-H ) :   0.9400 B(  3-C ,  4-O ) :   0.8406 B(  3-C , 10-H ) :   0.9343
B(  3-C , 11-H ) :   0.9395 B( 12-C , 13-H ) :   0.9378 B( 12-C , 14-H ) :   0.9060
B( 12-C , 15-O ) :   0.8508 B( 12-C , 16-C ) :   0.8736 B( 16-C , 17-C ) :   0.9085
B( 16-C , 20-O ) :   0.8417 B( 16-C , 21-H ) :   0.9208 B( 17-C , 18-C ) :   0.9133
B( 17-C , 22-O ) :   0.8888 B( 17-C , 23-H ) :   0.9238 B( 18-C , 19-C ) :   0.9419
B( 18-C , 24-H ) :   0.9374 B( 18-C , 25-H ) :   0.9340 B( 19-C , 20-O ) :   0.8406
B( 19-C , 26-H ) :   0.9351 B( 19-C , 27-H ) :   0.9386 B( 22-O , 28-H ) :   0.7974

FINAL SINGLE POINT ENERGY      -652.856422955491

DIPOLE MOMENT
-------------
                                X             Y             Z
Electronic contribution:     -0.42823      -3.42513      -1.50095
Nuclear contribution   :      0.43501       4.64058       1.53043
                        -----------------------------------------
Total Dipole Moment    :      0.00678       1.21546       0.02947
                        -----------------------------------------
Magnitude (a.u.)       :      1.21583
Magnitude (Debye)      :      3.09040

Rotational constants in cm-1:     0.060590     0.012755     0.012176
Rotational constants in MHz :  1816.455232   382.370408   365.038836

                             ****ORCA TERMINATED NORMALLY****
TOTAL RUN TIME: 0 days 1 hours 20 minutes 31 seconds 709 msec
