                         Program Version 4.2.0 -  RELEASE  -
|  1> # Test redundant internal optimization
|  2> #
|  3> ! RKS B3LYP  Opt TightSCF SmallPrint
|  4>
|  5> %basis
|  6>         Basis "6-31G"
|  7> end
|  8>
|  9> %geom
| 10> Constraints
| 11> { D 4  0  15  12  270.0   C } # D for Dihedral angle
| 12> { D 0  15  12  16  225.0   C } # D for Dihedral angle
| 13> { D 0  4  3  2   C } # D for Dihedral angle
| 14> { D 4  3  2  1   C } # D for Dihedral angle
| 15> { D 3  2  1  0   C } # D for Dihedral angle
| 16> { D 2  1  0  4   C } # D for Dihedral angle
| 17> { D 1  0  4  3   C } # D for Dihedral angle
| 18> { D 16  20  19  18   C } # D for Dihedral angle
| 19> { D 20  19  18  17   C } # D for Dihedral angle
| 20> { D 19  18  17  16   C } # D for Dihedral angle
| 21> { D 18  17  16  20   C } # D for Dihedral angle
| 22> { D 17  16  20  19   C } # D for Dihedral angle
| 23> { D 15  12  16  20   C } # D for Dihedral angle
| 24> end
| 25> end
| 26>
| 27>
| 28> #%pal
| 29> #nprocs 8
| 30> #end
| 31>
| 32> * xyz 0 1
| 33> C  -21.048   26.222   46.251
| 34> C  -20.361   27.558   45.944
| 35> C  -20.329   28.222   47.341
| 36> C  -20.110   27.022   48.296
| 37> O  -20.473   25.807   47.535
| 38> H  -20.833   25.428   45.533
| 39> H  -19.344   27.382   45.576
| 40> H  -20.898   28.157   45.201
| 41> H  -19.543   28.978   47.434
| 42> H  -21.289   28.710   47.548
| 43> H  -20.733   27.082   49.195
| 44> H  -19.064   26.913   48.597
| 45> C  -23.420   25.119   46.072
| 46> H  -22.782   24.380   45.571
| 47> H  -23.793   24.674   47.004
| 48> O  -22.586   26.394   46.375
| 49> C  -24.645   25.405   45.160
| 50> C  -25.539   26.499   45.756
| 51> C  -24.761   27.781   45.374
| 52> C  -24.160   27.429   43.991
| 53> O  -24.209   25.955   43.873
| 54> H  -25.160   24.466   44.949
| 55> O  -26.932   26.479   45.071
| 56> H  -25.684   26.396   46.837
| 57> H  -25.399   28.670   45.338
| 58> H  -23.965   27.970   46.104
| 59> H  -23.122   27.764   43.886
| 60> H  -24.748   27.837   43.163
| 61> H  -26.812   26.581   43.987
| 62> *
| 63>
| 64>                          ****END OF INPUT****
 Total Charge           Charge          ....    0
 Multiplicity           Mult            ....    1
 Number of Electrons    NEL             ....  102
FINAL SINGLE POINT ENERGY      -652.838956800416
FINAL SINGLE POINT ENERGY      -652.861839710855
FINAL SINGLE POINT ENERGY      -652.866085229349
FINAL SINGLE POINT ENERGY      -652.867274349262
FINAL SINGLE POINT ENERGY      -652.867374248430
FINAL SINGLE POINT ENERGY      -652.867385190303
                    ***********************HURRAY********************

CARTESIAN COORDINATES (ANGSTROEM)
---------------------------------
  C    -21.066388   26.148160   46.242019
  C    -20.435378   27.508846   45.943762
  C    -20.409234   28.162937   47.346518
  C    -20.133885   26.963065   48.281253
  O    -20.467894   25.750190   47.495357
  H    -20.848436   25.353858   45.522147
  H    -19.418200   27.356516   45.565128
  H    -21.005169   28.078609   45.207268
  H    -19.645800   28.941986   47.434543
  H    -21.384263   28.608246   47.565968
  H    -20.745786   26.976087   49.186701
  H    -19.079410   26.875818   48.559724
  C    -23.333399   25.168908   46.106796
  H    -22.740186   24.396828   45.598998
  H    -23.684666   24.757462   47.062102
  O    -22.493676   26.332501   46.359985
  C    -24.526131   25.512962   45.218460
  C    -25.505356   26.573164   45.743514
  C    -24.809212   27.889082   45.308182
  C    -24.159816   27.508571   43.954704
  O    -24.106134   26.028034   43.914356
  H    -25.065652   24.576417   45.028495
  O    -26.815478   26.410400   45.129582
  H    -25.683219   26.513272   46.817786
  H    -25.534799   28.702380   45.220467
  H    -24.044188   28.152309   46.040890
  H    -23.144726   27.901499   43.852667
  H    -24.752668   27.832429   43.092849
  H    -26.702850   26.299463   44.161778

 Multiplicity           Mult            ....    1
 Number of Electrons    NEL             ....  102
 Basis Dimension        Dim             ....  149

ORBITAL ENERGIES
----------------

  NO   OCC          E(Eh)            E(eV)
   0   2.0000     -19.149349      -521.0803
   1   2.0000     -19.140060      -520.8275
   2   2.0000     -19.139947      -520.8244
   3   2.0000     -19.134293      -520.6706
   4   2.0000     -10.282227      -279.7936
   5   2.0000     -10.236806      -278.5577
   6   2.0000     -10.234197      -278.4867
   7   2.0000     -10.233825      -278.4765
   8   2.0000     -10.226382      -278.2740
   9   2.0000     -10.225823      -278.2588
  10   2.0000     -10.188335      -277.2387
  11   2.0000     -10.188082      -277.2318
  12   2.0000     -10.177808      -276.9522
  13   2.0000      -1.056889       -28.7594
  14   2.0000      -1.033225       -28.1155
  15   2.0000      -1.004166       -27.3248
  16   2.0000      -0.995510       -27.0892
  17   2.0000      -0.791374       -21.5344
  18   2.0000      -0.776483       -21.1292
  19   2.0000      -0.765561       -20.8320
  20   2.0000      -0.732265       -19.9259
  21   2.0000      -0.675045       -18.3689
  22   2.0000      -0.601428       -16.3657
  23   2.0000      -0.598176       -16.2772
  24   2.0000      -0.597620       -16.2621
  25   2.0000      -0.580142       -15.7865
  26   2.0000      -0.526781       -14.3344
  27   2.0000      -0.507090       -13.7986
  28   2.0000      -0.495347       -13.4791
  29   2.0000      -0.489913       -13.3312
  30   2.0000      -0.471755       -12.8371
  31   2.0000      -0.462815       -12.5938
  32   2.0000      -0.448912       -12.2155
  33   2.0000      -0.431443       -11.7402
  34   2.0000      -0.430798       -11.7226
  35   2.0000      -0.410197       -11.1620
  36   2.0000      -0.399679       -10.8758
  37   2.0000      -0.388845       -10.5810
  38   2.0000      -0.379519       -10.3272
  39   2.0000      -0.365155        -9.9364
  40   2.0000      -0.359134        -9.7725
  41   2.0000      -0.357176        -9.7192
  42   2.0000      -0.349321        -9.5055
  43   2.0000      -0.332519        -9.0483
  44   2.0000      -0.321504        -8.7486
  45   2.0000      -0.308261        -8.3882
  46   2.0000      -0.300441        -8.1754
  47   2.0000      -0.276230        -7.5166
  48   2.0000      -0.265313        -7.2195
  49   2.0000      -0.254948        -6.9375
  50   2.0000      -0.241754        -6.5785
  51   0.0000       0.063019         1.7148
  52   0.0000       0.081836         2.2269
  53   0.0000       0.086673         2.3585
  54   0.0000       0.104184         2.8350
  55   0.0000       0.107482         2.9247

MULLIKEN ATOMIC CHARGES
-----------------------
   0 C :    0.288843
   1 C :   -0.264764
   2 C :   -0.302256
   3 C :   -0.000687
   4 O :   -0.507485
   5 H :    0.150507
   6 H :    0.148298
   7 H :    0.153406
   8 H :    0.142670
   9 H :    0.159969
  10 H :    0.148272
  11 H :    0.142855
  12 C :    0.006213
  13 H :    0.144073
  14 H :    0.142369
  15 O :   -0.527993
  16 C :    0.066651
  17 C :    0.077850
  18 C :   -0.292750
  19 C :   -0.020793
  20 O :   -0.529461
  21 H :    0.155583
  22 O :   -0.602329
  23 H :    0.154780
  24 H :    0.150188
  25 H :    0.173882
  26 H :    0.143633
  27 H :    0.137017
  28 H :    0.361460
Sum of atomic charges:   -0.0000000

LOEWDIN ATOMIC CHARGES
----------------------
   0 C :    0.175102
   1 C :   -0.216392
   2 C :   -0.216852
   3 C :   -0.027060
   4 O :   -0.325991
   5 H :    0.101391
   6 H :    0.115853
   7 H :    0.119222
   8 H :    0.114053
   9 H :    0.116743
  10 H :    0.106107
  11 H :    0.102813
  12 C :   -0.032140
  13 H :    0.106555
  14 H :    0.105029
  15 O :   -0.329246
  16 C :    0.010224
  17 C :    0.038701
  18 C :   -0.242873
  19 C :   -0.032641
  20 O :   -0.332551
  21 H :    0.116033
  22 O :   -0.416705
  23 H :    0.117473
  24 H :    0.119270
  25 H :    0.128611
  26 H :    0.101497
  27 H :    0.096694
  28 H :    0.281081

  Mayer bond orders larger than 0.100000
B(  0-C ,  1-C ) :   0.9484 B(  0-C ,  4-O ) :   0.9176 B(  0-C ,  5-H ) :   0.9156
B(  0-C , 15-O ) :   0.8492 B(  1-C ,  2-C ) :   0.9565 B(  1-C ,  6-H ) :   0.9390
B(  1-C ,  7-H ) :   0.9338 B(  2-C ,  3-C ) :   0.9541 B(  2-C ,  8-H ) :   0.9451
B(  2-C ,  9-H ) :   0.9443 B(  3-C ,  4-O ) :   0.8390 B(  3-C , 10-H ) :   0.9354
B(  3-C , 11-H ) :   0.9401 B( 12-C , 13-H ) :   0.9182 B( 12-C , 14-H ) :   0.9178
B( 12-C , 15-O ) :   0.8439 B( 12-C , 16-C ) :   0.8992 B( 16-C , 17-C ) :   0.9122
B( 16-C , 20-O ) :   0.8666 B( 16-C , 21-H ) :   0.9197 B( 17-C , 18-C ) :   0.9232
B( 17-C , 22-O ) :   0.8904 B( 17-C , 23-H ) :   0.9345 B( 18-C , 19-C ) :   0.9474
B( 18-C , 24-H ) :   0.9372 B( 18-C , 25-H ) :   0.9184 B( 19-C , 20-O ) :   0.8413
B( 19-C , 26-H ) :   0.9313 B( 19-C , 27-H ) :   0.9370 B( 22-O , 28-H ) :   0.7967

FINAL SINGLE POINT ENERGY      -652.867385553940

DIPOLE MOMENT
-------------
                                X             Y             Z
Electronic contribution:     -3.01313      -4.60235      -1.21199
Nuclear contribution   :      3.73948       5.32879       1.18332
                        -----------------------------------------
Total Dipole Moment    :      0.72635       0.72644      -0.02867
                        -----------------------------------------
Magnitude (a.u.)       :      1.02768
Magnitude (Debye)      :      2.61214

Rotational constants in cm-1:     0.057661     0.013805     0.013258
Rotational constants in MHz :  1728.630902   413.869731   397.452583

                             ****ORCA TERMINATED NORMALLY****
TOTAL RUN TIME: 0 days 1 hours 17 minutes 28 seconds 318 msec
