                         Program Version 4.2.0 -  RELEASE  -
|  1> # Test redundant internal optimization
|  2> #
|  3> ! RKS B3LYP  Opt TightSCF SmallPrint
|  4>
|  5> %basis
|  6>         Basis "6-31G"
|  7> end
|  8>
|  9> %geom
| 10> Constraints
| 11> { D 4  0  15  12  150.0   C } # D for Dihedral angle
| 12> { D 0  15  12  16  135.0   C } # D for Dihedral angle
| 13> { D 0  4  3  2   C } # D for Dihedral angle
| 14> { D 4  3  2  1   C } # D for Dihedral angle
| 15> { D 3  2  1  0   C } # D for Dihedral angle
| 16> { D 2  1  0  4   C } # D for Dihedral angle
| 17> { D 1  0  4  3   C } # D for Dihedral angle
| 18> { D 16  20  19  18   C } # D for Dihedral angle
| 19> { D 20  19  18  17   C } # D for Dihedral angle
| 20> { D 19  18  17  16   C } # D for Dihedral angle
| 21> { D 18  17  16  20   C } # D for Dihedral angle
| 22> { D 17  16  20  19   C } # D for Dihedral angle
| 23> { D 15  12  16  20   C } # D for Dihedral angle
| 24> end
| 25> end
| 26>
| 27>
| 28> #%pal
| 29> #nprocs 8
| 30> #end
| 31>
| 32> * xyz 0 1
| 33> C  -21.048   26.222   46.251
| 34> C  -20.361   27.558   45.944
| 35> C  -20.329   28.222   47.341
| 36> C  -20.110   27.022   48.296
| 37> O  -20.473   25.807   47.535
| 38> H  -20.833   25.428   45.533
| 39> H  -19.344   27.382   45.576
| 40> H  -20.898   28.157   45.201
| 41> H  -19.543   28.978   47.434
| 42> H  -21.289   28.710   47.548
| 43> H  -20.733   27.082   49.195
| 44> H  -19.064   26.913   48.597
| 45> C  -23.210   27.459   45.431
| 46> H  -23.455   28.357   46.011
| 47> H  -22.496   27.741   44.646
| 48> O  -22.586   26.394   46.375
| 49> C  -24.505   26.959   44.735
| 50> C  -25.028   27.988   43.727
| 51> C  -24.097   27.741   42.515
| 52> C  -23.860   26.211   42.561
| 53> O  -24.225   25.769   43.924
| 54> H  -25.230   26.663   45.496
| 55> H  -26.069   27.765   43.466
| 56> O  -24.957   29.448   44.253
| 57> H  -24.538   28.067   41.568
| 58> H  -23.153   28.282   42.649
| 59> H  -22.816   25.942   42.364
| 60> H  -24.503   25.667   41.862
| 61> H  -23.924   29.694   44.519
| 62> *
| 63>
| 64>                          ****END OF INPUT****
 Total Charge           Charge          ....    0
 Multiplicity           Mult            ....    1
 Number of Electrons    NEL             ....  102
FINAL SINGLE POINT ENERGY      -652.817098738192
FINAL SINGLE POINT ENERGY      -652.841237520060
FINAL SINGLE POINT ENERGY      -652.845979928719
FINAL SINGLE POINT ENERGY      -652.847480326948
FINAL SINGLE POINT ENERGY      -652.847663524443
FINAL SINGLE POINT ENERGY      -652.847727083005
FINAL SINGLE POINT ENERGY      -652.847733786669
FINAL SINGLE POINT ENERGY      -652.847735763735
                    ***********************HURRAY********************

CARTESIAN COORDINATES (ANGSTROEM)
---------------------------------
  C    -21.040332   26.290466   46.210906
  C    -20.153080   27.520057   46.010680
  C    -20.206778   28.190992   47.409516
  C    -20.268743   26.976010   48.360240
  O    -20.693702   25.828051   47.524711
  H    -20.855317   25.462399   45.522865
  H    -19.136226   27.176306   45.788392
  H    -20.461407   28.186484   45.202218
  H    -19.337945   28.828122   47.600030
  H    -21.108530   28.805367   47.502018
  H    -20.987533   27.103555   49.173688
  H    -19.291684   26.715643   48.777952
  C    -23.070748   27.582842   45.383479
  H    -23.341519   28.453952   45.995108
  H    -22.379212   27.910029   44.595439
  O    -22.473648   26.563958   46.222112
  C    -24.329773   26.986616   44.751462
  C    -25.074731   27.927750   43.790406
  C    -24.271884   27.735251   42.468225
  C    -23.880406   26.242406   42.522517
  O    -24.032629   25.812120   43.936349
  H    -24.973130   26.628699   45.559843
  H    -26.102282   27.580234   43.666693
  O    -25.205591   29.300912   44.233958
  H    -24.864520   27.989449   41.585092
  H    -23.386330   28.385279   42.476869
  H    -22.850278   26.058493   42.200137
  H    -24.550052   25.617473   41.924656
  H    -24.348988   29.769087   44.157440

 Multiplicity           Mult            ....    1
 Number of Electrons    NEL             ....  102
 Basis Dimension        Dim             ....  149

ORBITAL ENERGIES
----------------

  NO   OCC          E(Eh)            E(eV)
   0   2.0000     -19.151866      -521.1488
   1   2.0000     -19.137605      -520.7607
   2   2.0000     -19.136990      -520.7440
   3   2.0000     -19.133238      -520.6419
   4   2.0000     -10.278020      -279.6791
   5   2.0000     -10.246662      -278.8259
   6   2.0000     -10.233483      -278.4672
   7   2.0000     -10.231877      -278.4235
   8   2.0000     -10.229042      -278.3464
   9   2.0000     -10.224690      -278.2279
  10   2.0000     -10.198294      -277.5097
  11   2.0000     -10.192640      -277.3558
  12   2.0000     -10.191702      -277.3303
  13   2.0000      -1.049659       -28.5627
  14   2.0000      -1.034799       -28.1583
  15   2.0000      -1.016657       -27.6646
  16   2.0000      -0.988412       -26.8961
  17   2.0000      -0.789152       -21.4739
  18   2.0000      -0.784364       -21.3436
  19   2.0000      -0.769711       -20.9449
  20   2.0000      -0.732215       -19.9246
  21   2.0000      -0.684937       -18.6381
  22   2.0000      -0.613233       -16.6869
  23   2.0000      -0.604478       -16.4487
  24   2.0000      -0.593061       -16.1380
  25   2.0000      -0.572273       -15.5723
  26   2.0000      -0.530196       -14.4274
  27   2.0000      -0.506991       -13.7959
  28   2.0000      -0.504339       -13.7238
  29   2.0000      -0.495344       -13.4790
  30   2.0000      -0.472353       -12.8534
  31   2.0000      -0.461820       -12.5668
  32   2.0000      -0.444127       -12.0853
  33   2.0000      -0.440544       -11.9878
  34   2.0000      -0.429487       -11.6869
  35   2.0000      -0.415613       -11.3094
  36   2.0000      -0.409133       -11.1331
  37   2.0000      -0.401422       -10.9232
  38   2.0000      -0.381336       -10.3767
  39   2.0000      -0.378845       -10.3089
  40   2.0000      -0.362873        -9.8743
  41   2.0000      -0.355265        -9.6672
  42   2.0000      -0.351102        -9.5540
  43   2.0000      -0.332319        -9.0429
  44   2.0000      -0.315865        -8.5951
  45   2.0000      -0.311330        -8.4717
  46   2.0000      -0.293225        -7.9790
  47   2.0000      -0.272059        -7.4031
  48   2.0000      -0.259612        -7.0644
  49   2.0000      -0.253997        -6.9116
  50   2.0000      -0.235800        -6.4165
  51   0.0000       0.045521         1.2387
  52   0.0000       0.068520         1.8645
  53   0.0000       0.085483         2.3261
  54   0.0000       0.091688         2.4950
  55   0.0000       0.104551         2.8450

MULLIKEN ATOMIC CHARGES
-----------------------
   0 C :    0.316026
   1 C :   -0.293428
   2 C :   -0.302960
   3 C :    0.001188
   4 O :   -0.494192
   5 H :    0.157131
   6 H :    0.152467
   7 H :    0.137469
   8 H :    0.143730
   9 H :    0.153072
  10 H :    0.153783
  11 H :    0.142388
  12 C :   -0.012822
  13 H :    0.135012
  14 H :    0.108977
  15 O :   -0.514289
  16 C :    0.098688
  17 C :    0.077779
  18 C :   -0.323169
  19 C :   -0.009717
  20 O :   -0.504287
  21 H :    0.171756
  22 H :    0.172773
  23 O :   -0.598722
  24 H :    0.157215
  25 H :    0.129619
  26 H :    0.137379
  27 H :    0.153306
  28 H :    0.353827
Sum of atomic charges:   -0.0000000

LOEWDIN ATOMIC CHARGES
----------------------
   0 C :    0.187853
   1 C :   -0.234789
   2 C :   -0.217964
   3 C :   -0.026773
   4 O :   -0.302751
   5 H :    0.105866
   6 H :    0.119543
   7 H :    0.109886
   8 H :    0.114963
   9 H :    0.112349
  10 H :    0.109044
  11 H :    0.102856
  12 C :   -0.049188
  13 H :    0.099404
  14 H :    0.084406
  15 O :   -0.326876
  16 C :    0.019078
  17 C :    0.033695
  18 C :   -0.242613
  19 C :   -0.031090
  20 O :   -0.312711
  21 H :    0.123377
  22 H :    0.121660
  23 O :   -0.407317
  24 H :    0.122653
  25 H :    0.101685
  26 H :    0.099776
  27 H :    0.107668
  28 H :    0.276307

  Mayer bond orders larger than 0.100000
B(  0-C ,  1-C ) :   0.9312 B(  0-C ,  4-O ) :   0.9311 B(  0-C ,  5-H ) :   0.9233
B(  0-C , 15-O ) :   0.8442 B(  1-C ,  2-C ) :   0.9479 B(  1-C ,  6-H ) :   0.9340
B(  1-C ,  7-H ) :   0.9283 B(  2-C ,  3-C ) :   0.9544 B(  2-C ,  8-H ) :   0.9452
B(  2-C ,  9-H ) :   0.9459 B(  3-C ,  4-O ) :   0.8404 B(  3-C , 10-H ) :   0.9341
B(  3-C , 11-H ) :   0.9396 B( 12-C , 13-H ) :   0.9087 B( 12-C , 14-H ) :   0.9121
B( 12-C , 15-O ) :   0.8586 B( 12-C , 16-C ) :   0.8944 B( 16-C , 17-C ) :   0.8717
B( 16-C , 20-O ) :   0.8686 B( 16-C , 21-H ) :   0.9281 B( 17-C , 18-C ) :   0.9234
B( 17-C , 22-H ) :   0.9314 B( 17-C , 23-O ) :   0.8942 B( 18-C , 19-C ) :   0.9385
B( 18-C , 24-H ) :   0.9421 B( 18-C , 25-H ) :   0.9410 B( 19-C , 20-O ) :   0.8531
B( 19-C , 26-H ) :   0.9328 B( 19-C , 27-H ) :   0.9371 B( 23-O , 28-H ) :   0.7996

FINAL SINGLE POINT ENERGY      -652.847735969410

DIPOLE MOMENT
-------------
                                X             Y             Z
Electronic contribution:     -3.58165      -4.23180       1.72802
Nuclear contribution   :      4.58654       5.70311      -2.77960
                        -----------------------------------------
Total Dipole Moment    :      1.00489       1.47131      -1.05158
                        -----------------------------------------
Magnitude (a.u.)       :      2.06890
Magnitude (Debye)      :      5.25874

Rotational constants in cm-1:     0.054372     0.012919     0.011915
Rotational constants in MHz :  1630.036514   387.299005   357.208023

                             ****ORCA TERMINATED NORMALLY****
TOTAL RUN TIME: 0 days 1 hours 23 minutes 1 seconds 783 msec
