                         Program Version 4.2.0 -  RELEASE  -
|  1> # Test redundant internal optimization
|  2> #
|  3> ! RKS B3LYP  Opt TightSCF SmallPrint
|  4>
|  5> %basis
|  6>         Basis "6-31G"
|  7> end
|  8>
|  9> %geom
| 10> Constraints
| 11> { D 4  0  15  12  60.0   C } # D for Dihedral angle
| 12> { D 0  15  12  16  210.0   C } # D for Dihedral angle
| 13> { D 0  4  3  2   C } # D for Dihedral angle
| 14> { D 4  3  2  1   C } # D for Dihedral angle
| 15> { D 3  2  1  0   C } # D for Dihedral angle
| 16> { D 2  1  0  4   C } # D for Dihedral angle
| 17> { D 1  0  4  3   C } # D for Dihedral angle
| 18> { D 16  20  19  18   C } # D for Dihedral angle
| 19> { D 20  19  18  17   C } # D for Dihedral angle
| 20> { D 19  18  17  16   C } # D for Dihedral angle
| 21> { D 18  17  16  20   C } # D for Dihedral angle
| 22> { D 17  16  20  19   C } # D for Dihedral angle
| 23> { D 15  12  16  20   C } # D for Dihedral angle
| 24> end
| 25> end
| 26>
| 27>
| 28> #%pal
| 29> #nprocs 8
| 30> #end
| 31>
| 32> * xyz 0 1
| 33> C  -21.048   26.222   46.251
| 34> C  -20.361   27.558   45.944
| 35> C  -20.329   28.222   47.341
| 36> C  -20.110   27.022   48.296
| 37> O  -20.473   25.807   47.535
| 38> H  -20.833   25.428   45.533
| 39> H  -19.344   27.382   45.576
| 40> H  -20.898   28.157   45.201
| 41> H  -19.543   28.978   47.434
| 42> H  -21.289   28.710   47.548
| 43> H  -20.733   27.082   49.195
| 44> H  -19.064   26.913   48.597
| 45> C  -23.051   27.452   47.413
| 46> H  -22.310   27.516   48.220
| 47> H  -23.134   28.440   46.944
| 48> O  -22.586   26.394   46.375
| 49> C  -24.430   27.110   48.042
| 50> C  -25.501   26.915   46.963
| 51> C  -25.195   25.478   46.475
| 52> C  -24.735   24.758   47.767
| 53> O  -24.372   25.818   48.733
| 54> H  -24.677   27.863   48.793
| 55> H  -26.499   26.966   47.411
| 56> O  -25.420   27.967   45.824
| 57> H  -26.061   24.993   46.013
| 58> H  -24.387   25.496   45.734
| 59> H  -23.868   24.111   47.601
| 60> H  -25.535   24.167   48.223
| 61> H  -24.427   27.933   45.361
| 62> *
| 63>
| 64>                          ****END OF INPUT****
 Total Charge           Charge          ....    0
 Multiplicity           Mult            ....    1
 Number of Electrons    NEL             ....  102
FINAL SINGLE POINT ENERGY      -652.814768890263
FINAL SINGLE POINT ENERGY      -652.842390609635
FINAL SINGLE POINT ENERGY      -652.855579138874
FINAL SINGLE POINT ENERGY      -652.858079937938
FINAL SINGLE POINT ENERGY      -652.858448784893
FINAL SINGLE POINT ENERGY      -652.858506973606
FINAL SINGLE POINT ENERGY      -652.858512819035
                    ***********************HURRAY********************

CARTESIAN COORDINATES (ANGSTROEM)
---------------------------------
  C    -21.146603   26.365562   46.436336
  C    -20.323694   27.576371   45.976229
  C    -20.012294   28.289568   47.323753
  C    -19.842409   27.100351   48.302276
  O    -20.479070   25.932581   47.639347
  H    -21.094933   25.524808   45.742945
  H    -19.402301   27.216321   45.506752
  H    -20.859172   28.207209   45.261484
  H    -19.107303   28.902420   47.268694
  H    -20.836929   28.943337   47.620163
  H    -20.320620   27.260590   49.272877
  H    -18.792355   26.838383   48.461107
  C    -23.139628   27.509216   47.507542
  H    -22.498152   27.584239   48.390429
  H    -23.237180   28.499173   47.042388
  O    -22.575121   26.551862   46.561671
  C    -24.511408   27.037322   47.988470
  C    -25.566420   26.856238   46.884632
  C    -25.265471   25.408748   46.386058
  C    -24.839750   24.687915   47.682808
  O    -24.484210   25.749761   48.660741
  H    -24.846564   27.769034   48.734300
  H    -26.569310   26.929843   47.310194
  O    -25.520893   27.868192   45.847573
  H    -26.137970   24.948131   45.913643
  H    -24.439196   25.444410   45.672461
  H    -23.969332   24.042609   47.540706
  H    -25.654546   24.109106   48.129274
  H    -24.740167   27.704702   45.278145

 Multiplicity           Mult            ....    1
 Number of Electrons    NEL             ....  102
 Basis Dimension        Dim             ....  149

ORBITAL ENERGIES
----------------

  NO   OCC          E(Eh)            E(eV)
   0   2.0000     -19.151643      -521.1427
   1   2.0000     -19.147431      -521.0281
   2   2.0000     -19.137335      -520.7534
   3   2.0000     -19.129177      -520.5314
   4   2.0000     -10.284740      -279.8620
   5   2.0000     -10.233764      -278.4749
   6   2.0000     -10.233100      -278.4568
   7   2.0000     -10.232069      -278.4288
   8   2.0000     -10.227948      -278.3166
   9   2.0000     -10.216521      -278.0057
  10   2.0000     -10.197377      -277.4847
  11   2.0000     -10.195387      -277.4306
  12   2.0000     -10.175178      -276.8807
  13   2.0000      -1.057940       -28.7880
  14   2.0000      -1.024452       -27.8768
  15   2.0000      -1.006990       -27.4016
  16   2.0000      -0.998498       -27.1705
  17   2.0000      -0.793391       -21.5893
  18   2.0000      -0.775522       -21.1030
  19   2.0000      -0.763579       -20.7780
  20   2.0000      -0.734675       -19.9915
  21   2.0000      -0.679358       -18.4863
  22   2.0000      -0.608750       -16.5649
  23   2.0000      -0.603246       -16.4152
  24   2.0000      -0.597805       -16.2671
  25   2.0000      -0.562700       -15.3119
  26   2.0000      -0.526380       -14.3235
  27   2.0000      -0.510545       -13.8926
  28   2.0000      -0.500389       -13.6163
  29   2.0000      -0.486965       -13.2510
  30   2.0000      -0.475498       -12.9390
  31   2.0000      -0.458849       -12.4859
  32   2.0000      -0.438427       -11.9302
  33   2.0000      -0.431944       -11.7538
  34   2.0000      -0.424709       -11.5569
  35   2.0000      -0.416376       -11.3302
  36   2.0000      -0.402186       -10.9440
  37   2.0000      -0.394599       -10.7376
  38   2.0000      -0.386323       -10.5124
  39   2.0000      -0.370383       -10.0786
  40   2.0000      -0.365323        -9.9409
  41   2.0000      -0.357580        -9.7302
  42   2.0000      -0.344301        -9.3689
  43   2.0000      -0.322894        -8.7864
  44   2.0000      -0.321116        -8.7380
  45   2.0000      -0.310496        -8.4490
  46   2.0000      -0.302824        -8.2403
  47   2.0000      -0.272263        -7.4086
  48   2.0000      -0.260252        -7.0818
  49   2.0000      -0.257972        -7.0198
  50   2.0000      -0.234438        -6.3794
  51   0.0000       0.061678         1.6784
  52   0.0000       0.084660         2.3037
  53   0.0000       0.090849         2.4721
  54   0.0000       0.094497         2.5714
  55   0.0000       0.102534         2.7901

MULLIKEN ATOMIC CHARGES
-----------------------
   0 C :    0.304093
   1 C :   -0.273197
   2 C :   -0.316390
   3 C :   -0.016657
   4 O :   -0.499247
   5 H :    0.162711
   6 H :    0.155833
   7 H :    0.146813
   8 H :    0.148778
   9 H :    0.150850
  10 H :    0.153028
  11 H :    0.150052
  12 C :   -0.024714
  13 H :    0.156494
  14 H :    0.135318
  15 O :   -0.537914
  16 C :    0.092093
  17 C :    0.087650
  18 C :   -0.311472
  19 C :   -0.003549
  20 O :   -0.517158
  21 H :    0.146987
  22 H :    0.158240
  23 O :   -0.609463
  24 H :    0.140218
  25 H :    0.166168
  26 H :    0.154090
  27 H :    0.138806
  28 H :    0.361540
Sum of atomic charges:   -0.0000000

LOEWDIN ATOMIC CHARGES
----------------------
   0 C :    0.175866
   1 C :   -0.228578
   2 C :   -0.224710
   3 C :   -0.034275
   4 O :   -0.314570
   5 H :    0.111872
   6 H :    0.121477
   7 H :    0.117629
   8 H :    0.117581
   9 H :    0.111115
  10 H :    0.105432
  11 H :    0.106324
  12 C :   -0.051756
  13 H :    0.110929
  14 H :    0.098071
  15 O :   -0.330979
  16 C :    0.018950
  17 C :    0.037723
  18 C :   -0.242730
  19 C :   -0.024033
  20 O :   -0.319801
  21 H :    0.112778
  22 H :    0.114711
  23 O :   -0.413817
  24 H :    0.113263
  25 H :    0.122123
  26 H :    0.109193
  27 H :    0.099473
  28 H :    0.280739

  Mayer bond orders larger than 0.100000
B(  0-C ,  1-C ) :   0.9181 B(  0-C ,  4-O ) :   0.9151 B(  0-C ,  5-H ) :   0.9368
B(  0-C , 15-O ) :   0.8820 B(  1-C ,  2-C ) :   0.9550 B(  1-C ,  6-H ) :   0.9351
B(  1-C ,  7-H ) :   0.9378 B(  2-C ,  3-C ) :   0.9480 B(  2-C ,  8-H ) :   0.9448
B(  2-C ,  9-H ) :   0.9409 B(  3-C ,  4-O ) :   0.8393 B(  3-C , 10-H ) :   0.9302
B(  3-C , 11-H ) :   0.9384 B( 12-C , 13-H ) :   0.9138 B( 12-C , 14-H ) :   0.9056
B( 12-C , 15-O ) :   0.8291 B( 12-C , 16-C ) :   0.9015 B( 16-C , 17-C ) :   0.8877
B( 16-C , 20-O ) :   0.8906 B( 16-C , 21-H ) :   0.9280 B( 17-C , 18-C ) :   0.9337
B( 17-C , 22-H ) :   0.9373 B( 17-C , 23-O ) :   0.8975 B( 18-C , 19-C ) :   0.9457
B( 18-C , 24-H ) :   0.9416 B( 18-C , 25-H ) :   0.9264 B( 19-C , 20-O ) :   0.8350
B( 19-C , 26-H ) :   0.9315 B( 19-C , 27-H ) :   0.9379 B( 23-O , 28-H ) :   0.7938

FINAL SINGLE POINT ENERGY      -652.858511528262

DIPOLE MOMENT
-------------
                                X             Y             Z
Electronic contribution:     -2.84007      -2.10618       0.81342
Nuclear contribution   :      3.79004       2.70839      -1.34688
                        -----------------------------------------
Total Dipole Moment    :      0.94997       0.60221      -0.53346
                        -----------------------------------------
Magnitude (a.u.)       :      1.24486
Magnitude (Debye)      :      3.16418

Rotational constants in cm-1:     0.049439     0.015996     0.014566
Rotational constants in MHz :  1482.156106   479.541174   436.663744

                             ****ORCA TERMINATED NORMALLY****
TOTAL RUN TIME: 0 days 0 hours 16 minutes 30 seconds 513 msec
