                         Program Version 4.2.0 -  RELEASE  -
|  1> # Test redundant internal optimization
|  2> #
|  3> ! RKS B3LYP  Opt TightSCF SmallPrint
|  4>
|  5> %basis
|  6>         Basis "6-31G"
|  7> end
|  8>
|  9> %geom
| 10> Constraints
| 11> { D 4  0  15  12  315.0   C } # D for Dihedral angle
| 12> { D 0  15  12  16  315.0   C } # D for Dihedral angle
| 13> { D 0  4  3  2   C } # D for Dihedral angle
| 14> { D 4  3  2  1   C } # D for Dihedral angle
| 15> { D 3  2  1  0   C } # D for Dihedral angle
| 16> { D 2  1  0  4   C } # D for Dihedral angle
| 17> { D 1  0  4  3   C } # D for Dihedral angle
| 18> { D 16  20  19  18   C } # D for Dihedral angle
| 19> { D 20  19  18  17   C } # D for Dihedral angle
| 20> { D 19  18  17  16   C } # D for Dihedral angle
| 21> { D 18  17  16  20   C } # D for Dihedral angle
| 22> { D 17  16  20  19   C } # D for Dihedral angle
| 23> { D 15  12  16  20   C } # D for Dihedral angle
| 24> end
| 25> end
| 26>
| 27>
| 28> #%pal
| 29> #nprocs 8
| 30> #end
| 31>
| 32> * xyz 0 1
| 33> C  -21.048   26.222   46.251
| 34> C  -20.361   27.558   45.944
| 35> C  -20.329   28.222   47.341
| 36> C  -20.110   27.022   48.296
| 37> O  -20.473   25.807   47.535
| 38> H  -20.833   25.428   45.533
| 39> H  -19.344   27.382   45.576
| 40> H  -20.898   28.157   45.201
| 41> H  -19.543   28.978   47.434
| 42> H  -21.289   28.710   47.548
| 43> H  -20.733   27.082   49.195
| 44> H  -19.064   26.913   48.597
| 45> C  -23.319   25.255   47.135
| 46> H  -23.138   25.363   48.212
| 47> H  -24.401   25.311   46.961
| 48> O  -22.586   26.394   46.375
| 49> C  -22.844   23.840   46.700
| 50> C  -23.667   22.743   47.383
| 51> C  -24.957   22.740   46.530
| 52> C  -24.436   23.052   45.105
| 53> O  -23.088   23.636   45.268
| 54> H  -21.766   23.761   46.856
| 55> O  -22.933   21.378   47.271
| 56> H  -23.858   22.945   48.443
| 57> H  -25.497   21.789   46.578
| 58> H  -25.637   23.529   46.874
| 59> H  -25.074   23.767   44.572
| 60> H  -24.326   22.152   44.494
| 61> H  -22.730   21.155   46.218
| 62> *
| 63>
| 64>                          ****END OF INPUT****
 Total Charge           Charge          ....    0
 Multiplicity           Mult            ....    1
 Number of Electrons    NEL             ....  102
FINAL SINGLE POINT ENERGY      -652.836893657019
FINAL SINGLE POINT ENERGY      -652.860302261518
FINAL SINGLE POINT ENERGY      -652.864611831966
FINAL SINGLE POINT ENERGY      -652.865428093717
FINAL SINGLE POINT ENERGY      -652.865564611924
FINAL SINGLE POINT ENERGY      -652.865584527092
                    ***********************HURRAY********************

CARTESIAN COORDINATES (ANGSTROEM)
---------------------------------
  C    -21.054755   26.177473   46.235506
  C    -20.458558   27.560019   45.968596
  C    -20.412028   28.161874   47.390482
  C    -20.090285   26.941230   48.282379
  O    -20.418085   25.742634   47.464187
  H    -20.835212   25.410603   45.488860
  H    -19.451984   27.443203   45.551499
  H    -21.068569   28.140825   45.273776
  H    -19.663402   28.954057   47.489385
  H    -21.391656   28.577201   47.643964
  H    -20.679209   26.913340   49.203093
  H    -19.028118   26.865485   48.532964
  C    -23.210717   25.286664   47.069998
  H    -23.052113   25.389295   48.152767
  H    -24.258867   25.497793   46.843376
  O    -22.482958   26.339668   46.373710
  C    -22.831568   23.859084   46.665535
  C    -23.676718   22.792548   47.378298
  C    -24.966133   22.778492   46.513643
  C    -24.427160   23.038360   45.083276
  O    -23.069678   23.610931   45.239786
  H    -21.767597   23.691845   46.847830
  O    -23.007757   21.501655   47.363055
  H    -23.863345   23.006344   48.431442
  H    -25.483767   21.820568   46.607119
  H    -25.649310   23.572902   46.834488
  H    -25.047359   23.741290   44.518398
  H    -24.324715   22.117436   44.500406
  H    -22.610373   21.358178   46.478182

 Multiplicity           Mult            ....    1
 Number of Electrons    NEL             ....  102
 Basis Dimension        Dim             ....  149

ORBITAL ENERGIES
----------------

  NO   OCC          E(Eh)            E(eV)
   0   2.0000     -19.142276      -520.8878
   1   2.0000     -19.141195      -520.8584
   2   2.0000     -19.138490      -520.7848
   3   2.0000     -19.137382      -520.7546
   4   2.0000     -10.272589      -279.5314
   5   2.0000     -10.241641      -278.6892
   6   2.0000     -10.230443      -278.3845
   7   2.0000     -10.229945      -278.3710
   8   2.0000     -10.228146      -278.3220
   9   2.0000     -10.226210      -278.2693
  10   2.0000     -10.189448      -277.2690
  11   2.0000     -10.184137      -277.1245
  12   2.0000     -10.182138      -277.0701
  13   2.0000      -1.052727       -28.6462
  14   2.0000      -1.034615       -28.1533
  15   2.0000      -1.004934       -27.3457
  16   2.0000      -0.989187       -26.9171
  17   2.0000      -0.789551       -21.4848
  18   2.0000      -0.780306       -21.2332
  19   2.0000      -0.762769       -20.7560
  20   2.0000      -0.732666       -19.9369
  21   2.0000      -0.671297       -18.2669
  22   2.0000      -0.604120       -16.4389
  23   2.0000      -0.603074       -16.4105
  24   2.0000      -0.597260       -16.2523
  25   2.0000      -0.565559       -15.3896
  26   2.0000      -0.524547       -14.2736
  27   2.0000      -0.509697       -13.8696
  28   2.0000      -0.494212       -13.4482
  29   2.0000      -0.485721       -13.2171
  30   2.0000      -0.473175       -12.8757
  31   2.0000      -0.458222       -12.4689
  32   2.0000      -0.448231       -12.1970
  33   2.0000      -0.440345       -11.9824
  34   2.0000      -0.418824       -11.3968
  35   2.0000      -0.404227       -10.9996
  36   2.0000      -0.401008       -10.9120
  37   2.0000      -0.392299       -10.6750
  38   2.0000      -0.377443       -10.2707
  39   2.0000      -0.366184        -9.9644
  40   2.0000      -0.359817        -9.7911
  41   2.0000      -0.355554        -9.6751
  42   2.0000      -0.346913        -9.4400
  43   2.0000      -0.333160        -9.0657
  44   2.0000      -0.325887        -8.8678
  45   2.0000      -0.309277        -8.4158
  46   2.0000      -0.296146        -8.0585
  47   2.0000      -0.272268        -7.4088
  48   2.0000      -0.264897        -7.2082
  49   2.0000      -0.253320        -6.8932
  50   2.0000      -0.238294        -6.4843
  51   0.0000       0.066643         1.8134
  52   0.0000       0.084796         2.3074
  53   0.0000       0.089135         2.4255
  54   0.0000       0.099398         2.7048
  55   0.0000       0.104384         2.8404

MULLIKEN ATOMIC CHARGES
-----------------------
   0 C :    0.281251
   1 C :   -0.260417
   2 C :   -0.299828
   3 C :   -0.006824
   4 O :   -0.522780
   5 H :    0.167577
   6 H :    0.144799
   7 H :    0.161620
   8 H :    0.141504
   9 H :    0.160040
  10 H :    0.143302
  11 H :    0.145651
  12 C :    0.014503
  13 H :    0.136576
  14 H :    0.145431
  15 O :   -0.524101
  16 C :    0.027319
  17 C :    0.076896
  18 C :   -0.293957
  19 C :   -0.032437
  20 O :   -0.521455
  21 H :    0.194117
  22 O :   -0.601645
  23 H :    0.152835
  24 H :    0.162680
  25 H :    0.143065
  26 H :    0.151312
  27 H :    0.147423
  28 H :    0.365542
Sum of atomic charges:   -0.0000000

LOEWDIN ATOMIC CHARGES
----------------------
   0 C :    0.170391
   1 C :   -0.212076
   2 C :   -0.216698
   3 C :   -0.028862
   4 O :   -0.334688
   5 H :    0.106269
   6 H :    0.113859
   7 H :    0.126802
   8 H :    0.113694
   9 H :    0.118034
  10 H :    0.102637
  11 H :    0.104121
  12 C :   -0.040716
  13 H :    0.100483
  14 H :    0.110779
  15 O :   -0.321982
  16 C :   -0.002509
  17 C :    0.038197
  18 C :   -0.240746
  19 C :   -0.038573
  20 O :   -0.330942
  21 H :    0.128842
  22 O :   -0.414007
  23 H :    0.116046
  24 H :    0.126601
  25 H :    0.112268
  26 H :    0.106313
  27 H :    0.102810
  28 H :    0.283652

  Mayer bond orders larger than 0.100000
B(  0-C ,  1-C ) :   0.9478 B(  0-C ,  4-O ) :   0.8806 B(  0-C ,  5-H ) :   0.9138
B(  0-C , 15-O ) :   0.8586 B(  1-C ,  2-C ) :   0.9533 B(  1-C ,  6-H ) :   0.9399
B(  1-C ,  7-H ) :   0.9359 B(  2-C ,  3-C ) :   0.9557 B(  2-C ,  8-H ) :   0.9452
B(  2-C ,  9-H ) :   0.9446 B(  3-C ,  4-O ) :   0.8332 B(  3-C , 10-H ) :   0.9357
B(  3-C , 11-H ) :   0.9407 B( 12-C , 13-H ) :   0.9112 B( 12-C , 14-H ) :   0.9378
B( 12-C , 15-O ) :   0.8489 B( 12-C , 16-C ) :   0.8887 B( 16-C , 17-C ) :   0.8965
B( 16-C , 20-O ) :   0.8454 B( 16-C , 21-H ) :   0.9070 B( 17-C , 18-C ) :   0.9116
B( 17-C , 22-O ) :   0.8944 B( 17-C , 23-H ) :   0.9328 B( 18-C , 19-C ) :   0.9410
B( 18-C , 24-H ) :   0.9374 B( 18-C , 25-H ) :   0.9344 B( 19-C , 20-O ) :   0.8486
B( 19-C , 26-H ) :   0.9337 B( 19-C , 27-H ) :   0.9374 B( 22-O , 28-H ) :   0.7939

FINAL SINGLE POINT ENERGY      -652.865586982504

DIPOLE MOMENT
-------------
                                X             Y             Z
Electronic contribution:      0.70421      -3.51209      -1.15256
Nuclear contribution   :     -1.04850       4.16117       1.20507
                        -----------------------------------------
Total Dipole Moment    :     -0.34429       0.64907       0.05251
                        -----------------------------------------
Magnitude (a.u.)       :      0.73661
Magnitude (Debye)      :      1.87231

Rotational constants in cm-1:     0.061806     0.013367     0.012368
Rotational constants in MHz :  1852.884757   400.737054   370.784294

                             ****ORCA TERMINATED NORMALLY****
TOTAL RUN TIME: 0 days 0 hours 22 minutes 0 seconds 499 msec
