                         Program Version 4.2.0 -  RELEASE  -
|  1> # Test redundant internal optimization
|  2> #
|  3> ! RKS B3LYP  Opt TightSCF SmallPrint
|  4>
|  5> %basis
|  6>         Basis "6-31G"
|  7> end
|  8>
|  9> %geom
| 10> Constraints
| 11> { D 4  0  15  12  330.0   C } # D for Dihedral angle
| 12> { D 0  15  12  16  150.0   C } # D for Dihedral angle
| 13> { D 0  4  3  2   C } # D for Dihedral angle
| 14> { D 4  3  2  1   C } # D for Dihedral angle
| 15> { D 3  2  1  0   C } # D for Dihedral angle
| 16> { D 2  1  0  4   C } # D for Dihedral angle
| 17> { D 1  0  4  3   C } # D for Dihedral angle
| 18> { D 16  20  19  18   C } # D for Dihedral angle
| 19> { D 20  19  18  17   C } # D for Dihedral angle
| 20> { D 19  18  17  16   C } # D for Dihedral angle
| 21> { D 18  17  16  20   C } # D for Dihedral angle
| 22> { D 17  16  20  19   C } # D for Dihedral angle
| 23> { D 15  12  16  20   C } # D for Dihedral angle
| 24> end
| 25> end
| 26>
| 27>
| 28> #%pal
| 29> #nprocs 8
| 30> #end
| 31>
| 32> * xyz 0 1
| 33> C  -21.048   26.222   46.251
| 34> C  -20.361   27.558   45.944
| 35> C  -20.329   28.222   47.341
| 36> C  -20.110   27.022   48.296
| 37> O  -20.473   25.807   47.535
| 38> H  -20.833   25.428   45.533
| 39> H  -19.344   27.382   45.576
| 40> H  -20.898   28.157   45.201
| 41> H  -19.543   28.978   47.434
| 42> H  -21.289   28.710   47.548
| 43> H  -20.733   27.082   49.195
| 44> H  -19.064   26.913   48.597
| 45> C  -23.271   25.476   47.424
| 46> H  -23.562   24.533   46.944
| 47> H  -22.577   25.244   48.243
| 48> O  -22.586   26.394   46.375
| 49> C  -24.540   26.119   48.048
| 50> C  -25.636   26.322   46.995
| 51> C  -26.227   24.897   46.879
| 52> C  -26.125   24.355   48.327
| 53> O  -25.145   25.211   49.028
| 54> H  -24.255   27.026   48.584
| 55> O  -26.704   27.318   47.524
| 56> H  -25.253   26.702   46.042
| 57> H  -27.255   24.893   46.503
| 58> H  -25.619   24.292   46.196
| 59> H  -25.783   23.315   48.362
| 60> H  -27.071   24.435   48.870
| 61> H  -27.104   26.957   48.479
| 62> *
| 63>
| 64>                          ****END OF INPUT****
 Total Charge           Charge          ....    0
 Multiplicity           Mult            ....    1
 Number of Electrons    NEL             ....  102
FINAL SINGLE POINT ENERGY      -652.839882806813
FINAL SINGLE POINT ENERGY      -652.862852456040
FINAL SINGLE POINT ENERGY      -652.866631879402
FINAL SINGLE POINT ENERGY      -652.867254558146
FINAL SINGLE POINT ENERGY      -652.867347020841
FINAL SINGLE POINT ENERGY      -652.867365165765
                    ***********************HURRAY********************

CARTESIAN COORDINATES (ANGSTROEM)
---------------------------------
  C    -21.116380   26.165577   46.313342
  C    -20.617171   27.574277   45.994722
  C    -20.542227   28.207158   47.401867
  C    -20.108305   27.028967   48.299895
  O    -20.403296   25.795001   47.513413
  H    -20.874567   25.396338   45.573352
  H    -19.625331   27.509363   45.533067
  H    -21.291556   28.105704   45.319812
  H    -19.838574   29.043793   47.449248
  H    -21.531073   28.573382   47.692583
  H    -20.652497   26.980571   49.246527
  H    -19.033342   27.015254   48.500084
  C    -23.172808   25.339803   47.470063
  H    -23.432708   24.379573   47.002532
  H    -22.480709   25.142457   48.291489
  O    -22.559419   26.224469   46.484789
  C    -24.416487   26.053611   47.993794
  C    -25.501507   26.326779   46.942293
  C    -26.204698   24.949547   46.853608
  C    -26.137236   24.422140   48.308897
  O    -25.083820   25.211490   48.993762
  H    -24.120894   26.979767   48.494841
  O    -26.411101   27.369838   47.394914
  H    -25.095547   26.678019   45.995381
  H    -27.228434   25.059575   46.487564
  H    -25.663487   24.291136   46.165696
  H    -25.877791   23.360014   48.364661
  H    -27.069733   24.581982   48.859624
  H    -26.647302   27.204414   48.332180

 Multiplicity           Mult            ....    1
 Number of Electrons    NEL             ....  102
 Basis Dimension        Dim             ....  149

ORBITAL ENERGIES
----------------

  NO   OCC          E(Eh)            E(eV)
   0   2.0000     -19.150261      -521.1051
   1   2.0000     -19.143646      -520.9251
   2   2.0000     -19.141831      -520.8757
   3   2.0000     -19.132963      -520.6344
   4   2.0000     -10.281270      -279.7676
   5   2.0000     -10.232425      -278.4384
   6   2.0000     -10.231506      -278.4134
   7   2.0000     -10.229574      -278.3609
   8   2.0000     -10.229549      -278.3602
   9   2.0000     -10.223723      -278.2017
  10   2.0000     -10.189168      -277.2614
  11   2.0000     -10.187376      -277.2126
  12   2.0000     -10.184892      -277.1450
  13   2.0000      -1.057009       -28.7627
  14   2.0000      -1.033130       -28.1129
  15   2.0000      -1.001636       -27.2559
  16   2.0000      -0.994699       -27.0671
  17   2.0000      -0.792998       -21.5786
  18   2.0000      -0.776988       -21.1429
  19   2.0000      -0.766148       -20.8479
  20   2.0000      -0.731470       -19.9043
  21   2.0000      -0.670925       -18.2568
  22   2.0000      -0.603330       -16.4174
  23   2.0000      -0.601253       -16.3609
  24   2.0000      -0.590664       -16.0728
  25   2.0000      -0.576802       -15.6956
  26   2.0000      -0.522772       -14.2253
  27   2.0000      -0.512073       -13.9342
  28   2.0000      -0.498500       -13.5649
  29   2.0000      -0.491191       -13.3660
  30   2.0000      -0.472768       -12.8647
  31   2.0000      -0.455100       -12.3839
  32   2.0000      -0.450372       -12.2552
  33   2.0000      -0.435378       -11.8472
  34   2.0000      -0.421184       -11.4610
  35   2.0000      -0.412998       -11.2383
  36   2.0000      -0.399763       -10.8781
  37   2.0000      -0.389267       -10.5925
  38   2.0000      -0.375617       -10.2211
  39   2.0000      -0.364561        -9.9202
  40   2.0000      -0.361049        -9.8246
  41   2.0000      -0.355143        -9.6639
  42   2.0000      -0.351430        -9.5629
  43   2.0000      -0.341745        -9.2994
  44   2.0000      -0.323254        -8.7962
  45   2.0000      -0.307842        -8.3768
  46   2.0000      -0.296923        -8.0797
  47   2.0000      -0.271761        -7.3950
  48   2.0000      -0.264501        -7.1974
  49   2.0000      -0.257877        -7.0172
  50   2.0000      -0.243504        -6.6261
  51   0.0000       0.067364         1.8331
  52   0.0000       0.074309         2.0220
  53   0.0000       0.094626         2.5749
  54   0.0000       0.100508         2.7350
  55   0.0000       0.102396         2.7863

MULLIKEN ATOMIC CHARGES
-----------------------
   0 C :    0.303829
   1 C :   -0.261972
   2 C :   -0.300925
   3 C :   -0.017016
   4 O :   -0.512663
   5 H :    0.148922
   6 H :    0.145762
   7 H :    0.162663
   8 H :    0.145656
   9 H :    0.160427
  10 H :    0.149514
  11 H :    0.151093
  12 C :   -0.011348
  13 H :    0.125518
  14 H :    0.176679
  15 O :   -0.544056
  16 C :    0.060516
  17 C :    0.093765
  18 C :   -0.302016
  19 C :   -0.032013
  20 O :   -0.528769
  21 H :    0.155541
  22 O :   -0.605167
  23 H :    0.173044
  24 H :    0.160056
  25 H :    0.148744
  26 H :    0.147708
  27 H :    0.145191
  28 H :    0.361317
Sum of atomic charges:   -0.0000000

LOEWDIN ATOMIC CHARGES
----------------------
   0 C :    0.180533
   1 C :   -0.215975
   2 C :   -0.217056
   3 C :   -0.030920
   4 O :   -0.321510
   5 H :    0.098439
   6 H :    0.114395
   7 H :    0.126931
   8 H :    0.116411
   9 H :    0.117608
  10 H :    0.105686
  11 H :    0.107112
  12 C :   -0.042761
  13 H :    0.091791
  14 H :    0.120224
  15 O :   -0.343571
  16 C :    0.016569
  17 C :    0.038225
  18 C :   -0.242151
  19 C :   -0.038861
  20 O :   -0.331917
  21 H :    0.113159
  22 O :   -0.416619
  23 H :    0.126774
  24 H :    0.125778
  25 H :    0.115222
  26 H :    0.104128
  27 H :    0.101708
  28 H :    0.280645

  Mayer bond orders larger than 0.100000
B(  0-C ,  1-C ) :   0.9441 B(  0-C ,  4-O ) :   0.9083 B(  0-C ,  5-H ) :   0.9240
B(  0-C , 15-O ) :   0.8386 B(  1-C ,  2-C ) :   0.9540 B(  1-C ,  6-H ) :   0.9376
B(  1-C ,  7-H ) :   0.9351 B(  2-C ,  3-C ) :   0.9553 B(  2-C ,  8-H ) :   0.9444
B(  2-C ,  9-H ) :   0.9436 B(  3-C ,  4-O ) :   0.8276 B(  3-C , 10-H ) :   0.9345
B(  3-C , 11-H ) :   0.9404 B( 12-C , 13-H ) :   0.9250 B( 12-C , 14-H ) :   0.9054
B( 12-C , 15-O ) :   0.8164 B( 12-C , 16-C ) :   0.9035 B( 16-C , 17-C ) :   0.9127
B( 16-C , 20-O ) :   0.8438 B( 16-C , 21-H ) :   0.9265 B( 17-C , 18-C ) :   0.9143
B( 17-C , 22-O ) :   0.8883 B( 17-C , 23-H ) :   0.9253 B( 18-C , 19-C ) :   0.9411
B( 18-C , 24-H ) :   0.9381 B( 18-C , 25-H ) :   0.9342 B( 19-C , 20-O ) :   0.8427
B( 19-C , 26-H ) :   0.9354 B( 19-C , 27-H ) :   0.9380 B( 22-O , 28-H ) :   0.7968

FINAL SINGLE POINT ENERGY      -652.867367309045

DIPOLE MOMENT
-------------
                                X             Y             Z
Electronic contribution:     -1.37652      -1.00310       0.80238
Nuclear contribution   :      1.78484       0.93900      -0.94978
                        -----------------------------------------
Total Dipole Moment    :      0.40833      -0.06409      -0.14740
                        -----------------------------------------
Magnitude (a.u.)       :      0.43882
Magnitude (Debye)      :      1.11540

Rotational constants in cm-1:     0.055542     0.013039     0.012411
Rotational constants in MHz :  1665.110458   390.889938   372.068791

                             ****ORCA TERMINATED NORMALLY****
TOTAL RUN TIME: 0 days 1 hours 10 minutes 7 seconds 647 msec
