                         Program Version 4.2.1 -  RELEASE  -
|  1> # Test redundant internal optimization
|  2> #
|  3> ! RKS B3LYP  Opt TightSCF SmallPrint
|  4>
|  5> %basis
|  6>         Basis "6-31G"
|  7> end
|  8>
|  9> %geom
| 10> Constraints
| 11> { D 4  0  19  14  330.0   C } # D for Dihedral angle
| 12> { D 0  19  14  12  165.0   C } # D for Dihedral angle
| 13> { D 0  4  3  2   C } # D for Dihedral angle
| 14> { D 4  3  2  1   C } # D for Dihedral angle
| 15> { D 3  2  1  0   C } # D for Dihedral angle
| 16> { D 2  1  0  4   C } # D for Dihedral angle
| 17> { D 1  0  4  3   C } # D for Dihedral angle
| 18> { D 14  15  16  17   C } # D for Dihedral angle
| 19> { D 15  16  17  12   C } # D for Dihedral angle
| 20> { D 16  17  12  14   C } # D for Dihedral angle
| 21> { D 17  12  14  15   C } # D for Dihedral angle
| 22> { D 12  14  15  16   C } # D for Dihedral angle
| 23> end
| 24> end
| 25>
| 26>
| 27> #%pal
| 28> #nprocs 8
| 29> #end
| 30>
| 31> * xyz 0 1
| 32> C  -21.048   26.222   46.251
| 33> C  -20.361   27.558   45.944
| 34> C  -20.329   28.222   47.341
| 35> C  -20.110   27.022   48.296
| 36> O  -20.473   25.807   47.535
| 37> H  -20.833   25.428   45.533
| 38> H  -19.344   27.382   45.576
| 39> H  -20.898   28.157   45.201
| 40> H  -19.543   28.978   47.434
| 41> H  -21.289   28.710   47.548
| 42> H  -20.733   27.082   49.195
| 43> H  -19.064   26.913   48.597
| 44> C  -24.505   26.015   47.654
| 45> H  -24.887   25.570   48.586
| 46> C  -23.087   25.523   47.341
| 47> C  -23.365   24.125   46.741
| 48> C  -24.694   24.330   45.972
| 49> O  -25.303   25.567   46.507
| 50> H  -24.606   27.100   47.708
| 51> O  -22.472   26.381   46.366
| 52> H  -22.440   25.486   48.224
| 53> H  -22.557   23.773   46.092
| 54> H  -23.493   23.389   47.544
| 55> H  -25.392   23.497   46.110
| 56> H  -24.537   24.486   44.900
| 57> *
| 58>
| 59>                          ****END OF INPUT****
 Total Charge           Charge          ....    0
 Multiplicity           Mult            ....    1
 Number of Electrons    NEL             ....   86
FINAL SINGLE POINT ENERGY      -538.431854957073
FINAL SINGLE POINT ENERGY      -538.435161533096
FINAL SINGLE POINT ENERGY      -538.435563178716
FINAL SINGLE POINT ENERGY      -538.435635483909
FINAL SINGLE POINT ENERGY      -538.435645236330
FINAL SINGLE POINT ENERGY      -538.435647996156
                    ***********************HURRAY********************

CARTESIAN COORDINATES (ANGSTROEM)
---------------------------------
  C    -20.995643   26.208454   46.270017
  C    -20.426065   27.593306   45.962225
  C    -20.359788   28.225245   47.370085
  C    -20.001985   27.030895   48.281000
  O    -20.329577   25.808565   47.491629
  H    -20.760310   25.429584   45.538025
  H    -19.426276   27.484102   45.526968
  H    -21.060497   28.150623   45.270036
  H    -19.621772   29.030590   47.435636
  H    -21.339567   28.633921   47.634393
  H    -20.572573   27.012151   49.213587
  H    -18.934398   26.972424   48.510920
  C    -24.507141   26.046580   47.590271
  H    -24.950785   25.645294   48.513378
  C    -23.106666   25.472564   47.375680
  C    -23.426038   24.082528   46.793623
  C    -24.691664   24.334123   45.941288
  O    -25.260501   25.615976   46.411422
  H    -24.520447   27.137218   47.610159
  O    -22.435653   26.331680   46.402329
  H    -22.508470   25.414404   48.288353
  H    -22.592425   23.677416   46.212899
  H    -23.632032   23.384892   47.614259
  H    -25.441618   23.543131   46.058333
  H    -24.461107   24.457334   44.879486

 Multiplicity           Mult            ....    1
 Number of Electrons    NEL             ....   86
 Basis Dimension        Dim             ....  127

ORBITAL ENERGIES
----------------

  NO   OCC          E(Eh)            E(eV)
   0   2.0000     -19.149247      -521.0775
   1   2.0000     -19.139118      -520.8019
   2   2.0000     -19.122935      -520.3615
   3   2.0000     -10.279437      -279.7177
   4   2.0000     -10.233366      -278.4640
   5   2.0000     -10.231856      -278.4230
   6   2.0000     -10.217686      -278.0374
   7   2.0000     -10.215960      -277.9904
   8   2.0000     -10.189097      -277.2594
   9   2.0000     -10.186317      -277.1838
  10   2.0000     -10.181024      -277.0397
  11   2.0000      -1.056101       -28.7380
  12   2.0000      -1.010859       -27.5069
  13   2.0000      -0.987434       -26.8694
  14   2.0000      -0.793829       -21.6012
  15   2.0000      -0.774829       -21.0842
  16   2.0000      -0.740649       -20.1541
  17   2.0000      -0.719397       -19.5758
  18   2.0000      -0.612429       -16.6650
  19   2.0000      -0.601218       -16.3600
  20   2.0000      -0.593063       -16.1381
  21   2.0000      -0.563386       -15.3305
  22   2.0000      -0.525396       -14.2967
  23   2.0000      -0.498362       -13.5611
  24   2.0000      -0.488689       -13.2979
  25   2.0000      -0.478898       -13.0315
  26   2.0000      -0.454150       -12.3580
  27   2.0000      -0.435933       -11.8623
  28   2.0000      -0.425487       -11.5781
  29   2.0000      -0.413724       -11.2580
  30   2.0000      -0.408022       -11.1028
  31   2.0000      -0.382219       -10.4007
  32   2.0000      -0.370982       -10.0949
  33   2.0000      -0.362767        -9.8714
  34   2.0000      -0.360460        -9.8086
  35   2.0000      -0.356735        -9.7072
  36   2.0000      -0.344226        -9.3669
  37   2.0000      -0.333486        -9.0746
  38   2.0000      -0.303357        -8.2548
  39   2.0000      -0.291520        -7.9327
  40   2.0000      -0.264675        -7.2022
  41   2.0000      -0.256860        -6.9895
  42   2.0000      -0.228548        -6.2191
  43   0.0000       0.075870         2.0645
  44   0.0000       0.099433         2.7057
  45   0.0000       0.100447         2.7333
  46   0.0000       0.106435         2.8963
  47   0.0000       0.113449         3.0871

MULLIKEN ATOMIC CHARGES
-----------------------
   0 C :    0.298684
   1 C :   -0.260574
   2 C :   -0.300059
   3 C :   -0.014510
   4 O :   -0.515482
   5 H :    0.147119
   6 H :    0.144016
   7 H :    0.165290
   8 H :    0.145019
   9 H :    0.158949
  10 H :    0.143376
  11 H :    0.149380
  12 C :    0.004067
  13 H :    0.120381
  14 C :    0.064579
  15 C :   -0.297407
  16 C :    0.000466
  17 O :   -0.519831
  18 H :    0.161219
  19 O :   -0.526962
  20 H :    0.152762
  21 H :    0.152201
  22 H :    0.141663
  23 H :    0.134203
  24 H :    0.151451
Sum of atomic charges:   -0.0000000

LOEWDIN ATOMIC CHARGES
----------------------
   0 C :    0.177887
   1 C :   -0.214804
   2 C :   -0.217041
   3 C :   -0.031116
   4 O :   -0.326142
   5 H :    0.096199
   6 H :    0.113515
   7 H :    0.128475
   8 H :    0.115905
   9 H :    0.117329
  10 H :    0.102191
  11 H :    0.106208
  12 C :   -0.035054
  13 H :    0.089847
  14 C :    0.034813
  15 C :   -0.234593
  16 C :   -0.030189
  17 O :   -0.330433
  18 H :    0.119409
  19 O :   -0.329273
  20 H :    0.108975
  21 H :    0.120522
  22 H :    0.113148
  23 H :    0.097536
  24 H :    0.106688

  Mayer bond orders larger than 0.100000
B(  0-C ,  1-C ) :   0.9450 B(  0-C ,  4-O ) :   0.8968 B(  0-C ,  5-H ) :   0.9217
B(  0-C , 19-O ) :   0.8514 B(  1-C ,  2-C ) :   0.9541 B(  1-C ,  6-H ) :   0.9377
B(  1-C ,  7-H ) :   0.9345 B(  2-C ,  3-C ) :   0.9549 B(  2-C ,  8-H ) :   0.9447
B(  2-C ,  9-H ) :   0.9445 B(  3-C ,  4-O ) :   0.8318 B(  3-C , 10-H ) :   0.9346
B(  3-C , 11-H ) :   0.9406 B( 12-C , 13-H ) :   0.9165 B( 12-C , 14-C ) :   0.9350
B( 12-C , 17-O ) :   0.8728 B( 12-C , 18-H ) :   0.9309 B( 14-C , 15-C ) :   0.9335
B( 14-C , 19-O ) :   0.8270 B( 14-C , 20-H ) :   0.9117 B( 15-C , 16-C ) :   0.9449
B( 15-C , 21-H ) :   0.9407 B( 15-C , 22-H ) :   0.9378 B( 16-C , 17-O ) :   0.8587
B( 16-C , 23-H ) :   0.9334 B( 16-C , 24-H ) :   0.9362

FINAL SINGLE POINT ENERGY      -538.435648199663

DIPOLE MOMENT
-------------
                                X             Y             Z
Electronic contribution:     -1.67471      -0.91215      -1.08730
Nuclear contribution   :      2.62927       1.01244       1.59334
                        -----------------------------------------
Total Dipole Moment    :      0.95456       0.10029       0.50604
                        -----------------------------------------
Magnitude (a.u.)       :      1.08504
Magnitude (Debye)      :      2.75796

Rotational constants in cm-1:     0.083938     0.020736     0.020219
Rotational constants in MHz :  2516.392817   621.648880   606.162343

                             ****ORCA TERMINATED NORMALLY****
TOTAL RUN TIME: 0 days 0 hours 6 minutes 45 seconds 303 msec
