                         Program Version 4.2.0 -  RELEASE  -
|  1> # Test redundant internal optimization
|  2> #
|  3> ! RKS B3LYP  Opt TightSCF SmallPrint
|  4>
|  5> %basis
|  6>         Basis "6-31G"
|  7> end
|  8>
|  9> %geom
| 10> Constraints
| 11> { D 4  0  15  12  285.0   C } # D for Dihedral angle
| 12> { D 0  15  12  16  75.0   C } # D for Dihedral angle
| 13> { D 0  4  3  2   C } # D for Dihedral angle
| 14> { D 4  3  2  1   C } # D for Dihedral angle
| 15> { D 3  2  1  0   C } # D for Dihedral angle
| 16> { D 2  1  0  4   C } # D for Dihedral angle
| 17> { D 1  0  4  3   C } # D for Dihedral angle
| 18> { D 16  20  19  18   C } # D for Dihedral angle
| 19> { D 20  19  18  17   C } # D for Dihedral angle
| 20> { D 19  18  17  16   C } # D for Dihedral angle
| 21> { D 18  17  16  20   C } # D for Dihedral angle
| 22> { D 17  16  20  19   C } # D for Dihedral angle
| 23> { D 15  12  16  20   C } # D for Dihedral angle
| 24> end
| 25> end
| 26>
| 27>
| 28> #%pal
| 29> #nprocs 8
| 30> #end
| 31>
| 32> * xyz 0 1
| 33> C  -21.048   26.222   46.251
| 34> C  -20.361   27.558   45.944
| 35> C  -20.329   28.222   47.341
| 36> C  -20.110   27.022   48.296
| 37> O  -20.473   25.807   47.535
| 38> H  -20.833   25.428   45.533
| 39> H  -19.344   27.382   45.576
| 40> H  -20.898   28.157   45.201
| 41> H  -19.543   28.978   47.434
| 42> H  -21.289   28.710   47.548
| 43> H  -20.733   27.082   49.195
| 44> H  -19.064   26.913   48.597
| 45> C  -23.396   25.070   46.435
| 46> H  -24.455   25.284   46.243
| 47> H  -23.043   24.369   45.668
| 48> O  -22.586   26.394   46.375
| 49> C  -23.283   24.359   47.812
| 50> C  -23.997   23.003   47.799
| 51> C  -22.959   22.109   47.079
| 52> C  -21.605   22.678   47.571
| 53> O  -21.885   24.028   48.105
| 54> H  -23.622   25.041   48.596
| 55> O  -24.232   22.509   49.253
| 56> H  -24.964   23.031   47.283
| 57> H  -23.077   21.047   47.316
| 58> H  -23.054   22.222   45.993
| 59> H  -20.866   22.757   46.766
| 60> H  -21.177   22.090   48.388
| 61> H  -23.276   22.473   49.788
| 62> *
| 63>
| 64>                          ****END OF INPUT****
 Total Charge           Charge          ....    0
 Multiplicity           Mult            ....    1
 Number of Electrons    NEL             ....  102
FINAL SINGLE POINT ENERGY      -652.818712535251
FINAL SINGLE POINT ENERGY      -652.843872873673
FINAL SINGLE POINT ENERGY      -652.854919119306
FINAL SINGLE POINT ENERGY      -652.856764878679
FINAL SINGLE POINT ENERGY      -652.857141872399
FINAL SINGLE POINT ENERGY      -652.857188013699
FINAL SINGLE POINT ENERGY      -652.857192762451
                    ***********************HURRAY********************

CARTESIAN COORDINATES (ANGSTROEM)
---------------------------------
  C    -20.937239   26.257064   46.243468
  C    -20.519978   27.695289   45.940417
  C    -20.449611   28.313422   47.357294
  C    -19.934971   27.140067   48.219847
  O    -20.181388   25.913546   47.419257
  H    -20.673424   25.508495   45.487316
  H    -19.531899   27.690645   45.465346
  H    -21.229705   28.200919   45.282843
  H    -19.791676   29.186592   47.404042
  H    -21.451761   28.615657   47.674036
  H    -20.456524   27.045344   49.175373
  H    -18.856361   27.184125   48.400217
  C    -23.169508   25.079890   46.505798
  H    -24.195743   25.428906   46.350006
  H    -22.905008   24.419130   45.662167
  O    -22.374702   26.289616   46.408520
  C    -23.139881   24.274800   47.813288
  C    -24.014853   23.015629   47.733917
  C    -23.039928   21.990260   47.091264
  C    -21.671205   22.390866   47.696573
  O    -21.830098   23.772208   48.213538
  H    -23.470183   24.926579   48.629254
  O    -24.438395   22.594640   49.059242
  H    -24.937928   23.146542   47.166768
  H    -23.338116   20.969100   47.341041
  H    -23.041706   22.093915   46.000192
  H    -20.859052   22.378611   46.963663
  H    -21.385348   21.759935   48.544019
  H    -23.675810   22.663210   49.672294

 Multiplicity           Mult            ....    1
 Number of Electrons    NEL             ....  102
 Basis Dimension        Dim             ....  149

ORBITAL ENERGIES
----------------

  NO   OCC          E(Eh)            E(eV)
   0   2.0000     -19.140021      -520.8265
   1   2.0000     -19.137434      -520.7561
   2   2.0000     -19.136460      -520.7295
   3   2.0000     -19.128805      -520.5212
   4   2.0000     -10.272899      -279.5398
   5   2.0000     -10.242163      -278.7034
   6   2.0000     -10.233291      -278.4620
   7   2.0000     -10.230990      -278.3994
   8   2.0000     -10.227158      -278.2951
   9   2.0000     -10.216360      -278.0013
  10   2.0000     -10.188877      -277.2534
  11   2.0000     -10.178374      -276.9676
  12   2.0000     -10.178232      -276.9638
  13   2.0000      -1.045398       -28.4467
  14   2.0000      -1.033383       -28.1198
  15   2.0000      -1.003558       -27.3082
  16   2.0000      -0.989218       -26.9180
  17   2.0000      -0.786914       -21.4130
  18   2.0000      -0.777870       -21.1669
  19   2.0000      -0.763262       -20.7694
  20   2.0000      -0.727686       -19.8014
  21   2.0000      -0.671343       -18.2682
  22   2.0000      -0.602419       -16.3927
  23   2.0000      -0.596403       -16.2289
  24   2.0000      -0.590686       -16.0734
  25   2.0000      -0.573238       -15.5986
  26   2.0000      -0.520892       -14.1742
  27   2.0000      -0.511287       -13.9128
  28   2.0000      -0.491692       -13.3796
  29   2.0000      -0.478627       -13.0241
  30   2.0000      -0.471436       -12.8284
  31   2.0000      -0.455713       -12.4006
  32   2.0000      -0.449182       -12.2229
  33   2.0000      -0.434510       -11.8236
  34   2.0000      -0.417691       -11.3659
  35   2.0000      -0.408257       -11.1092
  36   2.0000      -0.393897       -10.7185
  37   2.0000      -0.391453       -10.6520
  38   2.0000      -0.372784       -10.1440
  39   2.0000      -0.367801       -10.0084
  40   2.0000      -0.352904        -9.6030
  41   2.0000      -0.349662        -9.5148
  42   2.0000      -0.340632        -9.2691
  43   2.0000      -0.334614        -9.1053
  44   2.0000      -0.319235        -8.6868
  45   2.0000      -0.301695        -8.2095
  46   2.0000      -0.285871        -7.7789
  47   2.0000      -0.269752        -7.3403
  48   2.0000      -0.267577        -7.2811
  49   2.0000      -0.251186        -6.8351
  50   2.0000      -0.228972        -6.2306
  51   0.0000       0.065845         1.7917
  52   0.0000       0.089497         2.4353
  53   0.0000       0.090266         2.4563
  54   0.0000       0.100501         2.7348
  55   0.0000       0.108899         2.9633

MULLIKEN ATOMIC CHARGES
-----------------------
   0 C :    0.304234
   1 C :   -0.263514
   2 C :   -0.297602
   3 C :   -0.006286
   4 O :   -0.485151
   5 H :    0.130419
   6 H :    0.142301
   7 H :    0.153573
   8 H :    0.136976
   9 H :    0.159679
  10 H :    0.148448
  11 H :    0.140191
  12 C :    0.005396
  13 H :    0.149990
  14 H :    0.113241
  15 O :   -0.528783
  16 C :    0.070708
  17 C :    0.072206
  18 C :   -0.295791
  19 C :   -0.035435
  20 O :   -0.492511
  21 H :    0.160606
  22 O :   -0.602206
  23 H :    0.150085
  24 H :    0.161424
  25 H :    0.144674
  26 H :    0.151770
  27 H :    0.146551
  28 H :    0.364810
Sum of atomic charges:   -0.0000000

LOEWDIN ATOMIC CHARGES
----------------------
   0 C :    0.177381
   1 C :   -0.216207
   2 C :   -0.216889
   3 C :   -0.028970
   4 O :   -0.307972
   5 H :    0.091056
   6 H :    0.112093
   7 H :    0.121849
   8 H :    0.111503
   9 H :    0.117827
  10 H :    0.106084
  11 H :    0.101211
  12 C :   -0.038596
  13 H :    0.116043
  14 H :    0.086425
  15 O :   -0.328301
  16 C :    0.005643
  17 C :    0.034610
  18 C :   -0.242965
  19 C :   -0.039452
  20 O :   -0.309108
  21 H :    0.115267
  22 O :   -0.413702
  23 H :    0.114139
  24 H :    0.126303
  25 H :    0.112166
  26 H :    0.106822
  27 H :    0.102544
  28 H :    0.283195

  Mayer bond orders larger than 0.100000
B(  0-C ,  1-C ) :   0.9453 B(  0-C ,  4-O ) :   0.9308 B(  0-C ,  5-H ) :   0.9230
B(  0-C , 15-O ) :   0.8429 B(  1-C ,  2-C ) :   0.9598 B(  1-C ,  6-H ) :   0.9411
B(  1-C ,  7-H ) :   0.9368 B(  2-C ,  3-C ) :   0.9533 B(  2-C ,  8-H ) :   0.9454
B(  2-C ,  9-H ) :   0.9448 B(  3-C ,  4-O ) :   0.8429 B(  3-C , 10-H ) :   0.9346
B(  3-C , 11-H ) :   0.9401 B( 12-C , 13-H ) :   0.9306 B( 12-C , 14-H ) :   0.9221
B( 12-C , 15-O ) :   0.8656 B( 12-C , 16-C ) :   0.8788 B( 16-C , 17-C ) :   0.8907
B( 16-C , 20-O ) :   0.8743 B( 16-C , 21-H ) :   0.9254 B( 17-C , 18-C ) :   0.9117
B( 17-C , 22-O ) :   0.8896 B( 17-C , 23-H ) :   0.9328 B( 18-C , 19-C ) :   0.9392
B( 18-C , 24-H ) :   0.9372 B( 18-C , 25-H ) :   0.9325 B( 19-C , 20-O ) :   0.8529
B( 19-C , 26-H ) :   0.9326 B( 19-C , 27-H ) :   0.9375 B( 22-O , 28-H ) :   0.7941

FINAL SINGLE POINT ENERGY      -652.857192865134

DIPOLE MOMENT
-------------
                                X             Y             Z
Electronic contribution:     -1.54352      -1.67931       2.05762
Nuclear contribution   :      1.85051       1.74184      -2.70642
                        -----------------------------------------
Total Dipole Moment    :      0.30700       0.06252      -0.64879
                        -----------------------------------------
Magnitude (a.u.)       :      0.72048
Magnitude (Debye)      :      1.83131

Rotational constants in cm-1:     0.059781     0.013842     0.013269
Rotational constants in MHz :  1792.183073   414.984080   397.805835

                             ****ORCA TERMINATED NORMALLY****
TOTAL RUN TIME: 0 days 2 hours 25 minutes 38 seconds 939 msec
