                         Program Version 4.2.0 -  RELEASE  -
|  1> # Test redundant internal optimization
|  2> #
|  3> ! RKS B3LYP  Opt TightSCF SmallPrint
|  4>
|  5> %basis
|  6>         Basis "6-31G"
|  7> end
|  8>
|  9> %geom
| 10> Constraints
| 11> { D 4  0  15  12  270.0   C } # D for Dihedral angle
| 12> { D 0  15  12  16  180.0   C } # D for Dihedral angle
| 13> { D 0  4  3  2   C } # D for Dihedral angle
| 14> { D 4  3  2  1   C } # D for Dihedral angle
| 15> { D 3  2  1  0   C } # D for Dihedral angle
| 16> { D 2  1  0  4   C } # D for Dihedral angle
| 17> { D 1  0  4  3   C } # D for Dihedral angle
| 18> { D 16  20  19  18   C } # D for Dihedral angle
| 19> { D 20  19  18  17   C } # D for Dihedral angle
| 20> { D 19  18  17  16   C } # D for Dihedral angle
| 21> { D 18  17  16  20   C } # D for Dihedral angle
| 22> { D 17  16  20  19   C } # D for Dihedral angle
| 23> { D 15  12  16  20   C } # D for Dihedral angle
| 24> end
| 25> end
| 26>
| 27>
| 28> #%pal
| 29> #nprocs 8
| 30> #end
| 31>
| 32> * xyz 0 1
| 33> C  -21.048   26.222   46.251
| 34> C  -20.361   27.558   45.944
| 35> C  -20.329   28.222   47.341
| 36> C  -20.110   27.022   48.296
| 37> O  -20.473   25.807   47.535
| 38> H  -20.833   25.428   45.533
| 39> H  -19.344   27.382   45.576
| 40> H  -20.898   28.157   45.201
| 41> H  -19.543   28.978   47.434
| 42> H  -21.289   28.710   47.548
| 43> H  -20.733   27.082   49.195
| 44> H  -19.064   26.913   48.597
| 45> C  -23.420   25.119   46.072
| 46> H  -23.215   24.787   45.047
| 47> H  -23.142   24.307   46.757
| 48> O  -22.586   26.394   46.375
| 49> C  -24.949   25.354   46.213
| 50> C  -25.732   24.051   46.021
| 51> C  -25.554   23.372   47.400
| 52> C  -25.558   24.568   48.384
| 53> O  -25.280   25.776   47.578
| 54> H  -25.250   26.164   45.546
| 55> H  -26.789   24.270   45.832
| 56> O  -25.196   23.183   44.850
| 57> H  -26.344   22.646   47.622
| 58> H  -24.594   22.844   47.438
| 59> H  -24.794   24.473   49.164
| 60> H  -26.533   24.715   48.859
| 61> H  -24.139   22.949   45.017
| 62> *
| 63>
| 64>                          ****END OF INPUT****
 Total Charge           Charge          ....    0
 Multiplicity           Mult            ....    1
 Number of Electrons    NEL             ....  102
FINAL SINGLE POINT ENERGY      -652.829463342019
FINAL SINGLE POINT ENERGY      -652.854495657958
FINAL SINGLE POINT ENERGY      -652.859391913607
FINAL SINGLE POINT ENERGY      -652.860249249095
FINAL SINGLE POINT ENERGY      -652.860405867840
FINAL SINGLE POINT ENERGY      -652.860437563678
FINAL SINGLE POINT ENERGY      -652.860442885561
FINAL SINGLE POINT ENERGY      -652.860443575533
                    ***********************HURRAY********************

CARTESIAN COORDINATES (ANGSTROEM)
---------------------------------
  C    -21.048983   26.159381   46.214816
  C    -20.507903   27.565651   45.954159
  C    -20.534666   28.183600   47.371833
  C    -20.186636   26.983971   48.280970
  O    -20.433084   25.768840   47.465259
  H    -20.777461   25.396905   45.477955
  H    -19.481574   27.495660   45.575206
  H    -21.119202   28.111809   45.233163
  H    -19.826979   29.010519   47.484600
  H    -21.540826   28.551788   47.590932
  H    -20.806890   26.935978   49.179283
  H    -19.130638   26.958982   48.567271
  C    -23.224694   25.054591   46.058513
  H    -23.045872   24.728012   45.023229
  H    -22.895422   24.259367   46.743129
  O    -22.481859   26.269126   46.337895
  C    -24.708227   25.359149   46.237482
  C    -25.619260   24.140781   46.015671
  C    -25.557553   23.437686   47.404984
  C    -25.468432   24.628032   48.384846
  O    -25.038260   25.804721   47.587046
  H    -24.964940   26.194002   45.579017
  H    -26.634910   24.482603   45.805703
  O    -25.273773   23.301208   44.886479
  H    -26.427966   22.800877   47.584955
  H    -24.659327   22.807821   47.457887
  H    -24.748984   24.462523   49.192644
  H    -26.439578   24.877208   48.822482
  H    -24.516098   22.722207   45.108593

 Multiplicity           Mult            ....    1
 Number of Electrons    NEL             ....  102
 Basis Dimension        Dim             ....  149

ORBITAL ENERGIES
----------------

  NO   OCC          E(Eh)            E(eV)
   0   2.0000     -19.150325      -521.1068
   1   2.0000     -19.139538      -520.8133
   2   2.0000     -19.135113      -520.6929
   3   2.0000     -19.133504      -520.6491
   4   2.0000     -10.274444      -279.5818
   5   2.0000     -10.244869      -278.7771
   6   2.0000     -10.229552      -278.3603
   7   2.0000     -10.228561      -278.3333
   8   2.0000     -10.228547      -278.3329
   9   2.0000     -10.218990      -278.0728
  10   2.0000     -10.195420      -277.4315
  11   2.0000     -10.179873      -277.0084
  12   2.0000     -10.178566      -276.9729
  13   2.0000      -1.050219       -28.5779
  14   2.0000      -1.033018       -28.1099
  15   2.0000      -1.014396       -27.6031
  16   2.0000      -0.990161       -26.9437
  17   2.0000      -0.785163       -21.3654
  18   2.0000      -0.780204       -21.2304
  19   2.0000      -0.764953       -20.8154
  20   2.0000      -0.725996       -19.7554
  21   2.0000      -0.677394       -18.4328
  22   2.0000      -0.611286       -16.6339
  23   2.0000      -0.592797       -16.1308
  24   2.0000      -0.585530       -15.9331
  25   2.0000      -0.578141       -15.7320
  26   2.0000      -0.529943       -14.4205
  27   2.0000      -0.510013       -13.8781
  28   2.0000      -0.494193       -13.4477
  29   2.0000      -0.484453       -13.1826
  30   2.0000      -0.468958       -12.7610
  31   2.0000      -0.456220       -12.4144
  32   2.0000      -0.441491       -12.0136
  33   2.0000      -0.434630       -11.8269
  34   2.0000      -0.426055       -11.5935
  35   2.0000      -0.415580       -11.3085
  36   2.0000      -0.400192       -10.8898
  37   2.0000      -0.396497       -10.7892
  38   2.0000      -0.376139       -10.2353
  39   2.0000      -0.372111       -10.1256
  40   2.0000      -0.352660        -9.5964
  41   2.0000      -0.349655        -9.5146
  42   2.0000      -0.341983        -9.3058
  43   2.0000      -0.328767        -8.9462
  44   2.0000      -0.319097        -8.6831
  45   2.0000      -0.315394        -8.5823
  46   2.0000      -0.297899        -8.1062
  47   2.0000      -0.271687        -7.3930
  48   2.0000      -0.262239        -7.1359
  49   2.0000      -0.245927        -6.6920
  50   2.0000      -0.239882        -6.5275
  51   0.0000       0.050015         1.3610
  52   0.0000       0.079760         2.1704
  53   0.0000       0.089673         2.4401
  54   0.0000       0.097534         2.6540
  55   0.0000       0.103192         2.8080

MULLIKEN ATOMIC CHARGES
-----------------------
   0 C :    0.284331
   1 C :   -0.256435
   2 C :   -0.299549
   3 C :    0.000101
   4 O :   -0.511445
   5 H :    0.134822
   6 H :    0.141167
   7 H :    0.153661
   8 H :    0.137554
   9 H :    0.171470
  10 H :    0.150526
  11 H :    0.138108
  12 C :   -0.006794
  13 H :    0.128764
  14 H :    0.133978
  15 O :   -0.510013
  16 C :    0.089926
  17 C :    0.084034
  18 C :   -0.326572
  19 C :   -0.008677
  20 O :   -0.503553
  21 H :    0.163750
  22 H :    0.167313
  23 O :   -0.600591
  24 H :    0.157613
  25 H :    0.134757
  26 H :    0.148594
  27 H :    0.147147
  28 H :    0.356013
Sum of atomic charges:    0.0000000

LOEWDIN ATOMIC CHARGES
----------------------
   0 C :    0.171783
   1 C :   -0.216111
   2 C :   -0.215947
   3 C :   -0.026489
   4 O :   -0.330106
   5 H :    0.094947
   6 H :    0.111772
   7 H :    0.122475
   8 H :    0.111908
   9 H :    0.123727
  10 H :    0.107322
  11 H :    0.100262
  12 C :   -0.050744
  13 H :    0.095584
  14 H :    0.094717
  15 O :   -0.315587
  16 C :    0.022641
  17 C :    0.035466
  18 C :   -0.241737
  19 C :   -0.029396
  20 O :   -0.312185
  21 H :    0.119590
  22 H :    0.119266
  23 O :   -0.408223
  24 H :    0.122231
  25 H :    0.104381
  26 H :    0.105152
  27 H :    0.105227
  28 H :    0.278073

  Mayer bond orders larger than 0.100000
B(  0-C ,  1-C ) :   0.9476 B(  0-C ,  4-O ) :   0.9150 B(  0-C ,  5-H ) :   0.9186
B(  0-C , 15-O ) :   0.8626 B(  1-C ,  2-C ) :   0.9579 B(  1-C ,  6-H ) :   0.9404
B(  1-C ,  7-H ) :   0.9370 B(  2-C ,  3-C ) :   0.9556 B(  2-C ,  8-H ) :   0.9454
B(  2-C ,  9-H ) :   0.9420 B(  3-C ,  4-O ) :   0.8367 B(  3-C , 10-H ) :   0.9353
B(  3-C , 11-H ) :   0.9404 B( 12-C , 13-H ) :   0.9037 B( 12-C , 14-H ) :   0.9144
B( 12-C , 15-O ) :   0.8427 B( 12-C , 16-C ) :   0.9080 B( 16-C , 17-C ) :   0.8750
B( 16-C , 20-O ) :   0.8749 B( 16-C , 21-H ) :   0.9293 B( 17-C , 18-C ) :   0.9236
B( 17-C , 22-H ) :   0.9339 B( 17-C , 23-O ) :   0.8957 B( 18-C , 19-C ) :   0.9406
B( 18-C , 24-H ) :   0.9416 B( 18-C , 25-H ) :   0.9404 B( 19-C , 20-O ) :   0.8514
B( 19-C , 26-H ) :   0.9308 B( 19-C , 27-H ) :   0.9379 B( 23-O , 28-H ) :   0.7986

FINAL SINGLE POINT ENERGY      -652.860443474876

DIPOLE MOMENT
-------------
                                X             Y             Z
Electronic contribution:     -1.95741      -1.10799      -1.71238
Nuclear contribution   :      2.25859       0.68855       1.86782
                        -----------------------------------------
Total Dipole Moment    :      0.30118      -0.41944       0.15545
                        -----------------------------------------
Magnitude (a.u.)       :      0.53926
Magnitude (Debye)      :      1.37069

Rotational constants in cm-1:     0.054630     0.012720     0.011737
Rotational constants in MHz :  1637.776780   381.337937   351.869851

                             ****ORCA TERMINATED NORMALLY****
TOTAL RUN TIME: 0 days 1 hours 0 minutes 37 seconds 573 msec
