                         Program Version 4.2.1 -  RELEASE  -
|  1> # Test redundant internal optimization
|  2> #
|  3> ! RKS B3LYP  Opt TightSCF SmallPrint
|  4>
|  5> %basis
|  6>         Basis "6-31G"
|  7> end
|  8>
|  9> %geom
| 10> Constraints
| 11> { D 4  0  19  14  195.0   C } # D for Dihedral angle
| 12> { D 0  19  14  12  75.0   C } # D for Dihedral angle
| 13> { D 0  4  3  2   C } # D for Dihedral angle
| 14> { D 4  3  2  1   C } # D for Dihedral angle
| 15> { D 3  2  1  0   C } # D for Dihedral angle
| 16> { D 2  1  0  4   C } # D for Dihedral angle
| 17> { D 1  0  4  3   C } # D for Dihedral angle
| 18> { D 14  15  16  17   C } # D for Dihedral angle
| 19> { D 15  16  17  12   C } # D for Dihedral angle
| 20> { D 16  17  12  14   C } # D for Dihedral angle
| 21> { D 17  12  14  15   C } # D for Dihedral angle
| 22> { D 12  14  15  16   C } # D for Dihedral angle
| 23> end
| 24> end
| 25>
| 26>
| 27> #%pal
| 28> #nprocs 8
| 29> #end
| 30>
| 31> * xyz 0 1
| 32> C  -21.048   26.222   46.251
| 33> C  -20.361   27.558   45.944
| 34> C  -20.329   28.222   47.341
| 35> C  -20.110   27.022   48.296
| 36> O  -20.473   25.807   47.535
| 37> H  -20.833   25.428   45.533
| 38> H  -19.344   27.382   45.576
| 39> H  -20.898   28.157   45.201
| 40> H  -19.543   28.978   47.434
| 41> H  -21.289   28.710   47.548
| 42> H  -20.733   27.082   49.195
| 43> H  -19.064   26.913   48.597
| 44> C  -23.246   25.057   44.476
| 45> H  -23.501   25.117   43.406
| 46> C  -23.163   26.451   45.109
| 47> C  -24.657   26.787   45.325
| 48> C  -25.281   25.413   45.676
| 49> O  -24.318   24.386   45.220
| 50> H  -22.347   24.452   44.596
| 51> O  -22.472   26.381   46.366
| 52> H  -22.651   27.182   44.473
| 53> H  -24.816   27.531   46.112
| 54> H  -25.093   27.183   44.399
| 55> H  -26.243   25.248   45.180
| 56> H  -25.410   25.276   46.754
| 57> *
| 58>
| 59>                          ****END OF INPUT****
 Total Charge           Charge          ....    0
 Multiplicity           Mult            ....    1
 Number of Electrons    NEL             ....   86
FINAL SINGLE POINT ENERGY      -538.426715421908
FINAL SINGLE POINT ENERGY      -538.430026906305
FINAL SINGLE POINT ENERGY      -538.430371753673
FINAL SINGLE POINT ENERGY      -538.430425836627
FINAL SINGLE POINT ENERGY      -538.430441103549
FINAL SINGLE POINT ENERGY      -538.430442857014
                    ***********************HURRAY********************

CARTESIAN COORDINATES (ANGSTROEM)
---------------------------------
  C    -20.991659   26.209309   46.233068
  C    -20.281783   27.532315   45.951923
  C    -20.357765   28.236853   47.328802
  C    -20.218963   27.064042   48.321552
  O    -20.530827   25.838113   47.539870
  H    -20.740877   25.389872   45.553883
  H    -19.241143   27.332131   45.670545
  H    -20.747188   28.113511   45.150613
  H    -19.575205   28.990404   47.458589
  H    -21.331065   28.723489   47.440230
  H    -20.912774   27.125624   49.163412
  H    -19.199047   26.942618   48.698065
  C    -23.306834   25.064299   44.381534
  H    -23.639320   25.179021   43.338024
  C    -23.158635   26.435864   45.039302
  C    -24.620840   26.775046   45.385331
  C    -25.230122   25.400923   45.751226
  O    -24.316329   24.381584   45.189463
  H    -22.406751   24.446457   44.402724
  O    -22.436411   26.387821   46.304722
  H    -22.704567   27.176778   44.365371
  H    -24.664699   27.494340   46.206523
  H    -25.115034   27.209201   44.508882
  H    -26.230379   25.257881   45.328161
  H    -25.264784   25.237504   46.831185

 Multiplicity           Mult            ....    1
 Number of Electrons    NEL             ....   86
 Basis Dimension        Dim             ....  127

ORBITAL ENERGIES
----------------

  NO   OCC          E(Eh)            E(eV)
   0   2.0000     -19.140401      -520.8368
   1   2.0000     -19.139261      -520.8058
   2   2.0000     -19.126735      -520.4649
   3   2.0000     -10.279085      -279.7081
   4   2.0000     -10.242787      -278.7204
   5   2.0000     -10.224286      -278.2170
   6   2.0000     -10.224125      -278.2126
   7   2.0000     -10.218158      -278.0502
   8   2.0000     -10.188309      -277.2380
   9   2.0000     -10.187056      -277.2039
  10   2.0000     -10.186178      -277.1800
  11   2.0000      -1.053578       -28.6693
  12   2.0000      -1.014234       -27.5987
  13   2.0000      -0.989448       -26.9242
  14   2.0000      -0.789496       -21.4833
  15   2.0000      -0.780233       -21.2312
  16   2.0000      -0.737252       -20.0617
  17   2.0000      -0.725737       -19.7483
  18   2.0000      -0.616438       -16.7741
  19   2.0000      -0.601127       -16.3575
  20   2.0000      -0.592604       -16.1256
  21   2.0000      -0.569200       -15.4887
  22   2.0000      -0.527634       -14.3576
  23   2.0000      -0.498779       -13.5725
  24   2.0000      -0.491590       -13.3768
  25   2.0000      -0.478897       -13.0314
  26   2.0000      -0.449605       -12.2344
  27   2.0000      -0.448695       -12.2096
  28   2.0000      -0.431558       -11.7433
  29   2.0000      -0.419257       -11.4086
  30   2.0000      -0.403024       -10.9668
  31   2.0000      -0.377147       -10.2627
  32   2.0000      -0.374282       -10.1847
  33   2.0000      -0.365005        -9.9323
  34   2.0000      -0.363908        -9.9024
  35   2.0000      -0.355570        -9.6756
  36   2.0000      -0.350973        -9.5505
  37   2.0000      -0.312355        -8.4996
  38   2.0000      -0.309130        -8.4118
  39   2.0000      -0.299883        -8.1602
  40   2.0000      -0.259123        -7.0511
  41   2.0000      -0.251287        -6.8379
  42   2.0000      -0.233699        -6.3593
  43   0.0000       0.074093         2.0162
  44   0.0000       0.098271         2.6741
  45   0.0000       0.100281         2.7288
  46   0.0000       0.106879         2.9083
  47   0.0000       0.116913         3.1814

MULLIKEN ATOMIC CHARGES
-----------------------
   0 C :    0.302038
   1 C :   -0.273300
   2 C :   -0.296568
   3 C :   -0.001124
   4 O :   -0.500676
   5 H :    0.138770
   6 H :    0.146185
   7 H :    0.141027
   8 H :    0.141763
   9 H :    0.158030
  10 H :    0.154409
  11 H :    0.141790
  12 C :   -0.004290
  13 H :    0.125128
  14 C :    0.054588
  15 C :   -0.292763
  16 C :    0.006670
  17 O :   -0.515224
  18 H :    0.158676
  19 O :   -0.502829
  20 H :    0.120768
  21 H :    0.165223
  22 H :    0.139551
  23 H :    0.132517
  24 H :    0.159642
Sum of atomic charges:   -0.0000000

LOEWDIN ATOMIC CHARGES
----------------------
   0 C :    0.179638
   1 C :   -0.230442
   2 C :   -0.216482
   3 C :   -0.025050
   4 O :   -0.302215
   5 H :    0.095507
   6 H :    0.114412
   7 H :    0.112233
   8 H :    0.114164
   9 H :    0.116969
  10 H :    0.109510
  11 H :    0.102492
  12 C :   -0.048443
  13 H :    0.092062
  14 C :    0.032828
  15 C :   -0.223191
  16 C :   -0.025799
  17 O :   -0.326599
  18 H :    0.114483
  19 O :   -0.324800
  20 H :    0.089982
  21 H :    0.128707
  22 H :    0.111294
  23 H :    0.097085
  24 H :    0.111657

  Mayer bond orders larger than 0.100000
B(  0-C ,  1-C ) :   0.9293 B(  0-C ,  4-O ) :   0.9380 B(  0-C ,  5-H ) :   0.9162
B(  0-C , 19-O ) :   0.8325 B(  1-C ,  2-C ) :   0.9525 B(  1-C ,  6-H ) :   0.9343
B(  1-C ,  7-H ) :   0.9342 B(  2-C ,  3-C ) :   0.9555 B(  2-C ,  8-H ) :   0.9451
B(  2-C ,  9-H ) :   0.9448 B(  3-C ,  4-O ) :   0.8368 B(  3-C , 10-H ) :   0.9343
B(  3-C , 11-H ) :   0.9397 B( 12-C , 13-H ) :   0.9082 B( 12-C , 14-C ) :   0.9089
B( 12-C , 17-O ) :   0.8790 B( 12-C , 18-H ) :   0.9287 B( 14-C , 15-C ) :   0.9585
B( 14-C , 19-O ) :   0.8444 B( 14-C , 20-H ) :   0.9134 B( 15-C , 16-C ) :   0.9468
B( 15-C , 21-H ) :   0.9357 B( 15-C , 22-H ) :   0.9425 B( 16-C , 17-O ) :   0.8531
B( 16-C , 23-H ) :   0.9334 B( 16-C , 24-H ) :   0.9357

FINAL SINGLE POINT ENERGY      -538.430443405927

DIPOLE MOMENT
-------------
                                X             Y             Z
Electronic contribution:     -0.31917      -4.60097       0.96009
Nuclear contribution   :      0.63690       6.18452      -1.65662
                        -----------------------------------------
Total Dipole Moment    :      0.31773       1.58355      -0.69653
                        -----------------------------------------
Magnitude (a.u.)       :      1.75890
Magnitude (Debye)      :      4.47077

Rotational constants in cm-1:     0.083677     0.019833     0.019463
Rotational constants in MHz :  2508.571152   594.564952   583.485605

                             ****ORCA TERMINATED NORMALLY****
TOTAL RUN TIME: 0 days 0 hours 6 minutes 23 seconds 823 msec
