                         Program Version 4.2.0 -  RELEASE  -
|  1> # Test redundant internal optimization
|  2> #
|  3> ! RKS B3LYP  Opt TightSCF SmallPrint
|  4>
|  5> %basis
|  6>         Basis "6-31G"
|  7> end
|  8>
|  9> %geom
| 10> Constraints
| 11> { D 4  0  15  12  120.0   C } # D for Dihedral angle
| 12> { D 0  15  12  16  120.0   C } # D for Dihedral angle
| 13> { D 0  4  3  2   C } # D for Dihedral angle
| 14> { D 4  3  2  1   C } # D for Dihedral angle
| 15> { D 3  2  1  0   C } # D for Dihedral angle
| 16> { D 2  1  0  4   C } # D for Dihedral angle
| 17> { D 1  0  4  3   C } # D for Dihedral angle
| 18> { D 16  20  19  18   C } # D for Dihedral angle
| 19> { D 20  19  18  17   C } # D for Dihedral angle
| 20> { D 19  18  17  16   C } # D for Dihedral angle
| 21> { D 18  17  16  20   C } # D for Dihedral angle
| 22> { D 17  16  20  19   C } # D for Dihedral angle
| 23> { D 15  12  16  20   C } # D for Dihedral angle
| 24> end
| 25> end
| 26>
| 27>
| 28> #%pal
| 29> #nprocs 8
| 30> #end
| 31>
| 32> * xyz 0 1
| 33> C  -21.048   26.222   46.251
| 34> C  -20.361   27.558   45.944
| 35> C  -20.329   28.222   47.341
| 36> C  -20.110   27.022   48.296
| 37> O  -20.473   25.807   47.535
| 38> H  -20.833   25.428   45.533
| 39> H  -19.344   27.382   45.576
| 40> H  -20.898   28.157   45.201
| 41> H  -19.543   28.978   47.434
| 42> H  -21.289   28.710   47.548
| 43> H  -20.733   27.082   49.195
| 44> H  -19.064   26.913   48.597
| 45> C  -23.119   27.818   46.058
| 46> H  -23.624   28.221   46.944
| 47> H  -22.290   28.490   45.800
| 48> O  -22.586   26.394   46.375
| 49> C  -24.125   27.833   44.874
| 50> C  -24.541   29.264   44.514
| 51> C  -23.324   29.745   43.688
| 52> C  -22.882   28.465   42.936
| 53> O  -23.489   27.324   43.654
| 54> H  -24.958   27.164   45.103
| 55> H  -25.446   29.250   43.897
| 56> O  -24.812   30.151   45.760
| 57> H  -23.572   30.565   43.006
| 58> H  -22.529   30.094   44.357
| 59> H  -21.793   28.342   42.923
| 60> H  -23.254   28.435   41.908
| 61> H  -23.918   30.182   46.393
| 62> *
| 63>
| 64>                          ****END OF INPUT****
 Total Charge           Charge          ....    0
 Multiplicity           Mult            ....    1
 Number of Electrons    NEL             ....  102
FINAL SINGLE POINT ENERGY      -652.809497817658
FINAL SINGLE POINT ENERGY      -652.834578181257
FINAL SINGLE POINT ENERGY      -652.845322992972
FINAL SINGLE POINT ENERGY      -652.847071122889
FINAL SINGLE POINT ENERGY      -652.847408651876
FINAL SINGLE POINT ENERGY      -652.847489251350
FINAL SINGLE POINT ENERGY      -652.847502772125
FINAL SINGLE POINT ENERGY      -652.847505902062
                    ***********************HURRAY********************

CARTESIAN COORDINATES (ANGSTROEM)
---------------------------------
  C    -21.116639   26.313569   46.303412
  C    -20.136887   27.456821   46.019469
  C    -19.996421   28.119359   47.418084
  C    -20.085898   26.904160   48.373271
  O    -20.692499   25.807907   47.586540
  H    -21.035764   25.472557   45.613889
  H    -19.183803   27.013242   45.712941
  H    -20.454247   28.140710   45.228819
  H    -19.053492   28.663847   47.527787
  H    -20.813759   28.824889   47.603050
  H    -20.705427   27.097254   49.253712
  H    -19.101124   26.555903   48.698338
  C    -23.085900   27.948054   46.091341
  H    -23.656232   28.247206   46.979909
  H    -22.305437   28.696067   45.909988
  O    -22.529118   26.634857   46.336685
  C    -24.028268   27.852673   44.890497
  C    -24.677332   29.182045   44.468198
  C    -23.555896   29.820080   43.595585
  C    -22.921962   28.593596   42.902434
  O    -23.330861   27.400410   43.687953
  H    -24.769993   27.080080   45.108868
  H    -25.562222   28.977538   43.862039
  O    -25.162619   30.014240   45.548996
  H    -23.948168   30.555259   42.887963
  H    -22.833729   30.331132   44.247383
  H    -21.828301   28.641610   42.865232
  H    -23.300012   28.451972   41.885739
  H    -24.414992   30.420963   46.032879

 Multiplicity           Mult            ....    1
 Number of Electrons    NEL             ....  102
 Basis Dimension        Dim             ....  149

ORBITAL ENERGIES
----------------

  NO   OCC          E(Eh)            E(eV)
   0   2.0000     -19.153050      -521.1810
   1   2.0000     -19.141523      -520.8673
   2   2.0000     -19.135244      -520.6965
   3   2.0000     -19.134881      -520.6866
   4   2.0000     -10.276846      -279.6472
   5   2.0000     -10.248104      -278.8651
   6   2.0000     -10.235651      -278.5262
   7   2.0000     -10.234473      -278.4942
   8   2.0000     -10.230067      -278.3743
   9   2.0000     -10.226264      -278.2708
  10   2.0000     -10.200397      -277.5669
  11   2.0000     -10.195382      -277.4305
  12   2.0000     -10.194518      -277.4069
  13   2.0000      -1.048182       -28.5225
  14   2.0000      -1.036298       -28.1991
  15   2.0000      -1.018986       -27.7280
  16   2.0000      -0.990044       -26.9405
  17   2.0000      -0.790557       -21.5121
  18   2.0000      -0.786762       -21.4089
  19   2.0000      -0.772452       -21.0195
  20   2.0000      -0.733361       -19.9558
  21   2.0000      -0.687568       -18.7097
  22   2.0000      -0.615428       -16.7467
  23   2.0000      -0.605414       -16.4741
  24   2.0000      -0.597824       -16.2676
  25   2.0000      -0.571539       -15.5524
  26   2.0000      -0.531615       -14.4660
  27   2.0000      -0.510174       -13.8825
  28   2.0000      -0.507199       -13.8016
  29   2.0000      -0.494701       -13.4615
  30   2.0000      -0.472432       -12.8555
  31   2.0000      -0.462085       -12.5740
  32   2.0000      -0.448099       -12.1934
  33   2.0000      -0.438638       -11.9359
  34   2.0000      -0.428904       -11.6711
  35   2.0000      -0.421782       -11.4773
  36   2.0000      -0.409295       -11.1375
  37   2.0000      -0.402210       -10.9447
  38   2.0000      -0.383143       -10.4259
  39   2.0000      -0.382385       -10.4052
  40   2.0000      -0.363627        -9.8948
  41   2.0000      -0.357476        -9.7274
  42   2.0000      -0.353547        -9.6205
  43   2.0000      -0.334674        -9.1069
  44   2.0000      -0.318361        -8.6630
  45   2.0000      -0.312513        -8.5039
  46   2.0000      -0.289714        -7.8835
  47   2.0000      -0.273645        -7.4463
  48   2.0000      -0.265592        -7.2271
  49   2.0000      -0.254623        -6.9286
  50   2.0000      -0.236503        -6.4356
  51   0.0000       0.042150         1.1470
  52   0.0000       0.058492         1.5917
  53   0.0000       0.083252         2.2654
  54   0.0000       0.091299         2.4844
  55   0.0000       0.101769         2.7693

MULLIKEN ATOMIC CHARGES
-----------------------
   0 C :    0.323527
   1 C :   -0.308039
   2 C :   -0.307753
   3 C :   -0.001425
   4 O :   -0.494498
   5 H :    0.167418
   6 H :    0.158437
   7 H :    0.147983
   8 H :    0.144628
   9 H :    0.143830
  10 H :    0.147824
  11 H :    0.143946
  12 C :   -0.014848
  13 H :    0.145913
  14 H :    0.111756
  15 O :   -0.520369
  16 C :    0.097680
  17 C :    0.080730
  18 C :   -0.323665
  19 C :   -0.017287
  20 O :   -0.508724
  21 H :    0.171503
  22 H :    0.171796
  23 O :   -0.596998
  24 H :    0.160049
  25 H :    0.128480
  26 H :    0.141025
  27 H :    0.153302
  28 H :    0.353779
Sum of atomic charges:   -0.0000000

LOEWDIN ATOMIC CHARGES
----------------------
   0 C :    0.186264
   1 C :   -0.233162
   2 C :   -0.222233
   3 C :   -0.029593
   4 O :   -0.313385
   5 H :    0.112277
   6 H :    0.124401
   7 H :    0.113618
   8 H :    0.115335
   9 H :    0.106114
  10 H :    0.105137
  11 H :    0.103272
  12 C :   -0.047797
  13 H :    0.106615
  14 H :    0.086663
  15 O :   -0.318428
  16 C :    0.015556
  17 C :    0.034041
  18 C :   -0.242107
  19 C :   -0.033164
  20 O :   -0.316858
  21 H :    0.123243
  22 H :    0.121371
  23 O :   -0.405575
  24 H :    0.123839
  25 H :    0.101072
  26 H :    0.099079
  27 H :    0.107924
  28 H :    0.276481

  Mayer bond orders larger than 0.100000
B(  0-C ,  1-C ) :   0.9320 B(  0-C ,  4-O ) :   0.9101 B(  0-C ,  5-H ) :   0.9296
B(  0-C , 15-O ) :   0.8703 B(  1-C ,  2-C ) :   0.9488 B(  1-C ,  6-H ) :   0.9340
B(  1-C ,  7-H ) :   0.9266 B(  2-C ,  3-C ) :   0.9490 B(  2-C ,  8-H ) :   0.9458
B(  2-C ,  9-H ) :   0.9428 B(  3-C ,  4-O ) :   0.8501 B(  3-C , 10-H ) :   0.9341
B(  3-C , 11-H ) :   0.9393 B( 12-C , 13-H ) :   0.9148 B( 12-C , 14-H ) :   0.9072
B( 12-C , 15-O ) :   0.8596 B( 12-C , 16-C ) :   0.8943 B( 16-C , 17-C ) :   0.8703
B( 16-C , 20-O ) :   0.8649 B( 16-C , 21-H ) :   0.9283 B( 17-C , 18-C ) :   0.9182
B( 17-C , 22-H ) :   0.9317 B( 17-C , 23-O ) :   0.8982 B( 18-C , 19-C ) :   0.9410
B( 18-C , 24-H ) :   0.9417 B( 18-C , 25-H ) :   0.9416 B( 19-C , 20-O ) :   0.8527
B( 19-C , 26-H ) :   0.9290 B( 19-C , 27-H ) :   0.9368 B( 23-O , 28-H ) :   0.7994

FINAL SINGLE POINT ENERGY      -652.847506665550

DIPOLE MOMENT
-------------
                                X             Y             Z
Electronic contribution:     -4.29939      -5.13258       0.39742
Nuclear contribution   :      5.41864       6.96313      -0.79334
                        -----------------------------------------
Total Dipole Moment    :      1.11925       1.83055      -0.39592
                        -----------------------------------------
Magnitude (a.u.)       :      2.18183
Magnitude (Debye)      :      5.54578

Rotational constants in cm-1:     0.050719     0.013953     0.013327
Rotational constants in MHz :  1520.523757   418.313769   399.547345

                             ****ORCA TERMINATED NORMALLY****
TOTAL RUN TIME: 0 days 2 hours 3 minutes 18 seconds 731 msec
