                         Program Version 4.2.0 -  RELEASE  -
|  1> # Test redundant internal optimization
|  2> #
|  3> ! RKS B3LYP  Opt TightSCF SmallPrint
|  4>
|  5> %basis
|  6>         Basis "6-31G"
|  7> end
|  8>
|  9> %geom
| 10> Constraints
| 11> { D 4  0  15  12  105.0   C } # D for Dihedral angle
| 12> { D 0  15  12  16  225.0   C } # D for Dihedral angle
| 13> { D 0  4  3  2   C } # D for Dihedral angle
| 14> { D 4  3  2  1   C } # D for Dihedral angle
| 15> { D 3  2  1  0   C } # D for Dihedral angle
| 16> { D 2  1  0  4   C } # D for Dihedral angle
| 17> { D 1  0  4  3   C } # D for Dihedral angle
| 18> { D 16  20  19  18   C } # D for Dihedral angle
| 19> { D 20  19  18  17   C } # D for Dihedral angle
| 20> { D 19  18  17  16   C } # D for Dihedral angle
| 21> { D 18  17  16  20   C } # D for Dihedral angle
| 22> { D 17  16  20  19   C } # D for Dihedral angle
| 23> { D 15  12  16  20   C } # D for Dihedral angle
| 24> end
| 25> end
| 26>
| 27>
| 28> #%pal
| 29> #nprocs 8
| 30> #end
| 31>
| 32> * xyz 0 1
| 33> C  -21.048   26.222   46.251
| 34> C  -20.361   27.558   45.944
| 35> C  -20.329   28.222   47.341
| 36> C  -20.110   27.022   48.296
| 37> O  -20.473   25.807   47.535
| 38> H  -20.833   25.428   45.533
| 39> H  -19.344   27.382   45.576
| 40> H  -20.898   28.157   45.201
| 41> H  -19.543   28.978   47.434
| 42> H  -21.289   28.710   47.548
| 43> H  -20.733   27.082   49.195
| 44> H  -19.064   26.913   48.597
| 45> C  -23.085   27.864   46.420
| 46> H  -22.234   28.529   46.615
| 47> H  -23.529   28.149   45.458
| 48> O  -22.586   26.394   46.375
| 49> C  -24.153   28.103   47.523
| 50> C  -25.337   27.142   47.369
| 51> C  -24.768   25.841   47.985
| 52> C  -23.865   26.361   49.131
| 53> O  -23.603   27.789   48.846
| 54> H  -24.427   29.159   47.534
| 55> H  -26.192   27.503   47.950
| 56> O  -25.788   26.961   45.894
| 57> H  -25.549   25.164   48.344
| 58> H  -24.172   25.301   47.240
| 59> H  -22.911   25.826   49.191
| 60> H  -24.359   26.314   50.106
| 61> H  -24.947   26.600   45.293
| 62> *
| 63>
| 64>                          ****END OF INPUT****
 Total Charge           Charge          ....    0
 Multiplicity           Mult            ....    1
 Number of Electrons    NEL             ....  102
FINAL SINGLE POINT ENERGY      -652.811408305206
FINAL SINGLE POINT ENERGY      -652.840236643182
FINAL SINGLE POINT ENERGY      -652.854370874965
FINAL SINGLE POINT ENERGY      -652.857044334044
FINAL SINGLE POINT ENERGY      -652.857458022778
FINAL SINGLE POINT ENERGY      -652.857511769853
FINAL SINGLE POINT ENERGY      -652.857500722050
                    ***********************HURRAY********************

CARTESIAN COORDINATES (ANGSTROEM)
---------------------------------
  C    -21.143520   26.402426   46.323344
  C    -20.206424   27.554963   45.934814
  C    -19.980177   28.267005   47.302429
  C    -19.979041   27.080650   48.298414
  O    -20.619957   25.946318   47.588686
  H    -21.079346   25.539706   45.658046
  H    -19.269028   27.127049   45.566684
  H    -20.614245   28.210599   45.160021
  H    -19.034016   28.817070   47.323961
  H    -20.779160   28.973004   47.536768
  H    -20.548847   27.292516   49.206415
  H    -18.969582   26.755696   48.564731
  C    -23.169676   27.993811   46.435946
  H    -22.440431   28.773099   46.659178
  H    -23.614204   28.210839   45.455426
  O    -22.562395   26.670692   46.391957
  C    -24.262094   28.034529   47.501743
  C    -25.417134   27.035208   47.316617
  C    -24.826957   25.740887   47.957401
  C    -23.977829   26.292913   49.121230
  O    -23.748602   27.738397   48.832268
  H    -24.639459   29.064322   47.534583
  H    -26.299084   27.383200   47.858307
  O    -25.852854   26.881046   45.943163
  H    -25.612603   25.058440   48.295607
  H    -24.193813   25.235955   47.225323
  H    -23.006017   25.800324   49.195492
  H    -24.497268   26.245141   50.083142
  H    -25.186236   26.355197   45.453304

 Multiplicity           Mult            ....    1
 Number of Electrons    NEL             ....  102
 Basis Dimension        Dim             ....  149

ORBITAL ENERGIES
----------------

  NO   OCC          E(Eh)            E(eV)
   0   2.0000     -19.147260      -521.0234
   1   2.0000     -19.142254      -520.8872
   2   2.0000     -19.135836      -520.7126
   3   2.0000     -19.131075      -520.5830
   4   2.0000     -10.285448      -279.8813
   5   2.0000     -10.232970      -278.4533
   6   2.0000     -10.232336      -278.4360
   7   2.0000     -10.227428      -278.3025
   8   2.0000     -10.226883      -278.2876
   9   2.0000     -10.213881      -277.9338
  10   2.0000     -10.198056      -277.5032
  11   2.0000     -10.194424      -277.4044
  12   2.0000     -10.172226      -276.8003
  13   2.0000      -1.054303       -28.6890
  14   2.0000      -1.022804       -27.8319
  15   2.0000      -1.005609       -27.3640
  16   2.0000      -0.995338       -27.0845
  17   2.0000      -0.791692       -21.5430
  18   2.0000      -0.774168       -21.0662
  19   2.0000      -0.761720       -20.7274
  20   2.0000      -0.732856       -19.9420
  21   2.0000      -0.680018       -18.5042
  22   2.0000      -0.608350       -16.5541
  23   2.0000      -0.599034       -16.3005
  24   2.0000      -0.595622       -16.2077
  25   2.0000      -0.561196       -15.2709
  26   2.0000      -0.529025       -14.3955
  27   2.0000      -0.508115       -13.8265
  28   2.0000      -0.498086       -13.5536
  29   2.0000      -0.490117       -13.3368
  30   2.0000      -0.465566       -12.6687
  31   2.0000      -0.457961       -12.4618
  32   2.0000      -0.444511       -12.0958
  33   2.0000      -0.427369       -11.6293
  34   2.0000      -0.419732       -11.4215
  35   2.0000      -0.416139       -11.3237
  36   2.0000      -0.400610       -10.9011
  37   2.0000      -0.394686       -10.7399
  38   2.0000      -0.389247       -10.5919
  39   2.0000      -0.366200        -9.9648
  40   2.0000      -0.362232        -9.8568
  41   2.0000      -0.354427        -9.6444
  42   2.0000      -0.347780        -9.4636
  43   2.0000      -0.322105        -8.7649
  44   2.0000      -0.314590        -8.5604
  45   2.0000      -0.304956        -8.2983
  46   2.0000      -0.294604        -8.0166
  47   2.0000      -0.277027        -7.5383
  48   2.0000      -0.258110        -7.0235
  49   2.0000      -0.254923        -6.9368
  50   2.0000      -0.234583        -6.3833
  51   0.0000       0.066483         1.8091
  52   0.0000       0.083507         2.2724
  53   0.0000       0.093628         2.5477
  54   0.0000       0.098494         2.6802
  55   0.0000       0.104401         2.8409

MULLIKEN ATOMIC CHARGES
-----------------------
   0 C :    0.322677
   1 C :   -0.301501
   2 C :   -0.315986
   3 C :   -0.008018
   4 O :   -0.501171
   5 H :    0.159692
   6 H :    0.159276
   7 H :    0.149539
   8 H :    0.145819
   9 H :    0.167532
  10 H :    0.163654
  11 H :    0.143855
  12 C :   -0.018753
  13 H :    0.139301
  14 H :    0.140252
  15 O :   -0.549344
  16 C :    0.099986
  17 C :    0.086288
  18 C :   -0.311531
  19 C :   -0.010807
  20 O :   -0.531320
  21 H :    0.142147
  22 H :    0.158925
  23 O :   -0.608124
  24 H :    0.140526
  25 H :    0.172768
  26 H :    0.166233
  27 H :    0.134269
  28 H :    0.363815
Sum of atomic charges:   -0.0000000

LOEWDIN ATOMIC CHARGES
----------------------
   0 C :    0.180925
   1 C :   -0.231053
   2 C :   -0.222296
   3 C :   -0.030847
   4 O :   -0.319566
   5 H :    0.107919
   6 H :    0.124846
   7 H :    0.117114
   8 H :    0.116143
   9 H :    0.115068
  10 H :    0.113054
  11 H :    0.103367
  12 C :   -0.045984
  13 H :    0.104625
  14 H :    0.101567
  15 O :   -0.335624
  16 C :    0.017144
  17 C :    0.037940
  18 C :   -0.242366
  19 C :   -0.027050
  20 O :   -0.330992
  21 H :    0.110745
  22 H :    0.114857
  23 O :   -0.413084
  24 H :    0.113123
  25 H :    0.125582
  26 H :    0.114467
  27 H :    0.097898
  28 H :    0.282477

  Mayer bond orders larger than 0.100000
B(  0-C ,  1-C ) :   0.9322 B(  0-C ,  4-O ) :   0.9130 B(  0-C ,  5-H ) :   0.9349
B(  0-C , 15-O ) :   0.8675 B(  1-C ,  2-C ) :   0.9518 B(  1-C ,  6-H ) :   0.9340
B(  1-C ,  7-H ) :   0.9331 B(  2-C ,  3-C ) :   0.9485 B(  2-C ,  8-H ) :   0.9450
B(  2-C ,  9-H ) :   0.9313 B(  3-C ,  4-O ) :   0.8384 B(  3-C , 10-H ) :   0.9298
B(  3-C , 11-H ) :   0.9393 B( 12-C , 13-H ) :   0.9086 B( 12-C , 14-H ) :   0.9133
B( 12-C , 15-O ) :   0.8315 B( 12-C , 16-C ) :   0.9018 B( 16-C , 17-C ) :   0.8878
B( 16-C , 20-O ) :   0.8826 B( 16-C , 21-H ) :   0.9272 B( 17-C , 18-C ) :   0.9371
B( 17-C , 22-H ) :   0.9366 B( 17-C , 23-O ) :   0.8995 B( 18-C , 19-C ) :   0.9462
B( 18-C , 24-H ) :   0.9411 B( 18-C , 25-H ) :   0.9239 B( 19-C , 20-O ) :   0.8279
B( 19-C , 26-H ) :   0.9233 B( 19-C , 27-H ) :   0.9384 B( 23-O , 28-H ) :   0.7933

FINAL SINGLE POINT ENERGY      -652.857498147948

DIPOLE MOMENT
-------------
                                X             Y             Z
Electronic contribution:     -3.14284      -1.63968      -0.47750
Nuclear contribution   :      4.15564       2.05523       0.06927
                        -----------------------------------------
Total Dipole Moment    :      1.01280       0.41555      -0.40823
                        -----------------------------------------
Magnitude (a.u.)       :      1.16837
Magnitude (Debye)      :      2.96977

Rotational constants in cm-1:     0.048383     0.017809     0.016228
Rotational constants in MHz :  1450.481214   533.892352   486.507827

                             ****ORCA TERMINATED NORMALLY****
TOTAL RUN TIME: 0 days 0 hours 16 minutes 57 seconds 154 msec
