                         Program Version 4.2.0 -  RELEASE  -
|  1> # Test redundant internal optimization
|  2> #
|  3> ! RKS B3LYP  Opt TightSCF SmallPrint
|  4>
|  5> %basis
|  6>         Basis "6-31G"
|  7> end
|  8>
|  9> %geom
| 10> Constraints
| 11> { D 4  0  15  12  0.0   C } # D for Dihedral angle
| 12> { D 0  15  12  16  240.0   C } # D for Dihedral angle
| 13> { D 0  4  3  2   C } # D for Dihedral angle
| 14> { D 4  3  2  1   C } # D for Dihedral angle
| 15> { D 3  2  1  0   C } # D for Dihedral angle
| 16> { D 2  1  0  4   C } # D for Dihedral angle
| 17> { D 1  0  4  3   C } # D for Dihedral angle
| 18> { D 16  20  19  18   C } # D for Dihedral angle
| 19> { D 20  19  18  17   C } # D for Dihedral angle
| 20> { D 19  18  17  16   C } # D for Dihedral angle
| 21> { D 18  17  16  20   C } # D for Dihedral angle
| 22> { D 17  16  20  19   C } # D for Dihedral angle
| 23> { D 15  12  16  20   C } # D for Dihedral angle
| 24> end
| 25> end
| 26>
| 27>
| 28> #%pal
| 29> #nprocs 8
| 30> #end
| 31>
| 32> * xyz 0 1
| 33> C  -21.048   26.222   46.251
| 34> C  -20.361   27.558   45.944
| 35> C  -20.329   28.222   47.341
| 36> C  -20.110   27.022   48.296
| 37> O  -20.473   25.807   47.535
| 38> H  -20.833   25.428   45.533
| 39> H  -19.344   27.382   45.576
| 40> H  -20.898   28.157   45.201
| 41> H  -19.543   28.978   47.434
| 42> H  -21.289   28.710   47.548
| 43> H  -20.733   27.082   49.195
| 44> H  -19.064   26.913   48.597
| 45> C  -23.172   26.101   47.783
| 46> H  -22.357   25.822   48.464
| 47> H  -23.666   26.994   48.187
| 48> O  -22.586   26.394   46.375
| 49> C  -24.214   24.948   47.772
| 50> C  -24.855   24.764   49.152
| 51> C  -25.894   25.910   49.171
| 52> C  -26.366   25.982   47.698
| 53> O  -25.340   25.284   46.894
| 54> H  -23.748   24.048   47.366
| 55> H  -25.353   23.790   49.209
| 56> O  -23.832   24.859   50.317
| 57> H  -26.720   25.723   49.865
| 58> H  -25.412   26.850   49.469
| 59> H  -26.463   27.012   47.338
| 60> H  -27.313   25.459   47.537
| 61> H  -23.321   25.827   50.282
| 62> *
| 63>
| 64>                          ****END OF INPUT****
 Total Charge           Charge          ....    0
 Multiplicity           Mult            ....    1
 Number of Electrons    NEL             ....  102
FINAL SINGLE POINT ENERGY      -652.824735134084
FINAL SINGLE POINT ENERGY      -652.847881265947
FINAL SINGLE POINT ENERGY      -652.852427436860
FINAL SINGLE POINT ENERGY      -652.853188766706
FINAL SINGLE POINT ENERGY      -652.853319064960
FINAL SINGLE POINT ENERGY      -652.853355138149
FINAL SINGLE POINT ENERGY      -652.853358041803
                    ***********************HURRAY********************

CARTESIAN COORDINATES (ANGSTROEM)
---------------------------------
  C    -21.099876   26.217236   46.355790
  C    -20.464161   27.543069   45.935311
  C    -20.237730   28.232877   47.301394
  C    -19.888353   27.054807   48.237002
  O    -20.364264   25.828111   47.535982
  H    -20.978750   25.404384   45.636671
  H    -19.511340   27.344511   45.430790
  H    -21.113426   28.111131   45.266132
  H    -19.442513   28.983970   47.268699
  H    -21.158915   28.729126   47.624737
  H    -20.377188   27.114442   49.213609
  H    -18.811859   26.928565   48.382080
  C    -23.121655   26.168119   47.868744
  H    -22.347608   25.873042   48.584001
  H    -23.580186   27.114818   48.185222
  O    -22.536468   26.387755   46.557328
  C    -24.163102   25.051170   47.796325
  C    -24.871258   24.780251   49.135399
  C    -25.986350   25.870247   49.135660
  C    -26.371550   25.960461   47.642773
  O    -25.256870   25.350722   46.876113
  H    -23.675319   24.156046   47.399965
  H    -25.314113   23.782381   49.116427
  O    -24.020173   24.777369   50.307570
  H    -26.827356   25.602313   49.780304
  H    -25.568904   26.818469   49.500047
  H    -26.519257   26.989780   47.301687
  H    -27.271867   25.382330   47.413261
  H    -23.756589   25.690496   50.540976

 Multiplicity           Mult            ....    1
 Number of Electrons    NEL             ....  102
 Basis Dimension        Dim             ....  149

ORBITAL ENERGIES
----------------

  NO   OCC          E(Eh)            E(eV)
   0   2.0000     -19.152097      -521.1551
   1   2.0000     -19.147176      -521.0212
   2   2.0000     -19.132932      -520.6335
   3   2.0000     -19.131207      -520.5866
   4   2.0000     -10.277358      -279.6611
   5   2.0000     -10.241227      -278.6780
   6   2.0000     -10.234517      -278.4954
   7   2.0000     -10.226135      -278.2673
   8   2.0000     -10.224221      -278.2152
   9   2.0000     -10.223709      -278.2013
  10   2.0000     -10.192575      -277.3541
  11   2.0000     -10.192258      -277.3455
  12   2.0000     -10.184678      -277.1392
  13   2.0000      -1.054055       -28.6823
  14   2.0000      -1.030249       -28.0345
  15   2.0000      -1.011374       -27.5209
  16   2.0000      -0.988946       -26.9106
  17   2.0000      -0.791334       -21.5333
  18   2.0000      -0.778755       -21.1910
  19   2.0000      -0.765743       -20.8369
  20   2.0000      -0.733112       -19.9490
  21   2.0000      -0.676525       -18.4092
  22   2.0000      -0.607924       -16.5425
  23   2.0000      -0.604696       -16.4546
  24   2.0000      -0.595509       -16.2046
  25   2.0000      -0.565101       -15.3772
  26   2.0000      -0.525223       -14.2920
  27   2.0000      -0.509249       -13.8574
  28   2.0000      -0.499337       -13.5876
  29   2.0000      -0.496718       -13.5164
  30   2.0000      -0.469106       -12.7650
  31   2.0000      -0.458475       -12.4757
  32   2.0000      -0.442516       -12.0415
  33   2.0000      -0.428421       -11.6579
  34   2.0000      -0.422359       -11.4930
  35   2.0000      -0.415429       -11.3044
  36   2.0000      -0.412736       -11.2311
  37   2.0000      -0.396076       -10.7778
  38   2.0000      -0.374564       -10.1924
  39   2.0000      -0.372187       -10.1277
  40   2.0000      -0.361131        -9.8269
  41   2.0000      -0.351402        -9.5621
  42   2.0000      -0.348814        -9.4917
  43   2.0000      -0.334520        -9.1027
  44   2.0000      -0.325391        -8.8544
  45   2.0000      -0.311348        -8.4722
  46   2.0000      -0.299232        -8.1425
  47   2.0000      -0.268653        -7.3104
  48   2.0000      -0.264997        -7.2109
  49   2.0000      -0.254422        -6.9232
  50   2.0000      -0.228735        -6.2242
  51   0.0000       0.050654         1.3784
  52   0.0000       0.076343         2.0774
  53   0.0000       0.087865         2.3909
  54   0.0000       0.092825         2.5259
  55   0.0000       0.105748         2.8775

MULLIKEN ATOMIC CHARGES
-----------------------
   0 C :    0.296201
   1 C :   -0.255610
   2 C :   -0.308543
   3 C :   -0.017580
   4 O :   -0.510145
   5 H :    0.160593
   6 H :    0.143719
   7 H :    0.163647
   8 H :    0.148048
   9 H :    0.153378
  10 H :    0.138507
  11 H :    0.154247
  12 C :   -0.028329
  13 H :    0.162105
  14 H :    0.118537
  15 O :   -0.524352
  16 C :    0.102364
  17 C :    0.085031
  18 C :   -0.323769
  19 C :   -0.004651
  20 O :   -0.506241
  21 H :    0.158261
  22 H :    0.166116
  23 O :   -0.599126
  24 H :    0.157475
  25 H :    0.129094
  26 H :    0.142763
  27 H :    0.145275
  28 H :    0.352985
Sum of atomic charges:   -0.0000000

LOEWDIN ATOMIC CHARGES
----------------------
   0 C :    0.182871
   1 C :   -0.220620
   2 C :   -0.220082
   3 C :   -0.032970
   4 O :   -0.317618
   5 H :    0.106795
   6 H :    0.113362
   7 H :    0.127209
   8 H :    0.117637
   9 H :    0.113627
  10 H :    0.099204
  11 H :    0.108618
  12 C :   -0.055866
  13 H :    0.114969
  14 H :    0.090103
  15 O :   -0.329346
  16 C :    0.017642
  17 C :    0.034024
  18 C :   -0.241363
  19 C :   -0.029124
  20 O :   -0.314858
  21 H :    0.117824
  22 H :    0.119186
  23 O :   -0.407327
  24 H :    0.122083
  25 H :    0.101727
  26 H :    0.102361
  27 H :    0.104255
  28 H :    0.275678

  Mayer bond orders larger than 0.100000
B(  0-C ,  1-C ) :   0.9283 B(  0-C ,  4-O ) :   0.9065 B(  0-C ,  5-H ) :   0.9283
B(  0-C , 15-O ) :   0.8535 B(  1-C ,  2-C ) :   0.9533 B(  1-C ,  6-H ) :   0.9353
B(  1-C ,  7-H ) :   0.9356 B(  2-C ,  3-C ) :   0.9524 B(  2-C ,  8-H ) :   0.9449
B(  2-C ,  9-H ) :   0.9458 B(  3-C ,  4-O ) :   0.8308 B(  3-C , 10-H ) :   0.9336
B(  3-C , 11-H ) :   0.9406 B( 12-C , 13-H ) :   0.8881 B( 12-C , 14-H ) :   0.9295
B( 12-C , 15-O ) :   0.8501 B( 12-C , 16-C ) :   0.8995 B( 16-C , 17-C ) :   0.8707
B( 16-C , 20-O ) :   0.8672 B( 16-C , 21-H ) :   0.9322 B( 17-C , 18-C ) :   0.9223
B( 17-C , 22-H ) :   0.9336 B( 17-C , 23-O ) :   0.8948 B( 18-C , 19-C ) :   0.9385
B( 18-C , 24-H ) :   0.9418 B( 18-C , 25-H ) :   0.9418 B( 19-C , 20-O ) :   0.8540
B( 19-C , 26-H ) :   0.9317 B( 19-C , 27-H ) :   0.9382 B( 23-O , 28-H ) :   0.7993

FINAL SINGLE POINT ENERGY      -652.853358431839

DIPOLE MOMENT
-------------
                                X             Y             Z
Electronic contribution:     -0.78542      -4.84045      -1.58729
Nuclear contribution   :      0.95578       6.21085       2.24546
                        -----------------------------------------
Total Dipole Moment    :      0.17036       1.37040       0.65817
                        -----------------------------------------
Magnitude (a.u.)       :      1.52977
Magnitude (Debye)      :      3.88837

Rotational constants in cm-1:     0.051521     0.013831     0.012332
Rotational constants in MHz :  1544.557760   414.648378   369.696052

                             ****ORCA TERMINATED NORMALLY****
TOTAL RUN TIME: 0 days 1 hours 51 minutes 50 seconds 825 msec
