                         Program Version 4.2.0 -  RELEASE  -
|  1> # Test redundant internal optimization
|  2> #
|  3> ! RKS B3LYP  Opt TightSCF SmallPrint
|  4>
|  5> %basis
|  6>         Basis "6-31G"
|  7> end
|  8>
|  9> %geom
| 10> Constraints
| 11> { D 4  0  15  12  345.0   C } # D for Dihedral angle
| 12> { D 0  15  12  16  0.0   C } # D for Dihedral angle
| 13> { D 0  4  3  2   C } # D for Dihedral angle
| 14> { D 4  3  2  1   C } # D for Dihedral angle
| 15> { D 3  2  1  0   C } # D for Dihedral angle
| 16> { D 2  1  0  4   C } # D for Dihedral angle
| 17> { D 1  0  4  3   C } # D for Dihedral angle
| 18> { D 16  20  19  18   C } # D for Dihedral angle
| 19> { D 20  19  18  17   C } # D for Dihedral angle
| 20> { D 19  18  17  16   C } # D for Dihedral angle
| 21> { D 18  17  16  20   C } # D for Dihedral angle
| 22> { D 17  16  20  19   C } # D for Dihedral angle
| 23> { D 15  12  16  20   C } # D for Dihedral angle
| 24> end
| 25> end
| 26>
| 27>
| 28> #%pal
| 29> #nprocs 8
| 30> #end
| 31>
| 32> * xyz 0 1
| 33> C  -21.048   26.222   46.251
| 34> C  -20.361   27.558   45.944
| 35> C  -20.329   28.222   47.341
| 36> C  -20.110   27.022   48.296
| 37> O  -20.473   25.807   47.535
| 38> H  -20.833   25.428   45.533
| 39> H  -19.344   27.382   45.576
| 40> H  -20.898   28.157   45.201
| 41> H  -19.543   28.978   47.434
| 42> H  -21.289   28.710   47.548
| 43> H  -20.733   27.082   49.195
| 44> H  -19.064   26.913   48.597
| 45> C  -23.221   25.764   47.645
| 46> H  -23.722   26.548   48.226
| 47> H  -23.970   25.012   47.367
| 48> O  -22.586   26.394   46.375
| 49> C  -22.173   25.072   48.560
| 50> C  -22.846   24.364   49.741
| 51> C  -23.354   23.062   49.077
| 52> C  -22.250   22.743   48.038
| 53> O  -21.490   23.996   47.835
| 54> H  -21.410   25.800   48.845
| 55> H  -22.106   24.139   50.517
| 56> O  -23.989   25.199   50.382
| 57> H  -23.499   22.248   49.795
| 58> H  -24.313   23.243   48.578
| 59> H  -22.661   22.414   47.077
| 60> H  -21.542   21.991   48.398
| 61> H  -24.743   25.435   49.623
| 62> *
| 63>
| 64>                          ****END OF INPUT****
 Total Charge           Charge          ....    0
 Multiplicity           Mult            ....    1
 Number of Electrons    NEL             ....  102
FINAL SINGLE POINT ENERGY      -652.747909155070
FINAL SINGLE POINT ENERGY      -652.814432946223
FINAL SINGLE POINT ENERGY      -652.836679406750
FINAL SINGLE POINT ENERGY      -652.841050936649
FINAL SINGLE POINT ENERGY      -652.841755581014
FINAL SINGLE POINT ENERGY      -652.841912611001
FINAL SINGLE POINT ENERGY      -652.841931867251
FINAL SINGLE POINT ENERGY      -652.841936296292
FINAL SINGLE POINT ENERGY      -652.841936991175
                    ***********************HURRAY********************

CARTESIAN COORDINATES (ANGSTROEM)
---------------------------------
  C    -20.911885   26.352840   46.236463
  C    -20.529801   27.793636   45.897050
  C    -20.240481   28.383523   47.297659
  C    -19.614168   27.193983   48.056471
  O    -19.990854   25.978301   47.280863
  H    -20.741276   25.630410   45.434216
  H    -19.624161   27.786048   45.278873
  H    -21.325696   28.315896   45.362930
  H    -19.574317   29.250960   47.261822
  H    -21.179150   28.693536   47.767875
  H    -19.982669   27.093054   49.082082
  H    -18.520531   27.222983   48.073084
  C    -23.023361   25.684092   47.659610
  H    -23.574959   26.486058   48.167890
  H    -23.757913   25.009892   47.196450
  O    -22.333009   26.315361   46.546219
  C    -22.251402   24.913078   48.734337
  C    -23.184481   24.269359   49.777148
  C    -23.617454   22.955214   49.052309
  C    -22.343365   22.566566   48.271690
  O    -21.496435   23.784733   48.194753
  H    -21.517575   25.563490   49.209663
  H    -22.604990   24.034371   50.672573
  O    -24.271289   25.099597   50.253673
  H    -23.938122   22.183665   49.757582
  H    -24.457635   23.165732   48.377324
  H    -22.556041   22.215251   47.257203
  H    -21.758106   21.802786   48.792304
  H    -24.978874   25.160585   49.579883

 Multiplicity           Mult            ....    1
 Number of Electrons    NEL             ....  102
 Basis Dimension        Dim             ....  149

ORBITAL ENERGIES
----------------

  NO   OCC          E(Eh)            E(eV)
   0   2.0000     -19.149703      -521.0899
   1   2.0000     -19.138465      -520.7841
   2   2.0000     -19.131792      -520.6025
   3   2.0000     -19.128046      -520.5006
   4   2.0000     -10.272737      -279.5354
   5   2.0000     -10.244477      -278.7664
   6   2.0000     -10.229798      -278.3670
   7   2.0000     -10.227724      -278.3105
   8   2.0000     -10.225813      -278.2585
   9   2.0000     -10.224231      -278.2155
  10   2.0000     -10.193698      -277.3846
  11   2.0000     -10.183829      -277.1161
  12   2.0000     -10.178440      -276.9694
  13   2.0000      -1.042436       -28.3661
  14   2.0000      -1.031422       -28.0664
  15   2.0000      -1.011068       -27.5126
  16   2.0000      -0.983230       -26.7551
  17   2.0000      -0.785204       -21.3665
  18   2.0000      -0.779901       -21.2222
  19   2.0000      -0.764175       -20.7943
  20   2.0000      -0.730028       -19.8651
  21   2.0000      -0.677729       -18.4419
  22   2.0000      -0.609393       -16.5824
  23   2.0000      -0.601239       -16.3605
  24   2.0000      -0.594091       -16.1660
  25   2.0000      -0.561307       -15.2739
  26   2.0000      -0.520834       -14.1726
  27   2.0000      -0.508100       -13.8261
  28   2.0000      -0.497450       -13.5363
  29   2.0000      -0.481433       -13.1005
  30   2.0000      -0.462126       -12.5751
  31   2.0000      -0.456270       -12.4157
  32   2.0000      -0.443116       -12.0578
  33   2.0000      -0.426293       -11.6000
  34   2.0000      -0.425279       -11.5724
  35   2.0000      -0.409732       -11.1494
  36   2.0000      -0.408028       -11.1030
  37   2.0000      -0.395747       -10.7688
  38   2.0000      -0.378707       -10.3051
  39   2.0000      -0.365345        -9.9415
  40   2.0000      -0.355961        -9.6862
  41   2.0000      -0.353622        -9.6226
  42   2.0000      -0.340198        -9.2573
  43   2.0000      -0.332001        -9.0342
  44   2.0000      -0.320202        -8.7131
  45   2.0000      -0.311069        -8.4646
  46   2.0000      -0.289807        -7.8860
  47   2.0000      -0.269450        -7.3321
  48   2.0000      -0.256012        -6.9664
  49   2.0000      -0.239263        -6.5107
  50   2.0000      -0.232569        -6.3285
  51   0.0000       0.051991         1.4148
  52   0.0000       0.077549         2.1102
  53   0.0000       0.083912         2.2834
  54   0.0000       0.095078         2.5872
  55   0.0000       0.110166         2.9978

MULLIKEN ATOMIC CHARGES
-----------------------
   0 C :    0.323103
   1 C :   -0.257821
   2 C :   -0.306811
   3 C :   -0.024123
   4 O :   -0.488244
   5 H :    0.153051
   6 H :    0.142874
   7 H :    0.156527
   8 H :    0.142731
   9 H :    0.154401
  10 H :    0.139416
  11 H :    0.152292
  12 C :    0.025243
  13 H :    0.134861
  14 H :    0.124590
  15 O :   -0.565916
  16 C :    0.076395
  17 C :    0.077183
  18 C :   -0.323161
  19 C :   -0.013705
  20 O :   -0.494277
  21 H :    0.159927
  22 H :    0.169391
  23 O :   -0.598583
  24 H :    0.156511
  25 H :    0.133273
  26 H :    0.144462
  27 H :    0.149243
  28 H :    0.357169
Sum of atomic charges:   -0.0000000

LOEWDIN ATOMIC CHARGES
----------------------
   0 C :    0.192968
   1 C :   -0.218885
   2 C :   -0.219735
   3 C :   -0.036276
   4 O :   -0.302000
   5 H :    0.101984
   6 H :    0.112487
   7 H :    0.123952
   8 H :    0.115004
   9 H :    0.114510
  10 H :    0.097667
  11 H :    0.106734
  12 C :   -0.035204
  13 H :    0.102035
  14 H :    0.093503
  15 O :   -0.351243
  16 C :    0.009413
  17 C :    0.035250
  18 C :   -0.242688
  19 C :   -0.032692
  20 O :   -0.307848
  21 H :    0.115954
  22 H :    0.119598
  23 O :   -0.407162
  24 H :    0.121608
  25 H :    0.103611
  26 H :    0.102930
  27 H :    0.105679
  28 H :    0.278845

  Mayer bond orders larger than 0.100000
B(  0-C ,  1-C ) :   0.9319 B(  0-C ,  4-O ) :   0.9170 B(  0-C ,  5-H ) :   0.9292
B(  0-C , 15-O ) :   0.8313 B(  1-C ,  2-C ) :   0.9562 B(  1-C ,  6-H ) :   0.9368
B(  1-C ,  7-H ) :   0.9369 B(  2-C ,  3-C ) :   0.9534 B(  2-C ,  8-H ) :   0.9450
B(  2-C ,  9-H ) :   0.9455 B(  3-C ,  4-O ) :   0.8427 B(  3-C , 10-H ) :   0.9248
B(  3-C , 11-H ) :   0.9391 B( 12-C , 13-H ) :   0.9098 B( 12-C , 14-H ) :   0.9277
B( 12-C , 15-O ) :   0.8480 B( 12-C , 16-C ) :   0.9025 B( 16-C , 17-C ) :   0.8632
B( 16-C , 20-O ) :   0.8576 B( 16-C , 21-H ) :   0.9200 B( 17-C , 18-C ) :   0.9243
B( 17-C , 22-H ) :   0.9332 B( 17-C , 23-O ) :   0.8994 B( 18-C , 19-C ) :   0.9361
B( 18-C , 24-H ) :   0.9420 B( 18-C , 25-H ) :   0.9397 B( 19-C , 20-O ) :   0.8547
B( 19-C , 26-H ) :   0.9311 B( 19-C , 27-H ) :   0.9376 B( 23-O , 28-H ) :   0.7977

FINAL SINGLE POINT ENERGY      -652.841937194887

DIPOLE MOMENT
-------------
                                X             Y             Z
Electronic contribution:      0.00744      -1.76109      -0.04365
Nuclear contribution   :     -0.44403       1.83655       0.00497
                        -----------------------------------------
Total Dipole Moment    :     -0.43659       0.07547      -0.03869
                        -----------------------------------------
Magnitude (a.u.)       :      0.44475
Magnitude (Debye)      :      1.13046

Rotational constants in cm-1:     0.051335     0.015383     0.014465
Rotational constants in MHz :  1538.989224   461.159362   433.636151

                             ****ORCA TERMINATED NORMALLY****
TOTAL RUN TIME: 0 days 1 hours 12 minutes 40 seconds 918 msec
