                         Program Version 4.2.0 -  RELEASE  -
|  1> # Test redundant internal optimization
|  2> #
|  3> ! RKS B3LYP  Opt TightSCF SmallPrint
|  4>
|  5> %basis
|  6>         Basis "6-31G"
|  7> end
|  8>
|  9> %geom
| 10> Constraints
| 11> { D 4  0  15  12  255.0   C } # D for Dihedral angle
| 12> { D 0  15  12  16  195.0   C } # D for Dihedral angle
| 13> { D 0  4  3  2   C } # D for Dihedral angle
| 14> { D 4  3  2  1   C } # D for Dihedral angle
| 15> { D 3  2  1  0   C } # D for Dihedral angle
| 16> { D 2  1  0  4   C } # D for Dihedral angle
| 17> { D 1  0  4  3   C } # D for Dihedral angle
| 18> { D 16  20  19  18   C } # D for Dihedral angle
| 19> { D 20  19  18  17   C } # D for Dihedral angle
| 20> { D 19  18  17  16   C } # D for Dihedral angle
| 21> { D 18  17  16  20   C } # D for Dihedral angle
| 22> { D 17  16  20  19   C } # D for Dihedral angle
| 23> { D 15  12  16  20   C } # D for Dihedral angle
| 24> end
| 25> end
| 26>
| 27>
| 28> #%pal
| 29> #nprocs 8
| 30> #end
| 31>
| 32> * xyz 0 1
| 33> C  -21.048   26.222   46.251
| 34> C  -20.361   27.558   45.944
| 35> C  -20.329   28.222   47.341
| 36> C  -20.110   27.022   48.296
| 37> O  -20.473   25.807   47.535
| 38> H  -20.833   25.428   45.533
| 39> H  -19.344   27.382   45.576
| 40> H  -20.898   28.157   45.201
| 41> H  -19.543   28.978   47.434
| 42> H  -21.289   28.710   47.548
| 43> H  -20.733   27.082   49.195
| 44> H  -19.064   26.913   48.597
| 45> C  -23.431   25.260   45.734
| 46> H  -23.019   25.014   44.747
| 47> H  -23.395   24.355   46.355
| 48> O  -22.586   26.394   46.375
| 49> C  -24.924   25.651   45.555
| 50> C  -25.547   26.094   46.884
| 51> C  -25.022   27.545   47.007
| 52> C  -25.001   28.037   45.539
| 53> O  -25.046   26.827   44.689
| 54> H  -25.452   24.833   45.060
| 55> O  -27.096   26.080   46.778
| 56> H  -25.252   25.463   47.730
| 57> H  -25.650   28.171   47.649
| 58> H  -24.009   27.545   47.428
| 59> H  -24.099   28.611   45.300
| 60> H  -25.880   28.639   45.288
| 61> H  -27.414   26.706   45.938
| 62> *
| 63>
| 64>                          ****END OF INPUT****
 Total Charge           Charge          ....    0
 Multiplicity           Mult            ....    1
 Number of Electrons    NEL             ....  102
FINAL SINGLE POINT ENERGY      -652.838078275121
FINAL SINGLE POINT ENERGY      -652.860751206404
FINAL SINGLE POINT ENERGY      -652.864732853169
FINAL SINGLE POINT ENERGY      -652.865703516319
FINAL SINGLE POINT ENERGY      -652.865810246421
FINAL SINGLE POINT ENERGY      -652.865823335823
                    ***********************HURRAY********************

CARTESIAN COORDINATES (ANGSTROEM)
---------------------------------
  C    -21.084211   26.154439   46.221208
  C    -20.448687   27.510224   45.912402
  C    -20.432925   28.180327   47.307323
  C    -20.167305   26.991729   48.258431
  O    -20.497290   25.770059   47.482986
  H    -20.859837   25.356120   45.508368
  H    -19.428084   27.355665   45.543363
  H    -21.015537   28.070019   45.165744
  H    -19.669300   28.959505   47.392079
  H    -21.408411   28.631711   47.513119
  H    -20.786778   27.014772   49.158488
  H    -19.115306   26.905406   48.546082
  C    -23.341815   25.274291   45.767647
  H    -22.960530   25.013222   44.771092
  H    -23.304391   24.377763   46.403407
  O    -22.517048   26.332409   46.335352
  C    -24.787306   25.737258   45.616939
  C    -25.518533   26.161111   46.899049
  C    -25.063792   27.637111   47.048544
  C    -24.963891   28.121231   45.580954
  O    -24.899815   26.902624   44.739366
  H    -25.337160   24.922847   45.129856
  O    -26.959554   26.039436   46.729399
  H    -25.279089   25.544065   47.765463
  H    -25.787272   28.207549   47.637779
  H    -24.086402   27.666876   47.531789
  H    -24.066607   28.718939   45.400447
  H    -25.843406   28.688706   45.257869
  H    -27.217719   26.460587   45.882457

 Multiplicity           Mult            ....    1
 Number of Electrons    NEL             ....  102
 Basis Dimension        Dim             ....  149

ORBITAL ENERGIES
----------------

  NO   OCC          E(Eh)            E(eV)
   0   2.0000     -19.148771      -521.0645
   1   2.0000     -19.141242      -520.8597
   2   2.0000     -19.138371      -520.7816
   3   2.0000     -19.134229      -520.6688
   4   2.0000     -10.282722      -279.8071
   5   2.0000     -10.235787      -278.5299
   6   2.0000     -10.235145      -278.5125
   7   2.0000     -10.234641      -278.4987
   8   2.0000     -10.227270      -278.2982
   9   2.0000     -10.223469      -278.1947
  10   2.0000     -10.188880      -277.2535
  11   2.0000     -10.187541      -277.2171
  12   2.0000     -10.175863      -276.8993
  13   2.0000      -1.056677       -28.7536
  14   2.0000      -1.032224       -28.0883
  15   2.0000      -1.003790       -27.3145
  16   2.0000      -0.995672       -27.0936
  17   2.0000      -0.791087       -21.5266
  18   2.0000      -0.776315       -21.1246
  19   2.0000      -0.764322       -20.7983
  20   2.0000      -0.732445       -19.9309
  21   2.0000      -0.674362       -18.3503
  22   2.0000      -0.601371       -16.3641
  23   2.0000      -0.597276       -16.2527
  24   2.0000      -0.595902       -16.2153
  25   2.0000      -0.581683       -15.8284
  26   2.0000      -0.526966       -14.3395
  27   2.0000      -0.505532       -13.7562
  28   2.0000      -0.497309       -13.5325
  29   2.0000      -0.485516       -13.2116
  30   2.0000      -0.475699       -12.9444
  31   2.0000      -0.461161       -12.5488
  32   2.0000      -0.447626       -12.1805
  33   2.0000      -0.436157       -11.8684
  34   2.0000      -0.424504       -11.5513
  35   2.0000      -0.409066       -11.1312
  36   2.0000      -0.403288       -10.9740
  37   2.0000      -0.386972       -10.5300
  38   2.0000      -0.378566       -10.3013
  39   2.0000      -0.367230        -9.9928
  40   2.0000      -0.359105        -9.7717
  41   2.0000      -0.356231        -9.6935
  42   2.0000      -0.350501        -9.5376
  43   2.0000      -0.329284        -8.9603
  44   2.0000      -0.321074        -8.7369
  45   2.0000      -0.310384        -8.4460
  46   2.0000      -0.300632        -8.1806
  47   2.0000      -0.272146        -7.4055
  48   2.0000      -0.265555        -7.2261
  49   2.0000      -0.252051        -6.8587
  50   2.0000      -0.242777        -6.6063
  51   0.0000       0.062543         1.7019
  52   0.0000       0.083266         2.2658
  53   0.0000       0.087074         2.3694
  54   0.0000       0.102203         2.7811
  55   0.0000       0.105054         2.8587

MULLIKEN ATOMIC CHARGES
-----------------------
   0 C :    0.289808
   1 C :   -0.255951
   2 C :   -0.304289
   3 C :   -0.000941
   4 O :   -0.505061
   5 H :    0.143897
   6 H :    0.145763
   7 H :    0.155082
   8 H :    0.143696
   9 H :    0.158381
  10 H :    0.148530
  11 H :    0.143215
  12 C :    0.005372
  13 H :    0.140387
  14 H :    0.141486
  15 O :   -0.526843
  16 C :    0.061806
  17 C :    0.077737
  18 C :   -0.293418
  19 C :   -0.018735
  20 O :   -0.528621
  21 H :    0.156798
  22 O :   -0.604064
  23 H :    0.155343
  24 H :    0.148289
  25 H :    0.177955
  26 H :    0.147117
  27 H :    0.134709
  28 H :    0.362552
Sum of atomic charges:    0.0000000

LOEWDIN ATOMIC CHARGES
----------------------
   0 C :    0.175981
   1 C :   -0.217799
   2 C :   -0.216972
   3 C :   -0.027029
   4 O :   -0.321878
   5 H :    0.100698
   6 H :    0.114417
   7 H :    0.122295
   8 H :    0.114794
   9 H :    0.115462
  10 H :    0.106217
  11 H :    0.103115
  12 C :   -0.035522
  13 H :    0.102050
  14 H :    0.102112
  15 O :   -0.332603
  16 C :    0.014427
  17 C :    0.040099
  18 C :   -0.243108
  19 C :   -0.033092
  20 O :   -0.331444
  21 H :    0.116796
  22 O :   -0.417592
  23 H :    0.117833
  24 H :    0.118382
  25 H :    0.129931
  26 H :    0.105029
  27 H :    0.095700
  28 H :    0.281702

  Mayer bond orders larger than 0.100000
B(  0-C ,  1-C ) :   0.9442 B(  0-C ,  4-O ) :   0.9266 B(  0-C ,  5-H ) :   0.9186
B(  0-C , 15-O ) :   0.8413 B(  1-C ,  2-C ) :   0.9570 B(  1-C ,  6-H ) :   0.9380
B(  1-C ,  7-H ) :   0.9363 B(  2-C ,  3-C ) :   0.9538 B(  2-C ,  8-H ) :   0.9450
B(  2-C ,  9-H ) :   0.9436 B(  3-C ,  4-O ) :   0.8386 B(  3-C , 10-H ) :   0.9352
B(  3-C , 11-H ) :   0.9397 B( 12-C , 13-H ) :   0.9166 B( 12-C , 14-H ) :   0.9092
B( 12-C , 15-O ) :   0.8428 B( 12-C , 16-C ) :   0.9123 B( 16-C , 17-C ) :   0.9091
B( 16-C , 20-O ) :   0.8712 B( 16-C , 21-H ) :   0.9216 B( 17-C , 18-C ) :   0.9251
B( 17-C , 22-O ) :   0.8910 B( 17-C , 23-H ) :   0.9349 B( 18-C , 19-C ) :   0.9462
B( 18-C , 24-H ) :   0.9370 B( 18-C , 25-H ) :   0.9168 B( 19-C , 20-O ) :   0.8397
B( 19-C , 26-H ) :   0.9337 B( 19-C , 27-H ) :   0.9370 B( 22-O , 28-H ) :   0.7960

FINAL SINGLE POINT ENERGY      -652.865823183360

DIPOLE MOMENT
-------------
                                X             Y             Z
Electronic contribution:     -3.25506      -4.13330      -1.46256
Nuclear contribution   :      4.06548       4.83603       1.31529
                        -----------------------------------------
Total Dipole Moment    :      0.81043       0.70273      -0.14727
                        -----------------------------------------
Magnitude (a.u.)       :      1.08273
Magnitude (Debye)      :      2.75209

Rotational constants in cm-1:     0.053708     0.014027     0.013739
Rotational constants in MHz :  1610.124606   420.524665   411.894372

                             ****ORCA TERMINATED NORMALLY****
TOTAL RUN TIME: 0 days 0 hours 43 minutes 15 seconds 593 msec
