                         Program Version 4.2.0 -  RELEASE  -
|  1> # Test redundant internal optimization
|  2> #
|  3> ! RKS B3LYP  Opt TightSCF SmallPrint
|  4>
|  5> %basis
|  6>         Basis "6-31G"
|  7> end
|  8>
|  9> %geom
| 10> Constraints
| 11> { D 4  0  15  12  195.0   C } # D for Dihedral angle
| 12> { D 0  15  12  16  225.0   C } # D for Dihedral angle
| 13> { D 0  4  3  2   C } # D for Dihedral angle
| 14> { D 4  3  2  1   C } # D for Dihedral angle
| 15> { D 3  2  1  0   C } # D for Dihedral angle
| 16> { D 2  1  0  4   C } # D for Dihedral angle
| 17> { D 1  0  4  3   C } # D for Dihedral angle
| 18> { D 16  20  19  18   C } # D for Dihedral angle
| 19> { D 20  19  18  17   C } # D for Dihedral angle
| 20> { D 19  18  17  16   C } # D for Dihedral angle
| 21> { D 18  17  16  20   C } # D for Dihedral angle
| 22> { D 17  16  20  19   C } # D for Dihedral angle
| 23> { D 15  12  16  20   C } # D for Dihedral angle
| 24> end
| 25> end
| 26>
| 27>
| 28> #%pal
| 29> #nprocs 8
| 30> #end
| 31>
| 32> * xyz 0 1
| 33> C  -21.048   26.222   46.251
| 34> C  -20.361   27.558   45.944
| 35> C  -20.329   28.222   47.341
| 36> C  -20.110   27.022   48.296
| 37> O  -20.473   25.807   47.535
| 38> H  -20.833   25.428   45.533
| 39> H  -19.344   27.382   45.576
| 40> H  -20.898   28.157   45.201
| 41> H  -19.543   28.978   47.434
| 42> H  -21.289   28.710   47.548
| 43> H  -20.733   27.082   49.195
| 44> H  -19.064   26.913   48.597
| 45> C  -23.353   26.472   45.026
| 46> H  -22.638   26.649   44.213
| 47> H  -23.874   25.527   44.825
| 48> O  -22.586   26.394   46.375
| 49> C  -24.411   27.610   45.002
| 50> C  -23.749   28.988   45.106
| 51> C  -23.254   29.208   43.657
| 52> C  -24.358   28.537   42.802
| 53> O  -25.103   27.638   43.709
| 54> H  -25.166   27.412   45.765
| 55> H  -24.495   29.744   45.379
| 56> O  -22.600   29.036   46.150
| 57> H  -23.120   30.266   43.411
| 58> H  -22.290   28.706   43.509
| 59> H  -23.948   27.951   41.974
| 60> H  -25.074   29.260   42.404
| 61> H  -21.841   28.287   45.897
| 62> *
| 63>
| 64>                          ****END OF INPUT****
 Total Charge           Charge          ....    0
 Multiplicity           Mult            ....    1
 Number of Electrons    NEL             ....  102
FINAL SINGLE POINT ENERGY      -652.787088638646
FINAL SINGLE POINT ENERGY      -652.829853186703
FINAL SINGLE POINT ENERGY      -652.845514942843
FINAL SINGLE POINT ENERGY      -652.848791533239
FINAL SINGLE POINT ENERGY      -652.850580965593
FINAL SINGLE POINT ENERGY      -652.852203837626
FINAL SINGLE POINT ENERGY      -652.853703134179
FINAL SINGLE POINT ENERGY      -652.854829505450
FINAL SINGLE POINT ENERGY      -652.855736743294
FINAL SINGLE POINT ENERGY      -652.856073149597
FINAL SINGLE POINT ENERGY      -652.856108976789
FINAL SINGLE POINT ENERGY      -652.856128384190
                    ***********************HURRAY********************

CARTESIAN COORDINATES (ANGSTROEM)
---------------------------------
  C    -21.107863   26.229135   46.255713
  C    -20.267675   27.453641   45.885517
  C    -20.164613   28.205403   47.244746
  C    -20.096610   27.043992   48.259252
  O    -20.604398   25.847970   47.534083
  H    -20.950891   25.376782   45.585459
  H    -19.284236   27.100163   45.558573
  H    -20.698872   28.078137   45.100868
  H    -19.269513   28.834097   47.287755
  H    -21.023879   28.855535   47.404662
  H    -20.716721   27.199277   49.145680
  H    -19.075435   26.805661   48.568108
  C    -23.286682   26.468663   45.061291
  H    -22.559876   26.578156   44.245919
  H    -23.809636   25.517337   44.921535
  O    -22.573528   26.414142   46.357257
  C    -24.324727   27.600337   44.977597
  C    -23.827438   29.046793   45.096303
  C    -23.288021   29.311672   43.665981
  C    -24.261407   28.517597   42.769140
  O    -24.948471   27.539825   43.658378
  H    -25.118453   27.398785   45.704561
  H    -24.687936   29.698946   45.288730
  O    -22.858460   29.236877   46.147026
  H    -23.265744   30.377798   43.423561
  H    -22.263715   28.931370   43.590769
  H    -23.757711   27.973444   41.964497
  H    -25.043349   29.146396   42.333966
  H    -22.749141   28.378071   46.618075

 Multiplicity           Mult            ....    1
 Number of Electrons    NEL             ....  102
 Basis Dimension        Dim             ....  149

ORBITAL ENERGIES
----------------

  NO   OCC          E(Eh)            E(eV)
   0   2.0000     -19.159291      -521.3508
   1   2.0000     -19.148136      -521.0473
   2   2.0000     -19.147712      -521.0357
   3   2.0000     -19.133648      -520.6530
   4   2.0000     -10.288063      -279.9524
   5   2.0000     -10.241465      -278.6844
   6   2.0000     -10.240828      -278.6671
   7   2.0000     -10.240041      -278.6457
   8   2.0000     -10.234600      -278.4976
   9   2.0000     -10.228754      -278.3385
  10   2.0000     -10.192067      -277.3402
  11   2.0000     -10.190360      -277.2938
  12   2.0000     -10.186531      -277.1896
  13   2.0000      -1.059325       -28.8257
  14   2.0000      -1.035375       -28.1740
  15   2.0000      -1.013596       -27.5813
  16   2.0000      -1.000766       -27.2322
  17   2.0000      -0.789610       -21.4864
  18   2.0000      -0.780857       -21.2482
  19   2.0000      -0.772106       -21.0101
  20   2.0000      -0.737643       -20.0723
  21   2.0000      -0.684172       -18.6173
  22   2.0000      -0.606979       -16.5167
  23   2.0000      -0.605164       -16.4674
  24   2.0000      -0.592799       -16.1309
  25   2.0000      -0.587942       -15.9987
  26   2.0000      -0.531113       -14.4523
  27   2.0000      -0.513161       -13.9638
  28   2.0000      -0.502172       -13.6648
  29   2.0000      -0.499404       -13.5895
  30   2.0000      -0.471048       -12.8179
  31   2.0000      -0.459938       -12.5156
  32   2.0000      -0.452056       -12.3011
  33   2.0000      -0.438806       -11.9405
  34   2.0000      -0.430352       -11.7105
  35   2.0000      -0.423452       -11.5227
  36   2.0000      -0.411359       -11.1936
  37   2.0000      -0.396389       -10.7863
  38   2.0000      -0.380846       -10.3634
  39   2.0000      -0.377061       -10.2603
  40   2.0000      -0.362741        -9.8707
  41   2.0000      -0.359036        -9.7699
  42   2.0000      -0.352305        -9.5867
  43   2.0000      -0.343860        -9.3569
  44   2.0000      -0.322184        -8.7671
  45   2.0000      -0.316308        -8.6072
  46   2.0000      -0.298095        -8.1116
  47   2.0000      -0.275292        -7.4911
  48   2.0000      -0.268223        -7.2987
  49   2.0000      -0.261309        -7.1106
  50   2.0000      -0.247473        -6.7341
  51   0.0000       0.050819         1.3829
  52   0.0000       0.068357         1.8601
  53   0.0000       0.090028         2.4498
  54   0.0000       0.093901         2.5552
  55   0.0000       0.101744         2.7686

MULLIKEN ATOMIC CHARGES
-----------------------
   0 C :    0.307267
   1 C :   -0.299608
   2 C :   -0.317800
   3 C :   -0.010295
   4 O :   -0.501917
   5 H :    0.147783
   6 H :    0.151588
   7 H :    0.161840
   8 H :    0.144478
   9 H :    0.182828
  10 H :    0.155324
  11 H :    0.146654
  12 C :   -0.017032
  13 H :    0.131646
  14 H :    0.169552
  15 O :   -0.530016
  16 C :    0.032263
  17 C :    0.122579
  18 C :   -0.314263
  19 C :   -0.013236
  20 O :   -0.516856
  21 H :    0.167149
  22 H :    0.151166
  23 O :   -0.644632
  24 H :    0.156022
  25 H :    0.150619
  26 H :    0.143016
  27 H :    0.151713
  28 H :    0.392167
Sum of atomic charges:    0.0000000

LOEWDIN ATOMIC CHARGES
----------------------
   0 C :    0.179091
   1 C :   -0.235521
   2 C :   -0.222363
   3 C :   -0.027634
   4 O :   -0.298344
   5 H :    0.097913
   6 H :    0.119456
   7 H :    0.119472
   8 H :    0.117263
   9 H :    0.127915
  10 H :    0.109426
  11 H :    0.104776
  12 C :   -0.047600
  13 H :    0.097708
  14 H :    0.118726
  15 O :   -0.347251
  16 C :    0.012711
  17 C :    0.040553
  18 C :   -0.234858
  19 C :   -0.029778
  20 O :   -0.319487
  21 H :    0.116745
  22 H :    0.105212
  23 O :   -0.430063
  24 H :    0.122701
  25 H :    0.110656
  26 H :    0.102708
  27 H :    0.107526
  28 H :    0.282342

  Mayer bond orders larger than 0.100000
B(  0-C ,  1-C ) :   0.9266 B(  0-C ,  4-O ) :   0.9462 B(  0-C ,  5-H ) :   0.9231
B(  0-C , 15-O ) :   0.8054 B(  1-C ,  2-C ) :   0.9505 B(  1-C ,  6-H ) :   0.9307
B(  1-C ,  7-H ) :   0.9189 B(  2-C ,  3-C ) :   0.9470 B(  2-C ,  8-H ) :   0.9465
B(  2-C ,  9-H ) :   0.9235 B(  3-C ,  4-O ) :   0.8276 B(  3-C , 10-H ) :   0.9351
B(  3-C , 11-H ) :   0.9396 B( 12-C , 13-H ) :   0.9221 B( 12-C , 14-H ) :   0.9260
B( 12-C , 15-O ) :   0.8072 B( 12-C , 16-C ) :   0.9031 B( 15-O , 28-H ) :   0.1015
B( 16-C , 17-C ) :   0.9205 B( 16-C , 20-O ) :   0.8544 B( 16-C , 21-H ) :   0.9270
B( 17-C , 18-C ) :   0.9111 B( 17-C , 22-H ) :   0.9244 B( 17-C , 23-O ) :   0.9005
B( 18-C , 19-C ) :   0.9396 B( 18-C , 24-H ) :   0.9438 B( 18-C , 25-H ) :   0.9380
B( 19-C , 20-O ) :   0.8343 B( 19-C , 26-H ) :   0.9341 B( 19-C , 27-H ) :   0.9378
B( 23-O , 28-H ) :   0.7086

FINAL SINGLE POINT ENERGY      -652.856138727266

DIPOLE MOMENT
-------------
                                X             Y             Z
Electronic contribution:     -3.63353      -3.70428       2.17917
Nuclear contribution   :      4.35285       4.29010      -2.95288
                        -----------------------------------------
Total Dipole Moment    :      0.71933       0.58582      -0.77371
                        -----------------------------------------
Magnitude (a.u.)       :      1.20799
Magnitude (Debye)      :      3.07047

Rotational constants in cm-1:     0.056406     0.015555     0.014082
Rotational constants in MHz :  1691.003898   466.328371   422.177005

                             ****ORCA TERMINATED NORMALLY****
TOTAL RUN TIME: 0 days 0 hours 55 minutes 55 seconds 237 msec
