                         Program Version 4.2.0 -  RELEASE  -
|  1> # Test redundant internal optimization
|  2> #
|  3> ! RKS B3LYP  Opt TightSCF SmallPrint
|  4>
|  5> %basis
|  6>         Basis "6-31G"
|  7> end
|  8>
|  9> %geom
| 10> Constraints
| 11> { D 4  0  15  12  330.0   C } # D for Dihedral angle
| 12> { D 0  15  12  16  300.0   C } # D for Dihedral angle
| 13> { D 0  4  3  2   C } # D for Dihedral angle
| 14> { D 4  3  2  1   C } # D for Dihedral angle
| 15> { D 3  2  1  0   C } # D for Dihedral angle
| 16> { D 2  1  0  4   C } # D for Dihedral angle
| 17> { D 1  0  4  3   C } # D for Dihedral angle
| 18> { D 16  20  19  18   C } # D for Dihedral angle
| 19> { D 20  19  18  17   C } # D for Dihedral angle
| 20> { D 19  18  17  16   C } # D for Dihedral angle
| 21> { D 18  17  16  20   C } # D for Dihedral angle
| 22> { D 17  16  20  19   C } # D for Dihedral angle
| 23> { D 15  12  16  20   C } # D for Dihedral angle
| 24> end
| 25> end
| 26>
| 27>
| 28> #%pal
| 29> #nprocs 8
| 30> #end
| 31>
| 32> * xyz 0 1
| 33> C  -21.048   26.222   46.251
| 34> C  -20.361   27.558   45.944
| 35> C  -20.329   28.222   47.341
| 36> C  -20.110   27.022   48.296
| 37> O  -20.473   25.807   47.535
| 38> H  -20.833   25.428   45.533
| 39> H  -19.344   27.382   45.576
| 40> H  -20.898   28.157   45.201
| 41> H  -19.543   28.978   47.434
| 42> H  -21.289   28.710   47.548
| 43> H  -20.733   27.082   49.195
| 44> H  -19.064   26.913   48.597
| 45> C  -23.271   25.476   47.424
| 46> H  -22.856   25.689   48.417
| 47> H  -24.351   25.667   47.455
| 48> O  -22.586   26.394   46.375
| 49> C  -23.067   23.965   47.124
| 50> C  -21.589   23.571   47.228
| 51> C  -21.405   23.449   48.760
| 52> C  -22.769   22.889   49.235
| 53> O  -23.732   23.146   48.142
| 54> H  -23.533   23.725   46.166
| 55> O  -21.354   22.200   46.537
| 56> H  -20.914   24.305   46.776
| 57> H  -20.568   22.800   49.036
| 58> H  -21.220   24.438   49.196
| 59> H  -23.126   23.375   50.149
| 60> H  -22.744   21.808   49.395
| 61> H  -22.019   21.447   46.975
| 62> *
| 63>
| 64>                          ****END OF INPUT****
 Total Charge           Charge          ....    0
 Multiplicity           Mult            ....    1
 Number of Electrons    NEL             ....  102
FINAL SINGLE POINT ENERGY      -652.814288559322
FINAL SINGLE POINT ENERGY      -652.843503893378
FINAL SINGLE POINT ENERGY      -652.859756241064
FINAL SINGLE POINT ENERGY      -652.861924324184
FINAL SINGLE POINT ENERGY      -652.862379183356
FINAL SINGLE POINT ENERGY      -652.862425754925
                    ***********************HURRAY********************

CARTESIAN COORDINATES (ANGSTROEM)
---------------------------------
  C    -20.947973   26.317508   46.236383
  C    -20.481912   27.748382   45.962362
  C    -20.453819   28.347708   47.386720
  C    -20.004923   27.158609   48.264643
  O    -20.246829   25.936146   47.446052
  H    -20.661275   25.583407   45.478114
  H    -19.479414   27.722362   45.520309
  H    -21.158562   28.274527   45.286306
  H    -19.775585   29.202001   47.470950
  H    -21.458857   28.676666   47.666042
  H    -20.568942   27.074223   49.197499
  H    -18.934849   27.173441   48.489723
  C    -23.083284   25.450936   47.306271
  H    -22.799516   25.705832   48.335920
  H    -24.134466   25.708322   47.167857
  O    -22.382657   26.335202   46.379973
  C    -22.941037   23.925095   47.122813
  C    -21.566142   23.251039   47.264254
  C    -21.400170   23.195025   48.808437
  C    -22.847120   22.949332   49.304420
  O    -23.749340   23.319828   48.190462
  H    -23.395981   23.627659   46.172011
  O    -21.616228   21.919051   46.673128
  H    -20.741704   23.757725   46.775771
  H    -20.710835   22.397393   49.096316
  H    -21.002488   24.149143   49.160880
  H    -23.104036   23.548229   50.183728
  H    -23.038939   21.896359   49.535417
  H    -22.442117   21.473847   46.958239

 Multiplicity           Mult            ....    1
 Number of Electrons    NEL             ....  102
 Basis Dimension        Dim             ....  149

ORBITAL ENERGIES
----------------

  NO   OCC          E(Eh)            E(eV)
   0   2.0000     -19.155504      -521.2478
   1   2.0000     -19.142461      -520.8929
   2   2.0000     -19.141485      -520.8663
   3   2.0000     -19.129407      -520.5376
   4   2.0000     -10.284115      -279.8450
   5   2.0000     -10.236403      -278.5467
   6   2.0000     -10.229321      -278.3540
   7   2.0000     -10.229080      -278.3474
   8   2.0000     -10.228958      -278.3441
   9   2.0000     -10.226290      -278.2715
  10   2.0000     -10.192219      -277.3444
  11   2.0000     -10.189478      -277.2698
  12   2.0000     -10.177008      -276.9305
  13   2.0000      -1.059738       -28.8369
  14   2.0000      -1.032339       -28.0914
  15   2.0000      -0.999486       -27.1974
  16   2.0000      -0.995715       -27.0948
  17   2.0000      -0.795220       -21.6390
  18   2.0000      -0.768899       -20.9228
  19   2.0000      -0.764542       -20.8042
  20   2.0000      -0.737409       -20.0659
  21   2.0000      -0.673743       -18.3335
  22   2.0000      -0.607876       -16.5412
  23   2.0000      -0.599794       -16.3212
  24   2.0000      -0.594185       -16.1686
  25   2.0000      -0.572153       -15.5691
  26   2.0000      -0.523571       -14.2471
  27   2.0000      -0.512310       -13.9407
  28   2.0000      -0.506025       -13.7697
  29   2.0000      -0.479628       -13.0513
  30   2.0000      -0.470336       -12.7985
  31   2.0000      -0.455862       -12.4046
  32   2.0000      -0.454288       -12.3618
  33   2.0000      -0.430123       -11.7042
  34   2.0000      -0.417726       -11.3669
  35   2.0000      -0.413834       -11.2610
  36   2.0000      -0.408082       -11.1045
  37   2.0000      -0.386064       -10.5053
  38   2.0000      -0.377007       -10.2589
  39   2.0000      -0.365130        -9.9357
  40   2.0000      -0.359910        -9.7936
  41   2.0000      -0.353899        -9.6301
  42   2.0000      -0.353751        -9.6260
  43   2.0000      -0.337336        -9.1794
  44   2.0000      -0.323043        -8.7904
  45   2.0000      -0.307584        -8.3698
  46   2.0000      -0.299665        -8.1543
  47   2.0000      -0.272724        -7.4212
  48   2.0000      -0.266805        -7.2601
  49   2.0000      -0.259171        -7.0524
  50   2.0000      -0.237032        -6.4500
  51   0.0000       0.065380         1.7791
  52   0.0000       0.072084         1.9615
  53   0.0000       0.093246         2.5373
  54   0.0000       0.098193         2.6720
  55   0.0000       0.108274         2.9463

MULLIKEN ATOMIC CHARGES
-----------------------
   0 C :    0.296980
   1 C :   -0.258299
   2 C :   -0.300030
   3 C :   -0.013005
   4 O :   -0.526154
   5 H :    0.155231
   6 H :    0.146045
   7 H :    0.165387
   8 H :    0.145481
   9 H :    0.161432
  10 H :    0.145628
  11 H :    0.151621
  12 C :    0.010569
  13 H :    0.127036
  14 H :    0.167983
  15 O :   -0.538152
  16 C :    0.034670
  17 C :    0.090869
  18 C :   -0.296663
  19 C :   -0.030726
  20 O :   -0.529377
  21 H :    0.158468
  22 O :   -0.608689
  23 H :    0.179702
  24 H :    0.156059
  25 H :    0.163151
  26 H :    0.142136
  27 H :    0.141537
  28 H :    0.361111
Sum of atomic charges:   -0.0000000

LOEWDIN ATOMIC CHARGES
----------------------
   0 C :    0.175227
   1 C :   -0.213701
   2 C :   -0.215854
   3 C :   -0.030618
   4 O :   -0.330126
   5 H :    0.099177
   6 H :    0.114316
   7 H :    0.128694
   8 H :    0.116358
   9 H :    0.118874
  10 H :    0.102768
  11 H :    0.107136
  12 C :   -0.035511
  13 H :    0.093645
  14 H :    0.124294
  15 O :   -0.335531
  16 C :    0.005452
  17 C :    0.036507
  18 C :   -0.239253
  19 C :   -0.039868
  20 O :   -0.331107
  21 H :    0.112754
  22 O :   -0.419420
  23 H :    0.128230
  24 H :    0.123618
  25 H :    0.122590
  26 H :    0.101440
  27 H :    0.099927
  28 H :    0.279981

  Mayer bond orders larger than 0.100000
B(  0-C ,  1-C ) :   0.9444 B(  0-C ,  4-O ) :   0.8761 B(  0-C ,  5-H ) :   0.9186
B(  0-C , 15-O ) :   0.8558 B(  1-C ,  2-C ) :   0.9533 B(  1-C ,  6-H ) :   0.9377
B(  1-C ,  7-H ) :   0.9353 B(  2-C ,  3-C ) :   0.9560 B(  2-C ,  8-H ) :   0.9445
B(  2-C ,  9-H ) :   0.9441 B(  3-C ,  4-O ) :   0.8240 B(  3-C , 10-H ) :   0.9339
B(  3-C , 11-H ) :   0.9399 B( 12-C , 13-H ) :   0.9260 B( 12-C , 14-H ) :   0.9349
B( 12-C , 15-O ) :   0.8339 B( 12-C , 16-C ) :   0.8801 B( 16-C , 17-C ) :   0.9153
B( 16-C , 20-O ) :   0.8256 B( 16-C , 21-H ) :   0.9256 B( 17-C , 18-C ) :   0.9159
B( 17-C , 22-O ) :   0.8721 B( 17-C , 23-H ) :   0.9150 B( 18-C , 19-C ) :   0.9396
B( 18-C , 24-H ) :   0.9391 B( 18-C , 25-H ) :   0.9251 B( 19-C , 20-O ) :   0.8385
B( 19-C , 26-H ) :   0.9370 B( 19-C , 27-H ) :   0.9387 B( 22-O , 28-H ) :   0.7961

FINAL SINGLE POINT ENERGY      -652.862430288366

DIPOLE MOMENT
-------------
                                X             Y             Z
Electronic contribution:     -2.73762      -4.04439      -2.93682
Nuclear contribution   :      3.25176       5.05711       3.64831
                        -----------------------------------------
Total Dipole Moment    :      0.51414       1.01273       0.71149
                        -----------------------------------------
Magnitude (a.u.)       :      1.34022
Magnitude (Debye)      :      3.40656

Rotational constants in cm-1:     0.051065     0.015657     0.015360
Rotational constants in MHz :  1530.879753   469.370939   460.479845

                             ****ORCA TERMINATED NORMALLY****
TOTAL RUN TIME: 0 days 0 hours 20 minutes 39 seconds 737 msec
