                         Program Version 4.2.0 -  RELEASE  -
|  1> # Test redundant internal optimization
|  2> #
|  3> ! RKS B3LYP  Opt TightSCF SmallPrint
|  4>
|  5> %basis
|  6>         Basis "6-31G"
|  7> end
|  8>
|  9> %geom
| 10> Constraints
| 11> { D 4  0  15  12  0.0   C } # D for Dihedral angle
| 12> { D 0  15  12  16  135.0   C } # D for Dihedral angle
| 13> { D 0  4  3  2   C } # D for Dihedral angle
| 14> { D 4  3  2  1   C } # D for Dihedral angle
| 15> { D 3  2  1  0   C } # D for Dihedral angle
| 16> { D 2  1  0  4   C } # D for Dihedral angle
| 17> { D 1  0  4  3   C } # D for Dihedral angle
| 18> { D 16  20  19  18   C } # D for Dihedral angle
| 19> { D 20  19  18  17   C } # D for Dihedral angle
| 20> { D 19  18  17  16   C } # D for Dihedral angle
| 21> { D 18  17  16  20   C } # D for Dihedral angle
| 22> { D 17  16  20  19   C } # D for Dihedral angle
| 23> { D 15  12  16  20   C } # D for Dihedral angle
| 24> end
| 25> end
| 26>
| 27>
| 28> #%pal
| 29> #nprocs 8
| 30> #end
| 31>
| 32> * xyz 0 1
| 33> C  -21.048   26.222   46.251
| 34> C  -20.361   27.558   45.944
| 35> C  -20.329   28.222   47.341
| 36> C  -20.110   27.022   48.296
| 37> O  -20.473   25.807   47.535
| 38> H  -20.833   25.428   45.533
| 39> H  -19.344   27.382   45.576
| 40> H  -20.898   28.157   45.201
| 41> H  -19.543   28.978   47.434
| 42> H  -21.289   28.710   47.548
| 43> H  -20.733   27.082   49.195
| 44> H  -19.064   26.913   48.597
| 45> C  -23.172   26.101   47.783
| 46> H  -23.674   25.125   47.770
| 47> H  -22.371   26.064   48.533
| 48> O  -22.586   26.394   46.375
| 49> C  -24.199   27.173   48.242
| 50> C  -25.440   27.176   47.342
| 51> C  -26.228   25.963   47.892
| 52> C  -25.922   26.004   49.410
| 53> O  -24.719   26.848   49.574
| 54> H  -23.696   28.139   48.322
| 55> H  -26.006   28.103   47.486
| 56> O  -25.100   27.040   45.833
| 57> H  -27.300   26.023   47.681
| 58> H  -25.850   25.036   47.446
| 59> H  -25.722   25.010   49.825
| 60> H  -26.725   26.472   49.986
| 61> H  -24.532   26.118   45.665
| 62> *
| 63>
| 64>                          ****END OF INPUT****
 Total Charge           Charge          ....    0
 Multiplicity           Mult            ....    1
 Number of Electrons    NEL             ....  102
FINAL SINGLE POINT ENERGY      -652.829823518893
FINAL SINGLE POINT ENERGY      -652.853800476755
FINAL SINGLE POINT ENERGY      -652.860256859233
FINAL SINGLE POINT ENERGY      -652.862696674903
FINAL SINGLE POINT ENERGY      -652.863941638038
FINAL SINGLE POINT ENERGY      -652.864629823603
FINAL SINGLE POINT ENERGY      -652.864841372364
FINAL SINGLE POINT ENERGY      -652.864887332535
FINAL SINGLE POINT ENERGY      -652.864891866411
                    ***********************HURRAY********************

CARTESIAN COORDINATES (ANGSTROEM)
---------------------------------
  C    -21.114959   26.192924   46.369852
  C    -20.557650   27.556439   45.962644
  C    -20.354869   28.239169   47.336006
  C    -19.931877   27.071996   48.252093
  O    -20.351178   25.829331   47.531492
  H    -20.966690   25.397009   45.637273
  H    -19.601460   27.411238   45.447191
  H    -21.236984   28.103647   45.305166
  H    -19.600553   29.031077   47.302424
  H    -21.294691   28.685486   47.676069
  H    -20.412138   27.087172   49.233557
  H    -18.848754   26.997638   48.380099
  C    -23.141264   25.990775   47.920328
  H    -23.605053   24.997885   47.891980
  H    -22.368012   25.977479   48.689279
  O    -22.562011   26.269219   46.601044
  C    -24.178011   27.077122   48.223068
  C    -25.380437   27.111544   47.263927
  C    -26.256096   25.948755   47.815953
  C    -26.017612   26.021867   49.338095
  O    -24.769405   26.820518   49.534282
  H    -23.678264   28.048692   48.285984
  H    -25.911289   28.060511   47.402369
  O    -25.073777   26.995006   45.862180
  H    -27.307932   26.069444   47.544334
  H    -25.903769   25.004886   47.386546
  H    -25.881853   25.041410   49.804600
  H    -26.813141   26.556563   49.865355
  H    -24.147273   26.675199   45.752812

 Multiplicity           Mult            ....    1
 Number of Electrons    NEL             ....  102
 Basis Dimension        Dim             ....  149

ORBITAL ENERGIES
----------------

  NO   OCC          E(Eh)            E(eV)
   0   2.0000     -19.162983      -521.4513
   1   2.0000     -19.158087      -521.3180
   2   2.0000     -19.139164      -520.8031
   3   2.0000     -19.111451      -520.0490
   4   2.0000     -10.293265      -280.0940
   5   2.0000     -10.241456      -278.6842
   6   2.0000     -10.233527      -278.4684
   7   2.0000     -10.232337      -278.4360
   8   2.0000     -10.228457      -278.3305
   9   2.0000     -10.225100      -278.2391
  10   2.0000     -10.199578      -277.5446
  11   2.0000     -10.196068      -277.4491
  12   2.0000     -10.177035      -276.9312
  13   2.0000      -1.067392       -29.0452
  14   2.0000      -1.024519       -27.8786
  15   2.0000      -1.006009       -27.3749
  16   2.0000      -0.990099       -26.9420
  17   2.0000      -0.800618       -21.7859
  18   2.0000      -0.775424       -21.1004
  19   2.0000      -0.766895       -20.8683
  20   2.0000      -0.738091       -20.0845
  21   2.0000      -0.677849       -18.4452
  22   2.0000      -0.613391       -16.6912
  23   2.0000      -0.599193       -16.3049
  24   2.0000      -0.594095       -16.1662
  25   2.0000      -0.576890       -15.6980
  26   2.0000      -0.535590       -14.5741
  27   2.0000      -0.512001       -13.9322
  28   2.0000      -0.509151       -13.8547
  29   2.0000      -0.487545       -13.2668
  30   2.0000      -0.477318       -12.9885
  31   2.0000      -0.459126       -12.4935
  32   2.0000      -0.444213       -12.0877
  33   2.0000      -0.426908       -11.6168
  34   2.0000      -0.424658       -11.5555
  35   2.0000      -0.422886       -11.5073
  36   2.0000      -0.410208       -11.1623
  37   2.0000      -0.385741       -10.4965
  38   2.0000      -0.384155       -10.4534
  39   2.0000      -0.370698       -10.0872
  40   2.0000      -0.366208        -9.9650
  41   2.0000      -0.360573        -9.8117
  42   2.0000      -0.356771        -9.7082
  43   2.0000      -0.342881        -9.3303
  44   2.0000      -0.329496        -8.9660
  45   2.0000      -0.318249        -8.6600
  46   2.0000      -0.285698        -7.7742
  47   2.0000      -0.275889        -7.5073
  48   2.0000      -0.271363        -7.3842
  49   2.0000      -0.246932        -6.7194
  50   2.0000      -0.238986        -6.5031
  51   0.0000       0.059010         1.6057
  52   0.0000       0.069683         1.8962
  53   0.0000       0.088551         2.4096
  54   0.0000       0.094241         2.5644
  55   0.0000       0.099510         2.7078

MULLIKEN ATOMIC CHARGES
-----------------------
   0 C :    0.316491
   1 C :   -0.262698
   2 C :   -0.311806
   3 C :   -0.027501
   4 O :   -0.507858
   5 H :    0.164447
   6 H :    0.151756
   7 H :    0.164376
   8 H :    0.153690
   9 H :    0.160451
  10 H :    0.156342
  11 H :    0.158469
  12 C :   -0.022375
  13 H :    0.147023
  14 H :    0.177028
  15 O :   -0.582705
  16 C :    0.057339
  17 C :    0.122127
  18 C :   -0.297551
  19 C :   -0.024447
  20 O :   -0.523790
  21 H :    0.147999
  22 H :    0.143208
  23 O :   -0.643524
  24 H :    0.150955
  25 H :    0.145125
  26 H :    0.143721
  27 H :    0.149171
  28 H :    0.394534
Sum of atomic charges:   -0.0000000

LOEWDIN ATOMIC CHARGES
----------------------
   0 C :    0.187946
   1 C :   -0.220493
   2 C :   -0.219488
   3 C :   -0.032863
   4 O :   -0.312074
   5 H :    0.108928
   6 H :    0.117805
   7 H :    0.127164
   8 H :    0.120904
   9 H :    0.115200
  10 H :    0.107853
  11 H :    0.110981
  12 C :   -0.043008
  13 H :    0.103331
  14 H :    0.121583
  15 O :   -0.355893
  16 C :    0.013818
  17 C :    0.041659
  18 C :   -0.235962
  19 C :   -0.033097
  20 O :   -0.326573
  21 H :    0.106854
  22 H :    0.103481
  23 O :   -0.436103
  24 H :    0.121065
  25 H :    0.111454
  26 H :    0.102566
  27 H :    0.105749
  28 H :    0.287214

  Mayer bond orders larger than 0.100000
B(  0-C ,  1-C ) :   0.9338 B(  0-C ,  4-O ) :   0.9318 B(  0-C ,  5-H ) :   0.9297
B(  0-C , 15-O ) :   0.7929 B(  1-C ,  2-C ) :   0.9517 B(  1-C ,  6-H ) :   0.9340
B(  1-C ,  7-H ) :   0.9350 B(  2-C ,  3-C ) :   0.9524 B(  2-C ,  8-H ) :   0.9435
B(  2-C ,  9-H ) :   0.9403 B(  3-C ,  4-O ) :   0.8210 B(  3-C , 10-H ) :   0.9304
B(  3-C , 11-H ) :   0.9398 B( 12-C , 13-H ) :   0.9302 B( 12-C , 14-H ) :   0.9130
B( 12-C , 15-O ) :   0.7777 B( 12-C , 16-C ) :   0.8954 B( 16-C , 17-C ) :   0.9128
B( 16-C , 20-O ) :   0.8521 B( 16-C , 21-H ) :   0.9280 B( 17-C , 18-C ) :   0.9009
B( 17-C , 22-H ) :   0.9317 B( 17-C , 23-O ) :   0.9339 B( 18-C , 19-C ) :   0.9390
B( 18-C , 24-H ) :   0.9444 B( 18-C , 25-H ) :   0.9436 B( 19-C , 20-O ) :   0.8325
B( 19-C , 26-H ) :   0.9341 B( 19-C , 27-H ) :   0.9382 B( 23-O , 28-H ) :   0.7222

FINAL SINGLE POINT ENERGY      -652.864893174604

DIPOLE MOMENT
-------------
                                X             Y             Z
Electronic contribution:     -0.37120      -1.66714      -0.81170
Nuclear contribution   :      1.25502       1.91412       1.02833
                        -----------------------------------------
Total Dipole Moment    :      0.88382       0.24698       0.21662
                        -----------------------------------------
Magnitude (a.u.)       :      0.94290
Magnitude (Debye)      :      2.39666

Rotational constants in cm-1:     0.052345     0.014977     0.013460
Rotational constants in MHz :  1569.250598   449.010328   403.529203

                             ****ORCA TERMINATED NORMALLY****
TOTAL RUN TIME: 0 days 0 hours 25 minutes 32 seconds 494 msec
