                         Program Version 4.2.0 -  RELEASE  -
|  1> # Test redundant internal optimization
|  2> #
|  3> ! RKS B3LYP  Opt TightSCF SmallPrint
|  4>
|  5> %basis
|  6>         Basis "6-31G"
|  7> end
|  8>
|  9> %geom
| 10> Constraints
| 11> { D 4  0  15  12  90.0   C } # D for Dihedral angle
| 12> { D 0  15  12  16  180.0   C } # D for Dihedral angle
| 13> { D 0  4  3  2   C } # D for Dihedral angle
| 14> { D 4  3  2  1   C } # D for Dihedral angle
| 15> { D 3  2  1  0   C } # D for Dihedral angle
| 16> { D 2  1  0  4   C } # D for Dihedral angle
| 17> { D 1  0  4  3   C } # D for Dihedral angle
| 18> { D 16  20  19  18   C } # D for Dihedral angle
| 19> { D 20  19  18  17   C } # D for Dihedral angle
| 20> { D 19  18  17  16   C } # D for Dihedral angle
| 21> { D 18  17  16  20   C } # D for Dihedral angle
| 22> { D 17  16  20  19   C } # D for Dihedral angle
| 23> { D 15  12  16  20   C } # D for Dihedral angle
| 24> end
| 25> end
| 26>
| 27>
| 28> #%pal
| 29> #nprocs 8
| 30> #end
| 31>
| 32> * xyz 0 1
| 33> C  -21.048   26.222   46.251
| 34> C  -20.361   27.558   45.944
| 35> C  -20.329   28.222   47.341
| 36> C  -20.110   27.022   48.296
| 37> O  -20.473   25.807   47.535
| 38> H  -20.833   25.428   45.533
| 39> H  -19.344   27.382   45.576
| 40> H  -20.898   28.157   45.201
| 41> H  -19.543   28.978   47.434
| 42> H  -21.289   28.710   47.548
| 43> H  -20.733   27.082   49.195
| 44> H  -19.064   26.913   48.597
| 45> C  -23.061   27.816   46.783
| 46> H  -22.628   28.076   47.757
| 47> H  -22.724   28.559   46.049
| 48> O  -22.586   26.394   46.375
| 49> C  -24.607   27.924   46.891
| 50> C  -25.288   27.487   45.588
| 51> C  -25.234   25.945   45.709
| 52> C  -25.420   25.705   47.228
| 53> O  -25.118   26.989   47.897
| 54> H  -24.873   28.929   47.224
| 55> H  -26.326   27.837   45.571
| 56> O  -24.571   28.017   44.317
| 57> H  -26.002   25.445   45.110
| 58> H  -24.257   25.575   45.376
| 59> H  -24.749   24.931   47.616
| 60> H  -26.450   25.442   47.486
| 61> H  -23.529   27.678   44.313
| 62> *
| 63>
| 64>                          ****END OF INPUT****
 Total Charge           Charge          ....    0
 Multiplicity           Mult            ....    1
 Number of Electrons    NEL             ....  102
FINAL SINGLE POINT ENERGY      -652.811253788329
FINAL SINGLE POINT ENERGY      -652.839206164030
FINAL SINGLE POINT ENERGY      -652.853590715090
FINAL SINGLE POINT ENERGY      -652.856425040078
FINAL SINGLE POINT ENERGY      -652.856856029628
FINAL SINGLE POINT ENERGY      -652.856923181665
FINAL SINGLE POINT ENERGY      -652.856929449393
                    ***********************HURRAY********************

CARTESIAN COORDINATES (ANGSTROEM)
---------------------------------
  C    -21.168457   26.376955   46.422533
  C    -20.279123   27.546208   45.978893
  C    -19.996927   28.270949   47.326739
  C    -19.916563   27.092467   48.329949
  O    -20.569406   25.940226   47.660784
  H    -21.113878   25.512323   45.759149
  H    -19.354831   27.136071   45.560229
  H    -20.742374   28.190784   45.226136
  H    -19.064800   28.843717   47.297535
  H    -20.802432   28.963392   47.580916
  H    -20.431425   27.292965   49.273805
  H    -18.885884   26.793644   48.540927
  C    -23.152822   27.898300   46.876344
  H    -22.824220   28.181020   47.882928
  H    -22.846548   28.674748   46.162479
  O    -22.595414   26.601470   46.512452
  C    -24.678325   27.825270   46.887352
  C    -25.332935   27.444393   45.547726
  C    -25.287720   25.886226   45.599367
  C    -25.509176   25.592545   47.098731
  O    -25.214365   26.854810   47.826295
  H    -25.028855   28.807494   47.227547
  H    -26.360708   27.811842   45.518687
  O    -24.689857   28.025357   44.385376
  H    -26.052770   25.432406   44.962615
  H    -24.300116   25.547554   45.281153
  H    -24.845209   24.811690   47.477361
  H    -26.547184   25.332779   47.327704
  H    -23.855677   27.542396   44.209287

 Multiplicity           Mult            ....    1
 Number of Electrons    NEL             ....  102
 Basis Dimension        Dim             ....  149

ORBITAL ENERGIES
----------------

  NO   OCC          E(Eh)            E(eV)
   0   2.0000     -19.152880      -521.1764
   1   2.0000     -19.143839      -520.9303
   2   2.0000     -19.140495      -520.8393
   3   2.0000     -19.130871      -520.5775
   4   2.0000     -10.285682      -279.8876
   5   2.0000     -10.235351      -278.5181
   6   2.0000     -10.233988      -278.4810
   7   2.0000     -10.231739      -278.4198
   8   2.0000     -10.230108      -278.3754
   9   2.0000     -10.217405      -278.0297
  10   2.0000     -10.199809      -277.5509
  11   2.0000     -10.197632      -277.4917
  12   2.0000     -10.176635      -276.9203
  13   2.0000      -1.056955       -28.7612
  14   2.0000      -1.026488       -27.9322
  15   2.0000      -1.009132       -27.4599
  16   2.0000      -0.999430       -27.1959
  17   2.0000      -0.794507       -21.6196
  18   2.0000      -0.776597       -21.1323
  19   2.0000      -0.765184       -20.8217
  20   2.0000      -0.735550       -20.0153
  21   2.0000      -0.681903       -18.5555
  22   2.0000      -0.610024       -16.5996
  23   2.0000      -0.602870       -16.4049
  24   2.0000      -0.599854       -16.3229
  25   2.0000      -0.562958       -15.3189
  26   2.0000      -0.526142       -14.3170
  27   2.0000      -0.512354       -13.9419
  28   2.0000      -0.505977       -13.7683
  29   2.0000      -0.487670       -13.2702
  30   2.0000      -0.473897       -12.8954
  31   2.0000      -0.458068       -12.4647
  32   2.0000      -0.442057       -12.0290
  33   2.0000      -0.432943       -11.7810
  34   2.0000      -0.424351       -11.5472
  35   2.0000      -0.417484       -11.3603
  36   2.0000      -0.405758       -11.0412
  37   2.0000      -0.399142       -10.8612
  38   2.0000      -0.388754       -10.5785
  39   2.0000      -0.370541       -10.0829
  40   2.0000      -0.365965        -9.9584
  41   2.0000      -0.358838        -9.7645
  42   2.0000      -0.346094        -9.4177
  43   2.0000      -0.324819        -8.8388
  44   2.0000      -0.317629        -8.6431
  45   2.0000      -0.308337        -8.3903
  46   2.0000      -0.302072        -8.2198
  47   2.0000      -0.275746        -7.5034
  48   2.0000      -0.261200        -7.1076
  49   2.0000      -0.258430        -7.0322
  50   2.0000      -0.236868        -6.4455
  51   0.0000       0.056488         1.5371
  52   0.0000       0.079845         2.1727
  53   0.0000       0.089403         2.4328
  54   0.0000       0.094840         2.5807
  55   0.0000       0.099943         2.7196

MULLIKEN ATOMIC CHARGES
-----------------------
   0 C :    0.308743
   1 C :   -0.295102
   2 C :   -0.311700
   3 C :   -0.008933
   4 O :   -0.496261
   5 H :    0.160521
   6 H :    0.160321
   7 H :    0.146299
   8 H :    0.147988
   9 H :    0.151108
  10 H :    0.151843
  11 H :    0.147736
  12 C :   -0.014257
  13 H :    0.148722
  14 H :    0.135290
  15 O :   -0.534144
  16 C :    0.095130
  17 C :    0.082754
  18 C :   -0.307067
  19 C :    0.001252
  20 O :   -0.521735
  21 H :    0.144423
  22 H :    0.160332
  23 O :   -0.608369
  24 H :    0.142566
  25 H :    0.161964
  26 H :    0.156223
  27 H :    0.135654
  28 H :    0.358698
Sum of atomic charges:    0.0000000

LOEWDIN ATOMIC CHARGES
----------------------
   0 C :    0.173430
   1 C :   -0.231175
   2 C :   -0.223009
   3 C :   -0.031643
   4 O :   -0.316189
   5 H :    0.109543
   6 H :    0.124800
   7 H :    0.115532
   8 H :    0.117139
   9 H :    0.111273
  10 H :    0.106708
  11 H :    0.105208
  12 C :   -0.049057
  13 H :    0.104884
  14 H :    0.097261
  15 O :   -0.326069
  16 C :    0.021817
  17 C :    0.037076
  18 C :   -0.240840
  19 C :   -0.022628
  20 O :   -0.321298
  21 H :    0.112433
  22 H :    0.115489
  23 O :   -0.413701
  24 H :    0.114025
  25 H :    0.120779
  26 H :    0.110428
  27 H :    0.099068
  28 H :    0.278714

  Mayer bond orders larger than 0.100000
B(  0-C ,  1-C ) :   0.9251 B(  0-C ,  4-O ) :   0.9157 B(  0-C ,  5-H ) :   0.9365
B(  0-C , 15-O ) :   0.8841 B(  1-C ,  2-C ) :   0.9530 B(  1-C ,  6-H ) :   0.9347
B(  1-C ,  7-H ) :   0.9338 B(  2-C ,  3-C ) :   0.9482 B(  2-C ,  8-H ) :   0.9451
B(  2-C ,  9-H ) :   0.9395 B(  3-C ,  4-O ) :   0.8442 B(  3-C , 10-H ) :   0.9333
B(  3-C , 11-H ) :   0.9387 B( 12-C , 13-H ) :   0.9143 B( 12-C , 14-H ) :   0.8982
B( 12-C , 15-O ) :   0.8308 B( 12-C , 16-C ) :   0.9104 B( 16-C , 17-C ) :   0.8843
B( 16-C , 20-O ) :   0.8876 B( 16-C , 21-H ) :   0.9299 B( 17-C , 18-C ) :   0.9346
B( 17-C , 22-H ) :   0.9364 B( 17-C , 23-O ) :   0.8962 B( 18-C , 19-C ) :   0.9464
B( 18-C , 24-H ) :   0.9410 B( 18-C , 25-H ) :   0.9273 B( 19-C , 20-O ) :   0.8343
B( 19-C , 26-H ) :   0.9314 B( 19-C , 27-H ) :   0.9388 B( 23-O , 28-H ) :   0.7949

FINAL SINGLE POINT ENERGY      -652.856928285011

DIPOLE MOMENT
-------------
                                X             Y             Z
Electronic contribution:     -2.98887      -1.83439       0.45877
Nuclear contribution   :      3.97853       2.29957      -0.89006
                        -----------------------------------------
Total Dipole Moment    :      0.98966       0.46518      -0.43129
                        -----------------------------------------
Magnitude (a.u.)       :      1.17551
Magnitude (Debye)      :      2.98792

Rotational constants in cm-1:     0.049541     0.015542     0.014212
Rotational constants in MHz :  1485.195990   465.939707   426.061728

                             ****ORCA TERMINATED NORMALLY****
TOTAL RUN TIME: 0 days 0 hours 21 minutes 53 seconds 828 msec
