                         Program Version 4.2.0 -  RELEASE  -
|  1> # Test redundant internal optimization
|  2> #
|  3> ! RKS B3LYP  Opt TightSCF SmallPrint
|  4>
|  5> %basis
|  6>         Basis "6-31G"
|  7> end
|  8>
|  9> %geom
| 10> Constraints
| 11> { D 4  0  15  12  315.0   C } # D for Dihedral angle
| 12> { D 0  15  12  16  195.0   C } # D for Dihedral angle
| 13> { D 0  4  3  2   C } # D for Dihedral angle
| 14> { D 4  3  2  1   C } # D for Dihedral angle
| 15> { D 3  2  1  0   C } # D for Dihedral angle
| 16> { D 2  1  0  4   C } # D for Dihedral angle
| 17> { D 1  0  4  3   C } # D for Dihedral angle
| 18> { D 16  20  19  18   C } # D for Dihedral angle
| 19> { D 20  19  18  17   C } # D for Dihedral angle
| 20> { D 19  18  17  16   C } # D for Dihedral angle
| 21> { D 18  17  16  20   C } # D for Dihedral angle
| 22> { D 17  16  20  19   C } # D for Dihedral angle
| 23> { D 15  12  16  20   C } # D for Dihedral angle
| 24> end
| 25> end
| 26>
| 27>
| 28> #%pal
| 29> #nprocs 8
| 30> #end
| 31>
| 32> * xyz 0 1
| 33> C  -21.048   26.222   46.251
| 34> C  -20.361   27.558   45.944
| 35> C  -20.329   28.222   47.341
| 36> C  -20.110   27.022   48.296
| 37> O  -20.473   25.807   47.535
| 38> H  -20.833   25.428   45.533
| 39> H  -19.344   27.382   45.576
| 40> H  -20.898   28.157   45.201
| 41> H  -19.543   28.978   47.434
| 42> H  -21.289   28.710   47.548
| 43> H  -20.733   27.082   49.195
| 44> H  -19.064   26.913   48.597
| 45> C  -23.319   25.255   47.135
| 46> H  -22.935   24.286   46.792
| 47> H  -23.136   25.333   48.214
| 48> O  -22.586   26.394   46.375
| 49> C  -24.857   25.277   46.914
| 50> C  -25.212   25.003   45.448
| 51> C  -25.069   23.464   45.374
| 52> C  -25.553   22.998   46.770
| 53> O  -25.497   24.183   47.652
| 54> H  -25.261   26.210   47.310
| 55> O  -26.678   25.432   45.166
| 56> H  -24.559   25.525   44.741
| 57> H  -25.653   23.022   44.560
| 58> H  -24.018   23.191   45.218
| 59> H  -24.923   22.208   47.190
| 60> H  -26.591   22.654   46.758
| 61> H  -27.352   24.920   45.863
| 62> *
| 63>
| 64>                          ****END OF INPUT****
 Total Charge           Charge          ....    0
 Multiplicity           Mult            ....    1
 Number of Electrons    NEL             ....  102
FINAL SINGLE POINT ENERGY      -652.840667524789
FINAL SINGLE POINT ENERGY      -652.864757689944
FINAL SINGLE POINT ENERGY      -652.868571001531
FINAL SINGLE POINT ENERGY      -652.869227556374
FINAL SINGLE POINT ENERGY      -652.869323606041
FINAL SINGLE POINT ENERGY      -652.869335485536
FINAL SINGLE POINT ENERGY      -652.869337788777
                    ***********************HURRAY********************

CARTESIAN COORDINATES (ANGSTROEM)
---------------------------------
  C    -21.116746   26.123364   46.292801
  C    -20.562615   27.502892   45.939065
  C    -20.522456   28.188893   47.321718
  C    -20.159581   27.034965   48.281887
  O    -20.460473   25.780141   47.536506
  H    -20.875863   25.311462   45.597764
  H    -19.556224   27.389662   45.520707
  H    -21.192866   28.026675   45.217149
  H    -19.796457   29.006662   47.364391
  H    -21.511166   28.591969   47.558870
  H    -20.741719   27.043395   49.206815
  H    -19.094030   27.001313   48.526416
  C    -23.200748   25.179439   47.190759
  H    -22.803086   24.198519   46.893200
  H    -23.015756   25.302288   48.261826
  O    -22.550763   26.240133   46.427960
  C    -24.696527   25.272433   46.899960
  C    -25.089455   25.028707   45.435604
  C    -25.056013   23.480757   45.356155
  C    -25.553583   23.043869   46.757219
  O    -25.402341   24.223630   47.644607
  H    -25.081654   26.234267   47.248943
  O    -26.420181   25.550610   45.163089
  H    -24.425763   25.523917   44.729610
  H    -25.695482   23.121328   44.546299
  H    -24.035534   23.130017   45.168740
  H    -24.979004   22.211055   47.173023
  H    -26.613916   22.772783   46.760818
  H    -27.013998   25.320856   45.909099

 Multiplicity           Mult            ....    1
 Number of Electrons    NEL             ....  102
 Basis Dimension        Dim             ....  149

ORBITAL ENERGIES
----------------

  NO   OCC          E(Eh)            E(eV)
   0   2.0000     -19.147236      -521.0228
   1   2.0000     -19.146122      -520.9925
   2   2.0000     -19.142962      -520.9065
   3   2.0000     -19.133079      -520.6376
   4   2.0000     -10.281456      -279.7726
   5   2.0000     -10.233486      -278.4673
   6   2.0000     -10.230453      -278.3848
   7   2.0000     -10.230080      -278.3746
   8   2.0000     -10.229010      -278.3455
   9   2.0000     -10.227059      -278.2924
  10   2.0000     -10.187745      -277.2226
  11   2.0000     -10.187614      -277.2191
  12   2.0000     -10.185968      -277.1743
  13   2.0000      -1.058242       -28.7962
  14   2.0000      -1.034115       -28.1397
  15   2.0000      -1.002318       -27.2745
  16   2.0000      -0.996263       -27.1097
  17   2.0000      -0.792781       -21.5727
  18   2.0000      -0.777183       -21.1482
  19   2.0000      -0.766491       -20.8573
  20   2.0000      -0.730710       -19.8836
  21   2.0000      -0.672064       -18.2878
  22   2.0000      -0.602366       -16.3912
  23   2.0000      -0.601710       -16.3734
  24   2.0000      -0.589573       -16.0431
  25   2.0000      -0.580255       -15.7895
  26   2.0000      -0.521711       -14.1965
  27   2.0000      -0.516625       -14.0581
  28   2.0000      -0.495499       -13.4832
  29   2.0000      -0.493240       -13.4218
  30   2.0000      -0.471161       -12.8209
  31   2.0000      -0.456201       -12.4139
  32   2.0000      -0.447080       -12.1657
  33   2.0000      -0.437756       -11.9120
  34   2.0000      -0.422709       -11.5025
  35   2.0000      -0.410345       -11.1661
  36   2.0000      -0.403607       -10.9827
  37   2.0000      -0.390739       -10.6325
  38   2.0000      -0.376454       -10.2438
  39   2.0000      -0.365982        -9.9589
  40   2.0000      -0.360249        -9.8029
  41   2.0000      -0.352705        -9.5976
  42   2.0000      -0.350934        -9.5494
  43   2.0000      -0.342574        -9.3219
  44   2.0000      -0.324185        -8.8215
  45   2.0000      -0.306949        -8.3525
  46   2.0000      -0.300120        -8.1667
  47   2.0000      -0.268811        -7.3147
  48   2.0000      -0.265688        -7.2297
  49   2.0000      -0.259244        -7.0544
  50   2.0000      -0.245488        -6.6801
  51   0.0000       0.068118         1.8536
  52   0.0000       0.074857         2.0370
  53   0.0000       0.093857         2.5540
  54   0.0000       0.101657         2.7662
  55   0.0000       0.106763         2.9052

MULLIKEN ATOMIC CHARGES
-----------------------
   0 C :    0.295106
   1 C :   -0.263425
   2 C :   -0.299163
   3 C :   -0.010217
   4 O :   -0.514009
   5 H :    0.144632
   6 H :    0.145953
   7 H :    0.161701
   8 H :    0.143630
   9 H :    0.162303
  10 H :    0.147982
  11 H :    0.146933
  12 C :    0.009170
  13 H :    0.127169
  14 H :    0.161310
  15 O :   -0.537613
  16 C :    0.057869
  17 C :    0.091426
  18 C :   -0.295664
  19 C :   -0.031286
  20 O :   -0.529521
  21 H :    0.162063
  22 O :   -0.604886
  23 H :    0.169789
  24 H :    0.161339
  25 H :    0.141006
  26 H :    0.147582
  27 H :    0.146499
  28 H :    0.362322
Sum of atomic charges:   -0.0000000

LOEWDIN ATOMIC CHARGES
----------------------
   0 C :    0.174776
   1 C :   -0.214647
   2 C :   -0.216289
   3 C :   -0.029340
   4 O :   -0.327787
   5 H :    0.095467
   6 H :    0.114733
   7 H :    0.126464
   8 H :    0.115063
   9 H :    0.119204
  10 H :    0.105391
  11 H :    0.104930
  12 C :   -0.036524
  13 H :    0.094600
  14 H :    0.112056
  15 O :   -0.336166
  16 C :    0.017902
  17 C :    0.037681
  18 C :   -0.240712
  19 C :   -0.038555
  20 O :   -0.330946
  21 H :    0.117118
  22 O :   -0.415803
  23 H :    0.124731
  24 H :    0.126220
  25 H :    0.112063
  26 H :    0.104475
  27 H :    0.102660
  28 H :    0.281238

  Mayer bond orders larger than 0.100000
B(  0-C ,  1-C ) :   0.9509 B(  0-C ,  4-O ) :   0.9002 B(  0-C ,  5-H ) :   0.9204
B(  0-C , 15-O ) :   0.8504 B(  1-C ,  2-C ) :   0.9546 B(  1-C ,  6-H ) :   0.9387
B(  1-C ,  7-H ) :   0.9352 B(  2-C ,  3-C ) :   0.9555 B(  2-C ,  8-H ) :   0.9447
B(  2-C ,  9-H ) :   0.9445 B(  3-C ,  4-O ) :   0.8331 B(  3-C , 10-H ) :   0.9351
B(  3-C , 11-H ) :   0.9403 B( 12-C , 13-H ) :   0.9205 B( 12-C , 14-H ) :   0.9193
B( 12-C , 15-O ) :   0.8086 B( 12-C , 16-C ) :   0.9053 B( 16-C , 17-C ) :   0.9115
B( 16-C , 20-O ) :   0.8423 B( 16-C , 21-H ) :   0.9257 B( 17-C , 18-C ) :   0.9117
B( 17-C , 22-O ) :   0.8881 B( 17-C , 23-H ) :   0.9249 B( 18-C , 19-C ) :   0.9434
B( 18-C , 24-H ) :   0.9378 B( 18-C , 25-H ) :   0.9355 B( 19-C , 20-O ) :   0.8438
B( 19-C , 26-H ) :   0.9352 B( 19-C , 27-H ) :   0.9379 B( 22-O , 28-H ) :   0.7959

FINAL SINGLE POINT ENERGY      -652.869338128177

DIPOLE MOMENT
-------------
                                X             Y             Z
Electronic contribution:     -3.21139      -0.87648       0.43710
Nuclear contribution   :      3.92976       0.83141      -0.47176
                        -----------------------------------------
Total Dipole Moment    :      0.71837      -0.04507      -0.03465
                        -----------------------------------------
Magnitude (a.u.)       :      0.72061
Magnitude (Debye)      :      1.83165

Rotational constants in cm-1:     0.060232     0.012232     0.011488
Rotational constants in MHz :  1805.714627   366.720218   344.408917

                             ****ORCA TERMINATED NORMALLY****
TOTAL RUN TIME: 0 days 1 hours 40 minutes 22 seconds 942 msec
