                         Program Version 4.2.0 -  RELEASE  -
|  1> # Test redundant internal optimization
|  2> #
|  3> ! RKS B3LYP  Opt TightSCF SmallPrint
|  4>
|  5> %basis
|  6>         Basis "6-31G"
|  7> end
|  8>
|  9> %geom
| 10> Constraints
| 11> { D 4  0  15  12  330.0   C } # D for Dihedral angle
| 12> { D 0  15  12  16  120.0   C } # D for Dihedral angle
| 13> { D 0  4  3  2   C } # D for Dihedral angle
| 14> { D 4  3  2  1   C } # D for Dihedral angle
| 15> { D 3  2  1  0   C } # D for Dihedral angle
| 16> { D 2  1  0  4   C } # D for Dihedral angle
| 17> { D 1  0  4  3   C } # D for Dihedral angle
| 18> { D 16  20  19  18   C } # D for Dihedral angle
| 19> { D 20  19  18  17   C } # D for Dihedral angle
| 20> { D 19  18  17  16   C } # D for Dihedral angle
| 21> { D 18  17  16  20   C } # D for Dihedral angle
| 22> { D 17  16  20  19   C } # D for Dihedral angle
| 23> { D 15  12  16  20   C } # D for Dihedral angle
| 24> end
| 25> end
| 26>
| 27>
| 28> #%pal
| 29> #nprocs 8
| 30> #end
| 31>
| 32> * xyz 0 1
| 33> C  -21.048   26.222   46.251
| 34> C  -20.361   27.558   45.944
| 35> C  -20.329   28.222   47.341
| 36> C  -20.110   27.022   48.296
| 37> O  -20.473   25.807   47.535
| 38> H  -20.833   25.428   45.533
| 39> H  -19.344   27.382   45.576
| 40> H  -20.898   28.157   45.201
| 41> H  -19.543   28.978   47.434
| 42> H  -21.289   28.710   47.548
| 43> H  -20.733   27.082   49.195
| 44> H  -19.064   26.913   48.597
| 45> C  -23.271   25.476   47.424
| 46> H  -24.005   24.835   46.920
| 47> H  -22.529   24.830   47.912
| 48> O  -22.586   26.394   46.375
| 49> C  -24.004   26.276   48.536
| 50> C  -25.175   27.082   47.961
| 51> C  -26.263   25.991   47.814
| 52> C  -26.004   25.069   49.032
| 53> O  -24.631   25.363   49.496
| 54> H  -23.275   26.871   49.089
| 55> H  -25.491   27.849   48.677
| 56> O  -24.834   27.779   46.615
| 57> H  -27.277   26.402   47.810
| 58> H  -26.120   25.442   46.875
| 59> H  -26.077   24.007   48.776
| 60> H  -26.679   25.280   49.866
| 61> H  -24.515   27.029   45.883
| 62> *
| 63>
| 64>                          ****END OF INPUT****
 Total Charge           Charge          ....    0
 Multiplicity           Mult            ....    1
 Number of Electrons    NEL             ....  102
FINAL SINGLE POINT ENERGY      -652.835049019365
FINAL SINGLE POINT ENERGY      -652.859006104642
FINAL SINGLE POINT ENERGY      -652.865162656013
FINAL SINGLE POINT ENERGY      -652.867299763836
FINAL SINGLE POINT ENERGY      -652.868457532459
FINAL SINGLE POINT ENERGY      -652.869041562145
FINAL SINGLE POINT ENERGY      -652.869220136773
FINAL SINGLE POINT ENERGY      -652.869263119667
FINAL SINGLE POINT ENERGY      -652.869266183834
                    ***********************HURRAY********************

CARTESIAN COORDINATES (ANGSTROEM)
---------------------------------
  C    -21.085056   26.148141   46.301375
  C    -20.570824   27.548137   45.972525
  C    -20.530998   28.205306   47.369788
  C    -20.127678   27.042703   48.299943
  O    -20.409311   25.795955   47.522498
  H    -20.840679   25.364676   45.579704
  H    -19.566907   27.465578   45.541158
  H    -21.216650   28.075511   45.266967
  H    -19.824354   29.038947   47.420140
  H    -21.525364   28.584446   47.623888
  H    -20.696059   27.008390   49.232100
  H    -19.058603   27.024148   48.526930
  C    -23.197562   25.345466   47.436360
  H    -23.887815   24.691229   46.892754
  H    -22.454623   24.738461   47.957342
  O    -22.538079   26.212254   46.446037
  C    -23.937035   26.226499   48.449170
  C    -25.073748   27.080106   47.861938
  C    -26.224777   26.039103   47.756952
  C    -26.002947   25.141939   48.991485
  O    -24.596754   25.377107   49.438327
  H    -23.208892   26.834023   48.995505
  H    -25.348872   27.849121   48.592336
  O    -24.773582   27.758382   46.626421
  H    -27.206883   26.519127   47.751539
  H    -26.118175   25.483805   46.818878
  H    -26.129899   24.075249   48.782288
  H    -26.646301   25.415453   49.833233
  H    -23.962573   27.366738   46.224419

 Multiplicity           Mult            ....    1
 Number of Electrons    NEL             ....  102
 Basis Dimension        Dim             ....  149

ORBITAL ENERGIES
----------------

  NO   OCC          E(Eh)            E(eV)
   0   2.0000     -19.160177      -521.3749
   1   2.0000     -19.159263      -521.3500
   2   2.0000     -19.138812      -520.7936
   3   2.0000     -19.114007      -520.1186
   4   2.0000     -10.292392      -280.0702
   5   2.0000     -10.237973      -278.5894
   6   2.0000     -10.231787      -278.4211
   7   2.0000     -10.231232      -278.4060
   8   2.0000     -10.229181      -278.3502
   9   2.0000     -10.225518      -278.2505
  10   2.0000     -10.195593      -277.4362
  11   2.0000     -10.195332      -277.4291
  12   2.0000     -10.177921      -276.9553
  13   2.0000      -1.067105       -29.0374
  14   2.0000      -1.024194       -27.8697
  15   2.0000      -1.005616       -27.3642
  16   2.0000      -0.991514       -26.9805
  17   2.0000      -0.799806       -21.7638
  18   2.0000      -0.772844       -21.0302
  19   2.0000      -0.767119       -20.8744
  20   2.0000      -0.736789       -20.0491
  21   2.0000      -0.677358       -18.4319
  22   2.0000      -0.610476       -16.6119
  23   2.0000      -0.597933       -16.2706
  24   2.0000      -0.594603       -16.1800
  25   2.0000      -0.578949       -15.7540
  26   2.0000      -0.530710       -14.4413
  27   2.0000      -0.515951       -14.0397
  28   2.0000      -0.504524       -13.7288
  29   2.0000      -0.485516       -13.2116
  30   2.0000      -0.477044       -12.9810
  31   2.0000      -0.460903       -12.5418
  32   2.0000      -0.444361       -12.0917
  33   2.0000      -0.426601       -11.6084
  34   2.0000      -0.424248       -11.5444
  35   2.0000      -0.417483       -11.3603
  36   2.0000      -0.410847       -11.1797
  37   2.0000      -0.387042       -10.5319
  38   2.0000      -0.381976       -10.3941
  39   2.0000      -0.369353       -10.0506
  40   2.0000      -0.366334        -9.9685
  41   2.0000      -0.361082        -9.8255
  42   2.0000      -0.352455        -9.5908
  43   2.0000      -0.345316        -9.3965
  44   2.0000      -0.328140        -8.9291
  45   2.0000      -0.314322        -8.5531
  46   2.0000      -0.285716        -7.7747
  47   2.0000      -0.278734        -7.5847
  48   2.0000      -0.273202        -7.4342
  49   2.0000      -0.248138        -6.7522
  50   2.0000      -0.239295        -6.5115
  51   0.0000       0.058914         1.6031
  52   0.0000       0.073163         1.9909
  53   0.0000       0.093001         2.5307
  54   0.0000       0.094036         2.5589
  55   0.0000       0.100773         2.7422

MULLIKEN ATOMIC CHARGES
-----------------------
   0 C :    0.308782
   1 C :   -0.267203
   2 C :   -0.306943
   3 C :   -0.019017
   4 O :   -0.509486
   5 H :    0.159340
   6 H :    0.151899
   7 H :    0.164306
   8 H :    0.150329
   9 H :    0.165582
  10 H :    0.155976
  11 H :    0.154696
  12 C :   -0.031178
  13 H :    0.146702
  14 H :    0.188543
  15 O :   -0.575437
  16 C :    0.052845
  17 C :    0.120401
  18 C :   -0.297283
  19 C :   -0.025327
  20 O :   -0.521749
  21 H :    0.149920
  22 H :    0.144601
  23 O :   -0.644772
  24 H :    0.148915
  25 H :    0.145381
  26 H :    0.144434
  27 H :    0.149491
  28 H :    0.396251
Sum of atomic charges:    0.0000000

LOEWDIN ATOMIC CHARGES
----------------------
   0 C :    0.183433
   1 C :   -0.216225
   2 C :   -0.218395
   3 C :   -0.030228
   4 O :   -0.317339
   5 H :    0.104531
   6 H :    0.117862
   7 H :    0.127036
   8 H :    0.119149
   9 H :    0.119029
  10 H :    0.107973
  11 H :    0.109480
  12 C :   -0.049782
  13 H :    0.104849
  14 H :    0.129153
  15 O :   -0.351781
  16 C :    0.012692
  17 C :    0.040885
  18 C :   -0.235793
  19 C :   -0.033197
  20 O :   -0.324717
  21 H :    0.107826
  22 H :    0.103714
  23 O :   -0.436783
  24 H :    0.120293
  25 H :    0.111377
  26 H :    0.102736
  27 H :    0.105729
  28 H :    0.286493

  Mayer bond orders larger than 0.100000
B(  0-C ,  1-C ) :   0.9454 B(  0-C ,  4-O ) :   0.9226 B(  0-C ,  5-H ) :   0.9251
B(  0-C , 15-O ) :   0.8058 B(  1-C ,  2-C ) :   0.9513 B(  1-C ,  6-H ) :   0.9367
B(  1-C ,  7-H ) :   0.9346 B(  2-C ,  3-C ) :   0.9548 B(  2-C ,  8-H ) :   0.9437
B(  2-C ,  9-H ) :   0.9400 B(  3-C ,  4-O ) :   0.8213 B(  3-C , 10-H ) :   0.9312
B(  3-C , 11-H ) :   0.9394 B( 12-C , 13-H ) :   0.9316 B( 12-C , 14-H ) :   0.9137
B( 12-C , 15-O ) :   0.7784 B( 12-C , 16-C ) :   0.8986 B( 16-C , 17-C ) :   0.9105
B( 16-C , 20-O ) :   0.8537 B( 16-C , 21-H ) :   0.9285 B( 17-C , 18-C ) :   0.9016
B( 17-C , 22-H ) :   0.9321 B( 17-C , 23-O ) :   0.9334 B( 18-C , 19-C ) :   0.9392
B( 18-C , 24-H ) :   0.9452 B( 18-C , 25-H ) :   0.9437 B( 19-C , 20-O ) :   0.8338
B( 19-C , 26-H ) :   0.9337 B( 19-C , 27-H ) :   0.9381 B( 23-O , 28-H ) :   0.7216

FINAL SINGLE POINT ENERGY      -652.869267241269

DIPOLE MOMENT
-------------
                                X             Y             Z
Electronic contribution:      0.20970      -2.03799      -0.11094
Nuclear contribution   :      0.42603       2.13359      -0.05459
                        -----------------------------------------
Total Dipole Moment    :      0.63572       0.09560      -0.16553
                        -----------------------------------------
Magnitude (a.u.)       :      0.66384
Magnitude (Debye)      :      1.68734

Rotational constants in cm-1:     0.052469     0.015568     0.014198
Rotational constants in MHz :  1572.977023   466.727853   425.635819

                             ****ORCA TERMINATED NORMALLY****
TOTAL RUN TIME: 0 days 1 hours 39 minutes 14 seconds 335 msec
