                         Program Version 4.2.0 -  RELEASE  -
|  1> # Test redundant internal optimization
|  2> #
|  3> ! RKS B3LYP  Opt TightSCF SmallPrint
|  4>
|  5> %basis
|  6>         Basis "6-31G"
|  7> end
|  8>
|  9> %geom
| 10> Constraints
| 11> { D 4  0  15  12  150.0   C } # D for Dihedral angle
| 12> { D 0  15  12  16  90.0   C } # D for Dihedral angle
| 13> { D 0  4  3  2   C } # D for Dihedral angle
| 14> { D 4  3  2  1   C } # D for Dihedral angle
| 15> { D 3  2  1  0   C } # D for Dihedral angle
| 16> { D 2  1  0  4   C } # D for Dihedral angle
| 17> { D 1  0  4  3   C } # D for Dihedral angle
| 18> { D 16  20  19  18   C } # D for Dihedral angle
| 19> { D 20  19  18  17   C } # D for Dihedral angle
| 20> { D 19  18  17  16   C } # D for Dihedral angle
| 21> { D 18  17  16  20   C } # D for Dihedral angle
| 22> { D 17  16  20  19   C } # D for Dihedral angle
| 23> { D 15  12  16  20   C } # D for Dihedral angle
| 24> end
| 25> end
| 26>
| 27>
| 28> #%pal
| 29> #nprocs 8
| 30> #end
| 31>
| 32> * xyz 0 1
| 33> C  -21.048   26.222   46.251
| 34> C  -20.361   27.558   45.944
| 35> C  -20.329   28.222   47.341
| 36> C  -20.110   27.022   48.296
| 37> O  -20.473   25.807   47.535
| 38> H  -20.833   25.428   45.533
| 39> H  -19.344   27.382   45.576
| 40> H  -20.898   28.157   45.201
| 41> H  -19.543   28.978   47.434
| 42> H  -21.289   28.710   47.548
| 43> H  -20.733   27.082   49.195
| 44> H  -19.064   26.913   48.597
| 45> C  -23.210   27.459   45.431
| 46> H  -24.093   27.897   45.914
| 47> H  -22.491   28.265   45.234
| 48> O  -22.586   26.394   46.375
| 49> C  -23.644   26.867   44.062
| 50> C  -22.477   26.156   43.367
| 51> C  -22.445   24.802   44.116
| 52> C  -23.941   24.522   44.402
| 53> O  -24.647   25.814   44.253
| 54> H  -24.114   27.651   43.466
| 55> H  -22.706   26.005   42.307
| 56> O  -21.137   26.934   43.474
| 57> H  -21.975   24.004   43.532
| 58> H  -21.885   24.903   45.054
| 59> H  -24.111   24.134   45.412
| 60> H  -24.382   23.830   43.679
| 61> H  -20.888   27.096   44.528
| 62> *
| 63>
| 64>                          ****END OF INPUT****
 Total Charge           Charge          ....    0
 Multiplicity           Mult            ....    1
 Number of Electrons    NEL             ....  102
FINAL SINGLE POINT ENERGY      -652.759831225770
FINAL SINGLE POINT ENERGY      -652.821102272827
FINAL SINGLE POINT ENERGY      -652.840158929521
FINAL SINGLE POINT ENERGY      -652.844814887675
FINAL SINGLE POINT ENERGY      -652.845958553207
FINAL SINGLE POINT ENERGY      -652.846343432529
FINAL SINGLE POINT ENERGY      -652.846416701262
FINAL SINGLE POINT ENERGY      -652.846469777653
FINAL SINGLE POINT ENERGY      -652.846501928934
FINAL SINGLE POINT ENERGY      -652.846567784599
FINAL SINGLE POINT ENERGY      -652.847563506086
FINAL SINGLE POINT ENERGY      -652.847577753798
FINAL SINGLE POINT ENERGY      -652.847583715825
FINAL SINGLE POINT ENERGY      -652.848199005765
FINAL SINGLE POINT ENERGY      -652.848853542162
FINAL SINGLE POINT ENERGY      -652.849432395062
FINAL SINGLE POINT ENERGY      -652.849814024891
FINAL SINGLE POINT ENERGY      -652.849962411909
FINAL SINGLE POINT ENERGY      -652.849966612719
                    ***********************HURRAY********************

CARTESIAN COORDINATES (ANGSTROEM)
---------------------------------
  C    -21.001073   26.285230   46.539091
  C    -20.154294   27.500219   46.160297
  C    -20.232052   28.361064   47.446516
  C    -20.256000   27.296831   48.565231
  O    -20.641959   26.025851   47.907780
  H    -20.770977   25.375220   45.986246
  H    -19.126274   27.155175   45.995673
  H    -20.482133   28.003651   45.252026
  H    -19.383894   29.046338   47.541680
  H    -21.151892   28.954953   47.454110
  H    -20.979592   27.517642   49.354408
  H    -19.271136   27.132321   49.013565
  C    -23.116935   27.383887   45.581444
  H    -24.008475   27.714025   46.123107
  H    -22.509822   28.267533   45.349486
  O    -22.446596   26.515543   46.535505
  C    -23.626508   26.792443   44.257720
  C    -22.630793   26.183798   43.258549
  C    -22.510480   24.717888   43.773207
  C    -23.943625   24.425844   44.279612
  O    -24.603978   25.734545   44.459382
  H    -24.173072   27.618136   43.781784
  H    -23.083265   26.195831   42.257882
  O    -21.394285   26.941146   43.261342
  H    -22.199511   24.020028   42.987872
  H    -21.783889   24.674461   44.582879
  H    -23.945596   23.894210   45.235340
  H    -24.536761   23.861910   43.552281
  H    -20.792130   26.618275   42.562986

 Multiplicity           Mult            ....    1
 Number of Electrons    NEL             ....  102
 Basis Dimension        Dim             ....  149

ORBITAL ENERGIES
----------------

  NO   OCC          E(Eh)            E(eV)
   0   2.0000     -19.158449      -521.3279
   1   2.0000     -19.133160      -520.6397
   2   2.0000     -19.130099      -520.5565
   3   2.0000     -19.129099      -520.5292
   4   2.0000     -10.269806      -279.4556
   5   2.0000     -10.249965      -278.9157
   6   2.0000     -10.232250      -278.4337
   7   2.0000     -10.224323      -278.2180
   8   2.0000     -10.222178      -278.1596
   9   2.0000     -10.217054      -278.0202
  10   2.0000     -10.188398      -277.2404
  11   2.0000     -10.180697      -277.0308
  12   2.0000     -10.175450      -276.8881
  13   2.0000      -1.042377       -28.3645
  14   2.0000      -1.036631       -28.2082
  15   2.0000      -1.017077       -27.6761
  16   2.0000      -0.979768       -26.6608
  17   2.0000      -0.779921       -21.2227
  18   2.0000      -0.777209       -21.1489
  19   2.0000      -0.765634       -20.8340
  20   2.0000      -0.727084       -19.7850
  21   2.0000      -0.676753       -18.4154
  22   2.0000      -0.607897       -16.5417
  23   2.0000      -0.595742       -16.2110
  24   2.0000      -0.590621       -16.0716
  25   2.0000      -0.553643       -15.0654
  26   2.0000      -0.531769       -14.4702
  27   2.0000      -0.509927       -13.8758
  28   2.0000      -0.498511       -13.5652
  29   2.0000      -0.486829       -13.2473
  30   2.0000      -0.458730       -12.4827
  31   2.0000      -0.453902       -12.3513
  32   2.0000      -0.444379       -12.0922
  33   2.0000      -0.434277       -11.8173
  34   2.0000      -0.424145       -11.5416
  35   2.0000      -0.411308       -11.1923
  36   2.0000      -0.402109       -10.9419
  37   2.0000      -0.391238       -10.6461
  38   2.0000      -0.371750       -10.1158
  39   2.0000      -0.367443        -9.9986
  40   2.0000      -0.360379        -9.8064
  41   2.0000      -0.351691        -9.5700
  42   2.0000      -0.341663        -9.2971
  43   2.0000      -0.333853        -9.0846
  44   2.0000      -0.303872        -8.2688
  45   2.0000      -0.300925        -8.1886
  46   2.0000      -0.282952        -7.6995
  47   2.0000      -0.279169        -7.5966
  48   2.0000      -0.262662        -7.1474
  49   2.0000      -0.247702        -6.7403
  50   2.0000      -0.229316        -6.2400
  51   0.0000       0.045908         1.2492
  52   0.0000       0.078504         2.1362
  53   0.0000       0.093580         2.5465
  54   0.0000       0.099608         2.7105
  55   0.0000       0.117512         3.1977

MULLIKEN ATOMIC CHARGES
-----------------------
   0 C :    0.321390
   1 C :   -0.301411
   2 C :   -0.301041
   3 C :    0.000270
   4 O :   -0.505010
   5 H :    0.140758
   6 H :    0.139089
   7 H :    0.180903
   8 H :    0.138324
   9 H :    0.151520
  10 H :    0.149827
  11 H :    0.138372
  12 C :    0.002286
  13 H :    0.163596
  14 H :    0.129859
  15 O :   -0.524968
  16 C :    0.095859
  17 C :    0.081342
  18 C :   -0.324544
  19 C :   -0.003290
  20 O :   -0.516553
  21 H :    0.142857
  22 H :    0.141774
  23 O :   -0.614531
  24 H :    0.134794
  25 H :    0.170763
  26 H :    0.161140
  27 H :    0.140360
  28 H :    0.366267
Sum of atomic charges:   -0.0000000

LOEWDIN ATOMIC CHARGES
----------------------
   0 C :    0.185348
   1 C :   -0.235832
   2 C :   -0.219321
   3 C :   -0.027188
   4 O :   -0.309417
   5 H :    0.091365
   6 H :    0.114284
   7 H :    0.128825
   8 H :    0.112467
   9 H :    0.111431
  10 H :    0.106661
  11 H :    0.100442
  12 C :   -0.038094
  13 H :    0.121280
  14 H :    0.099670
  15 O :   -0.334240
  16 C :    0.022549
  17 C :    0.032900
  18 C :   -0.245602
  19 C :   -0.023880
  20 O :   -0.319025
  21 H :    0.112147
  22 H :    0.099337
  23 O :   -0.418061
  24 H :    0.110054
  25 H :    0.122153
  26 H :    0.112278
  27 H :    0.099786
  28 H :    0.287685

  Mayer bond orders larger than 0.100000
B(  0-C ,  1-C ) :   0.9367 B(  0-C ,  4-O ) :   0.9162 B(  0-C ,  5-H ) :   0.9054
B(  0-C , 15-O ) :   0.8406 B(  1-C ,  2-C ) :   0.9452 B(  1-C ,  6-H ) :   0.9367
B(  1-C ,  7-H ) :   0.9118 B(  2-C ,  3-C ) :   0.9518 B(  2-C ,  8-H ) :   0.9463
B(  2-C ,  9-H ) :   0.9459 B(  3-C ,  4-O ) :   0.8406 B(  3-C , 10-H ) :   0.9351
B(  3-C , 11-H ) :   0.9401 B( 12-C , 13-H ) :   0.9310 B( 12-C , 14-H ) :   0.9003
B( 12-C , 15-O ) :   0.8834 B( 12-C , 16-C ) :   0.8947 B( 16-C , 17-C ) :   0.9231
B( 16-C , 20-O ) :   0.8777 B( 16-C , 21-H ) :   0.9203 B( 17-C , 18-C ) :   0.9262
B( 17-C , 22-H ) :   0.9230 B( 17-C , 23-O ) :   0.8686 B( 18-C , 19-C ) :   0.9463
B( 18-C , 24-H ) :   0.9426 B( 18-C , 25-H ) :   0.9182 B( 19-C , 20-O ) :   0.8430
B( 19-C , 26-H ) :   0.9299 B( 19-C , 27-H ) :   0.9360 B( 23-O , 28-H ) :   0.7999

FINAL SINGLE POINT ENERGY      -652.849967985608

DIPOLE MOMENT
-------------
                                X             Y             Z
Electronic contribution:     -3.10797      -1.92003      -0.07695
Nuclear contribution   :      4.12785       2.31881      -1.38607
                        -----------------------------------------
Total Dipole Moment    :      1.01988       0.39878      -1.46303
                        -----------------------------------------
Magnitude (a.u.)       :      1.82746
Magnitude (Debye)      :      4.64504

Rotational constants in cm-1:     0.050243     0.016338     0.015228
Rotational constants in MHz :  1506.261492   489.806688   456.517838

                             ****ORCA TERMINATED NORMALLY****
TOTAL RUN TIME: 0 days 1 hours 27 minutes 30 seconds 537 msec
