                         Program Version 4.2.0 -  RELEASE  -
|  1> # Test redundant internal optimization
|  2> #
|  3> ! RKS B3LYP  Opt TightSCF SmallPrint
|  4>
|  5> %basis
|  6>         Basis "6-31G"
|  7> end
|  8>
|  9> %geom
| 10> Constraints
| 11> { D 4  0  15  12  225.0   C } # D for Dihedral angle
| 12> { D 0  15  12  16  165.0   C } # D for Dihedral angle
| 13> { D 0  4  3  2   C } # D for Dihedral angle
| 14> { D 4  3  2  1   C } # D for Dihedral angle
| 15> { D 3  2  1  0   C } # D for Dihedral angle
| 16> { D 2  1  0  4   C } # D for Dihedral angle
| 17> { D 1  0  4  3   C } # D for Dihedral angle
| 18> { D 16  20  19  18   C } # D for Dihedral angle
| 19> { D 20  19  18  17   C } # D for Dihedral angle
| 20> { D 19  18  17  16   C } # D for Dihedral angle
| 21> { D 18  17  16  20   C } # D for Dihedral angle
| 22> { D 17  16  20  19   C } # D for Dihedral angle
| 23> { D 15  12  16  20   C } # D for Dihedral angle
| 24> end
| 25> end
| 26>
| 27>
| 28> #%pal
| 29> #nprocs 8
| 30> #end
| 31>
| 32> * xyz 0 1
| 33> C  -21.048   26.222   46.251
| 34> C  -20.361   27.558   45.944
| 35> C  -20.329   28.222   47.341
| 36> C  -20.110   27.022   48.296
| 37> O  -20.473   25.807   47.535
| 38> H  -20.833   25.428   45.533
| 39> H  -19.344   27.382   45.576
| 40> H  -20.898   28.157   45.201
| 41> H  -19.543   28.978   47.434
| 42> H  -21.289   28.710   47.548
| 43> H  -20.733   27.082   49.195
| 44> H  -19.064   26.913   48.597
| 45> C  -23.415   25.773   45.218
| 46> H  -23.319   26.403   44.325
| 47> H  -23.041   24.771   44.972
| 48> O  -22.586   26.394   46.375
| 49> C  -24.925   25.642   45.564
| 50> C  -25.691   24.922   44.449
| 51> C  -25.340   23.442   44.732
| 52> C  -25.263   23.389   46.279
| 53> O  -25.109   24.786   46.740
| 54> H  -25.320   26.627   45.820
| 55> O  -27.217   25.163   44.608
| 56> H  -25.393   25.244   43.445
| 57> H  -26.080   22.744   44.327
| 58> H  -24.368   23.194   44.289
| 59> H  -24.413   22.797   46.637
| 60> H  -26.181   23.000   46.729
| 61> H  -27.537   24.847   45.607
| 62> *
| 63>
| 64>                          ****END OF INPUT****
 Total Charge           Charge          ....    0
 Multiplicity           Mult            ....    1
 Number of Electrons    NEL             ....  102
FINAL SINGLE POINT ENERGY      -652.830552891649
FINAL SINGLE POINT ENERGY      -652.853888063212
FINAL SINGLE POINT ENERGY      -652.857646422980
FINAL SINGLE POINT ENERGY      -652.858369845425
FINAL SINGLE POINT ENERGY      -652.858472553953
FINAL SINGLE POINT ENERGY      -652.858482697856
                    ***********************HURRAY********************

CARTESIAN COORDINATES (ANGSTROEM)
---------------------------------
  C    -21.066055   26.186525   46.164334
  C    -20.449008   27.564031   45.929503
  C    -20.529395   28.195285   47.339850
  C    -20.288588   26.988350   48.272253
  O    -20.544555   25.782375   47.442024
  H    -20.787325   25.412240   45.441867
  H    -19.405510   27.450333   45.611528
  H    -20.986133   28.138660   45.170252
  H    -19.795052   28.992501   47.487741
  H    -21.529805   28.608553   47.499098
  H    -20.961712   26.967518   49.132420
  H    -19.252786   26.916397   48.617524
  C    -23.262746   25.716795   45.147773
  H    -23.205648   26.352582   44.249400
  H    -22.849124   24.728908   44.894640
  O    -22.512444   26.297933   46.240392
  C    -24.721768   25.599337   45.581799
  C    -25.631639   24.955131   44.526768
  C    -25.390986   23.443483   44.781427
  C    -25.202065   23.375491   46.317752
  O    -24.890846   24.755298   46.764424
  H    -25.081175   26.593827   45.862719
  O    -27.020444   25.324382   44.746553
  H    -25.412762   25.260995   43.502758
  H    -26.240035   22.853293   44.427067
  H    -24.493146   23.105534   44.252176
  H    -24.384579   22.712191   46.616221
  H    -26.112078   23.064413   46.840126
  H    -27.215591   25.276638   45.706612

 Multiplicity           Mult            ....    1
 Number of Electrons    NEL             ....  102
 Basis Dimension        Dim             ....  149

ORBITAL ENERGIES
----------------

  NO   OCC          E(Eh)            E(eV)
   0   2.0000     -19.139472      -520.8115
   1   2.0000     -19.139114      -520.8018
   2   2.0000     -19.138877      -520.7953
   3   2.0000     -19.135428      -520.7015
   4   2.0000     -10.277641      -279.6688
   5   2.0000     -10.243828      -278.7487
   6   2.0000     -10.235844      -278.5315
   7   2.0000     -10.234337      -278.4905
   8   2.0000     -10.228769      -278.3389
   9   2.0000     -10.220592      -278.1165
  10   2.0000     -10.190190      -277.2892
  11   2.0000     -10.183737      -277.1136
  12   2.0000     -10.182617      -277.0831
  13   2.0000      -1.050877       -28.5958
  14   2.0000      -1.035627       -28.1809
  15   2.0000      -1.006200       -27.3801
  16   2.0000      -0.992223       -26.9997
  17   2.0000      -0.788054       -21.4440
  18   2.0000      -0.781146       -21.2561
  19   2.0000      -0.767349       -20.8806
  20   2.0000      -0.728610       -19.8265
  21   2.0000      -0.674179       -18.3453
  22   2.0000      -0.604623       -16.4526
  23   2.0000      -0.596194       -16.2233
  24   2.0000      -0.589581       -16.0433
  25   2.0000      -0.586621       -15.9628
  26   2.0000      -0.526003       -14.3133
  27   2.0000      -0.511315       -13.9136
  28   2.0000      -0.493119       -13.4185
  29   2.0000      -0.486553       -13.2398
  30   2.0000      -0.476130       -12.9562
  31   2.0000      -0.459234       -12.4964
  32   2.0000      -0.452663       -12.3176
  33   2.0000      -0.438472       -11.9314
  34   2.0000      -0.427830       -11.6418
  35   2.0000      -0.406111       -11.0508
  36   2.0000      -0.399751       -10.8778
  37   2.0000      -0.393606       -10.7106
  38   2.0000      -0.373853       -10.1731
  39   2.0000      -0.371787       -10.1168
  40   2.0000      -0.356156        -9.6915
  41   2.0000      -0.354737        -9.6529
  42   2.0000      -0.349845        -9.5198
  43   2.0000      -0.331982        -9.0337
  44   2.0000      -0.310434        -8.4473
  45   2.0000      -0.308680        -8.3996
  46   2.0000      -0.303806        -8.2670
  47   2.0000      -0.271748        -7.3946
  48   2.0000      -0.261086        -7.1045
  49   2.0000      -0.245181        -6.6717
  50   2.0000      -0.243729        -6.6322
  51   0.0000       0.065375         1.7790
  52   0.0000       0.082555         2.2464
  53   0.0000       0.087260         2.3745
  54   0.0000       0.098199         2.6721
  55   0.0000       0.105811         2.8793

MULLIKEN ATOMIC CHARGES
-----------------------
   0 C :    0.290912
   1 C :   -0.256576
   2 C :   -0.300134
   3 C :   -0.000834
   4 O :   -0.500209
   5 H :    0.135500
   6 H :    0.141210
   7 H :    0.142528
   8 H :    0.140013
   9 H :    0.164050
  10 H :    0.156805
  11 H :    0.138949
  12 C :    0.003564
  13 H :    0.123885
  14 H :    0.125919
  15 O :   -0.505137
  16 C :    0.068952
  17 C :    0.078032
  18 C :   -0.296529
  19 C :   -0.031955
  20 O :   -0.504345
  21 H :    0.168926
  22 O :   -0.602452
  23 H :    0.147785
  24 H :    0.163270
  25 H :    0.142327
  26 H :    0.153344
  27 H :    0.145932
  28 H :    0.366266
Sum of atomic charges:    0.0000000

LOEWDIN ATOMIC CHARGES
----------------------
   0 C :    0.177569
   1 C :   -0.224478
   2 C :   -0.216656
   3 C :   -0.025636
   4 O :   -0.309511
   5 H :    0.096066
   6 H :    0.111564
   7 H :    0.115566
   8 H :    0.113390
   9 H :    0.120195
  10 H :    0.110630
  11 H :    0.100937
  12 C :   -0.039918
  13 H :    0.090648
  14 H :    0.092343
  15 O :   -0.323297
  16 C :    0.018518
  17 C :    0.035738
  18 C :   -0.241801
  19 C :   -0.038958
  20 O :   -0.316112
  21 H :    0.120785
  22 O :   -0.414212
  23 H :    0.113491
  24 H :    0.126802
  25 H :    0.111758
  26 H :    0.107631
  27 H :    0.102595
  28 H :    0.284354

  Mayer bond orders larger than 0.100000
B(  0-C ,  1-C ) :   0.9380 B(  0-C ,  4-O ) :   0.9351 B(  0-C ,  5-H ) :   0.9187
B(  0-C , 15-O ) :   0.8373 B(  1-C ,  2-C ) :   0.9567 B(  1-C ,  6-H ) :   0.9356
B(  1-C ,  7-H ) :   0.9389 B(  2-C ,  3-C ) :   0.9548 B(  2-C ,  8-H ) :   0.9452
B(  2-C ,  9-H ) :   0.9432 B(  3-C ,  4-O ) :   0.8373 B(  3-C , 10-H ) :   0.9339
B(  3-C , 11-H ) :   0.9398 B( 12-C , 13-H ) :   0.9091 B( 12-C , 14-H ) :   0.9123
B( 12-C , 15-O ) :   0.8507 B( 12-C , 16-C ) :   0.9004 B( 16-C , 17-C ) :   0.8993
B( 16-C , 20-O ) :   0.8722 B( 16-C , 21-H ) :   0.9236 B( 17-C , 18-C ) :   0.9109
B( 17-C , 22-O ) :   0.8945 B( 17-C , 23-H ) :   0.9337 B( 18-C , 19-C ) :   0.9391
B( 18-C , 24-H ) :   0.9374 B( 18-C , 25-H ) :   0.9342 B( 19-C , 20-O ) :   0.8517
B( 19-C , 26-H ) :   0.9331 B( 19-C , 27-H ) :   0.9375 B( 22-O , 28-H ) :   0.7932

FINAL SINGLE POINT ENERGY      -652.858484904957

DIPOLE MOMENT
-------------
                                X             Y             Z
Electronic contribution:     -2.97691      -1.09373       1.44057
Nuclear contribution   :      3.56470       1.17233      -2.15994
                        -----------------------------------------
Total Dipole Moment    :      0.58778       0.07860      -0.71937
                        -----------------------------------------
Magnitude (a.u.)       :      0.93229
Magnitude (Debye)      :      2.36969

Rotational constants in cm-1:     0.065726     0.011352     0.010817
Rotational constants in MHz :  1970.412633   340.337471   324.280638

                             ****ORCA TERMINATED NORMALLY****
TOTAL RUN TIME: 0 days 2 hours 4 minutes 34 seconds 548 msec
