                         Program Version 4.2.0 -  RELEASE  -
|  1> # Test redundant internal optimization
|  2> #
|  3> ! RKS B3LYP  Opt TightSCF SmallPrint
|  4>
|  5> %basis
|  6>         Basis "6-31G"
|  7> end
|  8>
|  9> %geom
| 10> Constraints
| 11> { D 4  0  15  12  135.0   C } # D for Dihedral angle
| 12> { D 0  15  12  16  165.0   C } # D for Dihedral angle
| 13> { D 0  4  3  2   C } # D for Dihedral angle
| 14> { D 4  3  2  1   C } # D for Dihedral angle
| 15> { D 3  2  1  0   C } # D for Dihedral angle
| 16> { D 2  1  0  4   C } # D for Dihedral angle
| 17> { D 1  0  4  3   C } # D for Dihedral angle
| 18> { D 16  20  19  18   C } # D for Dihedral angle
| 19> { D 20  19  18  17   C } # D for Dihedral angle
| 20> { D 19  18  17  16   C } # D for Dihedral angle
| 21> { D 18  17  16  20   C } # D for Dihedral angle
| 22> { D 17  16  20  19   C } # D for Dihedral angle
| 23> { D 15  12  16  20   C } # D for Dihedral angle
| 24> end
| 25> end
| 26>
| 27>
| 28> #%pal
| 29> #nprocs 8
| 30> #end
| 31>
| 32> * xyz 0 1
| 33> C  -21.048   26.222   46.251
| 34> C  -20.361   27.558   45.944
| 35> C  -20.329   28.222   47.341
| 36> C  -20.110   27.022   48.296
| 37> O  -20.473   25.807   47.535
| 38> H  -20.833   25.428   45.533
| 39> H  -19.344   27.382   45.576
| 40> H  -20.898   28.157   45.201
| 41> H  -19.543   28.978   47.434
| 42> H  -21.289   28.710   47.548
| 43> H  -20.733   27.082   49.195
| 44> H  -19.064   26.913   48.597
| 45> C  -23.162   27.680   45.721
| 46> H  -22.917   28.546   46.348
| 47> H  -22.718   27.838   44.729
| 48> O  -22.586   26.394   46.375
| 49> C  -24.705   27.625   45.544
| 50> C  -25.131   26.384   44.750
| 51> C  -25.061   25.280   45.833
| 52> C  -25.509   26.019   47.118
| 53> O  -25.364   27.466   46.845
| 54> H  -25.050   28.571   45.124
| 55> H  -26.157   26.505   44.388
| 56> O  -24.211   26.093   43.533
| 57> H  -25.696   24.419   45.603
| 58> H  -24.030   24.918   45.935
| 59> H  -24.898   25.755   47.989
| 60> H  -26.561   25.841   47.357
| 61> H  -23.178   25.969   43.874
| 62> *
| 63>
| 64>                          ****END OF INPUT****
 Total Charge           Charge          ....    0
 Multiplicity           Mult            ....    1
 Number of Electrons    NEL             ....  102
FINAL SINGLE POINT ENERGY      -652.823782844835
FINAL SINGLE POINT ENERGY      -652.847603180348
FINAL SINGLE POINT ENERGY      -652.852806689191
FINAL SINGLE POINT ENERGY      -652.854925954458
FINAL SINGLE POINT ENERGY      -652.855173157962
FINAL SINGLE POINT ENERGY      -652.855219549925
                    ***********************HURRAY********************

CARTESIAN COORDINATES (ANGSTROEM)
---------------------------------
  C    -21.102594   26.335716   46.266321
  C    -20.241270   27.560974   45.953465
  C    -20.184448   28.277696   47.329361
  C    -20.161565   27.095296   48.323452
  O    -20.647504   25.917326   47.562729
  H    -20.947704   25.483362   45.600430
  H    -19.244935   27.212909   45.659884
  H    -20.626094   28.194268   45.151182
  H    -19.303209   28.918875   47.425988
  H    -21.072834   28.899306   47.479274
  H    -20.812335   27.247242   49.187989
  H    -19.152518   26.850784   48.666898
  C    -23.152437   27.755016   45.731474
  H    -22.959978   28.639326   46.350483
  H    -22.762655   27.938728   44.720555
  O    -22.544565   26.573099   46.328807
  C    -24.663447   27.566223   45.617625
  C    -25.126606   26.377792   44.757587
  C    -25.087489   25.203317   45.782704
  C    -25.513029   25.889866   47.098027
  O    -25.322936   27.350015   46.895740
  H    -25.060328   28.510609   45.224544
  H    -26.142193   26.557314   44.398400
  O    -24.336679   26.163058   43.561285
  H    -25.757065   24.386513   45.497135
  H    -24.064770   24.828398   45.858478
  H    -24.905283   25.575303   47.949950
  H    -26.572061   25.738678   47.327845
  H    -23.490466   25.736992   43.809390

 Multiplicity           Mult            ....    1
 Number of Electrons    NEL             ....  102
 Basis Dimension        Dim             ....  149

ORBITAL ENERGIES
----------------

  NO   OCC          E(Eh)            E(eV)
   0   2.0000     -19.147130      -521.0199
   1   2.0000     -19.144501      -520.9483
   2   2.0000     -19.140230      -520.8321
   3   2.0000     -19.130092      -520.5563
   4   2.0000     -10.287923      -279.9486
   5   2.0000     -10.234883      -278.5053
   6   2.0000     -10.233898      -278.4785
   7   2.0000     -10.230445      -278.3846
   8   2.0000     -10.229346      -278.3547
   9   2.0000     -10.216622      -278.0084
  10   2.0000     -10.198683      -277.5203
  11   2.0000     -10.196590      -277.4633
  12   2.0000     -10.175876      -276.8997
  13   2.0000      -1.056747       -28.7556
  14   2.0000      -1.026098       -27.9215
  15   2.0000      -1.008445       -27.4412
  16   2.0000      -0.995987       -27.1022
  17   2.0000      -0.794834       -21.6285
  18   2.0000      -0.774019       -21.0621
  19   2.0000      -0.764094       -20.7920
  20   2.0000      -0.736116       -20.0307
  21   2.0000      -0.680792       -18.5253
  22   2.0000      -0.609784       -16.5931
  23   2.0000      -0.600173       -16.3315
  24   2.0000      -0.599045       -16.3008
  25   2.0000      -0.561768       -15.2865
  26   2.0000      -0.529052       -14.3962
  27   2.0000      -0.509147       -13.8546
  28   2.0000      -0.507314       -13.8047
  29   2.0000      -0.488119       -13.2824
  30   2.0000      -0.472925       -12.8689
  31   2.0000      -0.458276       -12.4703
  32   2.0000      -0.446028       -12.1370
  33   2.0000      -0.426823       -11.6144
  34   2.0000      -0.422870       -11.5069
  35   2.0000      -0.417716       -11.3666
  36   2.0000      -0.404961       -11.0195
  37   2.0000      -0.398966       -10.8564
  38   2.0000      -0.388068       -10.5599
  39   2.0000      -0.367480        -9.9996
  40   2.0000      -0.364775        -9.9260
  41   2.0000      -0.359288        -9.7767
  42   2.0000      -0.348545        -9.4844
  43   2.0000      -0.324721        -8.8361
  44   2.0000      -0.315813        -8.5937
  45   2.0000      -0.307255        -8.3608
  46   2.0000      -0.299895        -8.1606
  47   2.0000      -0.272082        -7.4037
  48   2.0000      -0.260619        -7.0918
  49   2.0000      -0.257277        -7.0009
  50   2.0000      -0.235517        -6.4087
  51   0.0000       0.056748         1.5442
  52   0.0000       0.080362         2.1868
  53   0.0000       0.089371         2.4319
  54   0.0000       0.095140         2.5889
  55   0.0000       0.103675         2.8211

MULLIKEN ATOMIC CHARGES
-----------------------
   0 C :    0.316037
   1 C :   -0.297599
   2 C :   -0.307903
   3 C :   -0.002419
   4 O :   -0.495846
   5 H :    0.146233
   6 H :    0.155959
   7 H :    0.148613
   8 H :    0.148109
   9 H :    0.160094
  10 H :    0.156742
  11 H :    0.145351
  12 C :   -0.016055
  13 H :    0.143204
  14 H :    0.132624
  15 O :   -0.537238
  16 C :    0.098599
  17 C :    0.085949
  18 C :   -0.313804
  19 C :    0.002364
  20 O :   -0.524587
  21 H :    0.143333
  22 H :    0.160688
  23 O :   -0.608549
  24 H :    0.141957
  25 H :    0.167895
  26 H :    0.155568
  27 H :    0.136731
  28 H :    0.357951
Sum of atomic charges:   -0.0000000

LOEWDIN ATOMIC CHARGES
----------------------
   0 C :    0.180520
   1 C :   -0.232417
   2 C :   -0.218179
   3 C :   -0.027229
   4 O :   -0.308262
   5 H :    0.099417
   6 H :    0.122239
   7 H :    0.116744
   8 H :    0.117462
   9 H :    0.114387
  10 H :    0.110513
  11 H :    0.104518
  12 C :   -0.046935
  13 H :    0.101199
  14 H :    0.096411
  15 O :   -0.340771
  16 C :    0.021594
  17 C :    0.037780
  18 C :   -0.241914
  19 C :   -0.022377
  20 O :   -0.323821
  21 H :    0.111869
  22 H :    0.115498
  23 O :   -0.413009
  24 H :    0.113571
  25 H :    0.123204
  26 H :    0.110303
  27 H :    0.099211
  28 H :    0.278477

  Mayer bond orders larger than 0.100000
B(  0-C ,  1-C ) :   0.9355 B(  0-C ,  4-O ) :   0.9344 B(  0-C ,  5-H ) :   0.9289
B(  0-C , 15-O ) :   0.8435 B(  1-C ,  2-C ) :   0.9504 B(  1-C ,  6-H ) :   0.9335
B(  1-C ,  7-H ) :   0.9270 B(  2-C ,  3-C ) :   0.9521 B(  2-C ,  8-H ) :   0.9451
B(  2-C ,  9-H ) :   0.9397 B(  3-C ,  4-O ) :   0.8367 B(  3-C , 10-H ) :   0.9337
B(  3-C , 11-H ) :   0.9396 B( 12-C , 13-H ) :   0.9120 B( 12-C , 14-H ) :   0.8990
B( 12-C , 15-O ) :   0.8360 B( 12-C , 16-C ) :   0.9101 B( 16-C , 17-C ) :   0.8852
B( 16-C , 20-O ) :   0.8844 B( 16-C , 21-H ) :   0.9290 B( 17-C , 18-C ) :   0.9370
B( 17-C , 22-H ) :   0.9361 B( 17-C , 23-O ) :   0.8934 B( 18-C , 19-C ) :   0.9465
B( 18-C , 24-H ) :   0.9412 B( 18-C , 25-H ) :   0.9255 B( 19-C , 20-O ) :   0.8340
B( 19-C , 26-H ) :   0.9315 B( 19-C , 27-H ) :   0.9387 B( 23-O , 28-H ) :   0.7966

FINAL SINGLE POINT ENERGY      -652.855219743337

DIPOLE MOMENT
-------------
                                X             Y             Z
Electronic contribution:     -2.74997      -1.88394      -0.64217
Nuclear contribution   :      3.77405       2.33127       0.50267
                        -----------------------------------------
Total Dipole Moment    :      1.02407       0.44734      -0.13950
                        -----------------------------------------
Magnitude (a.u.)       :      1.12619
Magnitude (Debye)      :      2.86254

Rotational constants in cm-1:     0.048769     0.015391     0.014395
Rotational constants in MHz :  1462.061323   461.420916   431.562316

                             ****ORCA TERMINATED NORMALLY****
TOTAL RUN TIME: 0 days 0 hours 16 minutes 24 seconds 689 msec
