                         Program Version 4.2.0 -  RELEASE  -
|  1> # Test redundant internal optimization
|  2> #
|  3> ! RKS B3LYP  Opt TightSCF SmallPrint
|  4>
|  5> %basis
|  6>         Basis "6-31G"
|  7> end
|  8>
|  9> %geom
| 10> Constraints
| 11> { D 4  0  15  12  195.0   C } # D for Dihedral angle
| 12> { D 0  15  12  16  165.0   C } # D for Dihedral angle
| 13> { D 0  4  3  2   C } # D for Dihedral angle
| 14> { D 4  3  2  1   C } # D for Dihedral angle
| 15> { D 3  2  1  0   C } # D for Dihedral angle
| 16> { D 2  1  0  4   C } # D for Dihedral angle
| 17> { D 1  0  4  3   C } # D for Dihedral angle
| 18> { D 16  20  19  18   C } # D for Dihedral angle
| 19> { D 20  19  18  17   C } # D for Dihedral angle
| 20> { D 19  18  17  16   C } # D for Dihedral angle
| 21> { D 18  17  16  20   C } # D for Dihedral angle
| 22> { D 17  16  20  19   C } # D for Dihedral angle
| 23> { D 15  12  16  20   C } # D for Dihedral angle
| 24> end
| 25> end
| 26>
| 27>
| 28> #%pal
| 29> #nprocs 8
| 30> #end
| 31>
| 32> * xyz 0 1
| 33> C  -21.048   26.222   46.251
| 34> C  -20.361   27.558   45.944
| 35> C  -20.329   28.222   47.341
| 36> C  -20.110   27.022   48.296
| 37> O  -20.473   25.807   47.535
| 38> H  -20.833   25.428   45.533
| 39> H  -19.344   27.382   45.576
| 40> H  -20.898   28.157   45.201
| 41> H  -19.543   28.978   47.434
| 42> H  -21.289   28.710   47.548
| 43> H  -20.733   27.082   49.195
| 44> H  -19.064   26.913   48.597
| 45> C  -23.353   26.472   45.026
| 46> H  -23.182   27.455   44.569
| 47> H  -22.989   25.703   44.332
| 48> O  -22.586   26.394   46.375
| 49> C  -24.884   26.270   45.194
| 50> C  -25.593   26.238   43.835
| 51> C  -25.299   24.795   43.362
| 52> C  -25.326   23.981   44.680
| 53> O  -25.167   24.956   45.780
| 54> H  -25.270   27.020   45.887
| 55> H  -26.670   26.389   43.968
| 56> O  -25.067   27.314   42.847
| 57> H  -26.028   24.430   42.631
| 58> H  -24.307   24.745   42.898
| 59> H  -24.516   23.244   44.734
| 60> H  -26.281   23.470   44.836
| 61> H  -23.990   27.183   42.696
| 62> *
| 63>
| 64>                          ****END OF INPUT****
 Total Charge           Charge          ....    0
 Multiplicity           Mult            ....    1
 Number of Electrons    NEL             ....  102
FINAL SINGLE POINT ENERGY      -652.824224364135
FINAL SINGLE POINT ENERGY      -652.848555512631
FINAL SINGLE POINT ENERGY      -652.853050069980
FINAL SINGLE POINT ENERGY      -652.853873195375
FINAL SINGLE POINT ENERGY      -652.854024834446
FINAL SINGLE POINT ENERGY      -652.854055491966
FINAL SINGLE POINT ENERGY      -652.854060295540
                    ***********************HURRAY********************

CARTESIAN COORDINATES (ANGSTROEM)
---------------------------------
  C    -21.055237   26.227778   46.180887
  C    -20.351843   27.562993   45.946920
  C    -20.428985   28.217156   47.348264
  C    -20.283565   27.010145   48.297957
  O    -20.591443   25.812104   47.471583
  H    -20.808020   25.434151   45.465619
  H    -19.310299   27.379230   45.657220
  H    -20.822509   28.169543   45.167523
  H    -19.650260   28.969611   47.504049
  H    -21.404847   28.694159   47.478761
  H    -20.977650   27.036884   49.141132
  H    -19.262699   26.879200   48.668751
  C    -23.168846   26.469380   44.970254
  H    -23.017717   27.455118   44.504802
  H    -22.762136   25.701248   44.289595
  O    -22.499391   26.385991   46.250639
  C    -24.662747   26.253770   45.202237
  C    -25.501425   26.275799   43.912983
  C    -25.338240   24.814032   43.399598
  C    -25.287462   23.998201   44.710175
  O    -24.965811   24.958160   45.797092
  H    -25.000796   26.999313   45.927700
  H    -26.544693   26.476433   44.165944
  O    -25.151467   27.305876   42.956034
  H    -26.155986   24.513414   42.739268
  H    -24.398783   24.727004   42.836656
  H    -24.528593   23.209500   44.694442
  H    -26.254764   23.550352   44.956093
  H    -24.346786   27.053457   42.458822

 Multiplicity           Mult            ....    1
 Number of Electrons    NEL             ....  102
 Basis Dimension        Dim             ....  149

ORBITAL ENERGIES
----------------

  NO   OCC          E(Eh)            E(eV)
   0   2.0000     -19.152095      -521.1550
   1   2.0000     -19.138295      -520.7795
   2   2.0000     -19.137233      -520.7506
   3   2.0000     -19.135602      -520.7062
   4   2.0000     -10.277419      -279.6628
   5   2.0000     -10.246317      -278.8165
   6   2.0000     -10.232806      -278.4488
   7   2.0000     -10.230716      -278.3919
   8   2.0000     -10.229604      -278.3617
   9   2.0000     -10.221969      -278.1539
  10   2.0000     -10.197303      -277.4827
  11   2.0000     -10.185914      -277.1728
  12   2.0000     -10.184618      -277.1376
  13   2.0000      -1.052249       -28.6331
  14   2.0000      -1.034761       -28.1573
  15   2.0000      -1.015920       -27.6446
  16   2.0000      -0.992904       -27.0183
  17   2.0000      -0.785573       -21.3765
  18   2.0000      -0.782989       -21.3062
  19   2.0000      -0.767979       -20.8978
  20   2.0000      -0.729290       -19.8450
  21   2.0000      -0.681357       -18.5407
  22   2.0000      -0.612632       -16.6706
  23   2.0000      -0.599002       -16.2997
  24   2.0000      -0.588415       -16.0116
  25   2.0000      -0.578213       -15.7340
  26   2.0000      -0.528840       -14.3905
  27   2.0000      -0.510322       -13.8866
  28   2.0000      -0.501410       -13.6440
  29   2.0000      -0.489585       -13.3223
  30   2.0000      -0.466829       -12.7031
  31   2.0000      -0.460085       -12.5195
  32   2.0000      -0.450447       -12.2573
  33   2.0000      -0.433611       -11.7992
  34   2.0000      -0.430413       -11.7121
  35   2.0000      -0.417563       -11.3625
  36   2.0000      -0.406247       -11.0546
  37   2.0000      -0.396657       -10.7936
  38   2.0000      -0.379404       -10.3241
  39   2.0000      -0.370737       -10.0883
  40   2.0000      -0.357988        -9.7413
  41   2.0000      -0.354825        -9.6553
  42   2.0000      -0.349994        -9.5238
  43   2.0000      -0.331623        -9.0239
  44   2.0000      -0.316158        -8.6031
  45   2.0000      -0.309845        -8.4313
  46   2.0000      -0.303724        -8.2647
  47   2.0000      -0.272408        -7.4126
  48   2.0000      -0.257185        -6.9984
  49   2.0000      -0.249381        -6.7860
  50   2.0000      -0.240578        -6.5465
  51   0.0000       0.048126         1.3096
  52   0.0000       0.072982         1.9859
  53   0.0000       0.086914         2.3651
  54   0.0000       0.089730         2.4417
  55   0.0000       0.106923         2.9095

MULLIKEN ATOMIC CHARGES
-----------------------
   0 C :    0.305453
   1 C :   -0.274988
   2 C :   -0.297747
   3 C :   -0.001316
   4 O :   -0.501371
   5 H :    0.133993
   6 H :    0.144152
   7 H :    0.140848
   8 H :    0.141393
   9 H :    0.161246
  10 H :    0.157558
  11 H :    0.140329
  12 C :   -0.015219
  13 H :    0.130021
  14 H :    0.110725
  15 O :   -0.496972
  16 C :    0.097107
  17 C :    0.081505
  18 C :   -0.328219
  19 C :   -0.010300
  20 O :   -0.497945
  21 H :    0.167305
  22 H :    0.169504
  23 O :   -0.599953
  24 H :    0.159771
  25 H :    0.130740
  26 H :    0.148480
  27 H :    0.149018
  28 H :    0.354881
Sum of atomic charges:   -0.0000000

LOEWDIN ATOMIC CHARGES
----------------------
   0 C :    0.179522
   1 C :   -0.231838
   2 C :   -0.216578
   3 C :   -0.024666
   4 O :   -0.301804
   5 H :    0.093329
   6 H :    0.113535
   7 H :    0.112404
   8 H :    0.114027
   9 H :    0.118662
  10 H :    0.111153
  11 H :    0.101778
  12 C :   -0.052794
  13 H :    0.092988
  14 H :    0.083279
  15 O :   -0.317354
  16 C :    0.023164
  17 C :    0.034373
  18 C :   -0.242386
  19 C :   -0.030095
  20 O :   -0.307790
  21 H :    0.121510
  22 H :    0.120261
  23 O :   -0.408252
  24 H :    0.123113
  25 H :    0.102219
  26 H :    0.104822
  27 H :    0.106298
  28 H :    0.277120

  Mayer bond orders larger than 0.100000
B(  0-C ,  1-C ) :   0.9266 B(  0-C ,  4-O ) :   0.9405 B(  0-C ,  5-H ) :   0.9185
B(  0-C , 15-O ) :   0.8362 B(  1-C ,  2-C ) :   0.9538 B(  1-C ,  6-H ) :   0.9344
B(  1-C ,  7-H ) :   0.9354 B(  2-C ,  3-C ) :   0.9557 B(  2-C ,  8-H ) :   0.9452
B(  2-C ,  9-H ) :   0.9441 B(  3-C ,  4-O ) :   0.8360 B(  3-C , 10-H ) :   0.9339
B(  3-C , 11-H ) :   0.9398 B( 12-C , 13-H ) :   0.8978 B( 12-C , 14-H ) :   0.9117
B( 12-C , 15-O ) :   0.8525 B( 12-C , 16-C ) :   0.9032 B( 16-C , 17-C ) :   0.8743
B( 16-C , 20-O ) :   0.8783 B( 16-C , 21-H ) :   0.9285 B( 17-C , 18-C ) :   0.9243
B( 17-C , 22-H ) :   0.9328 B( 17-C , 23-O ) :   0.8943 B( 18-C , 19-C ) :   0.9388
B( 18-C , 24-H ) :   0.9413 B( 18-C , 25-H ) :   0.9402 B( 19-C , 20-O ) :   0.8520
B( 19-C , 26-H ) :   0.9306 B( 19-C , 27-H ) :   0.9378 B( 23-O , 28-H ) :   0.7993

FINAL SINGLE POINT ENERGY      -652.854060645206

DIPOLE MOMENT
-------------
                                X             Y             Z
Electronic contribution:     -2.44950      -1.76540       1.79601
Nuclear contribution   :      3.00437       2.05211      -3.06274
                        -----------------------------------------
Total Dipole Moment    :      0.55488       0.28672      -1.26673
                        -----------------------------------------
Magnitude (a.u.)       :      1.41234
Magnitude (Debye)      :      3.58989

Rotational constants in cm-1:     0.057246     0.012300     0.011055
Rotational constants in MHz :  1716.178991   368.758842   331.415218

                             ****ORCA TERMINATED NORMALLY****
TOTAL RUN TIME: 0 days 0 hours 55 minutes 6 seconds 175 msec
