                         Program Version 4.2.0 -  RELEASE  -
|  1> # Test redundant internal optimization
|  2> #
|  3> ! RKS B3LYP  Opt TightSCF SmallPrint
|  4>
|  5> %basis
|  6>         Basis "6-31G"
|  7> end
|  8>
|  9> %geom
| 10> Constraints
| 11> { D 4  0  15  12  60.0   C } # D for Dihedral angle
| 12> { D 0  15  12  16  180.0   C } # D for Dihedral angle
| 13> { D 0  4  3  2   C } # D for Dihedral angle
| 14> { D 4  3  2  1   C } # D for Dihedral angle
| 15> { D 3  2  1  0   C } # D for Dihedral angle
| 16> { D 2  1  0  4   C } # D for Dihedral angle
| 17> { D 1  0  4  3   C } # D for Dihedral angle
| 18> { D 16  20  19  18   C } # D for Dihedral angle
| 19> { D 20  19  18  17   C } # D for Dihedral angle
| 20> { D 19  18  17  16   C } # D for Dihedral angle
| 21> { D 18  17  16  20   C } # D for Dihedral angle
| 22> { D 17  16  20  19   C } # D for Dihedral angle
| 23> { D 15  12  16  20   C } # D for Dihedral angle
| 24> end
| 25> end
| 26>
| 27>
| 28> #%pal
| 29> #nprocs 8
| 30> #end
| 31>
| 32> * xyz 0 1
| 33> C  -21.048   26.222   46.251
| 34> C  -20.361   27.558   45.944
| 35> C  -20.329   28.222   47.341
| 36> C  -20.110   27.022   48.296
| 37> O  -20.473   25.807   47.535
| 38> H  -20.833   25.428   45.533
| 39> H  -19.344   27.382   45.576
| 40> H  -20.898   28.157   45.201
| 41> H  -19.543   28.978   47.434
| 42> H  -21.289   28.710   47.548
| 43> H  -20.733   27.082   49.195
| 44> H  -19.064   26.913   48.597
| 45> C  -23.051   27.452   47.413
| 46> H  -22.677   27.172   48.406
| 47> H  -22.647   28.441   47.161
| 48> O  -22.586   26.394   46.375
| 49> C  -24.597   27.578   47.491
| 50> C  -25.236   26.282   48.004
| 51> C  -24.996   26.396   49.529
| 52> C  -25.134   27.917   49.793
| 53> O  -24.980   28.587   48.484
| 54> H  -24.978   27.918   46.526
| 55> O  -26.757   26.276   47.688
| 56> H  -24.791   25.380   47.570
| 57> H  -25.705   25.805   50.116
| 58> H  -23.985   26.051   49.777
| 59> H  -24.370   28.294   50.481
| 60> H  -26.120   28.185   50.180
| 61> H  -27.225   27.171   48.114
| 62> *
| 63>
| 64>                          ****END OF INPUT****
 Total Charge           Charge          ....    0
 Multiplicity           Mult            ....    1
 Number of Electrons    NEL             ....  102
FINAL SINGLE POINT ENERGY      -652.816110886732
FINAL SINGLE POINT ENERGY      -652.844198774324
FINAL SINGLE POINT ENERGY      -652.858643687272
FINAL SINGLE POINT ENERGY      -652.860727077741
FINAL SINGLE POINT ENERGY      -652.861065186468
FINAL SINGLE POINT ENERGY      -652.861118008405
FINAL SINGLE POINT ENERGY      -652.861122923117
FINAL SINGLE POINT ENERGY      -652.861111978536
                    ***********************HURRAY********************

CARTESIAN COORDINATES (ANGSTROEM)
---------------------------------
  C    -21.237355   26.357938   46.434423
  C    -20.392825   27.519972   45.890918
  C    -19.955147   28.243496   47.199297
  C    -19.773289   27.064439   48.188972
  O    -20.505608   25.915521   47.601504
  H    -21.269288   25.503008   45.757527
  H    -19.524582   27.106726   45.367320
  H    -20.949308   28.160810   45.201918
  H    -19.026058   28.807636   47.069974
  H    -20.720783   28.944325   47.539701
  H    -20.174565   27.271280   49.185680
  H    -18.727234   26.758057   48.282679
  C    -23.091107   27.592829   47.625674
  H    -22.716011   27.350212   48.627959
  H    -22.761634   28.603855   47.360086
  O    -22.639303   26.602943   46.661374
  C    -24.618058   27.565963   47.585519
  C    -25.258442   26.237228   48.011419
  C    -25.189201   26.338002   49.556424
  C    -25.413933   27.846754   49.824177
  O    -25.144501   28.546599   48.541315
  H    -24.961454   27.861917   46.591098
  O    -26.632042   26.154730   47.538798
  H    -24.747202   25.368448   47.601573
  H    -25.952366   25.706154   50.017340
  H    -24.209081   26.008139   49.915678
  H    -24.747670   28.248755   50.593452
  H    -26.447026   28.076462   50.102730
  H    -27.074929   27.017802   47.684472

 Multiplicity           Mult            ....    1
 Number of Electrons    NEL             ....  102
 Basis Dimension        Dim             ....  149

ORBITAL ENERGIES
----------------

  NO   OCC          E(Eh)            E(eV)
   0   2.0000     -19.148871      -521.0673
   1   2.0000     -19.146336      -520.9983
   2   2.0000     -19.144696      -520.9537
   3   2.0000     -19.132321      -520.6169
   4   2.0000     -10.281712      -279.7796
   5   2.0000     -10.233593      -278.4702
   6   2.0000     -10.233413      -278.4653
   7   2.0000     -10.232432      -278.4386
   8   2.0000     -10.232213      -278.4327
   9   2.0000     -10.230996      -278.3995
  10   2.0000     -10.196019      -277.4478
  11   2.0000     -10.193182      -277.3706
  12   2.0000     -10.184616      -277.1375
  13   2.0000      -1.056965       -28.7615
  14   2.0000      -1.034828       -28.1591
  15   2.0000      -1.002982       -27.2925
  16   2.0000      -0.999911       -27.2090
  17   2.0000      -0.791922       -21.5493
  18   2.0000      -0.781386       -21.2626
  19   2.0000      -0.770318       -20.9614
  20   2.0000      -0.733611       -19.9626
  21   2.0000      -0.678952       -18.4752
  22   2.0000      -0.607577       -16.5330
  23   2.0000      -0.602878       -16.4051
  24   2.0000      -0.596607       -16.2345
  25   2.0000      -0.576948       -15.6996
  26   2.0000      -0.520814       -14.1721
  27   2.0000      -0.517152       -14.0724
  28   2.0000      -0.505527       -13.7561
  29   2.0000      -0.489069       -13.3082
  30   2.0000      -0.472912       -12.8686
  31   2.0000      -0.462600       -12.5880
  32   2.0000      -0.450489       -12.2584
  33   2.0000      -0.438621       -11.9355
  34   2.0000      -0.422568       -11.4986
  35   2.0000      -0.417608       -11.3637
  36   2.0000      -0.409302       -11.1377
  37   2.0000      -0.390203       -10.6180
  38   2.0000      -0.384942       -10.4748
  39   2.0000      -0.365712        -9.9515
  40   2.0000      -0.364098        -9.9076
  41   2.0000      -0.358147        -9.7457
  42   2.0000      -0.353504        -9.6193
  43   2.0000      -0.329363        -8.9624
  44   2.0000      -0.320852        -8.7308
  45   2.0000      -0.314305        -8.5527
  46   2.0000      -0.303210        -8.2508
  47   2.0000      -0.270879        -7.3710
  48   2.0000      -0.266530        -7.2527
  49   2.0000      -0.256050        -6.9675
  50   2.0000      -0.247077        -6.7233
  51   0.0000       0.065395         1.7795
  52   0.0000       0.066496         1.8094
  53   0.0000       0.089470         2.4346
  54   0.0000       0.096912         2.6371
  55   0.0000       0.101531         2.7628

MULLIKEN ATOMIC CHARGES
-----------------------
   0 C :    0.302109
   1 C :   -0.274193
   2 C :   -0.315168
   3 C :   -0.012218
   4 O :   -0.507706
   5 H :    0.167683
   6 H :    0.156075
   7 H :    0.152769
   8 H :    0.147488
   9 H :    0.149997
  10 H :    0.142510
  11 H :    0.150075
  12 C :   -0.004614
  13 H :    0.137627
  14 H :    0.144768
  15 O :   -0.528871
  16 C :    0.057852
  17 C :    0.091505
  18 C :   -0.298445
  19 C :   -0.029742
  20 O :   -0.532481
  21 H :    0.164711
  22 O :   -0.604720
  23 H :    0.180244
  24 H :    0.163338
  25 H :    0.149235
  26 H :    0.144615
  27 H :    0.144047
  28 H :    0.361511
Sum of atomic charges:   -0.0000000

LOEWDIN ATOMIC CHARGES
----------------------
   0 C :    0.175211
   1 C :   -0.228425
   2 C :   -0.223840
   3 C :   -0.033723
   4 O :   -0.322255
   5 H :    0.114420
   6 H :    0.122085
   7 H :    0.120775
   8 H :    0.116740
   9 H :    0.110266
  10 H :    0.100874
  11 H :    0.105626
  12 C :   -0.042408
  13 H :    0.097694
  14 H :    0.100664
  15 O :   -0.321955
  16 C :    0.019934
  17 C :    0.039495
  18 C :   -0.240953
  19 C :   -0.038166
  20 O :   -0.333392
  21 H :    0.118175
  22 O :   -0.415415
  23 H :    0.129930
  24 H :    0.127240
  25 H :    0.115889
  26 H :    0.102788
  27 H :    0.102103
  28 H :    0.280625

  Mayer bond orders larger than 0.100000
B(  0-C ,  1-C ) :   0.9180 B(  0-C ,  4-O ) :   0.9030 B(  0-C ,  5-H ) :   0.9361
B(  0-C , 15-O ) :   0.8902 B(  1-C ,  2-C ) :   0.9557 B(  1-C ,  6-H ) :   0.9349
B(  1-C ,  7-H ) :   0.9367 B(  2-C ,  3-C ) :   0.9477 B(  2-C ,  8-H ) :   0.9449
B(  2-C ,  9-H ) :   0.9390 B(  3-C ,  4-O ) :   0.8432 B(  3-C , 10-H ) :   0.9332
B(  3-C , 11-H ) :   0.9389 B( 12-C , 13-H ) :   0.9168 B( 12-C , 14-H ) :   0.9068
B( 12-C , 15-O ) :   0.8220 B( 12-C , 16-C ) :   0.9054 B( 16-C , 17-C ) :   0.9148
B( 16-C , 20-O ) :   0.8445 B( 16-C , 21-H ) :   0.9258 B( 17-C , 18-C ) :   0.9116
B( 17-C , 22-O ) :   0.8863 B( 17-C , 23-H ) :   0.9225 B( 18-C , 19-C ) :   0.9412
B( 18-C , 24-H ) :   0.9374 B( 18-C , 25-H ) :   0.9345 B( 19-C , 20-O ) :   0.8421
B( 19-C , 26-H ) :   0.9360 B( 19-C , 27-H ) :   0.9390 B( 22-O , 28-H ) :   0.7965

FINAL SINGLE POINT ENERGY      -652.861109333902

DIPOLE MOMENT
-------------
                                X             Y             Z
Electronic contribution:     -4.13501      -2.49655      -2.28561
Nuclear contribution   :      5.12980       3.39935       2.77276
                        -----------------------------------------
Total Dipole Moment    :      0.99479       0.90280       0.48715
                        -----------------------------------------
Magnitude (a.u.)       :      1.42897
Magnitude (Debye)      :      3.63216

Rotational constants in cm-1:     0.054522     0.013190     0.012642
Rotational constants in MHz :  1634.535855   395.437034   379.006635

                             ****ORCA TERMINATED NORMALLY****
TOTAL RUN TIME: 0 days 1 hours 3 minutes 31 seconds 250 msec
