                         Program Version 4.2.0 -  RELEASE  -
|  1> # Test redundant internal optimization
|  2> #
|  3> ! RKS B3LYP  Opt TightSCF SmallPrint
|  4>
|  5> %basis
|  6>         Basis "6-31G"
|  7> end
|  8>
|  9> %geom
| 10> Constraints
| 11> { D 4  0  15  12  0.0   C } # D for Dihedral angle
| 12> { D 0  15  12  16  180.0   C } # D for Dihedral angle
| 13> { D 0  4  3  2   C } # D for Dihedral angle
| 14> { D 4  3  2  1   C } # D for Dihedral angle
| 15> { D 3  2  1  0   C } # D for Dihedral angle
| 16> { D 2  1  0  4   C } # D for Dihedral angle
| 17> { D 1  0  4  3   C } # D for Dihedral angle
| 18> { D 16  20  19  18   C } # D for Dihedral angle
| 19> { D 20  19  18  17   C } # D for Dihedral angle
| 20> { D 19  18  17  16   C } # D for Dihedral angle
| 21> { D 18  17  16  20   C } # D for Dihedral angle
| 22> { D 17  16  20  19   C } # D for Dihedral angle
| 23> { D 15  12  16  20   C } # D for Dihedral angle
| 24> end
| 25> end
| 26>
| 27>
| 28> #%pal
| 29> #nprocs 8
| 30> #end
| 31>
| 32> * xyz 0 1
| 33> C  -21.048   26.222   46.251
| 34> C  -20.361   27.558   45.944
| 35> C  -20.329   28.222   47.341
| 36> C  -20.110   27.022   48.296
| 37> O  -20.473   25.807   47.535
| 38> H  -20.833   25.428   45.533
| 39> H  -19.344   27.382   45.576
| 40> H  -20.898   28.157   45.201
| 41> H  -19.543   28.978   47.434
| 42> H  -21.289   28.710   47.548
| 43> H  -20.733   27.082   49.195
| 44> H  -19.064   26.913   48.597
| 45> C  -23.172   26.101   47.783
| 46> H  -22.940   25.066   48.063
| 47> H  -22.724   26.767   48.532
| 48> O  -22.586   26.394   46.375
| 49> C  -24.713   26.290   47.844
| 50> C  -25.241   26.106   49.271
| 51> C  -24.893   27.470   49.912
| 52> C  -25.093   28.468   48.745
| 53> O  -25.074   27.669   47.501
| 54> H  -25.183   25.642   47.101
| 55> H  -26.325   25.951   49.255
| 56> O  -24.587   24.908   50.013
| 57> H  -25.523   27.706   50.776
| 58> H  -23.849   27.473   50.249
| 59> H  -24.300   29.223   48.698
| 60> H  -26.062   28.974   48.789
| 61> H  -23.500   25.041   50.043
| 62> *
| 63>
| 64>                          ****END OF INPUT****
 Total Charge           Charge          ....    0
 Multiplicity           Mult            ....    1
 Number of Electrons    NEL             ....  102
FINAL SINGLE POINT ENERGY      -652.824995533574
FINAL SINGLE POINT ENERGY      -652.848608730825
FINAL SINGLE POINT ENERGY      -652.853453482827
FINAL SINGLE POINT ENERGY      -652.854146876297
FINAL SINGLE POINT ENERGY      -652.854262967725
FINAL SINGLE POINT ENERGY      -652.854283465932
FINAL SINGLE POINT ENERGY      -652.854285398473
                    ***********************HURRAY********************

CARTESIAN COORDINATES (ANGSTROEM)
---------------------------------
  C    -21.111142   26.238591   46.321249
  C    -20.504577   27.589166   45.937792
  C    -20.247712   28.224837   47.323775
  C    -19.856469   27.014010   48.200239
  O    -20.335438   25.810569   47.465369
  H    -20.998535   25.456044   45.567009
  H    -19.565343   27.424895   45.396617
  H    -21.182201   28.175819   45.314303
  H    -19.463882   28.988176   47.300365
  H    -21.167114   28.693620   47.690429
  H    -20.315742   27.027961   49.193227
  H    -18.773829   26.900399   48.310082
  C    -23.048193   26.084019   47.899805
  H    -22.845127   25.043344   48.181085
  H    -22.582145   26.740381   48.649171
  O    -22.537712   26.375347   46.575251
  C    -24.555978   26.315869   47.851717
  C    -25.264687   26.091988   49.199139
  C    -25.041053   27.461321   49.909431
  C    -25.114233   28.466263   48.739450
  O    -24.908175   27.686820   47.492252
  H    -24.969616   25.687067   47.058424
  H    -26.329464   25.926528   49.022069
  O    -24.839464   24.930967   49.950341
  H    -25.788262   27.651788   50.684499
  H    -24.051287   27.467966   50.385141
  H    -24.352535   29.250763   48.801900
  H    -26.097746   28.939512   48.662344
  H    -23.942340   25.065966   50.318524

 Multiplicity           Mult            ....    1
 Number of Electrons    NEL             ....  102
 Basis Dimension        Dim             ....  149

ORBITAL ENERGIES
----------------

  NO   OCC          E(Eh)            E(eV)
   0   2.0000     -19.150332      -521.1070
   1   2.0000     -19.148894      -521.0679
   2   2.0000     -19.134949      -520.6884
   3   2.0000     -19.134802      -520.6844
   4   2.0000     -10.277198      -279.6568
   5   2.0000     -10.243968      -278.7526
   6   2.0000     -10.234158      -278.4856
   7   2.0000     -10.229714      -278.3647
   8   2.0000     -10.228253      -278.3249
   9   2.0000     -10.227973      -278.3173
  10   2.0000     -10.194958      -277.4189
  11   2.0000     -10.191244      -277.3178
  12   2.0000     -10.183778      -277.1147
  13   2.0000      -1.054432       -28.6926
  14   2.0000      -1.032442       -28.0942
  15   2.0000      -1.014234       -27.5987
  16   2.0000      -0.990842       -26.9622
  17   2.0000      -0.790738       -21.5171
  18   2.0000      -0.781497       -21.2656
  19   2.0000      -0.769134       -20.9292
  20   2.0000      -0.732883       -19.9428
  21   2.0000      -0.678417       -18.4607
  22   2.0000      -0.610275       -16.6064
  23   2.0000      -0.604262       -16.4428
  24   2.0000      -0.592438       -16.1211
  25   2.0000      -0.571577       -15.5534
  26   2.0000      -0.529354       -14.4044
  27   2.0000      -0.508721       -13.8430
  28   2.0000      -0.499272       -13.5859
  29   2.0000      -0.495634       -13.4869
  30   2.0000      -0.471287       -12.8244
  31   2.0000      -0.455244       -12.3878
  32   2.0000      -0.450098       -12.2478
  33   2.0000      -0.431238       -11.7346
  34   2.0000      -0.426144       -11.5960
  35   2.0000      -0.415327       -11.3016
  36   2.0000      -0.405354       -11.0303
  37   2.0000      -0.401616       -10.9285
  38   2.0000      -0.378204       -10.2915
  39   2.0000      -0.369788       -10.0624
  40   2.0000      -0.360806        -9.8180
  41   2.0000      -0.354088        -9.6352
  42   2.0000      -0.349326        -9.5056
  43   2.0000      -0.339871        -9.2484
  44   2.0000      -0.323687        -8.8080
  45   2.0000      -0.312207        -8.4956
  46   2.0000      -0.306721        -8.3463
  47   2.0000      -0.270109        -7.3500
  48   2.0000      -0.262926        -7.1546
  49   2.0000      -0.244562        -6.6549
  50   2.0000      -0.240835        -6.5535
  51   0.0000       0.047679         1.2974
  52   0.0000       0.062446         1.6992
  53   0.0000       0.089107         2.4247
  54   0.0000       0.093594         2.5468
  55   0.0000       0.105267         2.8645

MULLIKEN ATOMIC CHARGES
-----------------------
   0 C :    0.298602
   1 C :   -0.253918
   2 C :   -0.311388
   3 C :   -0.016156
   4 O :   -0.513021
   5 H :    0.157334
   6 H :    0.142881
   7 H :    0.168226
   8 H :    0.147454
   9 H :    0.158229
  10 H :    0.135609
  11 H :    0.152155
  12 C :    0.011142
  13 H :    0.144085
  14 H :    0.108506
  15 O :   -0.532013
  16 C :    0.085903
  17 C :    0.080138
  18 C :   -0.321323
  19 C :   -0.011425
  20 O :   -0.503651
  21 H :    0.167630
  22 H :    0.171188
  23 O :   -0.598669
  24 H :    0.158459
  25 H :    0.128342
  26 H :    0.140807
  27 H :    0.148396
  28 H :    0.356480
Sum of atomic charges:   -0.0000000

LOEWDIN ATOMIC CHARGES
----------------------
   0 C :    0.182457
   1 C :   -0.219522
   2 C :   -0.220349
   3 C :   -0.033908
   4 O :   -0.321237
   5 H :    0.105489
   6 H :    0.112895
   7 H :    0.129737
   8 H :    0.117437
   9 H :    0.115417
  10 H :    0.096754
  11 H :    0.107182
  12 C :   -0.043070
  13 H :    0.104401
  14 H :    0.081634
  15 O :   -0.328909
  16 C :    0.021411
  17 C :    0.034187
  18 C :   -0.242116
  19 C :   -0.031485
  20 O :   -0.313113
  21 H :    0.121605
  22 H :    0.120828
  23 O :   -0.405955
  24 H :    0.122622
  25 H :    0.101517
  26 H :    0.100372
  27 H :    0.105598
  28 H :    0.278121

  Mayer bond orders larger than 0.100000
B(  0-C ,  1-C ) :   0.9310 B(  0-C ,  4-O ) :   0.9047 B(  0-C ,  5-H ) :   0.9292
B(  0-C , 15-O ) :   0.8486 B(  1-C ,  2-C ) :   0.9520 B(  1-C ,  6-H ) :   0.9356
B(  1-C ,  7-H ) :   0.9344 B(  2-C ,  3-C ) :   0.9533 B(  2-C ,  8-H ) :   0.9445
B(  2-C ,  9-H ) :   0.9440 B(  3-C ,  4-O ) :   0.8334 B(  3-C , 10-H ) :   0.9317
B(  3-C , 11-H ) :   0.9395 B( 12-C , 13-H ) :   0.9046 B( 12-C , 14-H ) :   0.9128
B( 12-C , 15-O ) :   0.8348 B( 12-C , 16-C ) :   0.9053 B( 16-C , 17-C ) :   0.8761
B( 16-C , 20-O ) :   0.8668 B( 16-C , 21-H ) :   0.9273 B( 17-C , 18-C ) :   0.9205
B( 17-C , 22-H ) :   0.9328 B( 17-C , 23-O ) :   0.8992 B( 18-C , 19-C ) :   0.9386
B( 18-C , 24-H ) :   0.9416 B( 18-C , 25-H ) :   0.9418 B( 19-C , 20-O ) :   0.8546
B( 19-C , 26-H ) :   0.9313 B( 19-C , 27-H ) :   0.9377 B( 23-O , 28-H ) :   0.7972

FINAL SINGLE POINT ENERGY      -652.854285536575

DIPOLE MOMENT
-------------
                                X             Y             Z
Electronic contribution:     -2.64298      -4.64725      -2.54681
Nuclear contribution   :      3.39683       5.67203       3.42192
                        -----------------------------------------
Total Dipole Moment    :      0.75385       1.02479       0.87511
                        -----------------------------------------
Magnitude (a.u.)       :      1.54411
Magnitude (Debye)      :      3.92483

Rotational constants in cm-1:     0.046282     0.014820     0.013860
Rotational constants in MHz :  1387.514257   444.279233   415.522086

                             ****ORCA TERMINATED NORMALLY****
TOTAL RUN TIME: 0 days 0 hours 26 minutes 42 seconds 407 msec
