                         Program Version 4.2.0 -  RELEASE  -
|  1> # Test redundant internal optimization
|  2> #
|  3> ! RKS B3LYP  Opt TightSCF SmallPrint
|  4>
|  5> %basis
|  6>         Basis "6-31G"
|  7> end
|  8>
|  9> %geom
| 10> Constraints
| 11> { D 4  0  15  12  195.0   C } # D for Dihedral angle
| 12> { D 0  15  12  16  75.0   C } # D for Dihedral angle
| 13> { D 0  4  3  2   C } # D for Dihedral angle
| 14> { D 4  3  2  1   C } # D for Dihedral angle
| 15> { D 3  2  1  0   C } # D for Dihedral angle
| 16> { D 2  1  0  4   C } # D for Dihedral angle
| 17> { D 1  0  4  3   C } # D for Dihedral angle
| 18> { D 16  20  19  18   C } # D for Dihedral angle
| 19> { D 20  19  18  17   C } # D for Dihedral angle
| 20> { D 19  18  17  16   C } # D for Dihedral angle
| 21> { D 18  17  16  20   C } # D for Dihedral angle
| 22> { D 17  16  20  19   C } # D for Dihedral angle
| 23> { D 15  12  16  20   C } # D for Dihedral angle
| 24> end
| 25> end
| 26>
| 27>
| 28> #%pal
| 29> #nprocs 8
| 30> #end
| 31>
| 32> * xyz 0 1
| 33> C  -21.048   26.222   46.251
| 34> C  -20.361   27.558   45.944
| 35> C  -20.329   28.222   47.341
| 36> C  -20.110   27.022   48.296
| 37> O  -20.473   25.807   47.535
| 38> H  -20.833   25.428   45.533
| 39> H  -19.344   27.382   45.576
| 40> H  -20.898   28.157   45.201
| 41> H  -19.543   28.978   47.434
| 42> H  -21.289   28.710   47.548
| 43> H  -20.733   27.082   49.195
| 44> H  -19.064   26.913   48.597
| 45> C  -23.353   26.472   45.026
| 46> H  -24.362   26.864   45.206
| 47> H  -22.840   27.150   44.332
| 48> O  -22.586   26.394   46.375
| 49> C  -23.482   25.090   44.328
| 50> C  -24.336   24.125   45.159
| 51> C  -25.769   24.603   44.820
| 52> C  -25.654   25.034   43.336
| 53> O  -24.213   25.222   43.063
| 54> H  -22.486   24.717   44.085
| 55> O  -24.116   22.666   44.673
| 56> H  -24.116   24.168   46.231
| 57> H  -26.523   23.825   44.971
| 58> H  -26.038   25.458   45.451
| 59> H  -26.183   25.970   43.129
| 60> H  -26.015   24.264   42.649
| 61> H  -24.331   22.598   43.600
| 62> *
| 63>
| 64>                          ****END OF INPUT****
 Total Charge           Charge          ....    0
 Multiplicity           Mult            ....    1
 Number of Electrons    NEL             ....  102
FINAL SINGLE POINT ENERGY      -652.835850251073
FINAL SINGLE POINT ENERGY      -652.857888843068
FINAL SINGLE POINT ENERGY      -652.861199551675
FINAL SINGLE POINT ENERGY      -652.861776809644
FINAL SINGLE POINT ENERGY      -652.861868931479
FINAL SINGLE POINT ENERGY      -652.861878102984
FINAL SINGLE POINT ENERGY      -652.861880592200
                    ***********************HURRAY********************

CARTESIAN COORDINATES (ANGSTROEM)
---------------------------------
  C    -21.085464   26.195235   46.170588
  C    -20.353948   27.507985   45.900648
  C    -20.396214   28.190286   47.289113
  C    -20.266529   27.000036   48.261317
  O    -20.614279   25.792950   47.463067
  H    -20.864501   25.381945   45.474848
  H    -19.322217   27.291960   45.599100
  H    -20.820732   28.109997   45.115727
  H    -19.596642   28.925668   47.419355
  H    -21.357561   28.694690   47.422886
  H    -20.947524   27.060388   49.113441
  H    -19.244260   26.850718   48.620593
  C    -23.273257   26.492682   45.026312
  H    -24.237273   26.925896   45.304085
  H    -22.790307   27.174170   44.312210
  O    -22.528491   26.407393   46.275811
  C    -23.463360   25.128165   44.354488
  C    -24.289319   24.119965   45.165671
  C    -25.734585   24.594833   44.873396
  C    -25.660290   25.085472   43.405965
  O    -24.220478   25.302687   43.107787
  H    -22.499124   24.695204   44.072060
  O    -24.058786   22.762292   44.696573
  H    -24.033409   24.115656   46.224281
  H    -26.444141   23.775179   45.012892
  H    -26.013124   25.407029   45.553413
  H    -26.202144   26.021687   43.240626
  H    -26.025599   24.340154   42.692691
  H    -24.084441   22.750681   43.716057

 Multiplicity           Mult            ....    1
 Number of Electrons    NEL             ....  102
 Basis Dimension        Dim             ....  149

ORBITAL ENERGIES
----------------

  NO   OCC          E(Eh)            E(eV)
   0   2.0000     -19.147023      -521.0170
   1   2.0000     -19.144797      -520.9564
   2   2.0000     -19.141294      -520.8611
   3   2.0000     -19.135648      -520.7074
   4   2.0000     -10.280951      -279.7589
   5   2.0000     -10.236056      -278.5372
   6   2.0000     -10.234588      -278.4973
   7   2.0000     -10.233596      -278.4703
   8   2.0000     -10.233461      -278.4666
   9   2.0000     -10.225246      -278.2431
  10   2.0000     -10.188493      -277.2430
  11   2.0000     -10.188225      -277.2357
  12   2.0000     -10.187017      -277.2028
  13   2.0000      -1.054503       -28.6945
  14   2.0000      -1.036766       -28.2118
  15   2.0000      -1.004985       -27.3470
  16   2.0000      -0.995844       -27.0983
  17   2.0000      -0.788051       -21.4440
  18   2.0000      -0.779722       -21.2173
  19   2.0000      -0.767262       -20.8782
  20   2.0000      -0.734245       -19.9798
  21   2.0000      -0.677346       -18.4315
  22   2.0000      -0.606073       -16.4921
  23   2.0000      -0.603275       -16.4159
  24   2.0000      -0.600031       -16.3277
  25   2.0000      -0.572356       -15.5746
  26   2.0000      -0.523727       -14.2513
  27   2.0000      -0.518379       -14.1058
  28   2.0000      -0.495936       -13.4951
  29   2.0000      -0.491604       -13.3772
  30   2.0000      -0.470302       -12.7976
  31   2.0000      -0.461211       -12.5502
  32   2.0000      -0.455050       -12.3825
  33   2.0000      -0.437356       -11.9011
  34   2.0000      -0.424164       -11.5421
  35   2.0000      -0.411901       -11.2084
  36   2.0000      -0.404513       -11.0074
  37   2.0000      -0.393125       -10.6975
  38   2.0000      -0.376149       -10.2355
  39   2.0000      -0.368385       -10.0243
  40   2.0000      -0.364172        -9.9096
  41   2.0000      -0.357119        -9.7177
  42   2.0000      -0.355403        -9.6710
  43   2.0000      -0.332473        -9.0471
  44   2.0000      -0.315714        -8.5910
  45   2.0000      -0.310382        -8.4459
  46   2.0000      -0.305086        -8.3018
  47   2.0000      -0.274196        -7.4612
  48   2.0000      -0.264444        -7.1959
  49   2.0000      -0.258041        -7.0217
  50   2.0000      -0.240491        -6.5441
  51   0.0000       0.062914         1.7120
  52   0.0000       0.073453         1.9988
  53   0.0000       0.092531         2.5179
  54   0.0000       0.097676         2.6579
  55   0.0000       0.099154         2.6981

MULLIKEN ATOMIC CHARGES
-----------------------
   0 C :    0.291793
   1 C :   -0.270798
   2 C :   -0.297461
   3 C :   -0.001763
   4 O :   -0.501684
   5 H :    0.146895
   6 H :    0.147095
   7 H :    0.145145
   8 H :    0.142452
   9 H :    0.160330
  10 H :    0.154736
  11 H :    0.142762
  12 C :   -0.033805
  13 H :    0.152634
  14 H :    0.142600
  15 O :   -0.506009
  16 C :    0.049501
  17 C :    0.091460
  18 C :   -0.306834
  19 C :   -0.032357
  20 O :   -0.527347
  21 H :    0.158042
  22 O :   -0.600646
  23 H :    0.182344
  24 H :    0.164092
  25 H :    0.151143
  26 H :    0.146346
  27 H :    0.148901
  28 H :    0.360434
Sum of atomic charges:   -0.0000000

LOEWDIN ATOMIC CHARGES
----------------------
   0 C :    0.177761
   1 C :   -0.229129
   2 C :   -0.216463
   3 C :   -0.024718
   4 O :   -0.302871
   5 H :    0.098435
   6 H :    0.115063
   7 H :    0.114808
   8 H :    0.114578
   9 H :    0.118238
  10 H :    0.109798
  11 H :    0.103087
  12 C :   -0.047197
  13 H :    0.112963
  14 H :    0.100176
  15 O :   -0.332010
  16 C :    0.003329
  17 C :    0.037821
  18 C :   -0.242669
  19 C :   -0.038724
  20 O :   -0.331922
  21 H :    0.110666
  22 O :   -0.413367
  23 H :    0.130463
  24 H :    0.127653
  25 H :    0.116181
  26 H :    0.104019
  27 H :    0.103582
  28 H :    0.280450

  Mayer bond orders larger than 0.100000
B(  0-C ,  1-C ) :   0.9304 B(  0-C ,  4-O ) :   0.9403 B(  0-C ,  5-H ) :   0.9163
B(  0-C , 15-O ) :   0.8255 B(  1-C ,  2-C ) :   0.9518 B(  1-C ,  6-H ) :   0.9342
B(  1-C ,  7-H ) :   0.9338 B(  2-C ,  3-C ) :   0.9562 B(  2-C ,  8-H ) :   0.9450
B(  2-C ,  9-H ) :   0.9444 B(  3-C ,  4-O ) :   0.8342 B(  3-C , 10-H ) :   0.9345
B(  3-C , 11-H ) :   0.9397 B( 12-C , 13-H ) :   0.9398 B( 12-C , 14-H ) :   0.9140
B( 12-C , 15-O ) :   0.8537 B( 12-C , 16-C ) :   0.8727 B( 16-C , 17-C ) :   0.9107
B( 16-C , 20-O ) :   0.8397 B( 16-C , 21-H ) :   0.9251 B( 17-C , 18-C ) :   0.9127
B( 17-C , 22-O ) :   0.8907 B( 17-C , 23-H ) :   0.9223 B( 18-C , 19-C ) :   0.9428
B( 18-C , 24-H ) :   0.9372 B( 18-C , 25-H ) :   0.9334 B( 19-C , 20-O ) :   0.8414
B( 19-C , 26-H ) :   0.9355 B( 19-C , 27-H ) :   0.9375 B( 22-O , 28-H ) :   0.7973

FINAL SINGLE POINT ENERGY      -652.861880936055

DIPOLE MOMENT
-------------
                                X             Y             Z
Electronic contribution:     -0.06536      -4.52223      -0.81239
Nuclear contribution   :     -0.09812       5.73035       0.43397
                        -----------------------------------------
Total Dipole Moment    :     -0.16349       1.20813      -0.37842
                        -----------------------------------------
Magnitude (a.u.)       :      1.27652
Magnitude (Debye)      :      3.24465

Rotational constants in cm-1:     0.061954     0.012252     0.011403
Rotational constants in MHz :  1857.348094   367.312682   341.860212

                             ****ORCA TERMINATED NORMALLY****
TOTAL RUN TIME: 0 days 0 hours 43 minutes 28 seconds 532 msec
