                         Program Version 4.2.0 -  RELEASE  -
|  1> # Test redundant internal optimization
|  2> #
|  3> ! RKS B3LYP  Opt TightSCF SmallPrint
|  4>
|  5> %basis
|  6>         Basis "6-31G"
|  7> end
|  8>
|  9> %geom
| 10> Constraints
| 11> { D 4  0  15  12  180.0   C } # D for Dihedral angle
| 12> { D 0  15  12  16  45.0   C } # D for Dihedral angle
| 13> { D 0  4  3  2   C } # D for Dihedral angle
| 14> { D 4  3  2  1   C } # D for Dihedral angle
| 15> { D 3  2  1  0   C } # D for Dihedral angle
| 16> { D 2  1  0  4   C } # D for Dihedral angle
| 17> { D 1  0  4  3   C } # D for Dihedral angle
| 18> { D 16  20  19  18   C } # D for Dihedral angle
| 19> { D 20  19  18  17   C } # D for Dihedral angle
| 20> { D 19  18  17  16   C } # D for Dihedral angle
| 21> { D 18  17  16  20   C } # D for Dihedral angle
| 22> { D 17  16  20  19   C } # D for Dihedral angle
| 23> { D 15  12  16  20   C } # D for Dihedral angle
| 24> end
| 25> end
| 26>
| 27>
| 28> #%pal
| 29> #nprocs 8
| 30> #end
| 31>
| 32> * xyz 0 1
| 33> C  -21.048   26.222   46.251
| 34> C  -20.361   27.558   45.944
| 35> C  -20.329   28.222   47.341
| 36> C  -20.110   27.022   48.296
| 37> O  -20.473   25.807   47.535
| 38> H  -20.833   25.428   45.533
| 39> H  -19.344   27.382   45.576
| 40> H  -20.898   28.157   45.201
| 41> H  -19.543   28.978   47.434
| 42> H  -21.289   28.710   47.548
| 43> H  -20.733   27.082   49.195
| 44> H  -19.064   26.913   48.597
| 45> C  -23.309   26.834   45.072
| 46> H  -24.388   26.677   45.187
| 47> H  -23.136   27.900   44.878
| 48> O  -22.586   26.394   46.375
| 49> C  -22.830   26.042   43.824
| 50> C  -23.188   24.556   43.936
| 51> C  -24.685   24.564   43.547
| 52> C  -24.763   25.677   42.471
| 53> O  -23.543   26.496   42.625
| 54> H  -21.769   26.241   43.659
| 55> H  -22.604   23.974   43.213
| 56> O  -22.936   23.973   45.353
| 57> H  -25.032   23.596   43.172
| 58> H  -25.298   24.825   44.418
| 59> H  -25.643   26.317   42.594
| 60> H  -24.757   25.275   41.455
| 61> H  -23.510   24.541   46.092
| 62> *
| 63>
| 64>                          ****END OF INPUT****
 Total Charge           Charge          ....    0
 Multiplicity           Mult            ....    1
 Number of Electrons    NEL             ....  102
FINAL SINGLE POINT ENERGY      -652.828953416634
FINAL SINGLE POINT ENERGY      -652.853433692268
FINAL SINGLE POINT ENERGY      -652.858873564956
FINAL SINGLE POINT ENERGY      -652.860375926314
FINAL SINGLE POINT ENERGY      -652.860616338090
FINAL SINGLE POINT ENERGY      -652.860710952194
FINAL SINGLE POINT ENERGY      -652.860718614411
FINAL SINGLE POINT ENERGY      -652.860721274479
                    ***********************HURRAY********************

CARTESIAN COORDINATES (ANGSTROEM)
---------------------------------
  C    -21.040323   26.217171   46.235468
  C    -20.267855   27.501899   45.948685
  C    -20.359096   28.241288   47.305075
  C    -20.301746   27.089802   48.328599
  O    -20.639681   25.859036   47.561545
  H    -20.830102   25.362725   45.591072
  H    -19.229174   27.243998   45.711104
  H    -20.671210   28.085693   45.116351
  H    -19.547957   28.962685   47.442339
  H    -21.311464   28.774742   47.375658
  H    -21.020181   27.198435   49.144511
  H    -19.301154   26.932234   48.740923
  C    -23.203620   26.836981   45.068719
  H    -24.260623   26.711281   45.318924
  H    -23.034699   27.899726   44.852711
  O    -22.495263   26.449008   46.294714
  C    -22.833656   26.030329   43.814407
  C    -23.194980   24.536475   43.891604
  C    -24.724382   24.566202   43.599758
  C    -24.863949   25.715419   42.580602
  O    -23.617280   26.532266   42.687286
  H    -21.785486   26.189793   43.546753
  H    -22.675903   23.992561   43.098152
  O    -22.823091   23.870955   45.117469
  H    -25.080601   23.609069   43.210720
  H    -25.268700   24.771183   44.528727
  H    -25.724511   26.363496   42.771343
  H    -24.912542   25.357541   41.548486
  H    -22.982775   24.461006   45.890296

 Multiplicity           Mult            ....    1
 Number of Electrons    NEL             ....  102
 Basis Dimension        Dim             ....  149

ORBITAL ENERGIES
----------------

  NO   OCC          E(Eh)            E(eV)
   0   2.0000     -19.153805      -521.2015
   1   2.0000     -19.146981      -521.0159
   2   2.0000     -19.144791      -520.9563
   3   2.0000     -19.132770      -520.6292
   4   2.0000     -10.282817      -279.8097
   5   2.0000     -10.240342      -278.6539
   6   2.0000     -10.239854      -278.6406
   7   2.0000     -10.237739      -278.5830
   8   2.0000     -10.232986      -278.4537
   9   2.0000     -10.227993      -278.3178
  10   2.0000     -10.192443      -277.3505
  11   2.0000     -10.190453      -277.2963
  12   2.0000     -10.188296      -277.2376
  13   2.0000      -1.058622       -28.8066
  14   2.0000      -1.032086       -28.0845
  15   2.0000      -1.009727       -27.4761
  16   2.0000      -0.996773       -27.1236
  17   2.0000      -0.790801       -21.5188
  18   2.0000      -0.779499       -21.2113
  19   2.0000      -0.769305       -20.9338
  20   2.0000      -0.739011       -20.1095
  21   2.0000      -0.683554       -18.6004
  22   2.0000      -0.610640       -16.6164
  23   2.0000      -0.606207       -16.4957
  24   2.0000      -0.602608       -16.3978
  25   2.0000      -0.568604       -15.4725
  26   2.0000      -0.534920       -14.5559
  27   2.0000      -0.518394       -14.1062
  28   2.0000      -0.498684       -13.5699
  29   2.0000      -0.490611       -13.3502
  30   2.0000      -0.471287       -12.8244
  31   2.0000      -0.461525       -12.5587
  32   2.0000      -0.449800       -12.2397
  33   2.0000      -0.432352       -11.7649
  34   2.0000      -0.426895       -11.6164
  35   2.0000      -0.420119       -11.4320
  36   2.0000      -0.405885       -11.0447
  37   2.0000      -0.403271       -10.9736
  38   2.0000      -0.380303       -10.3486
  39   2.0000      -0.375500       -10.2179
  40   2.0000      -0.364014        -9.9053
  41   2.0000      -0.361022        -9.8239
  42   2.0000      -0.354804        -9.6547
  43   2.0000      -0.339500        -9.2383
  44   2.0000      -0.322468        -8.7748
  45   2.0000      -0.311023        -8.4634
  46   2.0000      -0.306077        -8.3288
  47   2.0000      -0.270044        -7.3483
  48   2.0000      -0.263384        -7.1670
  49   2.0000      -0.259211        -7.0535
  50   2.0000      -0.244727        -6.6593
  51   0.0000       0.057516         1.5651
  52   0.0000       0.070544         1.9196
  53   0.0000       0.086778         2.3614
  54   0.0000       0.094890         2.5821
  55   0.0000       0.106786         2.9058

MULLIKEN ATOMIC CHARGES
-----------------------
   0 C :    0.282326
   1 C :   -0.282378
   2 C :   -0.297148
   3 C :   -0.003075
   4 O :   -0.503485
   5 H :    0.170580
   6 H :    0.153159
   7 H :    0.147203
   8 H :    0.144688
   9 H :    0.159765
  10 H :    0.155933
  11 H :    0.145536
  12 C :   -0.042311
  13 H :    0.159312
  14 H :    0.153476
  15 O :   -0.531999
  16 C :    0.050538
  17 C :    0.109585
  18 C :   -0.311061
  19 C :   -0.016783
  20 O :   -0.522994
  21 H :    0.154486
  22 H :    0.157967
  23 O :   -0.619242
  24 H :    0.155119
  25 H :    0.146710
  26 H :    0.144650
  27 H :    0.151824
  28 H :    0.387617
Sum of atomic charges:    0.0000000

LOEWDIN ATOMIC CHARGES
----------------------
   0 C :    0.168325
   1 C :   -0.230236
   2 C :   -0.215673
   3 C :   -0.024678
   4 O :   -0.299462
   5 H :    0.108951
   6 H :    0.118850
   7 H :    0.115666
   8 H :    0.115657
   9 H :    0.117525
  10 H :    0.110463
  11 H :    0.104607
  12 C :   -0.057275
  13 H :    0.114365
  14 H :    0.105841
  15 O :   -0.342124
  16 C :    0.001761
  17 C :    0.037640
  18 C :   -0.238932
  19 C :   -0.030677
  20 O :   -0.322480
  21 H :    0.110284
  22 H :    0.113561
  23 O :   -0.416389
  24 H :    0.123450
  25 H :    0.111380
  26 H :    0.103504
  27 H :    0.107563
  28 H :    0.288532

  Mayer bond orders larger than 0.100000
B(  0-C ,  1-C ) :   0.9319 B(  0-C ,  4-O ) :   0.9346 B(  0-C ,  5-H ) :   0.9045
B(  0-C , 15-O ) :   0.7909 B(  1-C ,  2-C ) :   0.9491 B(  1-C ,  6-H ) :   0.9349
B(  1-C ,  7-H ) :   0.9316 B(  2-C ,  3-C ) :   0.9559 B(  2-C ,  8-H ) :   0.9448
B(  2-C ,  9-H ) :   0.9452 B(  3-C ,  4-O ) :   0.8318 B(  3-C , 10-H ) :   0.9347
B(  3-C , 11-H ) :   0.9396 B( 12-C , 13-H ) :   0.9361 B( 12-C , 14-H ) :   0.9192
B( 12-C , 15-O ) :   0.8221 B( 12-C , 16-C ) :   0.8829 B( 16-C , 17-C ) :   0.8954
B( 16-C , 20-O ) :   0.8445 B( 16-C , 21-H ) :   0.9285 B( 17-C , 18-C ) :   0.9075
B( 17-C , 22-H ) :   0.9336 B( 17-C , 23-O ) :   0.9235 B( 18-C , 19-C ) :   0.9381
B( 18-C , 24-H ) :   0.9440 B( 18-C , 25-H ) :   0.9425 B( 19-C , 20-O ) :   0.8332
B( 19-C , 26-H ) :   0.9337 B( 19-C , 27-H ) :   0.9382 B( 23-O , 28-H ) :   0.7406

FINAL SINGLE POINT ENERGY      -652.860721555828

DIPOLE MOMENT
-------------
                                X             Y             Z
Electronic contribution:      0.04559      -3.07237       0.20105
Nuclear contribution   :     -0.15640       4.07402      -0.47414
                        -----------------------------------------
Total Dipole Moment    :     -0.11081       1.00165      -0.27309
                        -----------------------------------------
Magnitude (a.u.)       :      1.04411
Magnitude (Debye)      :      2.65391

Rotational constants in cm-1:     0.062522     0.014143     0.012672
Rotational constants in MHz :  1874.351148   423.994930   379.909299

                             ****ORCA TERMINATED NORMALLY****
TOTAL RUN TIME: 0 days 0 hours 34 minutes 15 seconds 696 msec
