                         Program Version 4.2.0 -  RELEASE  -
|  1> # Test redundant internal optimization
|  2> #
|  3> ! RKS B3LYP  Opt TightSCF SmallPrint
|  4>
|  5> %basis
|  6>         Basis "6-31G"
|  7> end
|  8>
|  9> %geom
| 10> Constraints
| 11> { D 4  0  15  12  345.0   C } # D for Dihedral angle
| 12> { D 0  15  12  16  255.0   C } # D for Dihedral angle
| 13> { D 0  4  3  2   C } # D for Dihedral angle
| 14> { D 4  3  2  1   C } # D for Dihedral angle
| 15> { D 3  2  1  0   C } # D for Dihedral angle
| 16> { D 2  1  0  4   C } # D for Dihedral angle
| 17> { D 1  0  4  3   C } # D for Dihedral angle
| 18> { D 16  20  19  18   C } # D for Dihedral angle
| 19> { D 20  19  18  17   C } # D for Dihedral angle
| 20> { D 19  18  17  16   C } # D for Dihedral angle
| 21> { D 18  17  16  20   C } # D for Dihedral angle
| 22> { D 17  16  20  19   C } # D for Dihedral angle
| 23> { D 15  12  16  20   C } # D for Dihedral angle
| 24> end
| 25> end
| 26>
| 27>
| 28> #%pal
| 29> #nprocs 8
| 30> #end
| 31>
| 32> * xyz 0 1
| 33> C  -21.048   26.222   46.251
| 34> C  -20.361   27.558   45.944
| 35> C  -20.329   28.222   47.341
| 36> C  -20.110   27.022   48.296
| 37> O  -20.473   25.807   47.535
| 38> H  -20.833   25.428   45.533
| 39> H  -19.344   27.382   45.576
| 40> H  -20.898   28.157   45.201
| 41> H  -19.543   28.978   47.434
| 42> H  -21.289   28.710   47.548
| 43> H  -20.733   27.082   49.195
| 44> H  -19.064   26.913   48.597
| 45> C  -23.221   25.764   47.645
| 46> H  -22.430   25.543   48.373
| 47> H  -23.928   26.464   48.109
| 48> O  -22.586   26.394   46.375
| 49> C  -23.989   24.448   47.343
| 50> C  -25.056   24.661   46.262
| 51> C  -24.202   24.640   44.972
| 52> C  -23.100   23.600   45.295
| 53> O  -23.085   23.448   46.766
| 54> H  -24.370   24.033   48.278
| 55> O  -26.065   23.481   46.271
| 56> H  -25.614   25.595   46.387
| 57> H  -24.782   24.371   44.083
| 58> H  -23.761   25.629   44.796
| 59> H  -22.109   23.920   44.957
| 60> H  -23.318   22.616   44.872
| 61> H  -25.527   22.535   46.147
| 62> *
| 63>
| 64>                          ****END OF INPUT****
 Total Charge           Charge          ....    0
 Multiplicity           Mult            ....    1
 Number of Electrons    NEL             ....  102
FINAL SINGLE POINT ENERGY      -652.834223155012
FINAL SINGLE POINT ENERGY      -652.856600007113
FINAL SINGLE POINT ENERGY      -652.860932104743
FINAL SINGLE POINT ENERGY      -652.862825973769
FINAL SINGLE POINT ENERGY      -652.862999891385
FINAL SINGLE POINT ENERGY      -652.863026855627
                    ***********************HURRAY********************

CARTESIAN COORDINATES (ANGSTROEM)
---------------------------------
  C    -21.023782   26.249751   46.324100
  C    -20.419076   27.622272   46.032436
  C    -20.337649   28.238872   47.447467
  C    -20.011476   27.026227   48.343963
  O    -20.371927   25.823074   47.535995
  H    -20.815104   25.477169   45.581186
  H    -19.420702   27.491895   45.599011
  H    -21.034666   28.204586   45.343592
  H    -19.579247   29.024221   47.521194
  H    -21.305632   28.672824   47.717233
  H    -20.583132   27.007230   49.275598
  H    -18.946184   26.934134   48.571676
  C    -23.168080   25.800524   47.575949
  H    -22.436919   25.555733   48.350470
  H    -23.864493   26.559462   47.951565
  O    -22.478276   26.391264   46.435275
  C    -23.939078   24.524556   47.229007
  C    -25.055743   24.647528   46.181098
  C    -24.261866   24.505261   44.856188
  C    -23.150942   23.490891   45.222386
  O    -23.068630   23.471840   46.701105
  H    -24.358935   24.139376   48.167393
  O    -26.040696   23.587872   46.350903
  H    -25.620916   25.577346   46.248005
  H    -24.910898   24.155259   44.048881
  H    -23.830235   25.471685   44.588824
  H    -22.175240   23.767803   44.812306
  H    -23.385376   22.470271   44.901238
  H    -25.573103   22.734075   46.467957

 Multiplicity           Mult            ....    1
 Number of Electrons    NEL             ....  102
 Basis Dimension        Dim             ....  149

ORBITAL ENERGIES
----------------

  NO   OCC          E(Eh)            E(eV)
   0   2.0000     -19.152606      -521.1689
   1   2.0000     -19.142495      -520.8938
   2   2.0000     -19.136319      -520.7257
   3   2.0000     -19.131289      -520.5888
   4   2.0000     -10.281737      -279.7803
   5   2.0000     -10.233789      -278.4755
   6   2.0000     -10.232484      -278.4400
   7   2.0000     -10.227785      -278.3122
   8   2.0000     -10.226004      -278.2637
   9   2.0000     -10.222799      -278.1765
  10   2.0000     -10.192098      -277.3411
  11   2.0000     -10.188278      -277.2371
  12   2.0000     -10.174409      -276.8597
  13   2.0000      -1.057117       -28.7656
  14   2.0000      -1.029769       -28.0214
  15   2.0000      -1.000546       -27.2262
  16   2.0000      -0.991340       -26.9757
  17   2.0000      -0.793831       -21.6013
  18   2.0000      -0.773536       -21.0490
  19   2.0000      -0.762935       -20.7605
  20   2.0000      -0.734669       -19.9914
  21   2.0000      -0.671061       -18.2605
  22   2.0000      -0.606327       -16.4990
  23   2.0000      -0.600123       -16.3302
  24   2.0000      -0.594421       -16.1750
  25   2.0000      -0.565874       -15.3982
  26   2.0000      -0.525437       -14.2979
  27   2.0000      -0.508065       -13.8252
  28   2.0000      -0.494127       -13.4459
  29   2.0000      -0.487384       -13.2624
  30   2.0000      -0.471220       -12.8225
  31   2.0000      -0.461679       -12.5629
  32   2.0000      -0.447374       -12.1737
  33   2.0000      -0.438003       -11.9187
  34   2.0000      -0.417707       -11.3664
  35   2.0000      -0.411340       -11.1931
  36   2.0000      -0.396119       -10.7790
  37   2.0000      -0.385445       -10.4885
  38   2.0000      -0.373960       -10.1760
  39   2.0000      -0.368986       -10.0406
  40   2.0000      -0.362225        -9.8566
  41   2.0000      -0.358603        -9.7581
  42   2.0000      -0.348479        -9.4826
  43   2.0000      -0.334748        -9.1090
  44   2.0000      -0.324002        -8.8166
  45   2.0000      -0.306158        -8.3310
  46   2.0000      -0.294562        -8.0154
  47   2.0000      -0.268929        -7.3179
  48   2.0000      -0.266874        -7.2620
  49   2.0000      -0.258520        -7.0347
  50   2.0000      -0.234860        -6.3909
  51   0.0000       0.068175         1.8551
  52   0.0000       0.080443         2.1890
  53   0.0000       0.098955         2.6927
  54   0.0000       0.102843         2.7985
  55   0.0000       0.107231         2.9179

MULLIKEN ATOMIC CHARGES
-----------------------
   0 C :    0.303689
   1 C :   -0.258754
   2 C :   -0.303370
   3 C :   -0.017735
   4 O :   -0.503062
   5 H :    0.155886
   6 H :    0.145267
   7 H :    0.159158
   8 H :    0.147308
   9 H :    0.156776
  10 H :    0.145799
  11 H :    0.152584
  12 C :   -0.024302
  13 H :    0.175059
  14 H :    0.135404
  15 O :   -0.541897
  16 C :    0.073054
  17 C :    0.083454
  18 C :   -0.287495
  19 C :   -0.019480
  20 O :   -0.523713
  21 H :    0.148251
  22 O :   -0.606997
  23 H :    0.149178
  24 H :    0.148124
  25 H :    0.168777
  26 H :    0.139263
  27 H :    0.137272
  28 H :    0.362503
Sum of atomic charges:   -0.0000000

LOEWDIN ATOMIC CHARGES
----------------------
   0 C :    0.183945
   1 C :   -0.218861
   2 C :   -0.218036
   3 C :   -0.031737
   4 O :   -0.310862
   5 H :    0.101191
   6 H :    0.113983
   7 H :    0.125212
   8 H :    0.117154
   9 H :    0.116108
  10 H :    0.103467
  11 H :    0.108223
  12 C :   -0.045711
  13 H :    0.120791
  14 H :    0.104070
  15 O :   -0.344894
  16 C :    0.007739
  17 C :    0.038879
  18 C :   -0.241624
  19 C :   -0.032855
  20 O :   -0.328433
  21 H :    0.112911
  22 O :   -0.419481
  23 H :    0.115088
  24 H :    0.118595
  25 H :    0.127444
  26 H :    0.099159
  27 H :    0.096993
  28 H :    0.281543

  Mayer bond orders larger than 0.100000
B(  0-C ,  1-C ) :   0.9360 B(  0-C ,  4-O ) :   0.9177 B(  0-C ,  5-H ) :   0.9194
B(  0-C , 15-O ) :   0.8284 B(  1-C ,  2-C ) :   0.9537 B(  1-C ,  6-H ) :   0.9360
B(  1-C ,  7-H ) :   0.9356 B(  2-C ,  3-C ) :   0.9535 B(  2-C ,  8-H ) :   0.9448
B(  2-C ,  9-H ) :   0.9453 B(  3-C ,  4-O ) :   0.8291 B(  3-C , 10-H ) :   0.9337
B(  3-C , 11-H ) :   0.9405 B( 12-C , 13-H ) :   0.9033 B( 12-C , 14-H ) :   0.9259
B( 12-C , 15-O ) :   0.8593 B( 12-C , 16-C ) :   0.8900 B( 16-C , 17-C ) :   0.9120
B( 16-C , 20-O ) :   0.8709 B( 16-C , 21-H ) :   0.9183 B( 17-C , 18-C ) :   0.9234
B( 17-C , 22-O ) :   0.8885 B( 17-C , 23-H ) :   0.9361 B( 18-C , 19-C ) :   0.9436
B( 18-C , 24-H ) :   0.9376 B( 18-C , 25-H ) :   0.9209 B( 19-C , 20-O ) :   0.8434
B( 19-C , 26-H ) :   0.9299 B( 19-C , 27-H ) :   0.9379 B( 22-O , 28-H ) :   0.7962

FINAL SINGLE POINT ENERGY      -652.863028649626

DIPOLE MOMENT
-------------
                                X             Y             Z
Electronic contribution:     -2.45334      -4.41399       0.93114
Nuclear contribution   :      3.24366       5.44132      -0.99814
                        -----------------------------------------
Total Dipole Moment    :      0.79032       1.02733      -0.06700
                        -----------------------------------------
Magnitude (a.u.)       :      1.29789
Magnitude (Debye)      :      3.29897

Rotational constants in cm-1:     0.063926     0.013848     0.013666
Rotational constants in MHz :  1916.462584   415.164058   409.691206

                             ****ORCA TERMINATED NORMALLY****
TOTAL RUN TIME: 0 days 0 hours 15 minutes 21 seconds 756 msec
