                         Program Version 4.2.0 -  RELEASE  -
|  1> # Test redundant internal optimization
|  2> #
|  3> ! RKS B3LYP  Opt TightSCF SmallPrint
|  4>
|  5> %basis
|  6>         Basis "6-31G"
|  7> end
|  8>
|  9> %geom
| 10> Constraints
| 11> { D 4  0  15  12  240.0   C } # D for Dihedral angle
| 12> { D 0  15  12  16  240.0   C } # D for Dihedral angle
| 13> { D 0  4  3  2   C } # D for Dihedral angle
| 14> { D 4  3  2  1   C } # D for Dihedral angle
| 15> { D 3  2  1  0   C } # D for Dihedral angle
| 16> { D 2  1  0  4   C } # D for Dihedral angle
| 17> { D 1  0  4  3   C } # D for Dihedral angle
| 18> { D 16  20  19  18   C } # D for Dihedral angle
| 19> { D 20  19  18  17   C } # D for Dihedral angle
| 20> { D 19  18  17  16   C } # D for Dihedral angle
| 21> { D 18  17  16  20   C } # D for Dihedral angle
| 22> { D 17  16  20  19   C } # D for Dihedral angle
| 23> { D 15  12  16  20   C } # D for Dihedral angle
| 24> end
| 25> end
| 26>
| 27>
| 28> #%pal
| 29> #nprocs 8
| 30> #end
| 31>
| 32> * xyz 0 1
| 33> C  -21.048   26.222   46.251
| 34> C  -20.361   27.558   45.944
| 35> C  -20.329   28.222   47.341
| 36> C  -20.110   27.022   48.296
| 37> O  -20.473   25.807   47.535
| 38> H  -20.833   25.428   45.533
| 39> H  -19.344   27.382   45.576
| 40> H  -20.898   28.157   45.201
| 41> H  -19.543   28.978   47.434
| 42> H  -21.289   28.710   47.548
| 43> H  -20.733   27.082   49.195
| 44> H  -19.064   26.913   48.597
| 45> C  -23.430   25.483   45.442
| 46> H  -22.757   24.852   44.848
| 47> H  -24.082   24.827   46.033
| 48> O  -22.586   26.394   46.375
| 49> C  -24.330   26.291   44.467
| 50> C  -25.232   25.364   43.645
| 51> C  -26.355   25.038   44.657
| 52> C  -26.504   26.359   45.453
| 53> O  -25.268   27.134   45.216
| 54> H  -23.704   26.958   43.872
| 55> H  -25.636   25.901   42.779
| 56> O  -24.497   24.095   43.133
| 57> H  -27.289   24.735   44.173
| 58> H  -26.041   24.222   45.319
| 59> H  -26.620   26.189   46.530
| 60> H  -27.341   26.968   45.098
| 61> H  -24.085   23.539   43.982
| 62> *
| 63>
| 64>                          ****END OF INPUT****
 Total Charge           Charge          ....    0
 Multiplicity           Mult            ....    1
 Number of Electrons    NEL             ....  102
FINAL SINGLE POINT ENERGY      -652.826926619646
FINAL SINGLE POINT ENERGY      -652.849941810625
FINAL SINGLE POINT ENERGY      -652.854391330058
FINAL SINGLE POINT ENERGY      -652.855209538566
FINAL SINGLE POINT ENERGY      -652.855359040977
FINAL SINGLE POINT ENERGY      -652.855399098129
FINAL SINGLE POINT ENERGY      -652.855408023561
FINAL SINGLE POINT ENERGY      -652.855410768906
                    ***********************HURRAY********************

CARTESIAN COORDINATES (ANGSTROEM)
---------------------------------
  C    -21.035573   26.168215   46.205009
  C    -20.455012   27.550327   45.906574
  C    -20.502166   28.224383   47.299176
  C    -20.205603   27.051682   48.259535
  O    -20.462347   25.814843   47.479550
  H    -20.763869   25.377230   45.498560
  H    -19.419955   27.443677   45.559686
  H    -21.030972   28.086426   45.149349
  H    -19.779502   29.039760   47.398544
  H    -21.505459   28.622476   47.476550
  H    -20.849006   27.047585   49.142778
  H    -19.157994   27.012573   48.573456
  C    -23.299959   25.404025   45.493903
  H    -22.671283   24.744017   44.878264
  H    -23.898570   24.781591   46.171458
  O    -22.477280   26.272814   46.312611
  C    -24.199303   26.228028   44.572163
  C    -25.140792   25.373679   43.705894
  C    -26.320686   25.099833   44.686377
  C    -26.399004   26.412567   45.496893
  O    -25.101510   27.110037   45.306017
  H    -23.567373   26.884391   43.966533
  H    -25.483820   25.963633   42.853430
  O    -24.542525   24.192921   43.115652
  H    -27.250245   24.867178   44.160296
  H    -26.073212   24.245615   45.330680
  H    -26.558866   26.244703   46.566353
  H    -27.179305   27.083026   45.124321
  H    -24.450809   23.482765   43.783386

 Multiplicity           Mult            ....    1
 Number of Electrons    NEL             ....  102
 Basis Dimension        Dim             ....  149

ORBITAL ENERGIES
----------------

  NO   OCC          E(Eh)            E(eV)
   0   2.0000     -19.152128      -521.1559
   1   2.0000     -19.137441      -520.7562
   2   2.0000     -19.137007      -520.7444
   3   2.0000     -19.133369      -520.6454
   4   2.0000     -10.276159      -279.6285
   5   2.0000     -10.246911      -278.8326
   6   2.0000     -10.232139      -278.4307
   7   2.0000     -10.230991      -278.3994
   8   2.0000     -10.230943      -278.3981
   9   2.0000     -10.218813      -278.0680
  10   2.0000     -10.197417      -277.4858
  11   2.0000     -10.179476      -276.9976
  12   2.0000     -10.178699      -276.9765
  13   2.0000      -1.048124       -28.5209
  14   2.0000      -1.034846       -28.1596
  15   2.0000      -1.016323       -27.6556
  16   2.0000      -0.989993       -26.9391
  17   2.0000      -0.785145       -21.3649
  18   2.0000      -0.780398       -21.2357
  19   2.0000      -0.766375       -20.8541
  20   2.0000      -0.728200       -19.8153
  21   2.0000      -0.679813       -18.4987
  22   2.0000      -0.613200       -16.6860
  23   2.0000      -0.592994       -16.1362
  24   2.0000      -0.591248       -16.0887
  25   2.0000      -0.577211       -15.7067
  26   2.0000      -0.529685       -14.4135
  27   2.0000      -0.512084       -13.9345
  28   2.0000      -0.496425       -13.5084
  29   2.0000      -0.488107       -13.2821
  30   2.0000      -0.465766       -12.6741
  31   2.0000      -0.453841       -12.3496
  32   2.0000      -0.442712       -12.0468
  33   2.0000      -0.438098       -11.9213
  34   2.0000      -0.428159       -11.6508
  35   2.0000      -0.417976       -11.3737
  36   2.0000      -0.407834       -11.0977
  37   2.0000      -0.395844       -10.7715
  38   2.0000      -0.378276       -10.2934
  39   2.0000      -0.364780        -9.9262
  40   2.0000      -0.357385        -9.7249
  41   2.0000      -0.350887        -9.5481
  42   2.0000      -0.344802        -9.3825
  43   2.0000      -0.330421        -8.9912
  44   2.0000      -0.317914        -8.6509
  45   2.0000      -0.311016        -8.4632
  46   2.0000      -0.300009        -8.1637
  47   2.0000      -0.273199        -7.4341
  48   2.0000      -0.263228        -7.1628
  49   2.0000      -0.250986        -6.8297
  50   2.0000      -0.233220        -6.3462
  51   0.0000       0.048245         1.3128
  52   0.0000       0.077513         2.1092
  53   0.0000       0.085908         2.3377
  54   0.0000       0.090711         2.4684
  55   0.0000       0.102877         2.7994

MULLIKEN ATOMIC CHARGES
-----------------------
   0 C :    0.276897
   1 C :   -0.250908
   2 C :   -0.300795
   3 C :   -0.000278
   4 O :   -0.503828
   5 H :    0.138006
   6 H :    0.139898
   7 H :    0.149004
   8 H :    0.138414
   9 H :    0.170834
  10 H :    0.150655
  11 H :    0.138319
  12 C :   -0.008365
  13 H :    0.125696
  14 H :    0.135219
  15 O :   -0.505209
  16 C :    0.099502
  17 C :    0.079185
  18 C :   -0.319949
  19 C :   -0.015873
  20 O :   -0.503931
  21 H :    0.151090
  22 H :    0.168417
  23 O :   -0.599401
  24 H :    0.156490
  25 H :    0.133808
  26 H :    0.150230
  27 H :    0.150660
  28 H :    0.356212
Sum of atomic charges:    0.0000000

LOEWDIN ATOMIC CHARGES
----------------------
   0 C :    0.175081
   1 C :   -0.221017
   2 C :   -0.216578
   3 C :   -0.026400
   4 O :   -0.318550
   5 H :    0.096035
   6 H :    0.110996
   7 H :    0.119007
   8 H :    0.112615
   9 H :    0.123552
  10 H :    0.107397
  11 H :    0.100414
  12 C :   -0.043885
  13 H :    0.097432
  14 H :    0.098911
  15 O :   -0.318722
  16 C :    0.014913
  17 C :    0.032710
  18 C :   -0.240211
  19 C :   -0.030963
  20 O :   -0.314352
  21 H :    0.113094
  22 H :    0.119849
  23 O :   -0.408154
  24 H :    0.122357
  25 H :    0.104282
  26 H :    0.105751
  27 H :    0.106383
  28 H :    0.278054

  Mayer bond orders larger than 0.100000
B(  0-C ,  1-C ) :   0.9422 B(  0-C ,  4-O ) :   0.9298 B(  0-C ,  5-H ) :   0.9163
B(  0-C , 15-O ) :   0.8503 B(  1-C ,  2-C ) :   0.9581 B(  1-C ,  6-H ) :   0.9370
B(  1-C ,  7-H ) :   0.9372 B(  2-C ,  3-C ) :   0.9545 B(  2-C ,  8-H ) :   0.9453
B(  2-C ,  9-H ) :   0.9418 B(  3-C ,  4-O ) :   0.8380 B(  3-C , 10-H ) :   0.9351
B(  3-C , 11-H ) :   0.9400 B( 12-C , 13-H ) :   0.9039 B( 12-C , 14-H ) :   0.9299
B( 12-C , 15-O ) :   0.8580 B( 12-C , 16-C ) :   0.8953 B( 16-C , 17-C ) :   0.8698
B( 16-C , 20-O ) :   0.8727 B( 16-C , 21-H ) :   0.9323 B( 17-C , 18-C ) :   0.9243
B( 17-C , 22-H ) :   0.9326 B( 17-C , 23-O ) :   0.8941 B( 18-C , 19-C ) :   0.9398
B( 18-C , 24-H ) :   0.9421 B( 18-C , 25-H ) :   0.9405 B( 19-C , 20-O ) :   0.8507
B( 19-C , 26-H ) :   0.9306 B( 19-C , 27-H ) :   0.9370 B( 23-O , 28-H ) :   0.7984

FINAL SINGLE POINT ENERGY      -652.855411743929

DIPOLE MOMENT
-------------
                                X             Y             Z
Electronic contribution:     -0.23573      -1.79995      -0.92210
Nuclear contribution   :     -0.13075       1.61800       0.80098
                        -----------------------------------------
Total Dipole Moment    :     -0.36647      -0.18196      -0.12112
                        -----------------------------------------
Magnitude (a.u.)       :      0.42671
Magnitude (Debye)      :      1.08461

Rotational constants in cm-1:     0.057628     0.011981     0.011148
Rotational constants in MHz :  1727.633151   359.178879   334.205673

                             ****ORCA TERMINATED NORMALLY****
TOTAL RUN TIME: 0 days 1 hours 6 minutes 13 seconds 795 msec
