                         Program Version 4.2.0 -  RELEASE  -
|  1> # Test redundant internal optimization
|  2> #
|  3> ! RKS B3LYP  Opt TightSCF SmallPrint
|  4>
|  5> %basis
|  6>         Basis "6-31G"
|  7> end
|  8>
|  9> %geom
| 10> Constraints
| 11> { D 4  0  15  12  210.0   C } # D for Dihedral angle
| 12> { D 0  15  12  16  300.0   C } # D for Dihedral angle
| 13> { D 0  4  3  2   C } # D for Dihedral angle
| 14> { D 4  3  2  1   C } # D for Dihedral angle
| 15> { D 3  2  1  0   C } # D for Dihedral angle
| 16> { D 2  1  0  4   C } # D for Dihedral angle
| 17> { D 1  0  4  3   C } # D for Dihedral angle
| 18> { D 16  20  19  18   C } # D for Dihedral angle
| 19> { D 20  19  18  17   C } # D for Dihedral angle
| 20> { D 19  18  17  16   C } # D for Dihedral angle
| 21> { D 18  17  16  20   C } # D for Dihedral angle
| 22> { D 17  16  20  19   C } # D for Dihedral angle
| 23> { D 15  12  16  20   C } # D for Dihedral angle
| 24> end
| 25> end
| 26>
| 27>
| 28> #%pal
| 29> #nprocs 8
| 30> #end
| 31>
| 32> * xyz 0 1
| 33> C  -21.048   26.222   46.251
| 34> C  -20.361   27.558   45.944
| 35> C  -20.329   28.222   47.341
| 36> C  -20.110   27.022   48.296
| 37> O  -20.473   25.807   47.535
| 38> H  -20.833   25.428   45.533
| 39> H  -19.344   27.382   45.576
| 40> H  -20.898   28.157   45.201
| 41> H  -19.543   28.978   47.434
| 42> H  -21.289   28.710   47.548
| 43> H  -20.733   27.082   49.195
| 44> H  -19.064   26.913   48.597
| 45> C  -23.389   26.110   45.076
| 46> H  -23.220   25.072   44.765
| 47> H  -24.464   26.245   45.252
| 48> O  -22.586   26.394   46.375
| 49> C  -22.982   27.044   43.902
| 50> C  -23.872   26.816   42.676
| 51> C  -25.147   27.601   43.062
| 52> C  -24.589   28.810   43.854
| 53> O  -23.214   28.447   44.260
| 54> H  -21.913   26.935   43.712
| 55> H  -23.405   27.251   41.785
| 56> O  -24.152   25.313   42.396
| 57> H  -25.737   27.909   42.192
| 58> H  -25.791   26.985   43.701
| 59> H  -25.180   29.034   44.749
| 60> H  -24.517   29.713   43.242
| 61> H  -24.621   24.856   43.274
| 62> *
| 63>
| 64>                          ****END OF INPUT****
 Total Charge           Charge          ....    0
 Multiplicity           Mult            ....    1
 Number of Electrons    NEL             ....  102
FINAL SINGLE POINT ENERGY      -652.825729551815
FINAL SINGLE POINT ENERGY      -652.849293281500
FINAL SINGLE POINT ENERGY      -652.854193864691
FINAL SINGLE POINT ENERGY      -652.855043400853
FINAL SINGLE POINT ENERGY      -652.855208838341
FINAL SINGLE POINT ENERGY      -652.855235469907
FINAL SINGLE POINT ENERGY      -652.855240001615
                    ***********************HURRAY********************

CARTESIAN COORDINATES (ANGSTROEM)
---------------------------------
  C    -21.015067   26.226426   46.188497
  C    -20.337489   27.573351   45.939590
  C    -20.384230   28.221191   47.345809
  C    -20.194389   27.012446   48.285785
  O    -20.507314   25.812123   47.466955
  H    -20.780894   25.433278   45.469000
  H    -19.300758   27.402998   45.622903
  H    -20.846672   28.183222   45.192556
  H    -19.613092   28.985031   47.482704
  H    -21.364871   28.681220   47.497867
  H    -20.863141   27.026418   49.149919
  H    -19.161282   26.896207   48.627305
  C    -23.265088   26.135652   45.131836
  H    -23.144172   25.086235   44.815110
  H    -24.291596   26.280197   45.482643
  O    -22.458715   26.380146   46.311874
  C    -22.973443   27.028060   43.921381
  C    -23.910576   26.756098   42.730952
  C    -25.173542   27.586340   43.117872
  C    -24.563647   28.815385   43.828826
  O    -23.176660   28.444341   44.210534
  H    -21.926133   26.923761   43.625680
  H    -23.459809   27.157927   41.820827
  O    -24.155646   25.363163   42.427547
  H    -25.773672   27.853271   42.244359
  H    -25.805703   27.000647   43.797949
  H    -25.112151   29.104343   44.730186
  H    -24.490114   29.682912   43.166391
  H    -24.754134   24.963614   43.091143

 Multiplicity           Mult            ....    1
 Number of Electrons    NEL             ....  102
 Basis Dimension        Dim             ....  149

ORBITAL ENERGIES
----------------

  NO   OCC          E(Eh)            E(eV)
   0   2.0000     -19.155309      -521.2425
   1   2.0000     -19.146217      -520.9951
   2   2.0000     -19.135411      -520.7010
   3   2.0000     -19.132283      -520.6159
   4   2.0000     -10.272774      -279.5364
   5   2.0000     -10.251725      -278.9636
   6   2.0000     -10.237436      -278.5748
   7   2.0000     -10.237342      -278.5722
   8   2.0000     -10.233068      -278.4559
   9   2.0000     -10.216561      -278.0068
  10   2.0000     -10.201420      -277.5947
  11   2.0000     -10.175646      -276.8934
  12   2.0000     -10.173351      -276.8310
  13   2.0000      -1.047676       -28.5087
  14   2.0000      -1.039019       -28.2732
  15   2.0000      -1.022662       -27.8281
  16   2.0000      -0.988031       -26.8857
  17   2.0000      -0.789008       -21.4700
  18   2.0000      -0.775973       -21.1153
  19   2.0000      -0.769397       -20.9364
  20   2.0000      -0.730055       -19.8658
  21   2.0000      -0.681661       -18.5489
  22   2.0000      -0.618138       -16.8204
  23   2.0000      -0.601440       -16.3660
  24   2.0000      -0.589786       -16.0489
  25   2.0000      -0.569043       -15.4844
  26   2.0000      -0.532496       -14.4900
  27   2.0000      -0.515504       -14.0276
  28   2.0000      -0.493398       -13.4260
  29   2.0000      -0.487312       -13.2604
  30   2.0000      -0.465958       -12.6794
  31   2.0000      -0.451044       -12.2735
  32   2.0000      -0.448917       -12.2156
  33   2.0000      -0.438322       -11.9274
  34   2.0000      -0.432987       -11.7822
  35   2.0000      -0.419056       -11.4031
  36   2.0000      -0.411462       -11.1965
  37   2.0000      -0.397092       -10.8054
  38   2.0000      -0.383869       -10.4456
  39   2.0000      -0.364300        -9.9131
  40   2.0000      -0.361896        -9.8477
  41   2.0000      -0.347953        -9.4683
  42   2.0000      -0.343141        -9.3373
  43   2.0000      -0.335145        -9.1198
  44   2.0000      -0.322691        -8.7809
  45   2.0000      -0.306108        -8.3296
  46   2.0000      -0.298928        -8.1342
  47   2.0000      -0.278296        -7.5728
  48   2.0000      -0.263883        -7.1806
  49   2.0000      -0.249589        -6.7917
  50   2.0000      -0.236158        -6.4262
  51   0.0000       0.048350         1.3157
  52   0.0000       0.073658         2.0043
  53   0.0000       0.083164         2.2630
  54   0.0000       0.093130         2.5342
  55   0.0000       0.099127         2.6974

MULLIKEN ATOMIC CHARGES
-----------------------
   0 C :    0.282828
   1 C :   -0.273931
   2 C :   -0.300043
   3 C :   -0.000711
   4 O :   -0.505866
   5 H :    0.135834
   6 H :    0.134627
   7 H :    0.182329
   8 H :    0.137675
   9 H :    0.166450
  10 H :    0.150507
  11 H :    0.137630
  12 C :   -0.013621
  13 H :    0.126913
  14 H :    0.144109
  15 O :   -0.500886
  16 C :    0.076744
  17 C :    0.086427
  18 C :   -0.327017
  19 C :   -0.009779
  20 O :   -0.518039
  21 H :    0.154674
  22 H :    0.167561
  23 O :   -0.597370
  24 H :    0.161831
  25 H :    0.138336
  26 H :    0.151959
  27 H :    0.152275
  28 H :    0.358553
Sum of atomic charges:   -0.0000000

LOEWDIN ATOMIC CHARGES
----------------------
   0 C :    0.176834
   1 C :   -0.232396
   2 C :   -0.215609
   3 C :   -0.025883
   4 O :   -0.308239
   5 H :    0.094555
   6 H :    0.108901
   7 H :    0.131291
   8 H :    0.112584
   9 H :    0.121488
  10 H :    0.107289
  11 H :    0.100221
  12 C :   -0.049432
  13 H :    0.094442
  14 H :    0.109424
  15 O :   -0.322447
  16 C :    0.002121
  17 C :    0.037227
  18 C :   -0.241485
  19 C :   -0.028122
  20 O :   -0.322874
  21 H :    0.111459
  22 H :    0.119099
  23 O :   -0.405062
  24 H :    0.124616
  25 H :    0.106310
  26 H :    0.106830
  27 H :    0.107471
  28 H :    0.279388

  Mayer bond orders larger than 0.100000
B(  0-C ,  1-C ) :   0.9319 B(  0-C ,  4-O ) :   0.9343 B(  0-C ,  5-H ) :   0.9176
B(  0-C , 15-O ) :   0.8318 B(  1-C ,  2-C ) :   0.9537 B(  1-C ,  6-H ) :   0.9345
B(  1-C ,  7-H ) :   0.9176 B(  2-C ,  3-C ) :   0.9558 B(  2-C ,  8-H ) :   0.9454
B(  2-C ,  9-H ) :   0.9423 B(  3-C ,  4-O ) :   0.8354 B(  3-C , 10-H ) :   0.9353
B(  3-C , 11-H ) :   0.9400 B( 12-C , 13-H ) :   0.9006 B( 12-C , 14-H ) :   0.9398
B( 12-C , 15-O ) :   0.8808 B( 12-C , 16-C ) :   0.8802 B( 16-C , 17-C ) :   0.8700
B( 16-C , 20-O ) :   0.8506 B( 16-C , 21-H ) :   0.9284 B( 17-C , 18-C ) :   0.9228
B( 17-C , 22-H ) :   0.9336 B( 17-C , 23-O ) :   0.9031 B( 18-C , 19-C ) :   0.9380
B( 18-C , 24-H ) :   0.9412 B( 18-C , 25-H ) :   0.9408 B( 19-C , 20-O ) :   0.8390
B( 19-C , 26-H ) :   0.9314 B( 19-C , 27-H ) :   0.9379 B( 23-O , 28-H ) :   0.7962

FINAL SINGLE POINT ENERGY      -652.855241230460

DIPOLE MOMENT
-------------
                                X             Y             Z
Electronic contribution:      0.11692      -3.54736      -0.13659
Nuclear contribution   :     -0.86872       4.26488      -0.40364
                        -----------------------------------------
Total Dipole Moment    :     -0.75181       0.71752      -0.54022
                        -----------------------------------------
Magnitude (a.u.)       :      1.17128
Magnitude (Debye)      :      2.97715

Rotational constants in cm-1:     0.057432     0.013648     0.012204
Rotational constants in MHz :  1721.776562   409.167498   365.866999

                             ****ORCA TERMINATED NORMALLY****
TOTAL RUN TIME: 0 days 1 hours 42 minutes 22 seconds 732 msec
