                         Program Version 4.2.0 -  RELEASE  -
|  1> # Test redundant internal optimization
|  2> #
|  3> ! RKS B3LYP  Opt TightSCF SmallPrint
|  4>
|  5> %basis
|  6>         Basis "6-31G"
|  7> end
|  8>
|  9> %geom
| 10> Constraints
| 11> { D 4  0  15  12  255.0   C } # D for Dihedral angle
| 12> { D 0  15  12  16  120.0   C } # D for Dihedral angle
| 13> { D 0  4  3  2   C } # D for Dihedral angle
| 14> { D 4  3  2  1   C } # D for Dihedral angle
| 15> { D 3  2  1  0   C } # D for Dihedral angle
| 16> { D 2  1  0  4   C } # D for Dihedral angle
| 17> { D 1  0  4  3   C } # D for Dihedral angle
| 18> { D 16  20  19  18   C } # D for Dihedral angle
| 19> { D 20  19  18  17   C } # D for Dihedral angle
| 20> { D 19  18  17  16   C } # D for Dihedral angle
| 21> { D 18  17  16  20   C } # D for Dihedral angle
| 22> { D 17  16  20  19   C } # D for Dihedral angle
| 23> { D 15  12  16  20   C } # D for Dihedral angle
| 24> end
| 25> end
| 26>
| 27>
| 28> #%pal
| 29> #nprocs 8
| 30> #end
| 31>
| 32> * xyz 0 1
| 33> C  -21.048   26.222   46.251
| 34> C  -20.361   27.558   45.944
| 35> C  -20.329   28.222   47.341
| 36> C  -20.110   27.022   48.296
| 37> O  -20.473   25.807   47.535
| 38> H  -20.833   25.428   45.533
| 39> H  -19.344   27.382   45.576
| 40> H  -20.898   28.157   45.201
| 41> H  -19.543   28.978   47.434
| 42> H  -21.289   28.710   47.548
| 43> H  -20.733   27.082   49.195
| 44> H  -19.064   26.913   48.597
| 45> C  -23.431   25.260   45.734
| 46> H  -24.069   25.683   44.947
| 47> H  -22.778   24.506   45.276
| 48> O  -22.586   26.394   46.375
| 49> C  -24.342   24.534   46.762
| 50> C  -23.527   23.991   47.942
| 51> C  -23.320   25.267   48.793
| 52> C  -24.642   26.047   48.585
| 53> O  -25.278   25.481   47.376
| 54> H  -24.940   23.783   46.244
| 55> H  -24.114   23.249   48.494
| 56> O  -22.188   23.334   47.508
| 57> H  -23.126   25.047   49.848
| 58> H  -22.468   25.842   48.410
| 59> H  -24.478   27.119   48.437
| 60> H  -25.344   25.907   49.413
| 61> H  -21.584   24.060   46.953
| 62> *
| 63>
| 64>                          ****END OF INPUT****
 Total Charge           Charge          ....    0
 Multiplicity           Mult            ....    1
 Number of Electrons    NEL             ....  102
FINAL SINGLE POINT ENERGY      -652.828194635435
FINAL SINGLE POINT ENERGY      -652.854698090923
FINAL SINGLE POINT ENERGY      -652.863715879559
FINAL SINGLE POINT ENERGY      -652.867310960595
FINAL SINGLE POINT ENERGY      -652.868599697217
FINAL SINGLE POINT ENERGY      -652.869081372345
FINAL SINGLE POINT ENERGY      -652.869143028877
FINAL SINGLE POINT ENERGY      -652.869151056747
                    ***********************HURRAY********************

CARTESIAN COORDINATES (ANGSTROEM)
---------------------------------
  C    -21.052452   26.219840   46.184722
  C    -20.373378   27.552640   45.855234
  C    -20.336395   28.241040   47.242182
  C    -20.107697   27.058355   48.213946
  O    -20.475685   25.831640   47.458012
  H    -20.835267   25.406297   45.487567
  H    -19.359826   27.362979   45.484015
  H    -20.931439   28.117105   45.106277
  H    -19.547510   28.994883   47.320366
  H    -21.298708   28.722592   47.439706
  H    -20.726839   27.115401   49.112846
  H    -19.059796   26.940361   48.502897
  C    -23.314694   25.366106   45.718774
  H    -23.920453   25.838019   44.937680
  H    -22.686349   24.589585   45.265298
  O    -22.477314   26.425552   46.289979
  C    -24.249973   24.690168   46.716536
  C    -23.551923   23.983011   47.893348
  C    -23.393928   25.148295   48.922822
  C    -24.677219   25.974868   48.688987
  O    -25.209547   25.574337   47.363396
  H    -24.846857   23.978898   46.130909
  H    -24.194161   23.189378   48.283374
  O    -22.292297   23.358287   47.538926
  H    -23.312020   24.778557   49.949297
  H    -22.503614   25.720910   48.669767
  H    -24.489393   27.052781   48.678018
  H    -25.459204   25.753535   49.422682
  H    -21.556061   23.999581   47.670435

 Multiplicity           Mult            ....    1
 Number of Electrons    NEL             ....  102
 Basis Dimension        Dim             ....  149

ORBITAL ENERGIES
----------------

  NO   OCC          E(Eh)            E(eV)
   0   2.0000     -19.161596      -521.4135
   1   2.0000     -19.152552      -521.1674
   2   2.0000     -19.128605      -520.5158
   3   2.0000     -19.121772      -520.3299
   4   2.0000     -10.291074      -280.0344
   5   2.0000     -10.239895      -278.6417
   6   2.0000     -10.228167      -278.3226
   7   2.0000     -10.227720      -278.3104
   8   2.0000     -10.223171      -278.1866
   9   2.0000     -10.217200      -278.0241
  10   2.0000     -10.195979      -277.4467
  11   2.0000     -10.194447      -277.4050
  12   2.0000     -10.173170      -276.8260
  13   2.0000      -1.066206       -29.0129
  14   2.0000      -1.018885       -27.7253
  15   2.0000      -1.004384       -27.3307
  16   2.0000      -0.995334       -27.0844
  17   2.0000      -0.797255       -21.6944
  18   2.0000      -0.769205       -20.9311
  19   2.0000      -0.760096       -20.6833
  20   2.0000      -0.737305       -20.0631
  21   2.0000      -0.674417       -18.3518
  22   2.0000      -0.610733       -16.6189
  23   2.0000      -0.603375       -16.4187
  24   2.0000      -0.595241       -16.1973
  25   2.0000      -0.569646       -15.5008
  26   2.0000      -0.524307       -14.2671
  27   2.0000      -0.506864       -13.7925
  28   2.0000      -0.502955       -13.6861
  29   2.0000      -0.485342       -13.2068
  30   2.0000      -0.474740       -12.9183
  31   2.0000      -0.456451       -12.4207
  32   2.0000      -0.446586       -12.1522
  33   2.0000      -0.430453       -11.7132
  34   2.0000      -0.420768       -11.4497
  35   2.0000      -0.410830       -11.1793
  36   2.0000      -0.408453       -11.1146
  37   2.0000      -0.397174       -10.8076
  38   2.0000      -0.371887       -10.1196
  39   2.0000      -0.368440       -10.0258
  40   2.0000      -0.365015        -9.9326
  41   2.0000      -0.355492        -9.6734
  42   2.0000      -0.346139        -9.4189
  43   2.0000      -0.338469        -9.2102
  44   2.0000      -0.320557        -8.7228
  45   2.0000      -0.309209        -8.4140
  46   2.0000      -0.299622        -8.1531
  47   2.0000      -0.280260        -7.6263
  48   2.0000      -0.264757        -7.2044
  49   2.0000      -0.251732        -6.8500
  50   2.0000      -0.230263        -6.2658
  51   0.0000       0.068851         1.8735
  52   0.0000       0.082658         2.2492
  53   0.0000       0.087349         2.3769
  54   0.0000       0.099234         2.7003
  55   0.0000       0.110918         3.0182

MULLIKEN ATOMIC CHARGES
-----------------------
   0 C :    0.273943
   1 C :   -0.251187
   2 C :   -0.301376
   3 C :   -0.005012
   4 O :   -0.530207
   5 H :    0.156251
   6 H :    0.147391
   7 H :    0.160590
   8 H :    0.147535
   9 H :    0.168099
  10 H :    0.147417
  11 H :    0.151471
  12 C :   -0.023494
  13 H :    0.153968
  14 H :    0.144811
  15 O :   -0.518274
  16 C :    0.104698
  17 C :    0.093001
  18 C :   -0.336230
  19 C :   -0.008639
  20 O :   -0.523113
  21 H :    0.142882
  22 H :    0.152265
  23 O :   -0.642623
  24 H :    0.137422
  25 H :    0.182919
  26 H :    0.144827
  27 H :    0.140239
  28 H :    0.390425
Sum of atomic charges:   -0.0000000

LOEWDIN ATOMIC CHARGES
----------------------
   0 C :    0.168025
   1 C :   -0.215211
   2 C :   -0.214976
   3 C :   -0.027160
   4 O :   -0.332217
   5 H :    0.103398
   6 H :    0.115218
   7 H :    0.126233
   8 H :    0.117160
   9 H :    0.122049
  10 H :    0.104809
  11 H :    0.107352
  12 C :   -0.042801
  13 H :    0.111669
  14 H :    0.108711
  15 O :   -0.326374
  16 C :    0.015299
  17 C :    0.040268
  18 C :   -0.247527
  19 C :   -0.027131
  20 O :   -0.324836
  21 H :    0.112437
  22 H :    0.109995
  23 O :   -0.431872
  24 H :    0.112774
  25 H :    0.126058
  26 H :    0.103325
  27 H :    0.099784
  28 H :    0.285544

  Mayer bond orders larger than 0.100000
B(  0-C ,  1-C ) :   0.9470 B(  0-C ,  4-O ) :   0.8646 B(  0-C ,  5-H ) :   0.9144
B(  0-C , 15-O ) :   0.8763 B(  1-C ,  2-C ) :   0.9552 B(  1-C ,  6-H ) :   0.9373
B(  1-C ,  7-H ) :   0.9376 B(  2-C ,  3-C ) :   0.9550 B(  2-C ,  8-H ) :   0.9444
B(  2-C ,  9-H ) :   0.9426 B(  3-C ,  4-O ) :   0.8170 B(  3-C , 10-H ) :   0.9319
B(  3-C , 11-H ) :   0.9411 B( 12-C , 13-H ) :   0.9325 B( 12-C , 14-H ) :   0.9030
B( 12-C , 15-O ) :   0.8351 B( 12-C , 16-C ) :   0.9068 B( 16-C , 17-C ) :   0.8851
B( 16-C , 20-O ) :   0.8797 B( 16-C , 21-H ) :   0.9247 B( 17-C , 18-C ) :   0.9412
B( 17-C , 22-H ) :   0.9368 B( 17-C , 23-O ) :   0.9061 B( 18-C , 19-C ) :   0.9465
B( 18-C , 24-H ) :   0.9434 B( 18-C , 25-H ) :   0.9101 B( 19-C , 20-O ) :   0.8422
B( 19-C , 26-H ) :   0.9324 B( 19-C , 27-H ) :   0.9378 B( 23-O , 28-H ) :   0.7438

FINAL SINGLE POINT ENERGY      -652.869152926904

DIPOLE MOMENT
-------------
                                X             Y             Z
Electronic contribution:     -2.68928      -3.64931      -1.51661
Nuclear contribution   :      3.70989       4.67121       1.51624
                        -----------------------------------------
Total Dipole Moment    :      1.02061       1.02190      -0.00036
                        -----------------------------------------
Magnitude (a.u.)       :      1.44427
Magnitude (Debye)      :      3.67105

Rotational constants in cm-1:     0.044264     0.018215     0.017941
Rotational constants in MHz :  1327.008968   546.058615   537.851888

                             ****ORCA TERMINATED NORMALLY****
TOTAL RUN TIME: 0 days 0 hours 46 minutes 40 seconds 725 msec
