                         Program Version 4.2.0 -  RELEASE  -
|  1> # Test redundant internal optimization
|  2> #
|  3> ! RKS B3LYP  Opt TightSCF SmallPrint
|  4>
|  5> %basis
|  6>         Basis "6-31G"
|  7> end
|  8>
|  9> %geom
| 10> Constraints
| 11> { D 4  0  15  12  225.0   C } # D for Dihedral angle
| 12> { D 0  15  12  16  180.0   C } # D for Dihedral angle
| 13> { D 0  4  3  2   C } # D for Dihedral angle
| 14> { D 4  3  2  1   C } # D for Dihedral angle
| 15> { D 3  2  1  0   C } # D for Dihedral angle
| 16> { D 2  1  0  4   C } # D for Dihedral angle
| 17> { D 1  0  4  3   C } # D for Dihedral angle
| 18> { D 16  20  19  18   C } # D for Dihedral angle
| 19> { D 20  19  18  17   C } # D for Dihedral angle
| 20> { D 19  18  17  16   C } # D for Dihedral angle
| 21> { D 18  17  16  20   C } # D for Dihedral angle
| 22> { D 17  16  20  19   C } # D for Dihedral angle
| 23> { D 15  12  16  20   C } # D for Dihedral angle
| 24> end
| 25> end
| 26>
| 27>
| 28> #%pal
| 29> #nprocs 8
| 30> #end
| 31>
| 32> * xyz 0 1
| 33> C  -21.048   26.222   46.251
| 34> C  -20.361   27.558   45.944
| 35> C  -20.329   28.222   47.341
| 36> C  -20.110   27.022   48.296
| 37> O  -20.473   25.807   47.535
| 38> H  -20.833   25.428   45.533
| 39> H  -19.344   27.382   45.576
| 40> H  -20.898   28.157   45.201
| 41> H  -19.543   28.978   47.434
| 42> H  -21.289   28.710   47.548
| 43> H  -20.733   27.082   49.195
| 44> H  -19.064   26.913   48.597
| 45> C  -23.415   25.773   45.218
| 46> H  -23.115   26.235   44.269
| 47> H  -23.229   24.693   45.148
| 48> O  -22.586   26.394   46.375
| 49> C  -24.945   25.977   45.398
| 50> C  -25.736   25.254   44.303
| 51> C  -25.715   23.794   44.813
| 52> C  -25.790   23.958   46.352
| 53> O  -25.402   25.354   46.645
| 54> H  -25.156   27.046   45.478
| 55> O  -27.191   25.796   44.250
| 56> H  -25.291   25.363   43.308
| 57> H  -26.541   23.193   44.417
| 58> H  -24.777   23.306   44.522
| 59> H  -25.112   23.278   46.879
| 60> H  -26.804   23.817   46.738
| 61> H  -27.657   25.696   45.237
| 62> *
| 63>
| 64>                          ****END OF INPUT****
 Total Charge           Charge          ....    0
 Multiplicity           Mult            ....    1
 Number of Electrons    NEL             ....  102
FINAL SINGLE POINT ENERGY      -652.830408478136
FINAL SINGLE POINT ENERGY      -652.853986334542
FINAL SINGLE POINT ENERGY      -652.857778780448
FINAL SINGLE POINT ENERGY      -652.858466406751
FINAL SINGLE POINT ENERGY      -652.858557733682
FINAL SINGLE POINT ENERGY      -652.858567899448
                    ***********************HURRAY********************

CARTESIAN COORDINATES (ANGSTROEM)
---------------------------------
  C    -21.076260   26.182360   46.169581
  C    -20.465893   27.559646   45.916994
  C    -20.538419   28.203881   47.321621
  C    -20.286617   27.007183   48.264100
  O    -20.544130   25.791987   47.447565
  H    -20.800645   25.401791   45.453167
  H    -19.424406   27.446462   45.592270
  H    -21.010691   28.125098   45.156304
  H    -19.806026   29.005220   47.456416
  H    -21.539258   28.614697   47.484079
  H    -20.953761   26.992745   49.129029
  H    -19.248218   26.941953   48.602782
  C    -23.267932   25.695367   45.168581
  H    -23.009158   26.168896   44.207188
  H    -23.030341   24.623398   45.098115
  O    -22.523313   26.293810   46.256726
  C    -24.753835   25.913480   45.437175
  C    -25.672165   25.288354   44.377831
  C    -25.757627   23.816228   44.861740
  C    -25.727709   23.954765   46.404159
  O    -25.193525   25.307883   46.694332
  H    -24.933689   26.988207   45.536654
  O    -26.975392   25.933253   44.380189
  H    -25.305451   25.386225   43.354869
  H    -26.669858   23.342062   44.490992
  H    -24.898339   23.244079   44.493995
  H    -25.088087   23.209368   46.885654
  H    -26.725341   23.899179   46.850455
  H    -27.260915   26.070424   45.308435

 Multiplicity           Mult            ....    1
 Number of Electrons    NEL             ....  102
 Basis Dimension        Dim             ....  149

ORBITAL ENERGIES
----------------

  NO   OCC          E(Eh)            E(eV)
   0   2.0000     -19.139895      -520.8230
   1   2.0000     -19.139778      -520.8198
   2   2.0000     -19.138674      -520.7898
   3   2.0000     -19.135770      -520.7108
   4   2.0000     -10.277508      -279.6652
   5   2.0000     -10.244421      -278.7649
   6   2.0000     -10.235860      -278.5319
   7   2.0000     -10.235278      -278.5161
   8   2.0000     -10.228861      -278.3415
   9   2.0000     -10.220763      -278.1211
  10   2.0000     -10.190359      -277.2938
  11   2.0000     -10.183907      -277.1182
  12   2.0000     -10.182550      -277.0813
  13   2.0000      -1.050942       -28.5976
  14   2.0000      -1.036093       -28.1935
  15   2.0000      -1.006559       -27.3899
  16   2.0000      -0.992319       -27.0024
  17   2.0000      -0.788298       -21.4507
  18   2.0000      -0.781366       -21.2621
  19   2.0000      -0.767729       -20.8910
  20   2.0000      -0.728709       -19.8292
  21   2.0000      -0.674257       -18.3475
  22   2.0000      -0.605058       -16.4645
  23   2.0000      -0.596103       -16.2208
  24   2.0000      -0.590041       -16.0558
  25   2.0000      -0.586307       -15.9542
  26   2.0000      -0.526000       -14.3132
  27   2.0000      -0.511786       -13.9264
  28   2.0000      -0.493910       -13.4400
  29   2.0000      -0.486469       -13.2375
  30   2.0000      -0.476209       -12.9583
  31   2.0000      -0.459331       -12.4990
  32   2.0000      -0.452737       -12.3196
  33   2.0000      -0.437244       -11.8980
  34   2.0000      -0.429603       -11.6901
  35   2.0000      -0.404690       -11.0122
  36   2.0000      -0.400870       -10.9082
  37   2.0000      -0.393992       -10.7211
  38   2.0000      -0.374164       -10.1815
  39   2.0000      -0.372333       -10.1317
  40   2.0000      -0.357621        -9.7314
  41   2.0000      -0.354609        -9.6494
  42   2.0000      -0.350236        -9.5304
  43   2.0000      -0.331775        -9.0281
  44   2.0000      -0.311036        -8.4637
  45   2.0000      -0.309328        -8.4172
  46   2.0000      -0.303653        -8.2628
  47   2.0000      -0.272147        -7.4055
  48   2.0000      -0.260549        -7.0899
  49   2.0000      -0.248008        -6.7486
  50   2.0000      -0.241947        -6.5837
  51   0.0000       0.065774         1.7898
  52   0.0000       0.082732         2.2512
  53   0.0000       0.086940         2.3658
  54   0.0000       0.098503         2.6804
  55   0.0000       0.103185         2.8078

MULLIKEN ATOMIC CHARGES
-----------------------
   0 C :    0.288748
   1 C :   -0.255612
   2 C :   -0.300099
   3 C :   -0.000739
   4 O :   -0.501160
   5 H :    0.136163
   6 H :    0.141246
   7 H :    0.142461
   8 H :    0.140040
   9 H :    0.165068
  10 H :    0.156681
  11 H :    0.139054
  12 C :    0.004236
  13 H :    0.120537
  14 H :    0.131200
  15 O :   -0.504245
  16 C :    0.064912
  17 C :    0.073145
  18 C :   -0.293711
  19 C :   -0.029697
  20 O :   -0.505029
  21 H :    0.169002
  22 O :   -0.601808
  23 H :    0.149216
  24 H :    0.162993
  25 H :    0.142299
  26 H :    0.153511
  27 H :    0.145188
  28 H :    0.366400
Sum of atomic charges:   -0.0000000

LOEWDIN ATOMIC CHARGES
----------------------
   0 C :    0.176788
   1 C :   -0.224119
   2 C :   -0.216602
   3 C :   -0.025508
   4 O :   -0.310363
   5 H :    0.096869
   6 H :    0.111518
   7 H :    0.115620
   8 H :    0.113462
   9 H :    0.120749
  10 H :    0.110607
  11 H :    0.100981
  12 C :   -0.040476
  13 H :    0.089546
  14 H :    0.093980
  15 O :   -0.324054
  16 C :    0.018630
  17 C :    0.035002
  18 C :   -0.240889
  19 C :   -0.038174
  20 O :   -0.316901
  21 H :    0.120727
  22 O :   -0.414383
  23 H :    0.113839
  24 H :    0.126671
  25 H :    0.111856
  26 H :    0.108004
  27 H :    0.102302
  28 H :    0.284319

  Mayer bond orders larger than 0.100000
B(  0-C ,  1-C ) :   0.9381 B(  0-C ,  4-O ) :   0.9346 B(  0-C ,  5-H ) :   0.9190
B(  0-C , 15-O ) :   0.8365 B(  1-C ,  2-C ) :   0.9563 B(  1-C ,  6-H ) :   0.9355
B(  1-C ,  7-H ) :   0.9388 B(  2-C ,  3-C ) :   0.9550 B(  2-C ,  8-H ) :   0.9451
B(  2-C ,  9-H ) :   0.9429 B(  3-C ,  4-O ) :   0.8368 B(  3-C , 10-H ) :   0.9339
B(  3-C , 11-H ) :   0.9398 B( 12-C , 13-H ) :   0.9085 B( 12-C , 14-H ) :   0.9129
B( 12-C , 15-O ) :   0.8490 B( 12-C , 16-C ) :   0.9009 B( 16-C , 17-C ) :   0.8999
B( 16-C , 20-O ) :   0.8730 B( 16-C , 21-H ) :   0.9237 B( 17-C , 18-C ) :   0.9107
B( 17-C , 22-O ) :   0.8945 B( 17-C , 23-H ) :   0.9336 B( 18-C , 19-C ) :   0.9392
B( 18-C , 24-H ) :   0.9375 B( 18-C , 25-H ) :   0.9342 B( 19-C , 20-O ) :   0.8519
B( 19-C , 26-H ) :   0.9332 B( 19-C , 27-H ) :   0.9377 B( 22-O , 28-H ) :   0.7929

FINAL SINGLE POINT ENERGY      -652.858569741188

DIPOLE MOMENT
-------------
                                X             Y             Z
Electronic contribution:     -2.66812      -0.75959       1.06183
Nuclear contribution   :      3.16197       0.75322      -1.68226
                        -----------------------------------------
Total Dipole Moment    :      0.49385      -0.00637      -0.62043
                        -----------------------------------------
Magnitude (a.u.)       :      0.79301
Magnitude (Debye)      :      2.01568

Rotational constants in cm-1:     0.065080     0.011279     0.010760
Rotational constants in MHz :  1951.045868   338.124004   322.564536

                             ****ORCA TERMINATED NORMALLY****
TOTAL RUN TIME: 0 days 1 hours 16 minutes 35 seconds 404 msec
