                         Program Version 4.2.1 -  RELEASE  -
|  1> # Test redundant internal optimization
|  2> #
|  3> ! RKS B3LYP  Opt TightSCF SmallPrint
|  4>
|  5> %basis
|  6>         Basis "6-31G"
|  7> end
|  8>
|  9> %geom
| 10> Constraints
| 11> { D 4  0  19  14  300.0   C } # D for Dihedral angle
| 12> { D 0  19  14  12  15.0   C } # D for Dihedral angle
| 13> { D 0  4  3  2   C } # D for Dihedral angle
| 14> { D 4  3  2  1   C } # D for Dihedral angle
| 15> { D 3  2  1  0   C } # D for Dihedral angle
| 16> { D 2  1  0  4   C } # D for Dihedral angle
| 17> { D 1  0  4  3   C } # D for Dihedral angle
| 18> { D 14  15  16  17   C } # D for Dihedral angle
| 19> { D 15  16  17  12   C } # D for Dihedral angle
| 20> { D 16  17  12  14   C } # D for Dihedral angle
| 21> { D 17  12  14  15   C } # D for Dihedral angle
| 22> { D 12  14  15  16   C } # D for Dihedral angle
| 23> end
| 24> end
| 25>
| 26>
| 27> #%pal
| 28> #nprocs 8
| 29> #end
| 30>
| 31> * xyz 0 1
| 32> C  -21.048   26.222   46.251
| 33> C  -20.361   27.558   45.944
| 34> C  -20.329   28.222   47.341
| 35> C  -20.110   27.022   48.296
| 36> O  -20.473   25.807   47.535
| 37> H  -20.833   25.428   45.533
| 38> H  -19.344   27.382   45.576
| 39> H  -20.898   28.157   45.201
| 40> H  -19.543   28.978   47.434
| 41> H  -21.289   28.710   47.548
| 42> H  -20.733   27.082   49.195
| 43> H  -19.064   26.913   48.597
| 44> C  -22.182   24.156   47.309
| 45> H  -22.629   23.150   47.343
| 46> C  -23.171   25.189   46.758
| 47> C  -24.063   25.459   47.992
| 48> C  -23.069   25.354   49.175
| 49> O  -21.883   24.630   48.665
| 50> H  -21.233   24.107   46.772
| 51> O  -22.472   26.381   46.366
| 52> H  -23.739   24.822   45.895
| 53> H  -24.562   26.432   47.951
| 54> H  -24.840   24.688   48.072
| 55> H  -23.485   24.806   50.027
| 56> H  -22.723   26.334   49.519
| 57> *
| 58>
| 59>                          ****END OF INPUT****
 Total Charge           Charge          ....    0
 Multiplicity           Mult            ....    1
 Number of Electrons    NEL             ....   86
FINAL SINGLE POINT ENERGY      -538.387788432441
FINAL SINGLE POINT ENERGY      -538.425236059361
FINAL SINGLE POINT ENERGY      -538.428243920076
FINAL SINGLE POINT ENERGY      -538.428777742237
FINAL SINGLE POINT ENERGY      -538.428850579638
FINAL SINGLE POINT ENERGY      -538.428873546572
FINAL SINGLE POINT ENERGY      -538.428875827254
                    ***********************HURRAY********************

CARTESIAN COORDINATES (ANGSTROEM)
---------------------------------
  C    -20.852261   26.247405   46.231609
  C    -20.421590   27.680342   45.922618
  C    -20.363411   28.308034   47.335033
  C    -19.866551   27.137321   48.213850
  O    -20.112195   25.906634   47.419515
  H    -20.577697   25.497386   45.482476
  H    -19.429102   27.664760   45.457395
  H    -21.121148   28.185889   45.253989
  H    -19.698143   29.175524   47.382570
  H    -21.366264   28.621740   47.637651
  H    -20.397723   27.049023   49.164036
  H    -18.789753   27.174510   48.404375
  C    -22.358461   23.933997   47.433478
  H    -23.007096   23.049081   47.358002
  C    -23.077936   25.134397   46.819325
  C    -24.044774   25.526807   47.950082
  C    -23.238858   25.223321   49.237066
  O    -22.143393   24.312750   48.836069
  H    -21.377959   23.709596   47.014782
  O    -22.289011   26.292438   46.394738
  H    -23.635682   24.820686   45.925725
  H    -24.342685   26.574438   47.864360
  H    -24.942595   24.902471   47.888725
  H    -23.846817   24.740121   50.010468
  H    -22.774894   26.120329   49.657061

 Multiplicity           Mult            ....    1
 Number of Electrons    NEL             ....   86
 Basis Dimension        Dim             ....  127

ORBITAL ENERGIES
----------------

  NO   OCC          E(Eh)            E(eV)
   0   2.0000     -19.137980      -520.7709
   1   2.0000     -19.134087      -520.6650
   2   2.0000     -19.122721      -520.3557
   3   2.0000     -10.275624      -279.6139
   4   2.0000     -10.237157      -278.5672
   5   2.0000     -10.219736      -278.0932
   6   2.0000     -10.219153      -278.0773
   7   2.0000     -10.217481      -278.0318
   8   2.0000     -10.181994      -277.0662
   9   2.0000     -10.181322      -277.0479
  10   2.0000     -10.180919      -277.0369
  11   2.0000      -1.047594       -28.5065
  12   2.0000      -1.006251       -27.3815
  13   2.0000      -0.985956       -26.8292
  14   2.0000      -0.789886       -21.4939
  15   2.0000      -0.773444       -21.0465
  16   2.0000      -0.733749       -19.9663
  17   2.0000      -0.720889       -19.6164
  18   2.0000      -0.614298       -16.7159
  19   2.0000      -0.596047       -16.2193
  20   2.0000      -0.590975       -16.0813
  21   2.0000      -0.562258       -15.2998
  22   2.0000      -0.517256       -14.0753
  23   2.0000      -0.496134       -13.5005
  24   2.0000      -0.485343       -13.2069
  25   2.0000      -0.475537       -12.9400
  26   2.0000      -0.445473       -12.1219
  27   2.0000      -0.436053       -11.8656
  28   2.0000      -0.428857       -11.6698
  29   2.0000      -0.407631       -11.0922
  30   2.0000      -0.399952       -10.8833
  31   2.0000      -0.378293       -10.2939
  32   2.0000      -0.372227       -10.1288
  33   2.0000      -0.359972        -9.7953
  34   2.0000      -0.356414        -9.6985
  35   2.0000      -0.351324        -9.5600
  36   2.0000      -0.339879        -9.2486
  37   2.0000      -0.326266        -8.8781
  38   2.0000      -0.299645        -8.1538
  39   2.0000      -0.285077        -7.7573
  40   2.0000      -0.260972        -7.1014
  41   2.0000      -0.248766        -6.7693
  42   2.0000      -0.226569        -6.1653
  43   0.0000       0.075429         2.0525
  44   0.0000       0.094477         2.5708
  45   0.0000       0.101553         2.7634
  46   0.0000       0.116635         3.1738
  47   0.0000       0.121632         3.3098

MULLIKEN ATOMIC CHARGES
-----------------------
   0 C :    0.294126
   1 C :   -0.262344
   2 C :   -0.298003
   3 C :   -0.005718
   4 O :   -0.499801
   5 H :    0.139455
   6 H :    0.143622
   7 H :    0.156425
   8 H :    0.138912
   9 H :    0.156046
  10 H :    0.153056
  11 H :    0.143542
  12 C :   -0.018861
  13 H :    0.125954
  14 C :    0.104927
  15 C :   -0.294733
  16 C :   -0.003652
  17 O :   -0.510557
  18 H :    0.172894
  19 O :   -0.541413
  20 H :    0.131151
  21 H :    0.158894
  22 H :    0.140908
  23 H :    0.133668
  24 H :    0.141501
Sum of atomic charges:   -0.0000000

LOEWDIN ATOMIC CHARGES
----------------------
   0 C :    0.174768
   1 C :   -0.213686
   2 C :   -0.216568
   3 C :   -0.026899
   4 O :   -0.315281
   5 H :    0.092402
   6 H :    0.112781
   7 H :    0.123481
   8 H :    0.112581
   9 H :    0.115950
  10 H :    0.107257
  11 H :    0.103182
  12 C :   -0.047963
  13 H :    0.094954
  14 C :    0.044211
  15 C :   -0.227758
  16 C :   -0.031602
  17 O :   -0.324793
  18 H :    0.124116
  19 O :   -0.335413
  20 H :    0.098234
  21 H :    0.126047
  22 H :    0.112557
  23 H :    0.097162
  24 H :    0.100280

  Mayer bond orders larger than 0.100000
B(  0-C ,  1-C ) :   0.9472 B(  0-C ,  4-O ) :   0.9125 B(  0-C ,  5-H ) :   0.9224
B(  0-C , 19-O ) :   0.8474 B(  1-C ,  2-C ) :   0.9581 B(  1-C ,  6-H ) :   0.9405
B(  1-C ,  7-H ) :   0.9366 B(  2-C ,  3-C ) :   0.9548 B(  2-C ,  8-H ) :   0.9450
B(  2-C ,  9-H ) :   0.9450 B(  3-C ,  4-O ) :   0.8360 B(  3-C , 10-H ) :   0.9308
B(  3-C , 11-H ) :   0.9403 B( 12-C , 13-H ) :   0.9097 B( 12-C , 14-C ) :   0.9268
B( 12-C , 17-O ) :   0.8620 B( 12-C , 18-H ) :   0.9233 B( 14-C , 15-C ) :   0.9437
B( 14-C , 19-O ) :   0.8409 B( 14-C , 20-H ) :   0.9294 B( 15-C , 16-C ) :   0.9483
B( 15-C , 21-H ) :   0.9375 B( 15-C , 22-H ) :   0.9393 B( 16-C , 17-O ) :   0.8663
B( 16-C , 23-H ) :   0.9329 B( 16-C , 24-H ) :   0.9338

FINAL SINGLE POINT ENERGY      -538.428876307021

DIPOLE MOMENT
-------------
                                X             Y             Z
Electronic contribution:      0.94405      -3.00141      -0.65797
Nuclear contribution   :     -1.39559       3.57567       0.23360
                        -----------------------------------------
Total Dipole Moment    :     -0.45153       0.57426      -0.42437
                        -----------------------------------------
Magnitude (a.u.)       :      0.84484
Magnitude (Debye)      :      2.14740

Rotational constants in cm-1:     0.066168     0.027301     0.025399
Rotational constants in MHz :  1983.655611   818.469041   761.434112

                             ****ORCA TERMINATED NORMALLY****
TOTAL RUN TIME: 0 days 0 hours 9 minutes 10 seconds 942 msec
