                         Program Version 4.2.0 -  RELEASE  -
|  1> # Test redundant internal optimization
|  2> #
|  3> ! RKS B3LYP  Opt TightSCF SmallPrint
|  4>
|  5> %basis
|  6>         Basis "6-31G"
|  7> end
|  8>
|  9> %geom
| 10> Constraints
| 11> { D 4  0  15  12  195.0   C } # D for Dihedral angle
| 12> { D 0  15  12  16  105.0   C } # D for Dihedral angle
| 13> { D 0  4  3  2   C } # D for Dihedral angle
| 14> { D 4  3  2  1   C } # D for Dihedral angle
| 15> { D 3  2  1  0   C } # D for Dihedral angle
| 16> { D 2  1  0  4   C } # D for Dihedral angle
| 17> { D 1  0  4  3   C } # D for Dihedral angle
| 18> { D 16  20  19  18   C } # D for Dihedral angle
| 19> { D 20  19  18  17   C } # D for Dihedral angle
| 20> { D 19  18  17  16   C } # D for Dihedral angle
| 21> { D 18  17  16  20   C } # D for Dihedral angle
| 22> { D 17  16  20  19   C } # D for Dihedral angle
| 23> { D 15  12  16  20   C } # D for Dihedral angle
| 24> end
| 25> end
| 26>
| 27>
| 28> #%pal
| 29> #nprocs 8
| 30> #end
| 31>
| 32> * xyz 0 1
| 33> C  -21.048   26.222   46.251
| 34> C  -20.361   27.558   45.944
| 35> C  -20.329   28.222   47.341
| 36> C  -20.110   27.022   48.296
| 37> O  -20.473   25.807   47.535
| 38> H  -20.833   25.428   45.533
| 39> H  -19.344   27.382   45.576
| 40> H  -20.898   28.157   45.201
| 41> H  -19.543   28.978   47.434
| 42> H  -21.289   28.710   47.548
| 43> H  -20.733   27.082   49.195
| 44> H  -19.064   26.913   48.597
| 45> C  -23.353   26.472   45.026
| 46> H  -24.076   27.296   45.068
| 47> H  -22.657   26.668   44.200
| 48> O  -22.586   26.394   46.375
| 49> C  -24.122   25.163   44.696
| 50> C  -25.237   24.901   45.716
| 51> C  -26.346   25.860   45.221
| 52> C  -26.180   25.826   43.681
| 53> O  -24.827   25.292   43.416
| 54> H  -23.407   24.346   44.587
| 55> O  -25.707   23.424   45.622
| 56> H  -24.932   25.100   46.749
| 57> H  -27.346   25.552   45.540
| 58> H  -26.168   26.871   45.607
| 59> H  -26.269   26.818   43.227
| 60> H  -26.893   25.151   43.199
| 61> H  -26.019   23.201   44.594
| 62> *
| 63>
| 64>                          ****END OF INPUT****
 Total Charge           Charge          ....    0
 Multiplicity           Mult            ....    1
 Number of Electrons    NEL             ....  102
FINAL SINGLE POINT ENERGY      -652.835795449627
FINAL SINGLE POINT ENERGY      -652.858257186534
FINAL SINGLE POINT ENERGY      -652.861359976794
FINAL SINGLE POINT ENERGY      -652.861915421894
FINAL SINGLE POINT ENERGY      -652.862008437518
FINAL SINGLE POINT ENERGY      -652.862018836213
FINAL SINGLE POINT ENERGY      -652.862021104978
                    ***********************HURRAY********************

CARTESIAN COORDINATES (ANGSTROEM)
---------------------------------
  C    -21.126315   26.202181   46.159494
  C    -20.378431   27.508719   45.906059
  C    -20.411699   28.174229   47.303016
  C    -20.296870   26.970105   48.259812
  O    -20.660315   25.778323   47.445459
  H    -20.920122   25.395785   45.448682
  H    -19.349028   27.282582   45.603444
  H    -20.837143   28.125196   45.127594
  H    -19.603030   28.897843   47.442096
  H    -21.366727   28.688919   47.443727
  H    -20.977207   27.027491   49.112599
  H    -19.276661   26.802864   48.616872
  C    -23.283796   26.530241   44.990668
  H    -23.953807   27.392886   45.071575
  H    -22.601970   26.711734   44.150013
  O    -22.567606   26.424740   46.256965
  C    -24.071592   25.245359   44.726293
  C    -25.169088   24.936340   45.755230
  C    -26.315283   25.861564   45.275678
  C    -26.164789   25.847725   43.734547
  O    -24.790056   25.360350   43.450801
  H    -23.383147   24.399740   44.632098
  O    -25.550914   23.533729   45.696938
  H    -24.851065   25.116927   46.780582
  H    -27.282720   25.480756   45.612038
  H    -26.186058   26.871035   45.680641
  H    -26.290680   26.836700   43.283743
  H    -26.857727   25.152966   43.249821
  H    -25.626155   23.258972   44.758517

 Multiplicity           Mult            ....    1
 Number of Electrons    NEL             ....  102
 Basis Dimension        Dim             ....  149

ORBITAL ENERGIES
----------------

  NO   OCC          E(Eh)            E(eV)
   0   2.0000     -19.145156      -520.9662
   1   2.0000     -19.144240      -520.9412
   2   2.0000     -19.142491      -520.8937
   3   2.0000     -19.132972      -520.6346
   4   2.0000     -10.282411      -279.7986
   5   2.0000     -10.233992      -278.4811
   6   2.0000     -10.233701      -278.4732
   7   2.0000     -10.232202      -278.4324
   8   2.0000     -10.231786      -278.4210
   9   2.0000     -10.226399      -278.2745
  10   2.0000     -10.189202      -277.2623
  11   2.0000     -10.188262      -277.2367
  12   2.0000     -10.186435      -277.1870
  13   2.0000      -1.055272       -28.7154
  14   2.0000      -1.035068       -28.1656
  15   2.0000      -1.002770       -27.2868
  16   2.0000      -0.996560       -27.1178
  17   2.0000      -0.789118       -21.4730
  18   2.0000      -0.778442       -21.1825
  19   2.0000      -0.767009       -20.8714
  20   2.0000      -0.732762       -19.9395
  21   2.0000      -0.676609       -18.4115
  22   2.0000      -0.603407       -16.4195
  23   2.0000      -0.602261       -16.3883
  24   2.0000      -0.597935       -16.2706
  25   2.0000      -0.576376       -15.6840
  26   2.0000      -0.521321       -14.1859
  27   2.0000      -0.518756       -14.1161
  28   2.0000      -0.496302       -13.5051
  29   2.0000      -0.492308       -13.3964
  30   2.0000      -0.469842       -12.7851
  31   2.0000      -0.458933       -12.4882
  32   2.0000      -0.455008       -12.3814
  33   2.0000      -0.439120       -11.9491
  34   2.0000      -0.425063       -11.5666
  35   2.0000      -0.412053       -11.2125
  36   2.0000      -0.403112       -10.9692
  37   2.0000      -0.391041       -10.6408
  38   2.0000      -0.376788       -10.2529
  39   2.0000      -0.367193        -9.9918
  40   2.0000      -0.360839        -9.8189
  41   2.0000      -0.358177        -9.7465
  42   2.0000      -0.355429        -9.6717
  43   2.0000      -0.331218        -9.0129
  44   2.0000      -0.316376        -8.6090
  45   2.0000      -0.311247        -8.4695
  46   2.0000      -0.301701        -8.2097
  47   2.0000      -0.275870        -7.5068
  48   2.0000      -0.261760        -7.1229
  49   2.0000      -0.257644        -7.0109
  50   2.0000      -0.240163        -6.5352
  51   0.0000       0.065215         1.7746
  52   0.0000       0.073387         1.9970
  53   0.0000       0.094872         2.5816
  54   0.0000       0.099073         2.6959
  55   0.0000       0.102967         2.8019

MULLIKEN ATOMIC CHARGES
-----------------------
   0 C :    0.295648
   1 C :   -0.269690
   2 C :   -0.298141
   3 C :   -0.001884
   4 O :   -0.501516
   5 H :    0.144202
   6 H :    0.146651
   7 H :    0.144670
   8 H :    0.142969
   9 H :    0.159595
  10 H :    0.155663
  11 H :    0.143183
  12 C :   -0.036258
  13 H :    0.144650
  14 H :    0.142682
  15 O :   -0.509506
  16 C :    0.061411
  17 C :    0.095873
  18 C :   -0.297230
  19 C :   -0.031588
  20 O :   -0.528464
  21 H :    0.160415
  22 O :   -0.604219
  23 H :    0.180585
  24 H :    0.160894
  25 H :    0.145102
  26 H :    0.144466
  27 H :    0.148100
  28 H :    0.361739
Sum of atomic charges:   -0.0000000

LOEWDIN ATOMIC CHARGES
----------------------
   0 C :    0.179920
   1 C :   -0.230229
   2 C :   -0.216586
   3 C :   -0.024398
   4 O :   -0.301939
   5 H :    0.098013
   6 H :    0.114861
   7 H :    0.114762
   8 H :    0.114875
   9 H :    0.117948
  10 H :    0.110254
  11 H :    0.103305
  12 C :   -0.046329
  13 H :    0.105928
  14 H :    0.104111
  15 O :   -0.337584
  16 C :    0.009020
  17 C :    0.039820
  18 C :   -0.240782
  19 C :   -0.038555
  20 O :   -0.334114
  21 H :    0.114636
  22 O :   -0.414704
  23 H :    0.130306
  24 H :    0.126589
  25 H :    0.113658
  26 H :    0.103144
  27 H :    0.103211
  28 H :    0.280857

  Mayer bond orders larger than 0.100000
B(  0-C ,  1-C ) :   0.9302 B(  0-C ,  4-O ) :   0.9432 B(  0-C ,  5-H ) :   0.9196
B(  0-C , 15-O ) :   0.8243 B(  1-C ,  2-C ) :   0.9518 B(  1-C ,  6-H ) :   0.9337
B(  1-C ,  7-H ) :   0.9350 B(  2-C ,  3-C ) :   0.9561 B(  2-C ,  8-H ) :   0.9449
B(  2-C ,  9-H ) :   0.9444 B(  3-C ,  4-O ) :   0.8336 B(  3-C , 10-H ) :   0.9344
B(  3-C , 11-H ) :   0.9397 B( 12-C , 13-H ) :   0.9358 B( 12-C , 14-H ) :   0.9181
B( 12-C , 15-O ) :   0.8401 B( 12-C , 16-C ) :   0.8827 B( 16-C , 17-C ) :   0.9144
B( 16-C , 20-O ) :   0.8398 B( 16-C , 21-H ) :   0.9277 B( 17-C , 18-C ) :   0.9119
B( 17-C , 22-O ) :   0.8881 B( 17-C , 23-H ) :   0.9230 B( 18-C , 19-C ) :   0.9399
B( 18-C , 24-H ) :   0.9383 B( 18-C , 25-H ) :   0.9348 B( 19-C , 20-O ) :   0.8436
B( 19-C , 26-H ) :   0.9363 B( 19-C , 27-H ) :   0.9376 B( 22-O , 28-H ) :   0.7962

FINAL SINGLE POINT ENERGY      -652.862021274775

DIPOLE MOMENT
-------------
                                X             Y             Z
Electronic contribution:     -0.86088      -5.46617      -0.36551
Nuclear contribution   :      1.02703       6.90631      -0.14520
                        -----------------------------------------
Total Dipole Moment    :      0.16616       1.44013      -0.51071
                        -----------------------------------------
Magnitude (a.u.)       :      1.53701
Magnitude (Debye)      :      3.90678

Rotational constants in cm-1:     0.060954     0.011893     0.011131
Rotational constants in MHz :  1827.350170   356.533505   333.690161

                             ****ORCA TERMINATED NORMALLY****
TOTAL RUN TIME: 0 days 0 hours 20 minutes 1 seconds 690 msec
