                         Program Version 4.2.0 -  RELEASE  -
|  1> # Test redundant internal optimization
|  2> #
|  3> ! RKS B3LYP  Opt TightSCF SmallPrint
|  4>
|  5> %basis
|  6>         Basis "6-31G"
|  7> end
|  8>
|  9> %geom
| 10> Constraints
| 11> { D 4  0  15  12  90.0   C } # D for Dihedral angle
| 12> { D 0  15  12  16  195.0   C } # D for Dihedral angle
| 13> { D 0  4  3  2   C } # D for Dihedral angle
| 14> { D 4  3  2  1   C } # D for Dihedral angle
| 15> { D 3  2  1  0   C } # D for Dihedral angle
| 16> { D 2  1  0  4   C } # D for Dihedral angle
| 17> { D 1  0  4  3   C } # D for Dihedral angle
| 18> { D 16  20  19  18   C } # D for Dihedral angle
| 19> { D 20  19  18  17   C } # D for Dihedral angle
| 20> { D 19  18  17  16   C } # D for Dihedral angle
| 21> { D 18  17  16  20   C } # D for Dihedral angle
| 22> { D 17  16  20  19   C } # D for Dihedral angle
| 23> { D 15  12  16  20   C } # D for Dihedral angle
| 24> end
| 25> end
| 26>
| 27>
| 28> #%pal
| 29> #nprocs 8
| 30> #end
| 31>
| 32> * xyz 0 1
| 33> C  -21.048   26.222   46.251
| 34> C  -20.361   27.558   45.944
| 35> C  -20.329   28.222   47.341
| 36> C  -20.110   27.022   48.296
| 37> O  -20.473   25.807   47.535
| 38> H  -20.833   25.428   45.533
| 39> H  -19.344   27.382   45.576
| 40> H  -20.898   28.157   45.201
| 41> H  -19.543   28.978   47.434
| 42> H  -21.289   28.710   47.548
| 43> H  -20.733   27.082   49.195
| 44> H  -19.064   26.913   48.597
| 45> C  -23.061   27.816   46.783
| 46> H  -22.434   28.185   47.604
| 47> H  -22.964   28.510   45.939
| 48> O  -22.586   26.394   46.375
| 49> C  -24.543   27.843   47.250
| 50> C  -24.737   27.029   48.534
| 51> C  -24.218   28.013   49.610
| 52> C  -24.653   29.395   49.061
| 53> O  -24.937   29.205   47.623
| 54> H  -25.184   27.539   46.421
| 55> H  -25.801   26.815   48.686
| 56> O  -23.963   25.682   48.526
| 57> H  -24.630   27.810   50.604
| 58> H  -23.126   27.951   49.681
| 59> H  -23.874   30.156   49.175
| 60> H  -25.573   29.759   49.527
| 61> H  -22.895   25.873   48.375
| 62> *
| 63>
| 64>                          ****END OF INPUT****
 Total Charge           Charge          ....    0
 Multiplicity           Mult            ....    1
 Number of Electrons    NEL             ....  102
FINAL SINGLE POINT ENERGY      -652.799043323188
FINAL SINGLE POINT ENERGY      -652.832769504776
FINAL SINGLE POINT ENERGY      -652.851717709315
FINAL SINGLE POINT ENERGY      -652.856810697180
FINAL SINGLE POINT ENERGY      -652.858477869693
FINAL SINGLE POINT ENERGY      -652.859395644312
FINAL SINGLE POINT ENERGY      -652.859778152757
FINAL SINGLE POINT ENERGY      -652.859880915981
FINAL SINGLE POINT ENERGY      -652.859902612825
FINAL SINGLE POINT ENERGY      -652.859906956609
                    ***********************HURRAY********************

CARTESIAN COORDINATES (ANGSTROEM)
---------------------------------
  C    -21.156774   26.366852   46.394886
  C    -20.220765   27.464573   45.872866
  C    -19.852558   28.225618   47.179296
  C    -19.801979   27.087682   48.229665
  O    -20.541639   25.946220   47.630023
  H    -21.176799   25.478329   45.762606
  H    -19.337149   26.984274   45.441766
  H    -20.678409   28.100819   45.110261
  H    -18.890101   28.740056   47.095825
  H    -20.604119   28.978006   47.426343
  H    -20.271063   27.352536   49.181632
  H    -18.783626   26.737964   48.418419
  C    -23.090254   27.989835   46.876961
  H    -22.526616   28.432677   47.704621
  H    -23.034038   28.658852   46.011486
  O    -22.569321   26.662137   46.536120
  C    -24.554232   27.809610   47.298280
  C    -24.786273   26.962782   48.562877
  C    -24.442931   27.981227   49.692699
  C    -24.945016   29.320958   49.116642
  O    -25.091774   29.124355   47.643633
  H    -25.132902   27.439050   46.448210
  H    -25.853965   26.721019   48.615448
  O    -24.070749   25.721482   48.661095
  H    -24.926099   27.715076   50.635925
  H    -23.360022   27.978594   49.859577
  H    -24.258624   30.155839   49.291133
  H    -25.934361   29.595477   49.492814
  H    -23.311842   25.724100   48.033892

 Multiplicity           Mult            ....    1
 Number of Electrons    NEL             ....  102
 Basis Dimension        Dim             ....  149

ORBITAL ENERGIES
----------------

  NO   OCC          E(Eh)            E(eV)
   0   2.0000     -19.164986      -521.5058
   1   2.0000     -19.153616      -521.1964
   2   2.0000     -19.141103      -520.8559
   3   2.0000     -19.109783      -520.0036
   4   2.0000     -10.292678      -280.0780
   5   2.0000     -10.241740      -278.6919
   6   2.0000     -10.239114      -278.6204
   7   2.0000     -10.234356      -278.4910
   8   2.0000     -10.229191      -278.3504
   9   2.0000     -10.227531      -278.3053
  10   2.0000     -10.204856      -277.6883
  11   2.0000     -10.203615      -277.6545
  12   2.0000     -10.179483      -276.9978
  13   2.0000      -1.066156       -29.0116
  14   2.0000      -1.026334       -27.9280
  15   2.0000      -1.009934       -27.4817
  16   2.0000      -0.990974       -26.9658
  17   2.0000      -0.800751       -21.7895
  18   2.0000      -0.780116       -21.2280
  19   2.0000      -0.768534       -20.9129
  20   2.0000      -0.738883       -20.1060
  21   2.0000      -0.685056       -18.6413
  22   2.0000      -0.616392       -16.7729
  23   2.0000      -0.602316       -16.3898
  24   2.0000      -0.596493       -16.2314
  25   2.0000      -0.578048       -15.7295
  26   2.0000      -0.525273       -14.2934
  27   2.0000      -0.521790       -14.1986
  28   2.0000      -0.514132       -13.9902
  29   2.0000      -0.486910       -13.2495
  30   2.0000      -0.477551       -12.9948
  31   2.0000      -0.462083       -12.5739
  32   2.0000      -0.441040       -12.0013
  33   2.0000      -0.436743       -11.8844
  34   2.0000      -0.431718       -11.7476
  35   2.0000      -0.425177       -11.5697
  36   2.0000      -0.412816       -11.2333
  37   2.0000      -0.393223       -10.7001
  38   2.0000      -0.389139       -10.5890
  39   2.0000      -0.373303       -10.1581
  40   2.0000      -0.368071       -10.0157
  41   2.0000      -0.361601        -9.8397
  42   2.0000      -0.348210        -9.4753
  43   2.0000      -0.339443        -9.2367
  44   2.0000      -0.324799        -8.8382
  45   2.0000      -0.312872        -8.5137
  46   2.0000      -0.297733        -8.1017
  47   2.0000      -0.277124        -7.5409
  48   2.0000      -0.267044        -7.2666
  49   2.0000      -0.249495        -6.7891
  50   2.0000      -0.239124        -6.5069
  51   0.0000       0.050019         1.3611
  52   0.0000       0.065517         1.7828
  53   0.0000       0.086581         2.3560
  54   0.0000       0.094559         2.5731
  55   0.0000       0.102939         2.8011

MULLIKEN ATOMIC CHARGES
-----------------------
   0 C :    0.305748
   1 C :   -0.289020
   2 C :   -0.315530
   3 C :   -0.012916
   4 O :   -0.499559
   5 H :    0.175132
   6 H :    0.164501
   7 H :    0.154645
   8 H :    0.150863
   9 H :    0.152665
  10 H :    0.150958
  11 H :    0.154268
  12 C :   -0.018661
  13 H :    0.137795
  14 H :    0.156745
  15 O :   -0.552728
  16 C :    0.055323
  17 C :    0.119719
  18 C :   -0.302852
  19 C :   -0.019266
  20 O :   -0.522825
  21 H :    0.164190
  22 H :    0.149728
  23 O :   -0.632211
  24 H :    0.152102
  25 H :    0.139643
  26 H :    0.137358
  27 H :    0.149973
  28 H :    0.394211
Sum of atomic charges:    0.0000000

LOEWDIN ATOMIC CHARGES
----------------------
   0 C :    0.173708
   1 C :   -0.226482
   2 C :   -0.223299
   3 C :   -0.032286
   4 O :   -0.317801
   5 H :    0.116378
   6 H :    0.127223
   7 H :    0.120830
   8 H :    0.118771
   9 H :    0.110944
  10 H :    0.105899
  11 H :    0.108810
  12 C :   -0.046242
  13 H :    0.095475
  14 H :    0.109442
  15 O :   -0.328387
  16 C :    0.020934
  17 C :    0.042434
  18 C :   -0.238343
  19 C :   -0.033338
  20 O :   -0.324751
  21 H :    0.117599
  22 H :    0.106765
  23 O :   -0.427355
  24 H :    0.122078
  25 H :    0.107317
  26 H :    0.099206
  27 H :    0.106692
  28 H :    0.287779

  Mayer bond orders larger than 0.100000
B(  0-C ,  1-C ) :   0.9298 B(  0-C ,  4-O ) :   0.9116 B(  0-C ,  5-H ) :   0.9325
B(  0-C , 15-O ) :   0.8552 B(  1-C ,  2-C ) :   0.9519 B(  1-C ,  6-H ) :   0.9340
B(  1-C ,  7-H ) :   0.9342 B(  2-C ,  3-C ) :   0.9463 B(  2-C ,  8-H ) :   0.9442
B(  2-C ,  9-H ) :   0.9386 B(  3-C ,  4-O ) :   0.8382 B(  3-C , 10-H ) :   0.9333
B(  3-C , 11-H ) :   0.9386 B( 12-C , 13-H ) :   0.9075 B( 12-C , 14-H ) :   0.9241
B( 12-C , 15-O ) :   0.7912 B( 12-C , 16-C ) :   0.9066 B( 16-C , 17-C ) :   0.9097
B( 16-C , 20-O ) :   0.8532 B( 16-C , 21-H ) :   0.9281 B( 17-C , 18-C ) :   0.8982
B( 17-C , 22-H ) :   0.9298 B( 17-C , 23-O ) :   0.9448 B( 18-C , 19-C ) :   0.9385
B( 18-C , 24-H ) :   0.9448 B( 18-C , 25-H ) :   0.9435 B( 19-C , 20-O ) :   0.8314
B( 19-C , 26-H ) :   0.9346 B( 19-C , 27-H ) :   0.9386 B( 23-O , 28-H ) :   0.7253

FINAL SINGLE POINT ENERGY      -652.859909181927

DIPOLE MOMENT
-------------
                                X             Y             Z
Electronic contribution:     -3.55151      -4.40098      -1.89861
Nuclear contribution   :      4.86250       5.68938       1.63005
                        -----------------------------------------
Total Dipole Moment    :      1.31099       1.28840      -0.26855
                        -----------------------------------------
Magnitude (a.u.)       :      1.85763
Magnitude (Debye)      :      4.72173

Rotational constants in cm-1:     0.046084     0.015994     0.015240
Rotational constants in MHz :  1381.558492   479.502654   456.882422

                             ****ORCA TERMINATED NORMALLY****
TOTAL RUN TIME: 0 days 1 hours 14 minutes 5 seconds 381 msec
