                         Program Version 4.2.0 -  RELEASE  -
|  1> # Test redundant internal optimization
|  2> #
|  3> ! RKS B3LYP  Opt TightSCF SmallPrint
|  4>
|  5> %basis
|  6>         Basis "6-31G"
|  7> end
|  8>
|  9> %geom
| 10> Constraints
| 11> { D 4  0  15  12  330.0   C } # D for Dihedral angle
| 12> { D 0  15  12  16  195.0   C } # D for Dihedral angle
| 13> { D 0  4  3  2   C } # D for Dihedral angle
| 14> { D 4  3  2  1   C } # D for Dihedral angle
| 15> { D 3  2  1  0   C } # D for Dihedral angle
| 16> { D 2  1  0  4   C } # D for Dihedral angle
| 17> { D 1  0  4  3   C } # D for Dihedral angle
| 18> { D 16  20  19  18   C } # D for Dihedral angle
| 19> { D 20  19  18  17   C } # D for Dihedral angle
| 20> { D 19  18  17  16   C } # D for Dihedral angle
| 21> { D 18  17  16  20   C } # D for Dihedral angle
| 22> { D 17  16  20  19   C } # D for Dihedral angle
| 23> { D 15  12  16  20   C } # D for Dihedral angle
| 24> end
| 25> end
| 26>
| 27>
| 28> #%pal
| 29> #nprocs 8
| 30> #end
| 31>
| 32> * xyz 0 1
| 33> C  -21.048   26.222   46.251
| 34> C  -20.361   27.558   45.944
| 35> C  -20.329   28.222   47.341
| 36> C  -20.110   27.022   48.296
| 37> O  -20.473   25.807   47.535
| 38> H  -20.833   25.428   45.533
| 39> H  -19.344   27.382   45.576
| 40> H  -20.898   28.157   45.201
| 41> H  -19.543   28.978   47.434
| 42> H  -21.289   28.710   47.548
| 43> H  -20.733   27.082   49.195
| 44> H  -19.064   26.913   48.597
| 45> C  -23.271   25.476   47.424
| 46> H  -22.873   24.458   47.329
| 47> H  -23.062   25.832   48.441
| 48> O  -22.586   26.394   46.375
| 49> C  -24.814   25.415   47.253
| 50> C  -25.466   24.595   48.371
| 51> C  -25.481   25.612   49.537
| 52> C  -25.731   26.963   48.822
| 53> O  -25.399   26.752   47.397
| 54> H  -25.049   25.070   46.244
| 55> H  -26.488   24.316   48.088
| 56> O  -24.683   23.298   48.714
| 57> H  -26.248   25.388   50.286
| 58> H  -24.509   25.618   50.045
| 59> H  -25.106   27.770   49.220
| 60> H  -26.780   27.272   48.867
| 61> H  -23.657   23.552   49.002
| 62> *
| 63>
| 64>                          ****END OF INPUT****
 Total Charge           Charge          ....    0
 Multiplicity           Mult            ....    1
 Number of Electrons    NEL             ....  102
FINAL SINGLE POINT ENERGY      -652.829520543604
FINAL SINGLE POINT ENERGY      -652.853607735356
FINAL SINGLE POINT ENERGY      -652.858086609652
FINAL SINGLE POINT ENERGY      -652.858816952182
FINAL SINGLE POINT ENERGY      -652.858941388779
FINAL SINGLE POINT ENERGY      -652.858969205845
FINAL SINGLE POINT ENERGY      -652.858973004427
                    ***********************HURRAY********************

CARTESIAN COORDINATES (ANGSTROEM)
---------------------------------
  C    -21.096013   26.188035   46.295490
  C    -20.534265   27.567443   45.952862
  C    -20.410830   28.210988   47.350428
  C    -20.021755   27.023852   48.258119
  O    -20.383512   25.795768   47.494876
  H    -20.898373   25.396700   45.564894
  H    -19.553412   27.450916   45.477907
  H    -21.194676   28.121606   45.282643
  H    -19.668475   29.014693   47.379796
  H    -21.379059   28.624434   47.647622
  H    -20.556524   27.016478   49.212164
  H    -18.946173   26.964754   48.448744
  C    -23.119785   25.453589   47.499355
  H    -22.750457   24.423306   47.398818
  H    -22.851923   25.815377   48.500774
  O    -22.526757   26.313481   46.490205
  C    -24.629978   25.464405   47.284995
  C    -25.404177   24.626683   48.317052
  C    -25.526918   25.623242   49.510047
  C    -25.686798   26.985042   48.799655
  O    -25.212152   26.798330   47.404870
  H    -24.830585   25.144720   46.258711
  H    -26.392307   24.386897   47.919323
  O    -24.825248   23.341806   48.646206
  H    -26.368041   25.381451   50.165286
  H    -24.608503   25.588093   50.110956
  H    -25.105054   27.783298   49.270982
  H    -26.732842   27.300486   48.741627
  H    -24.013408   23.456125   49.181593

 Multiplicity           Mult            ....    1
 Number of Electrons    NEL             ....  102
 Basis Dimension        Dim             ....  149

ORBITAL ENERGIES
----------------

  NO   OCC          E(Eh)            E(eV)
   0   2.0000     -19.147906      -521.0410
   1   2.0000     -19.146206      -520.9948
   2   2.0000     -19.137753      -520.7647
   3   2.0000     -19.134043      -520.6638
   4   2.0000     -10.276518      -279.6383
   5   2.0000     -10.242862      -278.7224
   6   2.0000     -10.229835      -278.3680
   7   2.0000     -10.228166      -278.3225
   8   2.0000     -10.227315      -278.2994
   9   2.0000     -10.226338      -278.2728
  10   2.0000     -10.193533      -277.3801
  11   2.0000     -10.186277      -277.1827
  12   2.0000     -10.183489      -277.1068
  13   2.0000      -1.054256       -28.6878
  14   2.0000      -1.031456       -28.0673
  15   2.0000      -1.013168       -27.5697
  16   2.0000      -0.990764       -26.9601
  17   2.0000      -0.789837       -21.4926
  18   2.0000      -0.779961       -21.2238
  19   2.0000      -0.766208       -20.8496
  20   2.0000      -0.730606       -19.8808
  21   2.0000      -0.677059       -18.4237
  22   2.0000      -0.609208       -16.5774
  23   2.0000      -0.601092       -16.3565
  24   2.0000      -0.589843       -16.0504
  25   2.0000      -0.570703       -15.5296
  26   2.0000      -0.529890       -14.4190
  27   2.0000      -0.507779       -13.8174
  28   2.0000      -0.495755       -13.4902
  29   2.0000      -0.493732       -13.4351
  30   2.0000      -0.470474       -12.8022
  31   2.0000      -0.454093       -12.3565
  32   2.0000      -0.447082       -12.1657
  33   2.0000      -0.431269       -11.7354
  34   2.0000      -0.425369       -11.5749
  35   2.0000      -0.411153       -11.1881
  36   2.0000      -0.404429       -11.0051
  37   2.0000      -0.401179       -10.9166
  38   2.0000      -0.376887       -10.2556
  39   2.0000      -0.366343        -9.9687
  40   2.0000      -0.359116        -9.7720
  41   2.0000      -0.353827        -9.6281
  42   2.0000      -0.347257        -9.4493
  43   2.0000      -0.339015        -9.2251
  44   2.0000      -0.322870        -8.7857
  45   2.0000      -0.311524        -8.4770
  46   2.0000      -0.300974        -8.1899
  47   2.0000      -0.269371        -7.3300
  48   2.0000      -0.260391        -7.0856
  49   2.0000      -0.252747        -6.8776
  50   2.0000      -0.239003        -6.5036
  51   0.0000       0.052759         1.4356
  52   0.0000       0.070680         1.9233
  53   0.0000       0.090529         2.4634
  54   0.0000       0.097455         2.6519
  55   0.0000       0.105241         2.8637

MULLIKEN ATOMIC CHARGES
-----------------------
   0 C :    0.294093
   1 C :   -0.259518
   2 C :   -0.302102
   3 C :   -0.013366
   4 O :   -0.516944
   5 H :    0.148899
   6 H :    0.143056
   7 H :    0.167014
   8 H :    0.143369
   9 H :    0.164679
  10 H :    0.139082
  11 H :    0.148208
  12 C :    0.004837
  13 H :    0.140095
  14 H :    0.120674
  15 O :   -0.525478
  16 C :    0.093200
  17 C :    0.081843
  18 C :   -0.319918
  19 C :   -0.010456
  20 O :   -0.506057
  21 H :    0.160720
  22 H :    0.167601
  23 O :   -0.599770
  24 H :    0.157296
  25 H :    0.131634
  26 H :    0.141782
  27 H :    0.147671
  28 H :    0.357856
Sum of atomic charges:    0.0000000

LOEWDIN ATOMIC CHARGES
----------------------
   0 C :    0.177568
   1 C :   -0.215065
   2 C :   -0.217542
   3 C :   -0.031365
   4 O :   -0.328417
   5 H :    0.098219
   6 H :    0.113037
   7 H :    0.129356
   8 H :    0.115092
   9 H :    0.120246
  10 H :    0.099812
  11 H :    0.105293
  12 C :   -0.046745
  13 H :    0.103045
  14 H :    0.088970
  15 O :   -0.324322
  16 C :    0.021586
  17 C :    0.034894
  18 C :   -0.241493
  19 C :   -0.030562
  20 O :   -0.314339
  21 H :    0.119058
  22 H :    0.119661
  23 O :   -0.406744
  24 H :    0.122172
  25 H :    0.103135
  26 H :    0.101416
  27 H :    0.105187
  28 H :    0.278847

  Mayer bond orders larger than 0.100000
B(  0-C ,  1-C ) :   0.9468 B(  0-C ,  4-O ) :   0.8940 B(  0-C ,  5-H ) :   0.9217
B(  0-C , 15-O ) :   0.8547 B(  1-C ,  2-C ) :   0.9535 B(  1-C ,  6-H ) :   0.9378
B(  1-C ,  7-H ) :   0.9343 B(  2-C ,  3-C ) :   0.9555 B(  2-C ,  8-H ) :   0.9447
B(  2-C ,  9-H ) :   0.9438 B(  3-C ,  4-O ) :   0.8345 B(  3-C , 10-H ) :   0.9345
B(  3-C , 11-H ) :   0.9403 B( 12-C , 13-H ) :   0.9048 B( 12-C , 14-H ) :   0.9203
B( 12-C , 15-O ) :   0.8304 B( 12-C , 16-C ) :   0.9045 B( 16-C , 17-C ) :   0.8736
B( 16-C , 20-O ) :   0.8669 B( 16-C , 21-H ) :   0.9297 B( 17-C , 18-C ) :   0.9216
B( 17-C , 22-H ) :   0.9341 B( 17-C , 23-O ) :   0.8989 B( 18-C , 19-C ) :   0.9386
B( 18-C , 24-H ) :   0.9418 B( 18-C , 25-H ) :   0.9413 B( 19-C , 20-O ) :   0.8538
B( 19-C , 26-H ) :   0.9316 B( 19-C , 27-H ) :   0.9377 B( 23-O , 28-H ) :   0.7967

FINAL SINGLE POINT ENERGY      -652.858973720298

DIPOLE MOMENT
-------------
                                X             Y             Z
Electronic contribution:     -1.98007      -3.61161      -2.94022
Nuclear contribution   :      2.49598       4.22660       3.88060
                        -----------------------------------------
Total Dipole Moment    :      0.51591       0.61499       0.94038
                        -----------------------------------------
Magnitude (a.u.)       :      1.23640
Magnitude (Debye)      :      3.14268

Rotational constants in cm-1:     0.049065     0.013816     0.012919
Rotational constants in MHz :  1470.939812   414.188447   387.302318

                             ****ORCA TERMINATED NORMALLY****
TOTAL RUN TIME: 0 days 1 hours 15 minutes 31 seconds 468 msec
