                         Program Version 4.2.0 -  RELEASE  -
|  1> # Test redundant internal optimization
|  2> #
|  3> ! RKS B3LYP  Opt TightSCF SmallPrint
|  4>
|  5> %basis
|  6>         Basis "6-31G"
|  7> end
|  8>
|  9> %geom
| 10> Constraints
| 11> { D 4  0  15  12  15.0   C } # D for Dihedral angle
| 12> { D 0  15  12  16  285.0   C } # D for Dihedral angle
| 13> { D 0  4  3  2   C } # D for Dihedral angle
| 14> { D 4  3  2  1   C } # D for Dihedral angle
| 15> { D 3  2  1  0   C } # D for Dihedral angle
| 16> { D 2  1  0  4   C } # D for Dihedral angle
| 17> { D 1  0  4  3   C } # D for Dihedral angle
| 18> { D 16  20  19  18   C } # D for Dihedral angle
| 19> { D 20  19  18  17   C } # D for Dihedral angle
| 20> { D 19  18  17  16   C } # D for Dihedral angle
| 21> { D 18  17  16  20   C } # D for Dihedral angle
| 22> { D 17  16  20  19   C } # D for Dihedral angle
| 23> { D 15  12  16  20   C } # D for Dihedral angle
| 24> end
| 25> end
| 26>
| 27>
| 28> #%pal
| 29> #nprocs 8
| 30> #end
| 31>
| 32> * xyz 0 1
| 33> C  -21.048   26.222   46.251
| 34> C  -20.361   27.558   45.944
| 35> C  -20.329   28.222   47.341
| 36> C  -20.110   27.022   48.296
| 37> O  -20.473   25.807   47.535
| 38> H  -20.833   25.428   45.533
| 39> H  -19.344   27.382   45.576
| 40> H  -20.898   28.157   45.201
| 41> H  -19.543   28.978   47.434
| 42> H  -21.289   28.710   47.548
| 43> H  -20.733   27.082   49.195
| 44> H  -19.064   26.913   48.597
| 45> C  -23.128   26.462   47.829
| 46> H  -22.497   27.138   48.419
| 47> H  -24.153   26.854   47.839
| 48> O  -22.586   26.394   46.375
| 49> C  -23.145   25.075   48.529
| 50> C  -23.792   25.160   49.916
| 51> C  -25.297   25.172   49.561
| 52> C  -25.374   24.241   48.324
| 53> O  -23.999   24.139   47.790
| 54> H  -22.136   24.659   48.525
| 55> O  -23.435   23.898   50.749
| 56> H  -23.482   26.046   50.482
| 57> H  -25.931   24.825   50.384
| 58> H  -25.615   26.188   49.299
| 59> H  -26.033   24.636   47.543
| 60> H  -25.696   23.229   48.583
| 61> H  -23.736   22.998   50.202
| 62> *
| 63>
| 64>                          ****END OF INPUT****
 Total Charge           Charge          ....    0
 Multiplicity           Mult            ....    1
 Number of Electrons    NEL             ....  102
FINAL SINGLE POINT ENERGY      -652.826402548673
FINAL SINGLE POINT ENERGY      -652.849765293180
FINAL SINGLE POINT ENERGY      -652.854527031491
FINAL SINGLE POINT ENERGY      -652.856961998868
FINAL SINGLE POINT ENERGY      -652.857196886467
FINAL SINGLE POINT ENERGY      -652.857244763527
FINAL SINGLE POINT ENERGY      -652.857248878838
                    ***********************HURRAY********************

CARTESIAN COORDINATES (ANGSTROEM)
---------------------------------
  C    -21.108922   26.254116   46.364757
  C    -20.434990   27.570024   45.964263
  C    -20.198172   28.239260   47.342538
  C    -19.885485   27.036737   48.263704
  O    -20.388376   25.833064   47.546018
  H    -20.993629   25.454216   45.631454
  H    -19.483641   27.350881   45.466008
  H    -21.062206   28.162500   45.295209
  H    -19.379897   28.965627   47.324412
  H    -21.103640   28.762462   47.668190
  H    -20.373263   27.095341   49.241056
  H    -18.812258   26.885364   48.410585
  C    -23.147280   26.458291   47.851928
  H    -22.629689   27.175834   48.504793
  H    -24.154275   26.839372   47.659572
  O    -22.547066   26.402696   46.531981
  C    -23.212491   25.095643   48.554921
  C    -23.911283   25.155010   49.921784
  C    -25.408605   25.105529   49.515836
  C    -25.401242   24.171141   48.279388
  O    -24.003309   24.125776   47.792361
  H    -22.203862   24.686102   48.631645
  O    -23.542680   24.013475   50.745226
  H    -23.655854   26.033648   50.516703
  H    -26.018840   24.723354   50.338030
  H    -25.766676   26.108989   49.258165
  H    -26.049343   24.529838   47.473388
  H    -25.691069   23.145416   48.528383
  H    -23.491957   23.215295   50.177699

 Multiplicity           Mult            ....    1
 Number of Electrons    NEL             ....  102
 Basis Dimension        Dim             ....  149

ORBITAL ENERGIES
----------------

  NO   OCC          E(Eh)            E(eV)
   0   2.0000     -19.152514      -521.1664
   1   2.0000     -19.136937      -520.7425
   2   2.0000     -19.134958      -520.6887
   3   2.0000     -19.134602      -520.6790
   4   2.0000     -10.278464      -279.6912
   5   2.0000     -10.239016      -278.6178
   6   2.0000     -10.235273      -278.5159
   7   2.0000     -10.232243      -278.4335
   8   2.0000     -10.225517      -278.2505
   9   2.0000     -10.223655      -278.1998
  10   2.0000     -10.194657      -277.4107
  11   2.0000     -10.187054      -277.2038
  12   2.0000     -10.186351      -277.1847
  13   2.0000      -1.055247       -28.7147
  14   2.0000      -1.030980       -28.0544
  15   2.0000      -1.001989       -27.2655
  16   2.0000      -0.991920       -26.9915
  17   2.0000      -0.792495       -21.5649
  18   2.0000      -0.780368       -21.2349
  19   2.0000      -0.764902       -20.8140
  20   2.0000      -0.734897       -19.9976
  21   2.0000      -0.673334       -18.3223
  22   2.0000      -0.605973       -16.4894
  23   2.0000      -0.602599       -16.3975
  24   2.0000      -0.598412       -16.2836
  25   2.0000      -0.570443       -15.5226
  26   2.0000      -0.519128       -14.1262
  27   2.0000      -0.515108       -14.0168
  28   2.0000      -0.500893       -13.6300
  29   2.0000      -0.488224       -13.2853
  30   2.0000      -0.470675       -12.8077
  31   2.0000      -0.461604       -12.5609
  32   2.0000      -0.446501       -12.1499
  33   2.0000      -0.441193       -12.0055
  34   2.0000      -0.419729       -11.4214
  35   2.0000      -0.412880       -11.2350
  36   2.0000      -0.399320       -10.8660
  37   2.0000      -0.388834       -10.5807
  38   2.0000      -0.376837       -10.2543
  39   2.0000      -0.370034       -10.0691
  40   2.0000      -0.362864        -9.8740
  41   2.0000      -0.359304        -9.7772
  42   2.0000      -0.352072        -9.5804
  43   2.0000      -0.334197        -9.0940
  44   2.0000      -0.323120        -8.7925
  45   2.0000      -0.313746        -8.5375
  46   2.0000      -0.298108        -8.1119
  47   2.0000      -0.267013        -7.2658
  48   2.0000      -0.263089        -7.1590
  49   2.0000      -0.257478        -7.0063
  50   2.0000      -0.231083        -6.2881
  51   0.0000       0.063786         1.7357
  52   0.0000       0.076898         2.0925
  53   0.0000       0.087975         2.3939
  54   0.0000       0.095459         2.5976
  55   0.0000       0.101423         2.7599

MULLIKEN ATOMIC CHARGES
-----------------------
   0 C :    0.298734
   1 C :   -0.257075
   2 C :   -0.313386
   3 C :   -0.018396
   4 O :   -0.512658
   5 H :    0.167930
   6 H :    0.146612
   7 H :    0.160273
   8 H :    0.149590
   9 H :    0.152536
  10 H :    0.144367
  11 H :    0.154097
  12 C :   -0.007186
  13 H :    0.117156
  14 H :    0.151394
  15 O :   -0.521491
  16 C :    0.050396
  17 C :    0.076363
  18 C :   -0.294529
  19 C :   -0.029546
  20 O :   -0.512413
  21 H :    0.195763
  22 O :   -0.604202
  23 H :    0.143622
  24 H :    0.162905
  25 H :    0.138548
  26 H :    0.148368
  27 H :    0.145138
  28 H :    0.367086
Sum of atomic charges:   -0.0000000

LOEWDIN ATOMIC CHARGES
----------------------
   0 C :    0.181759
   1 C :   -0.221714
   2 C :   -0.221589
   3 C :   -0.034607
   4 O :   -0.318769
   5 H :    0.112300
   6 H :    0.115124
   7 H :    0.125379
   8 H :    0.118312
   9 H :    0.111617
  10 H :    0.100964
  11 H :    0.108532
  12 C :   -0.038704
  13 H :    0.089497
  14 H :    0.113048
  15 O :   -0.324267
  16 C :   -0.000252
  17 C :    0.034143
  18 C :   -0.241568
  19 C :   -0.039263
  20 O :   -0.323028
  21 H :    0.130443
  22 O :   -0.416279
  23 H :    0.110814
  24 H :    0.126495
  25 H :    0.109998
  26 H :    0.104818
  27 H :    0.102150
  28 H :    0.284647

  Mayer bond orders larger than 0.100000
B(  0-C ,  1-C ) :   0.9247 B(  0-C ,  4-O ) :   0.8954 B(  0-C ,  5-H ) :   0.9314
B(  0-C , 15-O ) :   0.8590 B(  1-C ,  2-C ) :   0.9522 B(  1-C ,  6-H ) :   0.9350
B(  1-C ,  7-H ) :   0.9367 B(  2-C ,  3-C ) :   0.9508 B(  2-C ,  8-H ) :   0.9446
B(  2-C ,  9-H ) :   0.9440 B(  3-C ,  4-O ) :   0.8312 B(  3-C , 10-H ) :   0.9310
B(  3-C , 11-H ) :   0.9391 B( 12-C , 13-H ) :   0.9064 B( 12-C , 14-H ) :   0.9396
B( 12-C , 15-O ) :   0.8587 B( 12-C , 16-C ) :   0.8757 B( 16-C , 17-C ) :   0.8994
B( 16-C , 20-O ) :   0.8539 B( 16-C , 21-H ) :   0.9065 B( 17-C , 18-C ) :   0.9090
B( 17-C , 22-O ) :   0.8928 B( 17-C , 23-H ) :   0.9338 B( 18-C , 19-C ) :   0.9415
B( 18-C , 24-H ) :   0.9373 B( 18-C , 25-H ) :   0.9347 B( 19-C , 20-O ) :   0.8526
B( 19-C , 26-H ) :   0.9337 B( 19-C , 27-H ) :   0.9377 B( 22-O , 28-H ) :   0.7929

FINAL SINGLE POINT ENERGY      -652.857250057656

DIPOLE MOMENT
-------------
                                X             Y             Z
Electronic contribution:     -0.02309      -5.02457      -0.92561
Nuclear contribution   :      0.06396       6.23323       0.98609
                        -----------------------------------------
Total Dipole Moment    :      0.04087       1.20866       0.06048
                        -----------------------------------------
Magnitude (a.u.)       :      1.21086
Magnitude (Debye)      :      3.07776

Rotational constants in cm-1:     0.055759     0.014405     0.013135
Rotational constants in MHz :  1671.610522   431.846580   393.763233

                             ****ORCA TERMINATED NORMALLY****
TOTAL RUN TIME: 0 days 0 hours 22 minutes 10 seconds 652 msec
