                         Program Version 4.2.0 -  RELEASE  -
|  1> # Test redundant internal optimization
|  2> #
|  3> ! RKS B3LYP  Opt TightSCF SmallPrint
|  4>
|  5> %basis
|  6>         Basis "6-31G"
|  7> end
|  8>
|  9> %geom
| 10> Constraints
| 11> { D 4  0  15  12  180.0   C } # D for Dihedral angle
| 12> { D 0  15  12  16  180.0   C } # D for Dihedral angle
| 13> { D 0  4  3  2   C } # D for Dihedral angle
| 14> { D 4  3  2  1   C } # D for Dihedral angle
| 15> { D 3  2  1  0   C } # D for Dihedral angle
| 16> { D 2  1  0  4   C } # D for Dihedral angle
| 17> { D 1  0  4  3   C } # D for Dihedral angle
| 18> { D 16  20  19  18   C } # D for Dihedral angle
| 19> { D 20  19  18  17   C } # D for Dihedral angle
| 20> { D 19  18  17  16   C } # D for Dihedral angle
| 21> { D 18  17  16  20   C } # D for Dihedral angle
| 22> { D 17  16  20  19   C } # D for Dihedral angle
| 23> { D 15  12  16  20   C } # D for Dihedral angle
| 24> end
| 25> end
| 26>
| 27>
| 28> #%pal
| 29> #nprocs 8
| 30> #end
| 31>
| 32> * xyz 0 1
| 33> C  -21.048   26.222   46.251
| 34> C  -20.361   27.558   45.944
| 35> C  -20.329   28.222   47.341
| 36> C  -20.110   27.022   48.296
| 37> O  -20.473   25.807   47.535
| 38> H  -20.833   25.428   45.533
| 39> H  -19.344   27.382   45.576
| 40> H  -20.898   28.157   45.201
| 41> H  -19.543   28.978   47.434
| 42> H  -21.289   28.710   47.548
| 43> H  -20.733   27.082   49.195
| 44> H  -19.064   26.913   48.597
| 45> C  -23.309   26.834   45.072
| 46> H  -22.903   27.797   44.741
| 47> H  -23.142   26.099   44.274
| 48> O  -22.586   26.394   46.375
| 49> C  -24.843   26.988   45.260
| 50> C  -25.470   25.702   45.810
| 51> C  -25.121   25.802   47.314
| 52> C  -25.209   27.323   47.595
| 53> O  -25.136   27.999   46.282
| 54> H  -25.284   27.342   44.325
| 55> O  -27.008   25.727   45.602
| 56> H  -25.073   24.795   45.341
| 57> H  -25.799   25.220   47.947
| 58> H  -24.102   25.436   47.490
| 59> H  -24.392   27.681   48.230
| 60> H  -26.162   27.608   48.051
| 61> H  -27.428   26.628   46.063
| 62> *
| 63>
| 64>                          ****END OF INPUT****
 Total Charge           Charge          ....    0
 Multiplicity           Mult            ....    1
 Number of Electrons    NEL             ....  102
FINAL SINGLE POINT ENERGY      -652.834876922482
FINAL SINGLE POINT ENERGY      -652.857500432885
FINAL SINGLE POINT ENERGY      -652.861791127442
FINAL SINGLE POINT ENERGY      -652.862738662032
FINAL SINGLE POINT ENERGY      -652.862864482257
FINAL SINGLE POINT ENERGY      -652.862883013119
                    ***********************HURRAY********************

CARTESIAN COORDINATES (ANGSTROEM)
---------------------------------
  C    -21.090079   26.249589   46.169888
  C    -20.351661   27.558695   45.897804
  C    -20.398839   28.249116   47.283601
  C    -20.279140   27.062162   48.260687
  O    -20.627075   25.853157   47.466692
  H    -20.873271   25.433990   45.471355
  H    -19.319472   27.326808   45.610368
  H    -20.794116   28.165878   45.104358
  H    -19.595451   28.980184   47.414080
  H    -21.357570   28.761200   47.408608
  H    -20.963535   27.128833   49.109802
  H    -19.259486   26.910796   48.626206
  C    -23.236420   26.834464   45.073487
  H    -22.869790   27.807923   44.724120
  H    -23.084054   26.097745   44.267284
  O    -22.534352   26.427808   46.276960
  C    -24.728830   26.972113   45.366610
  C    -25.455249   25.715338   45.867522
  C    -25.146234   25.756037   47.387988
  C    -25.144929   27.271974   47.702502
  O    -24.987316   27.971397   46.403159
  H    -25.208433   27.337730   44.450829
  O    -26.880589   25.804120   45.582783
  H    -25.124841   24.795351   45.384716
  H    -25.904228   25.204771   47.951476
  H    -24.160652   25.326802   47.571426
  H    -24.316899   27.558122   48.355995
  H    -26.086357   27.621050   48.140643
  H    -27.213131   26.672846   45.892050

 Multiplicity           Mult            ....    1
 Number of Electrons    NEL             ....  102
 Basis Dimension        Dim             ....  149

ORBITAL ENERGIES
----------------

  NO   OCC          E(Eh)            E(eV)
   0   2.0000     -19.147982      -521.0431
   1   2.0000     -19.145492      -520.9753
   2   2.0000     -19.136661      -520.7350
   3   2.0000     -19.132424      -520.6197
   4   2.0000     -10.285617      -279.8859
   5   2.0000     -10.236339      -278.5449
   6   2.0000     -10.233769      -278.4750
   7   2.0000     -10.233548      -278.4690
   8   2.0000     -10.229059      -278.3468
   9   2.0000     -10.220107      -278.1032
  10   2.0000     -10.191983      -277.3380
  11   2.0000     -10.189897      -277.2812
  12   2.0000     -10.170661      -276.7578
  13   2.0000      -1.059946       -28.8426
  14   2.0000      -1.030727       -28.0475
  15   2.0000      -1.003574       -27.3086
  16   2.0000      -0.995173       -27.0800
  17   2.0000      -0.790865       -21.5205
  18   2.0000      -0.776858       -21.1394
  19   2.0000      -0.761559       -20.7231
  20   2.0000      -0.734669       -19.9914
  21   2.0000      -0.675873       -18.3914
  22   2.0000      -0.605551       -16.4779
  23   2.0000      -0.598005       -16.2725
  24   2.0000      -0.593321       -16.1451
  25   2.0000      -0.574055       -15.6208
  26   2.0000      -0.528864       -14.3911
  27   2.0000      -0.504224       -13.7206
  28   2.0000      -0.501468       -13.6456
  29   2.0000      -0.486293       -13.2327
  30   2.0000      -0.476623       -12.9696
  31   2.0000      -0.457316       -12.4442
  32   2.0000      -0.450270       -12.2525
  33   2.0000      -0.441008       -12.0004
  34   2.0000      -0.420119       -11.4320
  35   2.0000      -0.410931       -11.1820
  36   2.0000      -0.404825       -11.0159
  37   2.0000      -0.384481       -10.4623
  38   2.0000      -0.379412       -10.3243
  39   2.0000      -0.366822        -9.9817
  40   2.0000      -0.359836        -9.7916
  41   2.0000      -0.356027        -9.6880
  42   2.0000      -0.354425        -9.6444
  43   2.0000      -0.328083        -8.9276
  44   2.0000      -0.315756        -8.5922
  45   2.0000      -0.308048        -8.3824
  46   2.0000      -0.299859        -8.1596
  47   2.0000      -0.266175        -7.2430
  48   2.0000      -0.263355        -7.1662
  49   2.0000      -0.258968        -7.0469
  50   2.0000      -0.241498        -6.5715
  51   0.0000       0.066193         1.8012
  52   0.0000       0.079487         2.1630
  53   0.0000       0.095800         2.6068
  54   0.0000       0.102114         2.7787
  55   0.0000       0.106063         2.8861

MULLIKEN ATOMIC CHARGES
-----------------------
   0 C :    0.312732
   1 C :   -0.284148
   2 C :   -0.300110
   3 C :   -0.002700
   4 O :   -0.504352
   5 H :    0.142449
   6 H :    0.149891
   7 H :    0.147197
   8 H :    0.144306
   9 H :    0.168404
  10 H :    0.152717
  11 H :    0.144206
  12 C :    0.003042
  13 H :    0.138833
  14 H :    0.124204
  15 O :   -0.520672
  16 C :    0.066914
  17 C :    0.077146
  18 C :   -0.286423
  19 C :   -0.019460
  20 O :   -0.529921
  21 H :    0.153318
  22 O :   -0.604072
  23 H :    0.149549
  24 H :    0.145927
  25 H :    0.187806
  26 H :    0.149667
  27 H :    0.131657
  28 H :    0.361893
Sum of atomic charges:   -0.0000000

LOEWDIN ATOMIC CHARGES
----------------------
   0 C :    0.181998
   1 C :   -0.231614
   2 C :   -0.216900
   3 C :   -0.024990
   4 O :   -0.304166
   5 H :    0.097330
   6 H :    0.117174
   7 H :    0.115445
   8 H :    0.115655
   9 H :    0.121347
  10 H :    0.108428
  11 H :    0.103796
  12 C :   -0.040792
  13 H :    0.098588
  14 H :    0.092834
  15 O :   -0.332770
  16 C :    0.016522
  17 C :    0.040088
  18 C :   -0.241878
  19 C :   -0.032723
  20 O :   -0.332364
  21 H :    0.114862
  22 O :   -0.418037
  23 H :    0.115296
  24 H :    0.117443
  25 H :    0.137041
  26 H :    0.106598
  27 H :    0.094402
  28 H :    0.281387

  Mayer bond orders larger than 0.100000
B(  0-C ,  1-C ) :   0.9296 B(  0-C ,  4-O ) :   0.9405 B(  0-C ,  5-H ) :   0.9209
B(  0-C , 15-O ) :   0.8228 B(  1-C ,  2-C ) :   0.9505 B(  1-C ,  6-H ) :   0.9338
B(  1-C ,  7-H ) :   0.9300 B(  2-C ,  3-C ) :   0.9561 B(  2-C ,  8-H ) :   0.9449
B(  2-C ,  9-H ) :   0.9422 B(  3-C ,  4-O ) :   0.8322 B(  3-C , 10-H ) :   0.9347
B(  3-C , 11-H ) :   0.9397 B( 12-C , 13-H ) :   0.9077 B( 12-C , 14-H ) :   0.9081
B( 12-C , 15-O ) :   0.8439 B( 12-C , 16-C ) :   0.9088 B( 16-C , 17-C ) :   0.9080
B( 16-C , 20-O ) :   0.8759 B( 16-C , 21-H ) :   0.9231 B( 17-C , 18-C ) :   0.9248
B( 17-C , 22-O ) :   0.8889 B( 17-C , 23-H ) :   0.9368 B( 18-C , 19-C ) :   0.9450
B( 18-C , 24-H ) :   0.9374 B( 18-C , 25-H ) :   0.9145 B( 19-C , 20-O ) :   0.8359
B( 19-C , 26-H ) :   0.9343 B( 19-C , 27-H ) :   0.9380 B( 22-O , 28-H ) :   0.7967

FINAL SINGLE POINT ENERGY      -652.862883600345

DIPOLE MOMENT
-------------
                                X             Y             Z
Electronic contribution:     -3.33807      -2.28876      -1.26660
Nuclear contribution   :      4.31419       2.99433       1.12375
                        -----------------------------------------
Total Dipole Moment    :      0.97612       0.70557      -0.14284
                        -----------------------------------------
Magnitude (a.u.)       :      1.21287
Magnitude (Debye)      :      3.08286

Rotational constants in cm-1:     0.056904     0.014216     0.013814
Rotational constants in MHz :  1705.928158   426.179201   414.145428

                             ****ORCA TERMINATED NORMALLY****
TOTAL RUN TIME: 0 days 0 hours 30 minutes 34 seconds 559 msec
