                         Program Version 4.2.0 -  RELEASE  -
|  1> # Test redundant internal optimization
|  2> #
|  3> ! RKS B3LYP  Opt TightSCF SmallPrint
|  4>
|  5> %basis
|  6>         Basis "6-31G"
|  7> end
|  8>
|  9> %geom
| 10> Constraints
| 11> { D 4  0  15  12  270.0   C } # D for Dihedral angle
| 12> { D 0  15  12  16  0.0   C } # D for Dihedral angle
| 13> { D 0  4  3  2   C } # D for Dihedral angle
| 14> { D 4  3  2  1   C } # D for Dihedral angle
| 15> { D 3  2  1  0   C } # D for Dihedral angle
| 16> { D 2  1  0  4   C } # D for Dihedral angle
| 17> { D 1  0  4  3   C } # D for Dihedral angle
| 18> { D 16  20  19  18   C } # D for Dihedral angle
| 19> { D 20  19  18  17   C } # D for Dihedral angle
| 20> { D 19  18  17  16   C } # D for Dihedral angle
| 21> { D 18  17  16  20   C } # D for Dihedral angle
| 22> { D 17  16  20  19   C } # D for Dihedral angle
| 23> { D 15  12  16  20   C } # D for Dihedral angle
| 24> end
| 25> end
| 26>
| 27>
| 28> #%pal
| 29> #nprocs 8
| 30> #end
| 31>
| 32> * xyz 0 1
| 33> C  -21.048   26.222   46.251
| 34> C  -20.361   27.558   45.944
| 35> C  -20.329   28.222   47.341
| 36> C  -20.110   27.022   48.296
| 37> O  -20.473   25.807   47.535
| 38> H  -20.833   25.428   45.533
| 39> H  -19.344   27.382   45.576
| 40> H  -20.898   28.157   45.201
| 41> H  -19.543   28.978   47.434
| 42> H  -21.289   28.710   47.548
| 43> H  -20.733   27.082   49.195
| 44> H  -19.064   26.913   48.597
| 45> C  -23.420   25.119   46.072
| 46> H  -24.013   24.856   46.957
| 47> H  -24.109   25.300   45.238
| 48> O  -22.586   26.394   46.375
| 49> C  -22.535   23.898   45.698
| 50> C  -21.654   23.466   46.876
| 51> C  -22.658   22.669   47.742
| 52> C  -23.566   21.985   46.688
| 53> O  -23.371   22.724   45.423
| 54> H  -21.986   24.121   44.781
| 55> O  -20.509   22.545   46.375
| 56> H  -21.207   24.310   47.412
| 57> H  -22.168   21.946   48.402
| 58> H  -23.241   23.354   48.369
| 59> H  -24.625   22.019   46.963
| 60> H  -23.281   20.946   46.503
| 61> H  -20.933   21.690   45.834
| 62> *
| 63>
| 64>                          ****END OF INPUT****
 Total Charge           Charge          ....    0
 Multiplicity           Mult            ....    1
 Number of Electrons    NEL             ....  102
FINAL SINGLE POINT ENERGY      -652.822103798896
FINAL SINGLE POINT ENERGY      -652.844149868755
FINAL SINGLE POINT ENERGY      -652.857994384162
FINAL SINGLE POINT ENERGY      -652.860005628847
FINAL SINGLE POINT ENERGY      -652.860468687376
FINAL SINGLE POINT ENERGY      -652.860507692102
FINAL SINGLE POINT ENERGY      -652.860511964288
                    ***********************HURRAY********************

CARTESIAN COORDINATES (ANGSTROEM)
---------------------------------
  C    -20.872524   26.261414   46.245708
  C    -20.396268   27.689864   45.969915
  C    -20.526760   28.343828   47.367379
  C    -20.158428   27.187879   48.326971
  O    -20.297322   25.939673   47.537418
  H    -20.504820   25.507341   45.547518
  H    -19.349988   27.665855   45.644592
  H    -20.999893   28.179657   45.203987
  H    -19.870428   29.210164   47.490730
  H    -21.560366   28.662933   47.527405
  H    -20.816747   27.129286   49.197758
  H    -19.118363   27.230890   48.663622
  C    -23.138180   25.115813   46.043246
  H    -23.759657   24.980452   46.935673
  H    -23.801055   25.366680   45.209324
  O    -22.307980   26.297809   46.296622
  C    -22.456022   23.778195   45.708660
  C    -21.569357   23.145346   46.794000
  C    -22.630610   22.543666   47.754760
  C    -23.755069   22.084885   46.792491
  O    -23.537884   22.802662   45.511866
  H    -21.917633   23.836652   44.757694
  O    -20.725877   22.115039   46.202725
  H    -20.891678   23.836270   47.291400
  H    -22.202805   21.721016   48.333049
  H    -22.983810   23.309907   48.452507
  H    -24.757667   22.318777   47.162966
  H    -23.707366   21.013861   46.570285
  H    -21.272444   21.547186   45.618728

 Multiplicity           Mult            ....    1
 Number of Electrons    NEL             ....  102
 Basis Dimension        Dim             ....  149

ORBITAL ENERGIES
----------------

  NO   OCC          E(Eh)            E(eV)
   0   2.0000     -19.146424      -521.0007
   1   2.0000     -19.142075      -520.8823
   2   2.0000     -19.141974      -520.8796
   3   2.0000     -19.132795      -520.6298
   4   2.0000     -10.281374      -279.7704
   5   2.0000     -10.236355      -278.5454
   6   2.0000     -10.231361      -278.4095
   7   2.0000     -10.230583      -278.3883
   8   2.0000     -10.230064      -278.3742
   9   2.0000     -10.226142      -278.2675
  10   2.0000     -10.185324      -277.1567
  11   2.0000     -10.184851      -277.1439
  12   2.0000     -10.184733      -277.1407
  13   2.0000      -1.052763       -28.6471
  14   2.0000      -1.035878       -28.1877
  15   2.0000      -1.002296       -27.2739
  16   2.0000      -0.992863       -27.0172
  17   2.0000      -0.788735       -21.4626
  18   2.0000      -0.774316       -21.0702
  19   2.0000      -0.765183       -20.8217
  20   2.0000      -0.735709       -20.0197
  21   2.0000      -0.673932       -18.3386
  22   2.0000      -0.606425       -16.5017
  23   2.0000      -0.602043       -16.3824
  24   2.0000      -0.595873       -16.2145
  25   2.0000      -0.569964       -15.5095
  26   2.0000      -0.523450       -14.2438
  27   2.0000      -0.518394       -14.1062
  28   2.0000      -0.497860       -13.5475
  29   2.0000      -0.479875       -13.0581
  30   2.0000      -0.464720       -12.6457
  31   2.0000      -0.459492       -12.5034
  32   2.0000      -0.452969       -12.3259
  33   2.0000      -0.429948       -11.6995
  34   2.0000      -0.424049       -11.5390
  35   2.0000      -0.414041       -11.2666
  36   2.0000      -0.401544       -10.9266
  37   2.0000      -0.390432       -10.6242
  38   2.0000      -0.374258       -10.1841
  39   2.0000      -0.366057        -9.9609
  40   2.0000      -0.361602        -9.8397
  41   2.0000      -0.355378        -9.6703
  42   2.0000      -0.348110        -9.4726
  43   2.0000      -0.331428        -9.0186
  44   2.0000      -0.323023        -8.7899
  45   2.0000      -0.308312        -8.3896
  46   2.0000      -0.302502        -8.2315
  47   2.0000      -0.269016        -7.3203
  48   2.0000      -0.265930        -7.2363
  49   2.0000      -0.250816        -6.8250
  50   2.0000      -0.243258        -6.6194
  51   0.0000       0.064741         1.7617
  52   0.0000       0.073985         2.0132
  53   0.0000       0.095119         2.5883
  54   0.0000       0.099774         2.7150
  55   0.0000       0.104569         2.8455

MULLIKEN ATOMIC CHARGES
-----------------------
   0 C :    0.272503
   1 C :   -0.249648
   2 C :   -0.298338
   3 C :    0.002401
   4 O :   -0.516712
   5 H :    0.157115
   6 H :    0.145179
   7 H :    0.155373
   8 H :    0.139895
   9 H :    0.164231
  10 H :    0.147337
  11 H :    0.144034
  12 C :    0.019050
  13 H :    0.140472
  14 H :    0.159451
  15 O :   -0.535915
  16 C :    0.017139
  17 C :    0.056204
  18 C :   -0.301350
  19 C :   -0.032170
  20 O :   -0.527858
  21 H :    0.159026
  22 O :   -0.604456
  23 H :    0.220496
  24 H :    0.161575
  25 H :    0.153131
  26 H :    0.145442
  27 H :    0.147058
  28 H :    0.359331
Sum of atomic charges:   -0.0000000

LOEWDIN ATOMIC CHARGES
----------------------
   0 C :    0.169224
   1 C :   -0.212410
   2 C :   -0.214745
   3 C :   -0.026495
   4 O :   -0.331161
   5 H :    0.102710
   6 H :    0.113582
   7 H :    0.123496
   8 H :    0.113169
   9 H :    0.120212
  10 H :    0.105328
  11 H :    0.103317
  12 C :   -0.036888
  13 H :    0.103369
  14 H :    0.114220
  15 O :   -0.331669
  16 C :    0.001134
  17 C :    0.023484
  18 C :   -0.239589
  19 C :   -0.039720
  20 O :   -0.327473
  21 H :    0.110693
  22 O :   -0.415963
  23 H :    0.142922
  24 H :    0.126639
  25 H :    0.117459
  26 H :    0.103757
  27 H :    0.102608
  28 H :    0.278791

  Mayer bond orders larger than 0.100000
B(  0-C ,  1-C ) :   0.9478 B(  0-C ,  4-O ) :   0.8839 B(  0-C ,  5-H ) :   0.9134
B(  0-C , 15-O ) :   0.8664 B(  1-C ,  2-C ) :   0.9577 B(  1-C ,  6-H ) :   0.9400
B(  1-C ,  7-H ) :   0.9379 B(  2-C ,  3-C ) :   0.9537 B(  2-C ,  8-H ) :   0.9456
B(  2-C ,  9-H ) :   0.9434 B(  3-C ,  4-O ) :   0.8293 B(  3-C , 10-H ) :   0.9362
B(  3-C , 11-H ) :   0.9404 B( 12-C , 13-H ) :   0.9298 B( 12-C , 14-H ) :   0.9249
B( 12-C , 15-O ) :   0.8268 B( 12-C , 16-C ) :   0.8943 B( 16-C , 17-C ) :   0.9006
B( 16-C , 20-O ) :   0.8273 B( 16-C , 21-H ) :   0.9237 B( 17-C , 18-C ) :   0.9099
B( 17-C , 22-O ) :   0.8781 B( 17-C , 23-H ) :   0.8871 B( 18-C , 19-C ) :   0.9409
B( 18-C , 24-H ) :   0.9382 B( 18-C , 25-H ) :   0.9341 B( 19-C , 20-O ) :   0.8386
B( 19-C , 26-H ) :   0.9362 B( 19-C , 27-H ) :   0.9377 B( 22-O , 28-H ) :   0.7971

FINAL SINGLE POINT ENERGY      -652.860511805985

DIPOLE MOMENT
-------------
                                X             Y             Z
Electronic contribution:     -0.24318      -3.26951      -2.65180
Nuclear contribution   :      0.01301       3.79596       2.97240
                        -----------------------------------------
Total Dipole Moment    :     -0.23018       0.52646       0.32061
                        -----------------------------------------
Magnitude (a.u.)       :      0.65797
Magnitude (Debye)      :      1.67243

Rotational constants in cm-1:     0.054873     0.014617     0.013558
Rotational constants in MHz :  1645.037423   438.208143   406.466418

                             ****ORCA TERMINATED NORMALLY****
TOTAL RUN TIME: 0 days 1 hours 18 minutes 44 seconds 813 msec
