                         Program Version 4.2.0 -  RELEASE  -
|  1> # Test redundant internal optimization
|  2> #
|  3> ! RKS B3LYP  Opt TightSCF SmallPrint
|  4>
|  5> %basis
|  6>         Basis "6-31G"
|  7> end
|  8>
|  9> %geom
| 10> Constraints
| 11> { D 4  0  15  12  30.0   C } # D for Dihedral angle
| 12> { D 0  15  12  16  165.0   C } # D for Dihedral angle
| 13> { D 0  4  3  2   C } # D for Dihedral angle
| 14> { D 4  3  2  1   C } # D for Dihedral angle
| 15> { D 3  2  1  0   C } # D for Dihedral angle
| 16> { D 2  1  0  4   C } # D for Dihedral angle
| 17> { D 1  0  4  3   C } # D for Dihedral angle
| 18> { D 16  20  19  18   C } # D for Dihedral angle
| 19> { D 20  19  18  17   C } # D for Dihedral angle
| 20> { D 19  18  17  16   C } # D for Dihedral angle
| 21> { D 18  17  16  20   C } # D for Dihedral angle
| 22> { D 17  16  20  19   C } # D for Dihedral angle
| 23> { D 15  12  16  20   C } # D for Dihedral angle
| 24> end
| 25> end
| 26>
| 27>
| 28> #%pal
| 29> #nprocs 8
| 30> #end
| 31>
| 32> * xyz 0 1
| 33> C  -21.048   26.222   46.251
| 34> C  -20.361   27.558   45.944
| 35> C  -20.329   28.222   47.341
| 36> C  -20.110   27.022   48.296
| 37> O  -20.473   25.807   47.535
| 38> H  -20.833   25.428   45.533
| 39> H  -19.344   27.382   45.576
| 40> H  -20.898   28.157   45.201
| 41> H  -19.543   28.978   47.434
| 42> H  -21.289   28.710   47.548
| 43> H  -20.733   27.082   49.195
| 44> H  -19.064   26.913   48.597
| 45> C  -23.091   26.824   47.779
| 46> H  -23.035   25.967   48.462
| 47> H  -22.463   27.628   48.184
| 48> O  -22.586   26.394   46.375
| 49> C  -24.558   27.336   47.759
| 50> C  -24.735   28.481   46.754
| 51> C  -24.822   27.711   45.415
| 52> C  -25.571   26.411   45.804
| 53> O  -25.461   26.287   47.274
| 54> H  -24.867   27.578   48.778
| 55> H  -25.669   29.015   46.955
| 56> O  -23.568   29.505   46.784
| 57> H  -25.343   28.274   44.634
| 58> H  -23.815   27.481   45.046
| 59> H  -25.138   25.521   45.335
| 60> H  -26.637   26.456   45.564
| 61> H  -22.621   28.990   46.586
| 62> *
| 63>
| 64>                          ****END OF INPUT****
 Total Charge           Charge          ....    0
 Multiplicity           Mult            ....    1
 Number of Electrons    NEL             ....  102
FINAL SINGLE POINT ENERGY      -652.820585987657
FINAL SINGLE POINT ENERGY      -652.845912389569
FINAL SINGLE POINT ENERGY      -652.854138107194
FINAL SINGLE POINT ENERGY      -652.856901850443
FINAL SINGLE POINT ENERGY      -652.857390316961
FINAL SINGLE POINT ENERGY      -652.857475000498
FINAL SINGLE POINT ENERGY      -652.857479900435
                    ***********************HURRAY********************

CARTESIAN COORDINATES (ANGSTROEM)
---------------------------------
  C    -21.114715   26.250621   46.431022
  C    -20.369829   27.517577   45.992072
  C    -20.123980   28.235012   47.349636
  C    -19.886732   27.053169   48.319914
  O    -20.435340   25.849376   47.639021
  H    -21.009789   25.424305   45.725602
  H    -19.420024   27.225993   45.530678
  H    -20.936697   28.113956   45.271815
  H    -19.262370   28.908920   47.313145
  H    -20.994627   28.831953   47.639229
  H    -20.389375   27.173103   49.283547
  H    -18.824390   26.858867   48.491160
  C    -23.127195   26.793143   47.852660
  H    -23.092390   25.936320   48.533364
  H    -22.578893   27.623385   48.309629
  O    -22.554451   26.396545   46.567295
  C    -24.575301   27.238756   47.678881
  C    -24.796650   28.445322   46.749301
  C    -24.885818   27.762265   45.350241
  C    -25.595160   26.428519   45.672906
  O    -25.455246   26.215174   47.134991
  H    -24.948538   27.451693   48.688833
  H    -25.732581   28.945812   47.007328
  O    -23.776409   29.474054   46.851383
  H    -25.438795   28.370967   44.628606
  H    -23.875965   27.579791   44.976922
  H    -25.146230   25.578884   45.151729
  H    -26.667796   26.461205   45.458420
  H    -22.989714   29.195313   46.339672

 Multiplicity           Mult            ....    1
 Number of Electrons    NEL             ....  102
 Basis Dimension        Dim             ....  149

ORBITAL ENERGIES
----------------

  NO   OCC          E(Eh)            E(eV)
   0   2.0000     -19.153843      -521.2026
   1   2.0000     -19.147357      -521.0261
   2   2.0000     -19.144614      -520.9514
   3   2.0000     -19.130812      -520.5758
   4   2.0000     -10.286299      -279.9044
   5   2.0000     -10.238015      -278.5906
   6   2.0000     -10.237744      -278.5832
   7   2.0000     -10.229355      -278.3549
   8   2.0000     -10.228056      -278.3196
   9   2.0000     -10.219849      -278.0962
  10   2.0000     -10.200712      -277.5755
  11   2.0000     -10.198473      -277.5145
  12   2.0000     -10.180732      -277.0318
  13   2.0000      -1.060258       -28.8511
  14   2.0000      -1.028326       -27.9822
  15   2.0000      -1.010421       -27.4950
  16   2.0000      -0.997117       -27.1329
  17   2.0000      -0.797949       -21.7133
  18   2.0000      -0.776155       -21.1203
  19   2.0000      -0.767265       -20.8783
  20   2.0000      -0.737613       -20.0715
  21   2.0000      -0.678835       -18.4720
  22   2.0000      -0.612387       -16.6639
  23   2.0000      -0.603674       -16.4268
  24   2.0000      -0.601863       -16.3775
  25   2.0000      -0.563262       -15.3271
  26   2.0000      -0.525677       -14.3044
  27   2.0000      -0.518465       -14.1081
  28   2.0000      -0.504187       -13.7196
  29   2.0000      -0.493673       -13.4335
  30   2.0000      -0.470221       -12.7954
  31   2.0000      -0.452356       -12.3092
  32   2.0000      -0.449060       -12.2195
  33   2.0000      -0.428136       -11.6502
  34   2.0000      -0.425923       -11.5899
  35   2.0000      -0.425154       -11.5690
  36   2.0000      -0.401848       -10.9348
  37   2.0000      -0.401128       -10.9152
  38   2.0000      -0.383132       -10.4256
  39   2.0000      -0.373816       -10.1720
  40   2.0000      -0.370373       -10.0784
  41   2.0000      -0.359461        -9.7814
  42   2.0000      -0.349517        -9.5109
  43   2.0000      -0.332358        -9.0439
  44   2.0000      -0.323211        -8.7950
  45   2.0000      -0.313099        -8.5199
  46   2.0000      -0.310514        -8.4495
  47   2.0000      -0.269192        -7.3251
  48   2.0000      -0.264473        -7.1967
  49   2.0000      -0.255096        -6.9415
  50   2.0000      -0.236970        -6.4483
  51   0.0000       0.042316         1.1515
  52   0.0000       0.076136         2.0718
  53   0.0000       0.091806         2.4982
  54   0.0000       0.098093         2.6692
  55   0.0000       0.100417         2.7325

MULLIKEN ATOMIC CHARGES
-----------------------
   0 C :    0.304005
   1 C :   -0.270030
   2 C :   -0.327835
   3 C :   -0.016192
   4 O :   -0.505855
   5 H :    0.165964
   6 H :    0.155662
   7 H :    0.141333
   8 H :    0.152811
   9 H :    0.159976
  10 H :    0.151214
  11 H :    0.153789
  12 C :   -0.007915
  13 H :    0.166815
  14 H :    0.131397
  15 O :   -0.543992
  16 C :    0.089180
  17 C :    0.085735
  18 C :   -0.320278
  19 C :    0.001384
  20 O :   -0.518721
  21 H :    0.147245
  22 H :    0.160870
  23 O :   -0.614340
  24 H :    0.143577
  25 H :    0.160325
  26 H :    0.149913
  27 H :    0.140588
  28 H :    0.363375
Sum of atomic charges:   -0.0000000

LOEWDIN ATOMIC CHARGES
----------------------
   0 C :    0.179479
   1 C :   -0.228659
   2 C :   -0.227170
   3 C :   -0.033259
   4 O :   -0.315371
   5 H :    0.111994
   6 H :    0.120861
   7 H :    0.112342
   8 H :    0.119792
   9 H :    0.112159
  10 H :    0.105348
  11 H :    0.108612
  12 C :   -0.043809
  13 H :    0.115741
  14 H :    0.097609
  15 O :   -0.337954
  16 C :    0.020243
  17 C :    0.037940
  18 C :   -0.244049
  19 C :   -0.023117
  20 O :   -0.320630
  21 H :    0.113622
  22 H :    0.115648
  23 O :   -0.414414
  24 H :    0.114120
  25 H :    0.118634
  26 H :    0.107524
  27 H :    0.100464
  28 H :    0.276296

  Mayer bond orders larger than 0.100000
B(  0-C ,  1-C ) :   0.9160 B(  0-C ,  4-O ) :   0.9122 B(  0-C ,  5-H ) :   0.9345
B(  0-C , 15-O ) :   0.8623 B(  1-C ,  2-C ) :   0.9513 B(  1-C ,  6-H ) :   0.9333
B(  1-C ,  7-H ) :   0.9362 B(  2-C ,  3-C ) :   0.9481 B(  2-C ,  8-H ) :   0.9437
B(  2-C ,  9-H ) :   0.9313 B(  3-C ,  4-O ) :   0.8342 B(  3-C , 10-H ) :   0.9314
B(  3-C , 11-H ) :   0.9388 B( 12-C , 13-H ) :   0.9215 B( 12-C , 14-H ) :   0.8933
B( 12-C , 15-O ) :   0.8181 B( 12-C , 16-C ) :   0.9173 B( 16-C , 17-C ) :   0.8838
B( 16-C , 20-O ) :   0.8814 B( 16-C , 21-H ) :   0.9288 B( 17-C , 18-C ) :   0.9381
B( 17-C , 22-H ) :   0.9361 B( 17-C , 23-O ) :   0.8913 B( 18-C , 19-C ) :   0.9470
B( 18-C , 24-H ) :   0.9406 B( 18-C , 25-H ) :   0.9257 B( 19-C , 20-O ) :   0.8396
B( 19-C , 26-H ) :   0.9318 B( 19-C , 27-H ) :   0.9376 B( 23-O , 28-H ) :   0.7855

FINAL SINGLE POINT ENERGY      -652.857478557258

DIPOLE MOMENT
-------------
                                X             Y             Z
Electronic contribution:     -2.64983      -3.30399       1.31288
Nuclear contribution   :      3.59062       4.04798      -1.83214
                        -----------------------------------------
Total Dipole Moment    :      0.94079       0.74399      -0.51926
                        -----------------------------------------
Magnitude (a.u.)       :      1.30700
Magnitude (Debye)      :      3.32212

Rotational constants in cm-1:     0.048837     0.016888     0.015543
Rotational constants in MHz :  1464.107720   506.292398   465.964503

                             ****ORCA TERMINATED NORMALLY****
TOTAL RUN TIME: 0 days 0 hours 23 minutes 47 seconds 239 msec
