                         Program Version 4.2.0 -  RELEASE  -
|  1> # Test redundant internal optimization
|  2> #
|  3> ! RKS B3LYP  Opt TightSCF SmallPrint
|  4>
|  5> %basis
|  6>         Basis "6-31G"
|  7> end
|  8>
|  9> %geom
| 10> Constraints
| 11> { D 4  0  15  12  45.0   C } # D for Dihedral angle
| 12> { D 0  15  12  16  120.0   C } # D for Dihedral angle
| 13> { D 0  4  3  2   C } # D for Dihedral angle
| 14> { D 4  3  2  1   C } # D for Dihedral angle
| 15> { D 3  2  1  0   C } # D for Dihedral angle
| 16> { D 2  1  0  4   C } # D for Dihedral angle
| 17> { D 1  0  4  3   C } # D for Dihedral angle
| 18> { D 16  20  19  18   C } # D for Dihedral angle
| 19> { D 20  19  18  17   C } # D for Dihedral angle
| 20> { D 19  18  17  16   C } # D for Dihedral angle
| 21> { D 18  17  16  20   C } # D for Dihedral angle
| 22> { D 17  16  20  19   C } # D for Dihedral angle
| 23> { D 15  12  16  20   C } # D for Dihedral angle
| 24> end
| 25> end
| 26>
| 27>
| 28> #%pal
| 29> #nprocs 8
| 30> #end
| 31>
| 32> * xyz 0 1
| 33> C  -21.048   26.222   46.251
| 34> C  -20.361   27.558   45.944
| 35> C  -20.329   28.222   47.341
| 36> C  -20.110   27.022   48.296
| 37> O  -20.473   25.807   47.535
| 38> H  -20.833   25.428   45.533
| 39> H  -19.344   27.382   45.576
| 40> H  -20.898   28.157   45.201
| 41> H  -19.543   28.978   47.434
| 42> H  -21.289   28.710   47.548
| 43> H  -20.733   27.082   49.195
| 44> H  -19.064   26.913   48.597
| 45> C  -23.065   27.161   47.638
| 46> H  -23.711   26.507   48.236
| 47> H  -22.208   27.455   48.257
| 48> O  -22.586   26.394   46.375
| 49> C  -23.861   28.450   47.291
| 50> C  -25.171   28.117   46.568
| 51> C  -26.079   27.688   47.746
| 52> C  -25.618   28.613   48.900
| 53> O  -24.289   29.133   48.517
| 54> H  -23.209   29.139   46.751
| 55> O  -25.735   29.388   45.876
| 56> H  -25.059   27.334   45.811
| 57> H  -27.145   27.798   47.522
| 58> H  -25.896   26.636   47.997
| 59> H  -25.534   28.083   49.854
| 60> H  -26.277   29.476   49.032
| 61> H  -25.858   30.188   46.617
| 62> *
| 63>
| 64>                          ****END OF INPUT****
 Total Charge           Charge          ....    0
 Multiplicity           Mult            ....    1
 Number of Electrons    NEL             ....  102
FINAL SINGLE POINT ENERGY      -652.820357897814
FINAL SINGLE POINT ENERGY      -652.846514446405
FINAL SINGLE POINT ENERGY      -652.857223410294
FINAL SINGLE POINT ENERGY      -652.859095963839
FINAL SINGLE POINT ENERGY      -652.859406535654
FINAL SINGLE POINT ENERGY      -652.859460367230
FINAL SINGLE POINT ENERGY      -652.859464506085
                    ***********************HURRAY********************

CARTESIAN COORDINATES (ANGSTROEM)
---------------------------------
  C    -21.200648   26.349456   46.396650
  C    -20.423545   27.591880   45.941936
  C    -20.039744   28.248253   47.298961
  C    -19.794662   27.021012   48.211426
  O    -20.455027   25.872056   47.537701
  H    -21.184600   25.544795   45.659670
  H    -19.527455   27.267305   45.401668
  H    -21.013912   28.240966   45.291016
  H    -19.149723   28.880009   47.219798
  H    -20.855217   28.874849   47.673252
  H    -20.211471   27.132494   49.216854
  H    -18.733239   26.768562   48.293426
  C    -23.136716   27.176497   47.821029
  H    -23.773146   26.446510   48.334599
  H    -22.348936   27.468470   48.517334
  O    -22.618876   26.526215   46.622657
  C    -23.943752   28.408970   47.412827
  C    -25.185589   28.116284   46.559618
  C    -26.208444   27.678436   47.637823
  C    -25.847824   28.566628   48.854394
  O    -24.472277   29.073439   48.610637
  H    -23.292288   29.130123   46.908564
  O    -25.621089   29.311087   45.852305
  H    -25.004470   27.366597   45.791375
  H    -27.231443   27.832987   47.285075
  H    -26.083463   26.615332   47.870205
  H    -25.860620   28.017982   49.800915
  H    -26.500247   29.440348   48.948276
  H    -25.607578   30.073458   46.469009

 Multiplicity           Mult            ....    1
 Number of Electrons    NEL             ....  102
 Basis Dimension        Dim             ....  149

ORBITAL ENERGIES
----------------

  NO   OCC          E(Eh)            E(eV)
   0   2.0000     -19.147610      -521.0329
   1   2.0000     -19.146387      -520.9997
   2   2.0000     -19.144514      -520.9487
   3   2.0000     -19.135815      -520.7120
   4   2.0000     -10.280914      -279.7579
   5   2.0000     -10.235703      -278.5276
   6   2.0000     -10.233527      -278.4684
   7   2.0000     -10.233462      -278.4667
   8   2.0000     -10.232854      -278.4501
   9   2.0000     -10.231688      -278.4184
  10   2.0000     -10.195036      -277.4210
  11   2.0000     -10.189894      -277.2811
  12   2.0000     -10.187782      -277.2236
  13   2.0000      -1.054897       -28.7052
  14   2.0000      -1.036545       -28.2058
  15   2.0000      -1.004918       -27.3452
  16   2.0000      -0.997260       -27.1368
  17   2.0000      -0.790814       -21.5191
  18   2.0000      -0.782293       -21.2873
  19   2.0000      -0.771255       -20.9869
  20   2.0000      -0.734687       -19.9918
  21   2.0000      -0.677850       -18.4452
  22   2.0000      -0.606407       -16.5012
  23   2.0000      -0.604891       -16.4599
  24   2.0000      -0.599152       -16.3038
  25   2.0000      -0.576503       -15.6874
  26   2.0000      -0.528800       -14.3894
  27   2.0000      -0.510195       -13.8831
  28   2.0000      -0.502692       -13.6789
  29   2.0000      -0.493652       -13.4330
  30   2.0000      -0.473053       -12.8724
  31   2.0000      -0.459688       -12.5087
  32   2.0000      -0.447170       -12.1681
  33   2.0000      -0.439104       -11.9486
  34   2.0000      -0.426457       -11.6045
  35   2.0000      -0.418629       -11.3915
  36   2.0000      -0.407161       -11.0794
  37   2.0000      -0.393101       -10.6968
  38   2.0000      -0.381908       -10.3922
  39   2.0000      -0.367473        -9.9995
  40   2.0000      -0.363026        -9.8784
  41   2.0000      -0.358453        -9.7540
  42   2.0000      -0.349775        -9.5179
  43   2.0000      -0.335393        -9.1265
  44   2.0000      -0.322279        -8.7696
  45   2.0000      -0.315183        -8.5766
  46   2.0000      -0.303775        -8.2661
  47   2.0000      -0.275633        -7.5003
  48   2.0000      -0.265083        -7.2133
  49   2.0000      -0.259209        -7.0534
  50   2.0000      -0.240933        -6.5561
  51   0.0000       0.064000         1.7415
  52   0.0000       0.066013         1.7963
  53   0.0000       0.087350         2.3769
  54   0.0000       0.097861         2.6629
  55   0.0000       0.101308         2.7567

MULLIKEN ATOMIC CHARGES
-----------------------
   0 C :    0.298930
   1 C :   -0.268035
   2 C :   -0.323001
   3 C :   -0.020849
   4 O :   -0.505135
   5 H :    0.166359
   6 H :    0.152447
   7 H :    0.155737
   8 H :    0.149911
   9 H :    0.158572
  10 H :    0.149706
  11 H :    0.151297
  12 C :   -0.020430
  13 H :    0.146183
  14 H :    0.153761
  15 O :   -0.529910
  16 C :    0.057643
  17 C :    0.091043
  18 C :   -0.304059
  19 C :   -0.031833
  20 O :   -0.529370
  21 H :    0.155989
  22 O :   -0.603834
  23 H :    0.178597
  24 H :    0.162044
  25 H :    0.153061
  26 H :    0.146635
  27 H :    0.147734
  28 H :    0.360805
Sum of atomic charges:    0.0000000

LOEWDIN ATOMIC CHARGES
----------------------
   0 C :    0.178873
   1 C :   -0.228584
   2 C :   -0.225110
   3 C :   -0.036290
   4 O :   -0.318629
   5 H :    0.113137
   6 H :    0.119346
   7 H :    0.121792
   8 H :    0.118394
   9 H :    0.112799
  10 H :    0.102982
  11 H :    0.106696
  12 C :   -0.039853
  13 H :    0.105270
  14 H :    0.110475
  15 O :   -0.329476
  16 C :    0.009336
  17 C :    0.038116
  18 C :   -0.242060
  19 C :   -0.038348
  20 O :   -0.334216
  21 H :    0.110211
  22 O :   -0.415466
  23 H :    0.129043
  24 H :    0.126650
  25 H :    0.117234
  26 H :    0.104263
  27 H :    0.102905
  28 H :    0.280509

  Mayer bond orders larger than 0.100000
B(  0-C ,  1-C ) :   0.9163 B(  0-C ,  4-O ) :   0.9112 B(  0-C ,  5-H ) :   0.9356
B(  0-C , 15-O ) :   0.8784 B(  1-C ,  2-C ) :   0.9538 B(  1-C ,  6-H ) :   0.9341
B(  1-C ,  7-H ) :   0.9357 B(  2-C ,  3-C ) :   0.9473 B(  2-C ,  8-H ) :   0.9446
B(  2-C ,  9-H ) :   0.9390 B(  3-C ,  4-O ) :   0.8384 B(  3-C , 10-H ) :   0.9295
B(  3-C , 11-H ) :   0.9382 B( 12-C , 13-H ) :   0.9336 B( 12-C , 14-H ) :   0.9103
B( 12-C , 15-O ) :   0.8222 B( 12-C , 16-C ) :   0.8880 B( 16-C , 17-C ) :   0.9111
B( 16-C , 20-O ) :   0.8416 B( 16-C , 21-H ) :   0.9240 B( 17-C , 18-C ) :   0.9137
B( 17-C , 22-O ) :   0.8885 B( 17-C , 23-H ) :   0.9233 B( 18-C , 19-C ) :   0.9408
B( 18-C , 24-H ) :   0.9377 B( 18-C , 25-H ) :   0.9332 B( 19-C , 20-O ) :   0.8430
B( 19-C , 26-H ) :   0.9358 B( 19-C , 27-H ) :   0.9376 B( 22-O , 28-H ) :   0.7971

FINAL SINGLE POINT ENERGY      -652.859455599566

DIPOLE MOMENT
-------------
                                X             Y             Z
Electronic contribution:     -1.39000      -1.36995      -1.41634
Nuclear contribution   :      1.69661       1.78877       1.92513
                        -----------------------------------------
Total Dipole Moment    :      0.30661       0.41881       0.50879
                        -----------------------------------------
Magnitude (a.u.)       :      0.72683
Magnitude (Debye)      :      1.84746

Rotational constants in cm-1:     0.054142     0.013619     0.013134
Rotational constants in MHz :  1623.131924   408.284049   393.737849

                             ****ORCA TERMINATED NORMALLY****
TOTAL RUN TIME: 0 days 0 hours 58 minutes 50 seconds 331 msec
