                         Program Version 4.2.0 -  RELEASE  -
|  1> # Test redundant internal optimization
|  2> #
|  3> ! RKS B3LYP  Opt TightSCF SmallPrint
|  4>
|  5> %basis
|  6>         Basis "6-31G"
|  7> end
|  8>
|  9> %geom
| 10> Constraints
| 11> { D 4  0  15  12  270.0   C } # D for Dihedral angle
| 12> { D 0  15  12  16  225.0   C } # D for Dihedral angle
| 13> { D 0  4  3  2   C } # D for Dihedral angle
| 14> { D 4  3  2  1   C } # D for Dihedral angle
| 15> { D 3  2  1  0   C } # D for Dihedral angle
| 16> { D 2  1  0  4   C } # D for Dihedral angle
| 17> { D 1  0  4  3   C } # D for Dihedral angle
| 18> { D 16  20  19  18   C } # D for Dihedral angle
| 19> { D 20  19  18  17   C } # D for Dihedral angle
| 20> { D 19  18  17  16   C } # D for Dihedral angle
| 21> { D 18  17  16  20   C } # D for Dihedral angle
| 22> { D 17  16  20  19   C } # D for Dihedral angle
| 23> { D 15  12  16  20   C } # D for Dihedral angle
| 24> end
| 25> end
| 26>
| 27>
| 28> #%pal
| 29> #nprocs 8
| 30> #end
| 31>
| 32> * xyz 0 1
| 33> C  -21.048   26.222   46.251
| 34> C  -20.361   27.558   45.944
| 35> C  -20.329   28.222   47.341
| 36> C  -20.110   27.022   48.296
| 37> O  -20.473   25.807   47.535
| 38> H  -20.833   25.428   45.533
| 39> H  -19.344   27.382   45.576
| 40> H  -20.898   28.157   45.201
| 41> H  -19.543   28.978   47.434
| 42> H  -21.289   28.710   47.548
| 43> H  -20.733   27.082   49.195
| 44> H  -19.064   26.913   48.597
| 45> C  -23.420   25.119   46.072
| 46> H  -22.782   24.380   45.571
| 47> H  -23.793   24.674   47.004
| 48> O  -22.586   26.394   46.375
| 49> C  -24.645   25.405   45.160
| 50> C  -24.205   25.872   43.768
| 51> C  -23.822   24.532   43.095
| 52> C  -24.846   23.534   43.691
| 53> O  -25.394   24.170   44.907
| 54> H  -25.321   26.090   45.675
| 55> O  -25.399   26.536   43.028
| 56> H  -23.376   26.587   43.795
| 57> H  -23.870   24.578   42.002
| 58> H  -22.799   24.251   43.373
| 59> H  -24.388   22.576   43.961
| 60> H  -25.686   23.346   43.017
| 61> H  -26.243   25.837   42.988
| 62> *
| 63>
| 64>                          ****END OF INPUT****
 Total Charge           Charge          ....    0
 Multiplicity           Mult            ....    1
 Number of Electrons    NEL             ....  102
FINAL SINGLE POINT ENERGY      -652.838479490281
FINAL SINGLE POINT ENERGY      -652.861707674163
FINAL SINGLE POINT ENERGY      -652.865641039519
FINAL SINGLE POINT ENERGY      -652.866296810593
FINAL SINGLE POINT ENERGY      -652.866372177704
FINAL SINGLE POINT ENERGY      -652.866382739553
FINAL SINGLE POINT ENERGY      -652.866384799381
                    ***********************HURRAY********************

CARTESIAN COORDINATES (ANGSTROEM)
---------------------------------
  C    -21.070384   26.118593   46.234430
  C    -20.491042   27.492198   45.894560
  C    -20.514611   28.197138   47.271727
  C    -20.205680   27.046449   48.255548
  O    -20.476794   25.791178   47.510769
  H    -20.806990   25.303957   45.551619
  H    -19.462873   27.370144   45.534722
  H    -21.075811   28.012514   45.133368
  H    -19.786739   29.011172   47.341067
  H    -21.512171   28.605942   47.456367
  H    -20.833377   27.067212   49.149867
  H    -19.153387   27.012247   48.553265
  C    -23.318059   25.068450   46.106871
  H    -22.708975   24.268104   45.662251
  H    -23.706367   24.703723   47.062676
  O    -22.503698   26.257374   46.322963
  C    -24.483094   25.430725   45.183766
  C    -24.085477   25.886718   43.772434
  C    -23.806691   24.531055   43.072260
  C    -24.852315   23.582728   43.710542
  O    -25.308482   24.238931   44.960467
  H    -25.116747   26.179430   45.667540
  O    -25.176099   26.606138   43.133766
  H    -23.238997   26.571260   43.765033
  H    -23.921789   24.625102   41.989221
  H    -22.784772   24.195843   43.280889
  H    -24.442618   22.598155   43.954880
  H    -25.735644   23.445680   43.078794
  H    -26.020315   26.143842   43.321341

 Multiplicity           Mult            ....    1
 Number of Electrons    NEL             ....  102
 Basis Dimension        Dim             ....  149

ORBITAL ENERGIES
----------------

  NO   OCC          E(Eh)            E(eV)
   0   2.0000     -19.148224      -521.0497
   1   2.0000     -19.146612      -521.0058
   2   2.0000     -19.139075      -520.8007
   3   2.0000     -19.137886      -520.7683
   4   2.0000     -10.282877      -279.8113
   5   2.0000     -10.239206      -278.6230
   6   2.0000     -10.233906      -278.4787
   7   2.0000     -10.233701      -278.4732
   8   2.0000     -10.232359      -278.4366
   9   2.0000     -10.224495      -278.2227
  10   2.0000     -10.190919      -277.3090
  11   2.0000     -10.186583      -277.1910
  12   2.0000     -10.185043      -277.1491
  13   2.0000      -1.055503       -28.7217
  14   2.0000      -1.038109       -28.2484
  15   2.0000      -1.006654       -27.3925
  16   2.0000      -0.997105       -27.1326
  17   2.0000      -0.790209       -21.5027
  18   2.0000      -0.780295       -21.2329
  19   2.0000      -0.768689       -20.9171
  20   2.0000      -0.731238       -19.8980
  21   2.0000      -0.675951       -18.3936
  22   2.0000      -0.605849       -16.4860
  23   2.0000      -0.598905       -16.2970
  24   2.0000      -0.592199       -16.1145
  25   2.0000      -0.587277       -15.9806
  26   2.0000      -0.523826       -14.2540
  27   2.0000      -0.521126       -14.1806
  28   2.0000      -0.496593       -13.5130
  29   2.0000      -0.492002       -13.3880
  30   2.0000      -0.470872       -12.8131
  31   2.0000      -0.458757       -12.4834
  32   2.0000      -0.448381       -12.2011
  33   2.0000      -0.440257       -11.9800
  34   2.0000      -0.427499       -11.6328
  35   2.0000      -0.413896       -11.2627
  36   2.0000      -0.403334       -10.9753
  37   2.0000      -0.394703       -10.7404
  38   2.0000      -0.377148       -10.2627
  39   2.0000      -0.370671       -10.0865
  40   2.0000      -0.357362        -9.7243
  41   2.0000      -0.354716        -9.6523
  42   2.0000      -0.349817        -9.5190
  43   2.0000      -0.335381        -9.1262
  44   2.0000      -0.324369        -8.8265
  45   2.0000      -0.308403        -8.3921
  46   2.0000      -0.304774        -8.2933
  47   2.0000      -0.273801        -7.4505
  48   2.0000      -0.271157        -7.3786
  49   2.0000      -0.257046        -6.9946
  50   2.0000      -0.242705        -6.6043
  51   0.0000       0.062853         1.7103
  52   0.0000       0.064683         1.7601
  53   0.0000       0.092017         2.5039
  54   0.0000       0.094494         2.5713
  55   0.0000       0.104095         2.8326

MULLIKEN ATOMIC CHARGES
-----------------------
   0 C :    0.284953
   1 C :   -0.261268
   2 C :   -0.299002
   3 C :   -0.001450
   4 O :   -0.507725
   5 H :    0.136809
   6 H :    0.145169
   7 H :    0.155366
   8 H :    0.141506
   9 H :    0.165236
  10 H :    0.149845
  11 H :    0.141660
  12 C :    0.001401
  13 H :    0.125301
  14 H :    0.162616
  15 O :   -0.524666
  16 C :    0.059864
  17 C :    0.087490
  18 C :   -0.299302
  19 C :   -0.033640
  20 O :   -0.526183
  21 H :    0.168860
  22 O :   -0.603924
  23 H :    0.163493
  24 H :    0.166325
  25 H :    0.138458
  26 H :    0.149172
  27 H :    0.149053
  28 H :    0.364582
Sum of atomic charges:   -0.0000000

LOEWDIN ATOMIC CHARGES
----------------------
   0 C :    0.172293
   1 C :   -0.217445
   2 C :   -0.215667
   3 C :   -0.026927
   4 O :   -0.326421
   5 H :    0.094003
   6 H :    0.114034
   7 H :    0.121589
   8 H :    0.113795
   9 H :    0.120592
  10 H :    0.106998
  11 H :    0.102258
  12 C :   -0.033579
  13 H :    0.094544
  14 H :    0.114830
  15 O :   -0.328869
  16 C :    0.013563
  17 C :    0.037063
  18 C :   -0.242502
  19 C :   -0.038962
  20 O :   -0.329646
  21 H :    0.119314
  22 O :   -0.414909
  23 H :    0.120173
  24 H :    0.128019
  25 H :    0.110151
  26 H :    0.105209
  27 H :    0.103771
  28 H :    0.282728

  Mayer bond orders larger than 0.100000
B(  0-C ,  1-C ) :   0.9470 B(  0-C ,  4-O ) :   0.9220 B(  0-C ,  5-H ) :   0.9179
B(  0-C , 15-O ) :   0.8534 B(  1-C ,  2-C ) :   0.9580 B(  1-C ,  6-H ) :   0.9392
B(  1-C ,  7-H ) :   0.9355 B(  2-C ,  3-C ) :   0.9544 B(  2-C ,  8-H ) :   0.9451
B(  2-C ,  9-H ) :   0.9438 B(  3-C ,  4-O ) :   0.8372 B(  3-C , 10-H ) :   0.9353
B(  3-C , 11-H ) :   0.9402 B( 12-C , 13-H ) :   0.9211 B( 12-C , 14-H ) :   0.9243
B( 12-C , 15-O ) :   0.8227 B( 12-C , 16-C ) :   0.8995 B( 16-C , 17-C ) :   0.9102
B( 16-C , 20-O ) :   0.8405 B( 16-C , 21-H ) :   0.9251 B( 17-C , 18-C ) :   0.9111
B( 17-C , 22-O ) :   0.8924 B( 17-C , 23-H ) :   0.9261 B( 18-C , 19-C ) :   0.9412
B( 18-C , 24-H ) :   0.9367 B( 18-C , 25-H ) :   0.9358 B( 19-C , 20-O ) :   0.8430
B( 19-C , 26-H ) :   0.9349 B( 19-C , 27-H ) :   0.9376 B( 22-O , 28-H ) :   0.7948

FINAL SINGLE POINT ENERGY      -652.866384823035

DIPOLE MOMENT
-------------
                                X             Y             Z
Electronic contribution:     -3.80018      -1.35495       0.82314
Nuclear contribution   :      4.43841       1.26260      -1.19457
                        -----------------------------------------
Total Dipole Moment    :      0.63823      -0.09236      -0.37143
                        -----------------------------------------
Magnitude (a.u.)       :      0.74420
Magnitude (Debye)      :      1.89160

Rotational constants in cm-1:     0.059566     0.012332     0.011510
Rotational constants in MHz :  1785.736053   369.696464   345.050165

                             ****ORCA TERMINATED NORMALLY****
TOTAL RUN TIME: 0 days 0 hours 57 minutes 10 seconds 874 msec
