                         Program Version 4.2.0 -  RELEASE  -
|  1> # Test redundant internal optimization
|  2> #
|  3> ! RKS B3LYP  Opt TightSCF SmallPrint
|  4>
|  5> %basis
|  6>         Basis "6-31G"
|  7> end
|  8>
|  9> %geom
| 10> Constraints
| 11> { D 4  0  15  12  120.0   C } # D for Dihedral angle
| 12> { D 0  15  12  16  165.0   C } # D for Dihedral angle
| 13> { D 0  4  3  2   C } # D for Dihedral angle
| 14> { D 4  3  2  1   C } # D for Dihedral angle
| 15> { D 3  2  1  0   C } # D for Dihedral angle
| 16> { D 2  1  0  4   C } # D for Dihedral angle
| 17> { D 1  0  4  3   C } # D for Dihedral angle
| 18> { D 16  20  19  18   C } # D for Dihedral angle
| 19> { D 20  19  18  17   C } # D for Dihedral angle
| 20> { D 19  18  17  16   C } # D for Dihedral angle
| 21> { D 18  17  16  20   C } # D for Dihedral angle
| 22> { D 17  16  20  19   C } # D for Dihedral angle
| 23> { D 15  12  16  20   C } # D for Dihedral angle
| 24> end
| 25> end
| 26>
| 27>
| 28> #%pal
| 29> #nprocs 8
| 30> #end
| 31>
| 32> * xyz 0 1
| 33> C  -21.048   26.222   46.251
| 34> C  -20.361   27.558   45.944
| 35> C  -20.329   28.222   47.341
| 36> C  -20.110   27.022   48.296
| 37> O  -20.473   25.807   47.535
| 38> H  -20.833   25.428   45.533
| 39> H  -19.344   27.382   45.576
| 40> H  -20.898   28.157   45.201
| 41> H  -19.543   28.978   47.434
| 42> H  -21.289   28.710   47.548
| 43> H  -20.733   27.082   49.195
| 44> H  -19.064   26.913   48.597
| 45> C  -23.119   27.818   46.058
| 46> H  -22.879   28.489   46.892
| 47> H  -22.642   28.214   45.152
| 48> O  -22.586   26.394   46.375
| 49> C  -24.656   27.848   45.833
| 50> C  -25.130   29.242   45.410
| 51> C  -24.755   29.259   43.909
| 52> C  -24.997   27.793   43.471
| 53> O  -25.027   26.984   44.708
| 54> H  -25.155   27.451   46.720
| 55> O  -26.668   29.362   45.593
| 56> H  -24.652   30.049   45.976
| 57> H  -25.352   29.971   43.330
| 58> H  -23.700   29.529   43.787
| 59> H  -24.205   27.415   42.814
| 60> H  -25.962   27.659   42.974
| 61> H  -27.168   28.563   45.034
| 62> *
| 63>
| 64>                          ****END OF INPUT****
 Total Charge           Charge          ....    0
 Multiplicity           Mult            ....    1
 Number of Electrons    NEL             ....  102
FINAL SINGLE POINT ENERGY      -652.816248534995
FINAL SINGLE POINT ENERGY      -652.840855136491
FINAL SINGLE POINT ENERGY      -652.848418565927
FINAL SINGLE POINT ENERGY      -652.850663533605
FINAL SINGLE POINT ENERGY      -652.851006137802
FINAL SINGLE POINT ENERGY      -652.851056239301
                    ***********************HURRAY********************

CARTESIAN COORDINATES (ANGSTROEM)
---------------------------------
  C    -21.174897   26.353116   46.294737
  C    -20.179782   27.479962   45.998980
  C    -20.050685   28.171168   47.384732
  C    -20.164933   26.979067   48.365273
  O    -20.773348   25.871030   47.593291
  H    -21.094032   25.493323   45.627653
  H    -19.227053   27.024962   45.708008
  H    -20.486138   28.158516   45.199187
  H    -19.103016   28.707322   47.493886
  H    -20.860528   28.891343   47.539883
  H    -20.794077   27.196363   49.233007
  H    -19.188660   26.626338   48.709987
  C    -23.088509   28.016268   46.003085
  H    -22.946333   28.699653   46.854100
  H    -22.586457   28.449759   45.127492
  O    -22.587062   26.691942   46.293249
  C    -24.585695   27.872404   45.732499
  C    -25.286463   29.187093   45.364099
  C    -24.981361   29.293664   43.846430
  C    -25.014169   27.816376   43.381018
  O    -24.866973   26.987057   44.600800
  H    -25.048455   27.404253   46.606001
  O    -26.714476   29.102426   45.621083
  H    -24.942533   30.050905   45.935232
  H    -25.726016   29.916883   43.345291
  H    -23.994429   29.742536   43.686786
  H    -24.206542   27.573404   42.683503
  H    -25.967409   27.543440   42.916981
  H    -27.037964   28.220428   45.340728

 Multiplicity           Mult            ....    1
 Number of Electrons    NEL             ....  102
 Basis Dimension        Dim             ....  149

ORBITAL ENERGIES
----------------

  NO   OCC          E(Eh)            E(eV)
   0   2.0000     -19.141251      -520.8599
   1   2.0000     -19.139921      -520.8237
   2   2.0000     -19.138082      -520.7737
   3   2.0000     -19.137447      -520.7564
   4   2.0000     -10.278806      -279.7005
   5   2.0000     -10.244935      -278.7788
   6   2.0000     -10.237957      -278.5890
   7   2.0000     -10.234785      -278.5027
   8   2.0000     -10.231316      -278.4083
   9   2.0000     -10.227250      -278.2976
  10   2.0000     -10.195940      -277.4456
  11   2.0000     -10.195584      -277.4360
  12   2.0000     -10.191894      -277.3355
  13   2.0000      -1.050288       -28.5798
  14   2.0000      -1.036980       -28.2177
  15   2.0000      -1.007532       -27.4163
  16   2.0000      -0.992549       -27.0086
  17   2.0000      -0.791696       -21.5431
  18   2.0000      -0.787354       -21.4250
  19   2.0000      -0.771663       -20.9980
  20   2.0000      -0.733845       -19.9689
  21   2.0000      -0.681003       -18.5310
  22   2.0000      -0.607936       -16.5428
  23   2.0000      -0.605049       -16.4642
  24   2.0000      -0.597488       -16.2585
  25   2.0000      -0.578127       -15.7316
  26   2.0000      -0.527713       -14.3598
  27   2.0000      -0.510218       -13.8837
  28   2.0000      -0.501057       -13.6344
  29   2.0000      -0.492961       -13.4141
  30   2.0000      -0.481350       -13.0982
  31   2.0000      -0.462767       -12.5925
  32   2.0000      -0.450776       -12.2662
  33   2.0000      -0.443314       -12.0632
  34   2.0000      -0.428706       -11.6657
  35   2.0000      -0.413482       -11.2514
  36   2.0000      -0.406632       -11.0650
  37   2.0000      -0.395044       -10.7497
  38   2.0000      -0.384129       -10.4527
  39   2.0000      -0.374308       -10.1854
  40   2.0000      -0.366873        -9.9831
  41   2.0000      -0.359890        -9.7931
  42   2.0000      -0.352746        -9.5987
  43   2.0000      -0.332625        -9.0512
  44   2.0000      -0.313943        -8.5428
  45   2.0000      -0.307634        -8.3712
  46   2.0000      -0.292778        -7.9669
  47   2.0000      -0.272822        -7.4239
  48   2.0000      -0.264774        -7.2049
  49   2.0000      -0.251401        -6.8410
  50   2.0000      -0.243613        -6.6291
  51   0.0000       0.059663         1.6235
  52   0.0000       0.074695         2.0326
  53   0.0000       0.080238         2.1834
  54   0.0000       0.095457         2.5975
  55   0.0000       0.101736         2.7684

MULLIKEN ATOMIC CHARGES
-----------------------
   0 C :    0.316789
   1 C :   -0.299033
   2 C :   -0.310134
   3 C :   -0.002486
   4 O :   -0.493875
   5 H :    0.163648
   6 H :    0.157075
   7 H :    0.143946
   8 H :    0.146021
   9 H :    0.148363
  10 H :    0.148787
  11 H :    0.144831
  12 C :    0.007387
  13 H :    0.127465
  14 H :    0.118169
  15 O :   -0.517845
  16 C :    0.071905
  17 C :    0.074001
  18 C :   -0.292141
  19 C :   -0.029664
  20 O :   -0.507343
  21 H :    0.174134
  22 O :   -0.601969
  23 H :    0.149114
  24 H :    0.164543
  25 H :    0.137869
  26 H :    0.147118
  27 H :    0.145751
  28 H :    0.367574
Sum of atomic charges:    0.0000000

LOEWDIN ATOMIC CHARGES
----------------------
   0 C :    0.182287
   1 C :   -0.232076
   2 C :   -0.221030
   3 C :   -0.030100
   4 O :   -0.312150
   5 H :    0.110001
   6 H :    0.123253
   7 H :    0.113635
   8 H :    0.116305
   9 H :    0.108347
  10 H :    0.105794
  11 H :    0.103887
  12 C :   -0.038380
  13 H :    0.091990
  14 H :    0.088116
  15 O :   -0.319109
  16 C :    0.019680
  17 C :    0.034849
  18 C :   -0.241179
  19 C :   -0.038838
  20 O :   -0.317400
  21 H :    0.123601
  22 O :   -0.413856
  23 H :    0.113720
  24 H :    0.127410
  25 H :    0.109542
  26 H :    0.104111
  27 H :    0.102667
  28 H :    0.284928

  Mayer bond orders larger than 0.100000
B(  0-C ,  1-C ) :   0.9320 B(  0-C ,  4-O ) :   0.9153 B(  0-C ,  5-H ) :   0.9303
B(  0-C , 15-O ) :   0.8708 B(  1-C ,  2-C ) :   0.9493 B(  1-C ,  6-H ) :   0.9343
B(  1-C ,  7-H ) :   0.9293 B(  2-C ,  3-C ) :   0.9499 B(  2-C ,  8-H ) :   0.9457
B(  2-C ,  9-H ) :   0.9418 B(  3-C ,  4-O ) :   0.8478 B(  3-C , 10-H ) :   0.9342
B(  3-C , 11-H ) :   0.9391 B( 12-C , 13-H ) :   0.9020 B( 12-C , 14-H ) :   0.9096
B( 12-C , 15-O ) :   0.8523 B( 12-C , 16-C ) :   0.8951 B( 16-C , 17-C ) :   0.8994
B( 16-C , 20-O ) :   0.8682 B( 16-C , 21-H ) :   0.9223 B( 17-C , 18-C ) :   0.9095
B( 17-C , 22-O ) :   0.8958 B( 17-C , 23-H ) :   0.9330 B( 18-C , 19-C ) :   0.9393
B( 18-C , 24-H ) :   0.9371 B( 18-C , 25-H ) :   0.9348 B( 19-C , 20-O ) :   0.8530
B( 19-C , 26-H ) :   0.9342 B( 19-C , 27-H ) :   0.9378 B( 22-O , 28-H ) :   0.7926

FINAL SINGLE POINT ENERGY      -652.851061843484

DIPOLE MOMENT
-------------
                                X             Y             Z
Electronic contribution:     -4.38001      -5.11365       1.28954
Nuclear contribution   :      5.45381       6.49477      -1.99387
                        -----------------------------------------
Total Dipole Moment    :      1.07380       1.38112      -0.70432
                        -----------------------------------------
Magnitude (a.u.)       :      1.88589
Magnitude (Debye)      :      4.79356

Rotational constants in cm-1:     0.061328     0.011776     0.011548
Rotational constants in MHz :  1838.560070   353.039124   346.194061

                             ****ORCA TERMINATED NORMALLY****
TOTAL RUN TIME: 0 days 1 hours 38 minutes 49 seconds 828 msec
