                         Program Version 4.2.1 -  RELEASE  -
|  1> # Test redundant internal optimization
|  2> #
|  3> ! RKS B3LYP  Opt TightSCF SmallPrint
|  4>
|  5> %basis
|  6>         Basis "6-31G"
|  7> end
|  8>
|  9> %geom
| 10> Constraints
| 11> { D 4  0  19  14  315.0   C } # D for Dihedral angle
| 12> { D 0  19  14  12  210.0   C } # D for Dihedral angle
| 13> { D 0  4  3  2   C } # D for Dihedral angle
| 14> { D 4  3  2  1   C } # D for Dihedral angle
| 15> { D 3  2  1  0   C } # D for Dihedral angle
| 16> { D 2  1  0  4   C } # D for Dihedral angle
| 17> { D 1  0  4  3   C } # D for Dihedral angle
| 18> { D 14  15  16  17   C } # D for Dihedral angle
| 19> { D 15  16  17  12   C } # D for Dihedral angle
| 20> { D 16  17  12  14   C } # D for Dihedral angle
| 21> { D 17  12  14  15   C } # D for Dihedral angle
| 22> { D 12  14  15  16   C } # D for Dihedral angle
| 23> end
| 24> end
| 25>
| 26>
| 27> #%pal
| 28> #nprocs 8
| 29> #end
| 30>
| 31> * xyz 0 1
| 32> C  -21.048   26.222   46.251
| 33> C  -20.361   27.558   45.944
| 34> C  -20.329   28.222   47.341
| 35> C  -20.110   27.022   48.296
| 36> O  -20.473   25.807   47.535
| 37> H  -20.833   25.428   45.533
| 38> H  -19.344   27.382   45.576
| 39> H  -20.898   28.157   45.201
| 40> H  -19.543   28.978   47.434
| 41> H  -21.289   28.710   47.548
| 42> H  -20.733   27.082   49.195
| 43> H  -19.064   26.913   48.597
| 44> C  -24.560   25.142   46.542
| 45> H  -25.176   24.552   47.239
| 46> C  -23.132   25.318   47.072
| 47> C  -22.496   23.952   46.720
| 48> C  -23.175   23.583   45.378
| 49> O  -24.389   24.423   45.275
| 50> H  -25.075   26.076   46.312
| 51> O  -22.472   26.381   46.366
| 52> H  -23.095   25.540   48.144
| 53> H  -21.406   23.999   46.638
| 54> H  -22.741   23.212   47.493
| 55> H  -23.464   22.528   45.328
| 56> H  -22.547   23.819   44.513
| 57> *
| 58>
| 59>                          ****END OF INPUT****
 Total Charge           Charge          ....    0
 Multiplicity           Mult            ....    1
 Number of Electrons    NEL             ....   86
FINAL SINGLE POINT ENERGY      -538.427866434708
FINAL SINGLE POINT ENERGY      -538.434221735134
FINAL SINGLE POINT ENERGY      -538.435159698128
FINAL SINGLE POINT ENERGY      -538.435357995915
FINAL SINGLE POINT ENERGY      -538.435370393091
FINAL SINGLE POINT ENERGY      -538.435375274267
                    ***********************HURRAY********************

CARTESIAN COORDINATES (ANGSTROEM)
---------------------------------
  C    -20.957424   26.241391   46.227995
  C    -20.431680   27.652819   45.961956
  C    -20.389109   28.245963   47.387938
  C    -19.994824   27.035606   48.264498
  O    -20.279489   25.828098   47.442908
  H    -20.698892   25.493593   45.473024
  H    -19.427847   27.587262   45.527280
  H    -21.080956   28.208945   45.282783
  H    -19.677310   29.072074   47.479539
  H    -21.382581   28.612949   47.660886
  H    -20.566511   26.973637   49.194344
  H    -18.926182   27.009027   48.497321
  C    -24.500989   25.214415   46.448706
  H    -25.211819   24.713352   47.122485
  C    -23.106048   25.258744   47.070735
  C    -22.594960   23.835110   46.785934
  C    -23.213239   23.499203   45.408500
  O    -24.325007   24.453984   45.208367
  H    -24.874181   26.203062   46.179781
  O    -22.386274   26.333847   46.379326
  H    -23.116638   25.482253   48.143059
  H    -21.506846   23.756999   46.816651
  H    -22.992585   23.170948   47.562416
  H    -23.602280   22.475865   45.361821
  H    -22.509328   23.646855   44.582747

 Multiplicity           Mult            ....    1
 Number of Electrons    NEL             ....   86
 Basis Dimension        Dim             ....  127

ORBITAL ENERGIES
----------------

  NO   OCC          E(Eh)            E(eV)
   0   2.0000     -19.144386      -520.9452
   1   2.0000     -19.139494      -520.8121
   2   2.0000     -19.124577      -520.4062
   3   2.0000     -10.278193      -279.6838
   4   2.0000     -10.236689      -278.5545
   5   2.0000     -10.228456      -278.3304
   6   2.0000     -10.219110      -278.0761
   7   2.0000     -10.217615      -278.0354
   8   2.0000     -10.186435      -277.1870
   9   2.0000     -10.185019      -277.1485
  10   2.0000     -10.182054      -277.0678
  11   2.0000      -1.054291       -28.6887
  12   2.0000      -1.011221       -27.5167
  13   2.0000      -0.987054       -26.8591
  14   2.0000      -0.793146       -21.5826
  15   2.0000      -0.773926       -21.0596
  16   2.0000      -0.743475       -20.2310
  17   2.0000      -0.718268       -19.5451
  18   2.0000      -0.613203       -16.6861
  19   2.0000      -0.602102       -16.3840
  20   2.0000      -0.592750       -16.1295
  21   2.0000      -0.561889       -15.2898
  22   2.0000      -0.525619       -14.3028
  23   2.0000      -0.492909       -13.4127
  24   2.0000      -0.490551       -13.3486
  25   2.0000      -0.478191       -13.0122
  26   2.0000      -0.454604       -12.3704
  27   2.0000      -0.441488       -12.0135
  28   2.0000      -0.418217       -11.3803
  29   2.0000      -0.414330       -11.2745
  30   2.0000      -0.405398       -11.0314
  31   2.0000      -0.389451       -10.5975
  32   2.0000      -0.368521       -10.0280
  33   2.0000      -0.360236        -9.8025
  34   2.0000      -0.359307        -9.7772
  35   2.0000      -0.357251        -9.7213
  36   2.0000      -0.344939        -9.3863
  37   2.0000      -0.329036        -8.9535
  38   2.0000      -0.303657        -8.2629
  39   2.0000      -0.292571        -7.9613
  40   2.0000      -0.262985        -7.1562
  41   2.0000      -0.253770        -6.9054
  42   2.0000      -0.232549        -6.3280
  43   0.0000       0.075471         2.0537
  44   0.0000       0.099608         2.7105
  45   0.0000       0.102158         2.7799
  46   0.0000       0.108078         2.9409
  47   0.0000       0.118576         3.2266

MULLIKEN ATOMIC CHARGES
-----------------------
   0 C :    0.293987
   1 C :   -0.260134
   2 C :   -0.298525
   3 C :   -0.007994
   4 O :   -0.521441
   5 H :    0.146897
   6 H :    0.144222
   7 H :    0.163969
   8 H :    0.142148
   9 H :    0.160182
  10 H :    0.144079
  11 H :    0.145696
  12 C :   -0.000521
  13 H :    0.122304
  14 C :    0.097653
  15 C :   -0.335136
  16 C :    0.003674
  17 O :   -0.520832
  18 H :    0.166850
  19 O :   -0.530943
  20 H :    0.135284
  21 H :    0.184033
  22 H :    0.146529
  23 H :    0.134623
  24 H :    0.143396
Sum of atomic charges:   -0.0000000

LOEWDIN ATOMIC CHARGES
----------------------
   0 C :    0.173606
   1 C :   -0.212308
   2 C :   -0.216080
   3 C :   -0.029290
   4 O :   -0.334774
   5 H :    0.096011
   6 H :    0.113548
   7 H :    0.127865
   8 H :    0.114224
   9 H :    0.118227
  10 H :    0.103113
  11 H :    0.104032
  12 C :   -0.035119
  13 H :    0.089816
  14 C :    0.044205
  15 C :   -0.242716
  16 C :   -0.030585
  17 O :   -0.330622
  18 H :    0.122199
  19 O :   -0.326659
  20 H :    0.100557
  21 H :    0.133792
  22 H :    0.117760
  23 H :    0.098214
  24 H :    0.100984

  Mayer bond orders larger than 0.100000
B(  0-C ,  1-C ) :   0.9485 B(  0-C ,  4-O ) :   0.8832 B(  0-C ,  5-H ) :   0.9183
B(  0-C , 19-O ) :   0.8615 B(  1-C ,  2-C ) :   0.9543 B(  1-C ,  6-H ) :   0.9394
B(  1-C ,  7-H ) :   0.9352 B(  2-C ,  3-C ) :   0.9554 B(  2-C ,  8-H ) :   0.9448
B(  2-C ,  9-H ) :   0.9446 B(  3-C ,  4-O ) :   0.8338 B(  3-C , 10-H ) :   0.9357
B(  3-C , 11-H ) :   0.9404 B( 12-C , 13-H ) :   0.9153 B( 12-C , 14-C ) :   0.9305
B( 12-C , 17-O ) :   0.8691 B( 12-C , 18-H ) :   0.9302 B( 14-C , 15-C ) :   0.9388
B( 14-C , 19-O ) :   0.8218 B( 14-C , 20-H ) :   0.9260 B( 15-C , 16-C ) :   0.9413
B( 15-C , 21-H ) :   0.9212 B( 15-C , 22-H ) :   0.9368 B( 16-C , 17-O ) :   0.8584
B( 16-C , 23-H ) :   0.9330 B( 16-C , 24-H ) :   0.9360

FINAL SINGLE POINT ENERGY      -538.435375376309

DIPOLE MOMENT
-------------
                                X             Y             Z
Electronic contribution:     -1.88966      -1.17186      -1.60297
Nuclear contribution   :      2.56599       1.48070       2.37934
                        -----------------------------------------
Total Dipole Moment    :      0.67633       0.30884       0.77637
                        -----------------------------------------
Magnitude (a.u.)       :      1.07497
Magnitude (Debye)      :      2.73236

Rotational constants in cm-1:     0.085152     0.021507     0.020527
Rotational constants in MHz :  2552.792221   644.754757   615.380994

                             ****ORCA TERMINATED NORMALLY****
TOTAL RUN TIME: 0 days 0 hours 7 minutes 21 seconds 477 msec
