                         Program Version 4.2.0 -  RELEASE  -
|  1> # Test redundant internal optimization
|  2> #
|  3> ! RKS B3LYP  Opt TightSCF SmallPrint
|  4>
|  5> %basis
|  6>         Basis "6-31G"
|  7> end
|  8>
|  9> %geom
| 10> Constraints
| 11> { D 4  0  15  12  270.0   C } # D for Dihedral angle
| 12> { D 0  15  12  16  195.0   C } # D for Dihedral angle
| 13> { D 0  4  3  2   C } # D for Dihedral angle
| 14> { D 4  3  2  1   C } # D for Dihedral angle
| 15> { D 3  2  1  0   C } # D for Dihedral angle
| 16> { D 2  1  0  4   C } # D for Dihedral angle
| 17> { D 1  0  4  3   C } # D for Dihedral angle
| 18> { D 16  20  19  18   C } # D for Dihedral angle
| 19> { D 20  19  18  17   C } # D for Dihedral angle
| 20> { D 19  18  17  16   C } # D for Dihedral angle
| 21> { D 18  17  16  20   C } # D for Dihedral angle
| 22> { D 17  16  20  19   C } # D for Dihedral angle
| 23> { D 15  12  16  20   C } # D for Dihedral angle
| 24> end
| 25> end
| 26>
| 27>
| 28> #%pal
| 29> #nprocs 8
| 30> #end
| 31>
| 32> * xyz 0 1
| 33> C  -21.048   26.222   46.251
| 34> C  -20.361   27.558   45.944
| 35> C  -20.329   28.222   47.341
| 36> C  -20.110   27.022   48.296
| 37> O  -20.473   25.807   47.535
| 38> H  -20.833   25.428   45.533
| 39> H  -19.344   27.382   45.576
| 40> H  -20.898   28.157   45.201
| 41> H  -19.543   28.978   47.434
| 42> H  -21.289   28.710   47.548
| 43> H  -20.733   27.082   49.195
| 44> H  -19.064   26.913   48.597
| 45> C  -23.420   25.119   46.072
| 46> H  -23.027   24.636   45.169
| 47> H  -23.345   24.405   46.903
| 48> O  -22.586   26.394   46.375
| 49> C  -24.926   25.426   45.846
| 50> C  -25.137   26.285   44.595
| 51> C  -25.025   25.230   43.468
| 52> C  -25.660   23.968   44.103
| 53> O  -25.664   24.190   45.565
| 54> H  -25.346   25.848   46.761
| 55> H  -26.139   26.730   44.609
| 56> O  -24.096   27.429   44.456
| 57> H  -25.534   25.536   42.549
| 58> H  -23.971   25.052   43.224
| 59> H  -25.095   23.057   43.881
| 60> H  -26.699   23.823   43.796
| 61> H  -23.085   27.006   44.440
| 62> *
| 63>
| 64>                          ****END OF INPUT****
 Total Charge           Charge          ....    0
 Multiplicity           Mult            ....    1
 Number of Electrons    NEL             ....  102
FINAL SINGLE POINT ENERGY      -652.830564211676
FINAL SINGLE POINT ENERGY      -652.856322445331
FINAL SINGLE POINT ENERGY      -652.862853405099
FINAL SINGLE POINT ENERGY      -652.865552893842
FINAL SINGLE POINT ENERGY      -652.867071395042
FINAL SINGLE POINT ENERGY      -652.868177142901
FINAL SINGLE POINT ENERGY      -652.868801310367
FINAL SINGLE POINT ENERGY      -652.868985265354
FINAL SINGLE POINT ENERGY      -652.869021471990
FINAL SINGLE POINT ENERGY      -652.869026330325
                    ***********************HURRAY********************

CARTESIAN COORDINATES (ANGSTROEM)
---------------------------------
  C    -21.058031   26.113251   46.229714
  C    -20.448585   27.473538   45.893940
  C    -20.483367   28.185705   47.266624
  C    -20.212813   27.036623   48.261300
  O    -20.495136   25.782080   47.513466
  H    -20.812436   25.293427   45.549378
  H    -19.416591   27.325165   45.556149
  H    -20.997371   28.003089   45.111819
  H    -19.740712   28.985521   47.342531
  H    -21.473931   28.618910   47.434178
  H    -20.856201   27.069501   49.143605
  H    -19.166928   26.980957   48.576003
  C    -23.300565   25.060110   46.079934
  H    -22.894795   24.517289   45.214827
  H    -23.248690   24.408186   46.957542
  O    -22.502102   26.273065   46.307876
  C    -24.752678   25.478425   45.827613
  C    -24.988465   26.332398   44.571124
  C    -24.974806   25.253137   43.448834
  C    -25.628065   24.032496   44.129712
  O    -25.551330   24.275988   45.600673
  H    -25.149288   25.957384   46.727293
  H    -25.989332   26.775570   44.635784
  O    -24.043802   27.399896   44.352215
  H    -25.516675   25.583704   42.559100
  H    -23.937153   25.059485   43.157026
  H    -25.124394   23.087551   43.903715
  H    -26.689742   23.931892   43.887320
  H    -23.326015   27.320656   45.023707

 Multiplicity           Mult            ....    1
 Number of Electrons    NEL             ....  102
 Basis Dimension        Dim             ....  149

ORBITAL ENERGIES
----------------

  NO   OCC          E(Eh)            E(eV)
   0   2.0000     -19.166628      -521.5505
   1   2.0000     -19.148622      -521.0605
   2   2.0000     -19.141808      -520.8751
   3   2.0000     -19.116196      -520.1781
   4   2.0000     -10.292118      -280.0628
   5   2.0000     -10.238626      -278.6072
   6   2.0000     -10.235809      -278.5305
   7   2.0000     -10.232149      -278.4309
   8   2.0000     -10.231697      -278.4186
   9   2.0000     -10.227941      -278.3164
  10   2.0000     -10.195113      -277.4231
  11   2.0000     -10.192335      -277.3475
  12   2.0000     -10.181012      -277.0394
  13   2.0000      -1.066765       -29.0282
  14   2.0000      -1.027284       -27.9538
  15   2.0000      -1.008675       -27.4475
  16   2.0000      -0.995059       -27.0769
  17   2.0000      -0.797004       -21.6876
  18   2.0000      -0.774091       -21.0641
  19   2.0000      -0.769077       -20.9277
  20   2.0000      -0.735941       -20.0260
  21   2.0000      -0.679312       -18.4850
  22   2.0000      -0.607378       -16.5276
  23   2.0000      -0.602432       -16.3930
  24   2.0000      -0.594357       -16.1733
  25   2.0000      -0.583065       -15.8660
  26   2.0000      -0.528843       -14.3906
  27   2.0000      -0.523687       -14.2502
  28   2.0000      -0.501204       -13.6384
  29   2.0000      -0.487559       -13.2672
  30   2.0000      -0.473600       -12.8873
  31   2.0000      -0.462261       -12.5788
  32   2.0000      -0.441602       -12.0166
  33   2.0000      -0.432411       -11.7665
  34   2.0000      -0.429209       -11.6794
  35   2.0000      -0.423856       -11.5337
  36   2.0000      -0.407828       -11.0976
  37   2.0000      -0.389253       -10.5921
  38   2.0000      -0.382366       -10.4047
  39   2.0000      -0.370504       -10.0819
  40   2.0000      -0.364747        -9.9253
  41   2.0000      -0.357599        -9.7308
  42   2.0000      -0.350695        -9.5429
  43   2.0000      -0.344008        -9.3609
  44   2.0000      -0.328114        -8.9284
  45   2.0000      -0.317172        -8.6307
  46   2.0000      -0.296540        -8.0693
  47   2.0000      -0.277565        -7.5529
  48   2.0000      -0.264457        -7.1963
  49   2.0000      -0.248804        -6.7703
  50   2.0000      -0.245464        -6.6794
  51   0.0000       0.054973         1.4959
  52   0.0000       0.077916         2.1202
  53   0.0000       0.089801         2.4436
  54   0.0000       0.095567         2.6005
  55   0.0000       0.106895         2.9088

MULLIKEN ATOMIC CHARGES
-----------------------
   0 C :    0.294574
   1 C :   -0.275114
   2 C :   -0.299772
   3 C :   -0.003129
   4 O :   -0.504374
   5 H :    0.150020
   6 H :    0.153776
   7 H :    0.160397
   8 H :    0.147082
   9 H :    0.164660
  10 H :    0.154049
  11 H :    0.146441
  12 C :   -0.008832
  13 H :    0.134100
  14 H :    0.175234
  15 O :   -0.554197
  16 C :    0.047158
  17 C :    0.118736
  18 C :   -0.300268
  19 C :   -0.017775
  20 O :   -0.521361
  21 H :    0.161994
  22 H :    0.145873
  23 O :   -0.647568
  24 H :    0.151621
  25 H :    0.142775
  26 H :    0.140671
  27 H :    0.150320
  28 H :    0.392912
Sum of atomic charges:   -0.0000000

LOEWDIN ATOMIC CHARGES
----------------------
   0 C :    0.175542
   1 C :   -0.218528
   2 C :   -0.215692
   3 C :   -0.026130
   4 O :   -0.319686
   5 H :    0.102494
   6 H :    0.118721
   7 H :    0.123510
   8 H :    0.116789
   9 H :    0.120020
  10 H :    0.109382
  11 H :    0.105058
  12 C :   -0.041911
  13 H :    0.095848
  14 H :    0.119080
  15 O :   -0.337432
  16 C :    0.018448
  17 C :    0.041800
  18 C :   -0.235325
  19 C :   -0.031700
  20 O :   -0.322403
  21 H :    0.116556
  22 H :    0.103886
  23 O :   -0.439354
  24 H :    0.121492
  25 H :    0.110041
  26 H :    0.101525
  27 H :    0.106677
  28 H :    0.281293

  Mayer bond orders larger than 0.100000
B(  0-C ,  1-C ) :   0.9475 B(  0-C ,  4-O ) :   0.9345 B(  0-C ,  5-H ) :   0.9191
B(  0-C , 15-O ) :   0.8121 B(  1-C ,  2-C ) :   0.9543 B(  1-C ,  6-H ) :   0.9385
B(  1-C ,  7-H ) :   0.9331 B(  2-C ,  3-C ) :   0.9538 B(  2-C ,  8-H ) :   0.9447
B(  2-C ,  9-H ) :   0.9441 B(  3-C ,  4-O ) :   0.8309 B(  3-C , 10-H ) :   0.9350
B(  3-C , 11-H ) :   0.9398 B( 12-C , 13-H ) :   0.9197 B( 12-C , 14-H ) :   0.9219
B( 12-C , 15-O ) :   0.7825 B( 12-C , 16-C ) :   0.9092 B( 16-C , 17-C ) :   0.9152
B( 16-C , 20-O ) :   0.8556 B( 16-C , 21-H ) :   0.9287 B( 17-C , 18-C ) :   0.9036
B( 17-C , 22-H ) :   0.9280 B( 17-C , 23-O ) :   0.9300 B( 18-C , 19-C ) :   0.9398
B( 18-C , 24-H ) :   0.9447 B( 18-C , 25-H ) :   0.9432 B( 19-C , 20-O ) :   0.8324
B( 19-C , 26-H ) :   0.9348 B( 19-C , 27-H ) :   0.9383 B( 23-O , 28-H ) :   0.7153

FINAL SINGLE POINT ENERGY      -652.869027347134

DIPOLE MOMENT
-------------
                                X             Y             Z
Electronic contribution:     -1.99098      -1.78037       1.79750
Nuclear contribution   :      2.77973       1.91426      -1.98681
                        -----------------------------------------
Total Dipole Moment    :      0.78876       0.13389      -0.18931
                        -----------------------------------------
Magnitude (a.u.)       :      0.82213
Magnitude (Debye)      :      2.08970

Rotational constants in cm-1:     0.061004     0.013227     0.012007
Rotational constants in MHz :  1828.842851   396.526188   359.963880

                             ****ORCA TERMINATED NORMALLY****
TOTAL RUN TIME: 0 days 0 hours 31 minutes 23 seconds 660 msec
