                         Program Version 4.2.0 -  RELEASE  -
|  1> # Test redundant internal optimization
|  2> #
|  3> ! RKS B3LYP  Opt TightSCF SmallPrint
|  4>
|  5> %basis
|  6>         Basis "6-31G"
|  7> end
|  8>
|  9> %geom
| 10> Constraints
| 11> { D 4  0  15  12  270.0   C } # D for Dihedral angle
| 12> { D 0  15  12  16  255.0   C } # D for Dihedral angle
| 13> { D 0  4  3  2   C } # D for Dihedral angle
| 14> { D 4  3  2  1   C } # D for Dihedral angle
| 15> { D 3  2  1  0   C } # D for Dihedral angle
| 16> { D 2  1  0  4   C } # D for Dihedral angle
| 17> { D 1  0  4  3   C } # D for Dihedral angle
| 18> { D 16  20  19  18   C } # D for Dihedral angle
| 19> { D 20  19  18  17   C } # D for Dihedral angle
| 20> { D 19  18  17  16   C } # D for Dihedral angle
| 21> { D 18  17  16  20   C } # D for Dihedral angle
| 22> { D 17  16  20  19   C } # D for Dihedral angle
| 23> { D 15  12  16  20   C } # D for Dihedral angle
| 24> end
| 25> end
| 26>
| 27>
| 28> #%pal
| 29> #nprocs 8
| 30> #end
| 31>
| 32> * xyz 0 1
| 33> C  -21.048   26.222   46.251
| 34> C  -20.361   27.558   45.944
| 35> C  -20.329   28.222   47.341
| 36> C  -20.110   27.022   48.296
| 37> O  -20.473   25.807   47.535
| 38> H  -20.833   25.428   45.533
| 39> H  -19.344   27.382   45.576
| 40> H  -20.898   28.157   45.201
| 41> H  -19.543   28.978   47.434
| 42> H  -21.289   28.710   47.548
| 43> H  -20.733   27.082   49.195
| 44> H  -19.064   26.913   48.597
| 45> C  -23.420   25.119   46.072
| 46> H  -22.760   24.242   46.089
| 47> H  -24.197   24.978   46.835
| 48> O  -22.586   26.394   46.375
| 49> C  -24.122   25.175   44.687
| 50> C  -23.099   25.201   43.546
| 51> C  -22.695   23.711   43.453
| 52> C  -24.013   22.967   43.784
| 53> O  -24.893   23.949   44.453
| 54> H  -24.830   26.005   44.679
| 55> H  -23.580   25.530   42.617
| 56> O  -21.892   26.137   43.829
| 57> H  -22.298   23.439   42.469
| 58> H  -21.924   23.483   44.199
| 59> H  -23.857   22.113   44.450
| 60> H  -24.536   22.625   42.886
| 61> H  -21.395   25.826   44.754
| 62> *
| 63>
| 64>                          ****END OF INPUT****
 Total Charge           Charge          ....    0
 Multiplicity           Mult            ....    1
 Number of Electrons    NEL             ....  102
FINAL SINGLE POINT ENERGY      -652.787523547701
FINAL SINGLE POINT ENERGY      -652.834983301538
FINAL SINGLE POINT ENERGY      -652.852327160551
FINAL SINGLE POINT ENERGY      -652.855536150596
FINAL SINGLE POINT ENERGY      -652.856244784466
FINAL SINGLE POINT ENERGY      -652.856380997423
FINAL SINGLE POINT ENERGY      -652.856405233984
FINAL SINGLE POINT ENERGY      -652.856409493639
FINAL SINGLE POINT ENERGY      -652.856409118311
                    ***********************HURRAY********************

CARTESIAN COORDINATES (ANGSTROEM)
---------------------------------
  C    -21.010180   26.173914   46.323215
  C    -20.380713   27.537260   46.037644
  C    -20.420433   28.201628   47.432179
  C    -20.173458   27.017388   48.393248
  O    -20.461838   25.789631   47.606674
  H    -20.734534   25.356736   45.645217
  H    -19.345719   27.397796   45.703213
  H    -20.935031   28.085930   45.274490
  H    -19.670554   28.990737   47.542698
  H    -21.409801   28.636008   47.601991
  H    -20.825549   27.033587   49.270016
  H    -19.131447   26.942042   48.718112
  C    -23.290433   25.203800   46.103782
  H    -22.717715   24.273283   46.228259
  H    -24.079988   25.206625   46.858841
  O    -22.433479   26.350916   46.376689
  C    -23.967987   25.231563   44.718782
  C    -23.112080   25.186982   43.437038
  C    -22.734936   23.671440   43.352425
  C    -24.003679   22.981724   43.900901
  O    -24.770465   24.011484   44.644339
  H    -24.662790   26.075411   44.683631
  H    -23.772261   25.437976   42.602272
  O    -22.017390   26.112880   43.299827
  H    -22.490188   23.365921   42.332295
  H    -21.861686   23.469964   43.986784
  H    -23.781256   22.149377   44.575787
  H    -24.654171   22.619094   43.099408
  H    -21.272241   25.863903   43.878243

 Multiplicity           Mult            ....    1
 Number of Electrons    NEL             ....  102
 Basis Dimension        Dim             ....  149

ORBITAL ENERGIES
----------------

  NO   OCC          E(Eh)            E(eV)
   0   2.0000     -19.148986      -521.0704
   1   2.0000     -19.145640      -520.9794
   2   2.0000     -19.144228      -520.9409
   3   2.0000     -19.140345      -520.8353
   4   2.0000     -10.286657      -279.9142
   5   2.0000     -10.245811      -278.8027
   6   2.0000     -10.234287      -278.4891
   7   2.0000     -10.232534      -278.4414
   8   2.0000     -10.230608      -278.3890
   9   2.0000     -10.225255      -278.2433
  10   2.0000     -10.196278      -277.4548
  11   2.0000     -10.186160      -277.1795
  12   2.0000     -10.185397      -277.1587
  13   2.0000      -1.056475       -28.7481
  14   2.0000      -1.035502       -28.1774
  15   2.0000      -1.020455       -27.7680
  16   2.0000      -0.996415       -27.1138
  17   2.0000      -0.789970       -21.4962
  18   2.0000      -0.781751       -21.2725
  19   2.0000      -0.767181       -20.8761
  20   2.0000      -0.733219       -19.9519
  21   2.0000      -0.681482       -18.5441
  22   2.0000      -0.615219       -16.7410
  23   2.0000      -0.601347       -16.3635
  24   2.0000      -0.596512       -16.2319
  25   2.0000      -0.578090       -15.7306
  26   2.0000      -0.531000       -14.4492
  27   2.0000      -0.522768       -14.2252
  28   2.0000      -0.498878       -13.5752
  29   2.0000      -0.490183       -13.3385
  30   2.0000      -0.468408       -12.7460
  31   2.0000      -0.456619       -12.4252
  32   2.0000      -0.439755       -11.9663
  33   2.0000      -0.436915       -11.8891
  34   2.0000      -0.434089       -11.8122
  35   2.0000      -0.417393       -11.3579
  36   2.0000      -0.412184       -11.2161
  37   2.0000      -0.401901       -10.9363
  38   2.0000      -0.380594       -10.3565
  39   2.0000      -0.368846       -10.0368
  40   2.0000      -0.358730        -9.7615
  41   2.0000      -0.353816        -9.6278
  42   2.0000      -0.350382        -9.5344
  43   2.0000      -0.334386        -9.0991
  44   2.0000      -0.324243        -8.8231
  45   2.0000      -0.316010        -8.5991
  46   2.0000      -0.303465        -8.2577
  47   2.0000      -0.276547        -7.5252
  48   2.0000      -0.268789        -7.3141
  49   2.0000      -0.258301        -7.0287
  50   2.0000      -0.238244        -6.4829
  51   0.0000       0.041106         1.1186
  52   0.0000       0.072827         1.9817
  53   0.0000       0.084345         2.2952
  54   0.0000       0.090135         2.4527
  55   0.0000       0.100044         2.7223

MULLIKEN ATOMIC CHARGES
-----------------------
   0 C :    0.276724
   1 C :   -0.263057
   2 C :   -0.299789
   3 C :   -0.002905
   4 O :   -0.513759
   5 H :    0.111278
   6 H :    0.141133
   7 H :    0.173973
   8 H :    0.142341
   9 H :    0.167468
  10 H :    0.151283
  11 H :    0.141286
  12 C :   -0.023008
  13 H :    0.134392
  14 H :    0.173210
  15 O :   -0.512511
  16 C :    0.079834
  17 C :    0.095499
  18 C :   -0.324934
  19 C :   -0.014822
  20 O :   -0.519076
  21 H :    0.162422
  22 H :    0.167484
  23 O :   -0.602240
  24 H :    0.156817
  25 H :    0.136015
  26 H :    0.146978
  27 H :    0.153732
  28 H :    0.364233
Sum of atomic charges:   -0.0000000

LOEWDIN ATOMIC CHARGES
----------------------
   0 C :    0.164573
   1 C :   -0.220891
   2 C :   -0.214291
   3 C :   -0.026310
   4 O :   -0.327612
   5 H :    0.078752
   6 H :    0.112146
   7 H :    0.130966
   8 H :    0.114236
   9 H :    0.121701
  10 H :    0.107651
  11 H :    0.102222
  12 C :   -0.042203
  13 H :    0.098666
  14 H :    0.123558
  15 O :   -0.325911
  16 C :    0.013810
  17 C :    0.036229
  18 C :   -0.242415
  19 C :   -0.030811
  20 O :   -0.320806
  21 H :    0.116517
  22 H :    0.118551
  23 O :   -0.400012
  24 H :    0.122881
  25 H :    0.103760
  26 H :    0.103773
  27 H :    0.107639
  28 H :    0.273629

  Mayer bond orders larger than 0.100000
B(  0-C ,  1-C ) :   0.9397 B(  0-C ,  4-O ) :   0.9102 B(  0-C ,  5-H ) :   0.9053
B(  0-C , 15-O ) :   0.8666 B(  1-C ,  2-C ) :   0.9573 B(  1-C ,  6-H ) :   0.9389
B(  1-C ,  7-H ) :   0.9280 B(  2-C ,  3-C ) :   0.9543 B(  2-C ,  8-H ) :   0.9450
B(  2-C ,  9-H ) :   0.9434 B(  3-C ,  4-O ) :   0.8359 B(  3-C , 10-H ) :   0.9353
B(  3-C , 11-H ) :   0.9402 B( 12-C , 13-H ) :   0.9259 B( 12-C , 14-H ) :   0.9329
B( 12-C , 15-O ) :   0.8279 B( 12-C , 16-C ) :   0.8946 B( 16-C , 17-C ) :   0.8845
B( 16-C , 20-O ) :   0.8336 B( 16-C , 21-H ) :   0.9305 B( 17-C , 18-C ) :   0.9198
B( 17-C , 22-H ) :   0.9323 B( 17-C , 23-O ) :   0.9126 B( 18-C , 19-C ) :   0.9408
B( 18-C , 24-H ) :   0.9419 B( 18-C , 25-H ) :   0.9414 B( 19-C , 20-O ) :   0.8385
B( 19-C , 26-H ) :   0.9320 B( 19-C , 27-H ) :   0.9374 B( 23-O , 28-H ) :   0.7724

FINAL SINGLE POINT ENERGY      -652.856408940612

DIPOLE MOMENT
-------------
                                X             Y             Z
Electronic contribution:     -2.99696      -0.70010      -0.09662
Nuclear contribution   :      3.74482       0.51472      -0.09874
                        -----------------------------------------
Total Dipole Moment    :      0.74786      -0.18538      -0.19536
                        -----------------------------------------
Magnitude (a.u.)       :      0.79488
Magnitude (Debye)      :      2.02041

Rotational constants in cm-1:     0.057905     0.013884     0.012831
Rotational constants in MHz :  1735.961954   416.236376   384.649157

                             ****ORCA TERMINATED NORMALLY****
TOTAL RUN TIME: 0 days 0 hours 30 minutes 5 seconds 778 msec
