                         Program Version 4.2.0 -  RELEASE  -
|  1> # Test redundant internal optimization
|  2> #
|  3> ! RKS B3LYP  Opt TightSCF SmallPrint
|  4>
|  5> %basis
|  6>         Basis "6-31G"
|  7> end
|  8>
|  9> %geom
| 10> Constraints
| 11> { D 4  0  15  12  0.0   C } # D for Dihedral angle
| 12> { D 0  15  12  16  225.0   C } # D for Dihedral angle
| 13> { D 0  4  3  2   C } # D for Dihedral angle
| 14> { D 4  3  2  1   C } # D for Dihedral angle
| 15> { D 3  2  1  0   C } # D for Dihedral angle
| 16> { D 2  1  0  4   C } # D for Dihedral angle
| 17> { D 1  0  4  3   C } # D for Dihedral angle
| 18> { D 16  20  19  18   C } # D for Dihedral angle
| 19> { D 20  19  18  17   C } # D for Dihedral angle
| 20> { D 19  18  17  16   C } # D for Dihedral angle
| 21> { D 18  17  16  20   C } # D for Dihedral angle
| 22> { D 17  16  20  19   C } # D for Dihedral angle
| 23> { D 15  12  16  20   C } # D for Dihedral angle
| 24> end
| 25> end
| 26>
| 27>
| 28> #%pal
| 29> #nprocs 8
| 30> #end
| 31>
| 32> * xyz 0 1
| 33> C  -21.048   26.222   46.251
| 34> C  -20.361   27.558   45.944
| 35> C  -20.329   28.222   47.341
| 36> C  -20.110   27.022   48.296
| 37> O  -20.473   25.807   47.535
| 38> H  -20.833   25.428   45.533
| 39> H  -19.344   27.382   45.576
| 40> H  -20.898   28.157   45.201
| 41> H  -19.543   28.978   47.434
| 42> H  -21.289   28.710   47.548
| 43> H  -20.733   27.082   49.195
| 44> H  -19.064   26.913   48.597
| 45> C  -23.172   26.101   47.783
| 46> H  -22.422   25.572   48.385
| 47> H  -23.425   27.037   48.297
| 48> O  -22.586   26.394   46.375
| 49> C  -24.457   25.229   47.730
| 50> C  -24.159   23.830   47.179
| 51> C  -23.550   23.130   48.416
| 52> C  -24.346   23.743   49.595
| 53> O  -24.967   24.984   49.083
| 54> H  -25.235   25.772   47.189
| 55> O  -25.479   23.135   46.748
| 56> H  -23.480   23.842   46.319
| 57> H  -23.640   22.040   48.374
| 58> H  -22.484   23.374   48.500
| 59> H  -23.707   23.988   50.450
| 60> H  -25.157   23.093   49.935
| 61> H  -26.176   23.111   47.595
| 62> *
| 63>
| 64>                          ****END OF INPUT****
 Total Charge           Charge          ....    0
 Multiplicity           Mult            ....    1
 Number of Electrons    NEL             ....  102
FINAL SINGLE POINT ENERGY      -652.836613061796
FINAL SINGLE POINT ENERGY      -652.858633608391
FINAL SINGLE POINT ENERGY      -652.862205772426
FINAL SINGLE POINT ENERGY      -652.862751484235
FINAL SINGLE POINT ENERGY      -652.862831678096
FINAL SINGLE POINT ENERGY      -652.862843599826
                    ***********************HURRAY********************

CARTESIAN COORDINATES (ANGSTROEM)
---------------------------------
  C    -21.102656   26.187481   46.376885
  C    -20.512170   27.531387   45.949096
  C    -20.338387   28.247537   47.308855
  C    -19.960178   27.098210   48.267991
  O    -20.375205   25.843222   47.574520
  H    -20.944826   25.369072   45.671361
  H    -19.543435   27.364174   45.463761
  H    -21.170673   28.064700   45.260565
  H    -19.572523   29.028539   47.278576
  H    -21.283306   28.711699   47.609262
  H    -20.471533   27.150496   49.232755
  H    -18.882626   27.014961   48.433589
  C    -23.133980   26.091993   47.881024
  H    -22.404992   25.614698   48.542175
  H    -23.429292   27.053587   48.317638
  O    -22.548117   26.311973   46.564329
  C    -24.375069   25.213161   47.719984
  C    -24.103077   23.802013   47.178255
  C    -23.595730   23.072241   48.447720
  C    -24.432785   23.713757   49.582554
  O    -24.973656   24.985760   49.041457
  H    -25.122774   25.726375   47.109123
  O    -25.324327   23.202307   46.661469
  H    -23.397108   23.790724   46.349448
  H    -23.752816   21.993519   48.361869
  H    -22.524535   23.254500   48.586707
  H    -23.840902   23.930635   50.477300
  H    -25.290208   23.098573   49.873360
  H    -26.060116   23.388706   47.282370

 Multiplicity           Mult            ....    1
 Number of Electrons    NEL             ....  102
 Basis Dimension        Dim             ....  149

ORBITAL ENERGIES
----------------

  NO   OCC          E(Eh)            E(eV)
   0   2.0000     -19.157224      -521.2946
   1   2.0000     -19.140891      -520.8501
   2   2.0000     -19.140373      -520.8360
   3   2.0000     -19.130916      -520.5787
   4   2.0000     -10.283867      -279.8383
   5   2.0000     -10.237335      -278.5720
   6   2.0000     -10.231745      -278.4199
   7   2.0000     -10.228079      -278.3202
   8   2.0000     -10.227221      -278.2968
   9   2.0000     -10.225026      -278.2371
  10   2.0000     -10.194514      -277.4068
  11   2.0000     -10.188723      -277.2492
  12   2.0000     -10.182762      -277.0870
  13   2.0000      -1.059184       -28.8219
  14   2.0000      -1.031827       -28.0774
  15   2.0000      -1.000207       -27.2170
  16   2.0000      -0.994572       -27.0637
  17   2.0000      -0.795120       -21.6363
  18   2.0000      -0.775751       -21.1093
  19   2.0000      -0.766132       -20.8475
  20   2.0000      -0.734500       -19.9868
  21   2.0000      -0.672157       -18.2903
  22   2.0000      -0.607834       -16.5400
  23   2.0000      -0.598679       -16.2909
  24   2.0000      -0.594084       -16.1659
  25   2.0000      -0.574910       -15.6441
  26   2.0000      -0.520677       -14.1683
  27   2.0000      -0.516385       -14.0515
  28   2.0000      -0.503192       -13.6926
  29   2.0000      -0.488337       -13.2883
  30   2.0000      -0.472458       -12.8562
  31   2.0000      -0.458263       -12.4700
  32   2.0000      -0.451280       -12.2800
  33   2.0000      -0.434053       -11.8112
  34   2.0000      -0.419468       -11.4143
  35   2.0000      -0.413137       -11.2420
  36   2.0000      -0.406469       -11.0606
  37   2.0000      -0.387909       -10.5555
  38   2.0000      -0.377719       -10.2783
  39   2.0000      -0.365252        -9.9390
  40   2.0000      -0.362876        -9.8744
  41   2.0000      -0.358065        -9.7435
  42   2.0000      -0.352424        -9.5900
  43   2.0000      -0.335290        -9.1237
  44   2.0000      -0.326634        -8.8882
  45   2.0000      -0.308027        -8.3819
  46   2.0000      -0.301824        -8.2131
  47   2.0000      -0.272301        -7.4097
  48   2.0000      -0.266560        -7.2535
  49   2.0000      -0.256884        -6.9902
  50   2.0000      -0.237331        -6.4581
  51   0.0000       0.068698         1.8694
  52   0.0000       0.071166         1.9365
  53   0.0000       0.094579         2.5736
  54   0.0000       0.097532         2.6540
  55   0.0000       0.103056         2.8043

MULLIKEN ATOMIC CHARGES
-----------------------
   0 C :    0.300011
   1 C :   -0.255051
   2 C :   -0.310363
   3 C :   -0.018360
   4 O :   -0.515137
   5 H :    0.157442
   6 H :    0.144564
   7 H :    0.163670
   8 H :    0.149491
   9 H :    0.159779
  10 H :    0.147172
  11 H :    0.154098
  12 C :   -0.015720
  13 H :    0.160117
  14 H :    0.140243
  15 O :   -0.543876
  16 C :    0.058904
  17 C :    0.086832
  18 C :   -0.309922
  19 C :   -0.030888
  20 O :   -0.528247
  21 H :    0.165243
  22 O :   -0.603438
  23 H :    0.168412
  24 H :    0.162310
  25 H :    0.160845
  26 H :    0.144254
  27 H :    0.145874
  28 H :    0.361741
Sum of atomic charges:   -0.0000000

LOEWDIN ATOMIC CHARGES
----------------------
   0 C :    0.182600
   1 C :   -0.220240
   2 C :   -0.219191
   3 C :   -0.032124
   4 O :   -0.319881
   5 H :    0.105018
   6 H :    0.113804
   7 H :    0.127231
   8 H :    0.118547
   9 H :    0.116775
  10 H :    0.104244
  11 H :    0.108838
  12 C :   -0.045063
  13 H :    0.109787
  14 H :    0.101547
  15 O :   -0.345809
  16 C :    0.015175
  17 C :    0.037878
  18 C :   -0.245624
  19 C :   -0.038724
  20 O :   -0.332361
  21 H :    0.117018
  22 O :   -0.415469
  23 H :    0.123368
  24 H :    0.126292
  25 H :    0.120432
  26 H :    0.102861
  27 H :    0.102150
  28 H :    0.280920

  Mayer bond orders larger than 0.100000
B(  0-C ,  1-C ) :   0.9316 B(  0-C ,  4-O ) :   0.9127 B(  0-C ,  5-H ) :   0.9283
B(  0-C , 15-O ) :   0.8413 B(  1-C ,  2-C ) :   0.9526 B(  1-C ,  6-H ) :   0.9349
B(  1-C ,  7-H ) :   0.9355 B(  2-C ,  3-C ) :   0.9538 B(  2-C ,  8-H ) :   0.9445
B(  2-C ,  9-H ) :   0.9447 B(  3-C ,  4-O ) :   0.8246 B(  3-C , 10-H ) :   0.9336
B(  3-C , 11-H ) :   0.9404 B( 12-C , 13-H ) :   0.9067 B( 12-C , 14-H ) :   0.9238
B( 12-C , 15-O ) :   0.8228 B( 12-C , 16-C ) :   0.9010 B( 16-C , 17-C ) :   0.9112
B( 16-C , 20-O ) :   0.8404 B( 16-C , 21-H ) :   0.9268 B( 17-C , 18-C ) :   0.9141
B( 17-C , 22-O ) :   0.8896 B( 17-C , 23-H ) :   0.9263 B( 18-C , 19-C ) :   0.9418
B( 18-C , 24-H ) :   0.9371 B( 18-C , 25-H ) :   0.9305 B( 19-C , 20-O ) :   0.8435
B( 19-C , 26-H ) :   0.9358 B( 19-C , 27-H ) :   0.9382 B( 22-O , 28-H ) :   0.7965

FINAL SINGLE POINT ENERGY      -652.862846325137

DIPOLE MOMENT
-------------
                                X             Y             Z
Electronic contribution:     -4.09394      -2.25167      -1.75411
Nuclear contribution   :      5.14833       2.88662       2.33561
                        -----------------------------------------
Total Dipole Moment    :      1.05439       0.63495       0.58150
                        -----------------------------------------
Magnitude (a.u.)       :      1.36126
Magnitude (Debye)      :      3.46005

Rotational constants in cm-1:     0.056132     0.013614     0.012917
Rotational constants in MHz :  1682.790048   408.145794   387.243586

                             ****ORCA TERMINATED NORMALLY****
TOTAL RUN TIME: 0 days 1 hours 25 minutes 9 seconds 207 msec
