                         Program Version 4.2.1 -  RELEASE  -
|  1> # Test redundant internal optimization
|  2> #
|  3> ! RKS B3LYP  Opt TightSCF SmallPrint
|  4>
|  5> %basis
|  6>         Basis "6-31G"
|  7> end
|  8>
|  9> %geom
| 10> Constraints
| 11> { D 4  0  19  14  210.0   C } # D for Dihedral angle
| 12> { D 0  19  14  12  75.0   C } # D for Dihedral angle
| 13> { D 0  4  3  2   C } # D for Dihedral angle
| 14> { D 4  3  2  1   C } # D for Dihedral angle
| 15> { D 3  2  1  0   C } # D for Dihedral angle
| 16> { D 2  1  0  4   C } # D for Dihedral angle
| 17> { D 1  0  4  3   C } # D for Dihedral angle
| 18> { D 14  15  16  17   C } # D for Dihedral angle
| 19> { D 15  16  17  12   C } # D for Dihedral angle
| 20> { D 16  17  12  14   C } # D for Dihedral angle
| 21> { D 17  12  14  15   C } # D for Dihedral angle
| 22> { D 12  14  15  16   C } # D for Dihedral angle
| 23> end
| 24> end
| 25>
| 26>
| 27> #%pal
| 28> #nprocs 8
| 29> #end
| 30>
| 31> * xyz 0 1
| 32> C  -21.048   26.222   46.251
| 33> C  -20.361   27.558   45.944
| 34> C  -20.329   28.222   47.341
| 35> C  -20.110   27.022   48.296
| 36> O  -20.473   25.807   47.535
| 37> H  -20.833   25.428   45.533
| 38> H  -19.344   27.382   45.576
| 39> H  -20.898   28.157   45.201
| 40> H  -19.543   28.978   47.434
| 41> H  -21.289   28.710   47.548
| 42> H  -20.733   27.082   49.195
| 43> H  -19.064   26.913   48.597
| 44> C  -23.262   24.604   44.903
| 45> H  -23.546   24.383   43.862
| 46> C  -23.197   26.114   45.155
| 47> C  -24.693   26.469   45.325
| 48> C  -25.273   25.221   46.035
| 49> O  -24.298   24.128   45.828
| 50> H  -22.346   24.064   45.146
| 51> O  -22.472   26.381   46.366
| 52> H  -22.720   26.666   44.338
| 53> H  -24.850   27.387   45.899
| 54> H  -25.162   26.606   44.342
| 55> H  -26.243   24.918   45.628
| 56> H  -25.371   25.363   47.116
| 57> *
| 58>
| 59>                          ****END OF INPUT****
 Total Charge           Charge          ....    0
 Multiplicity           Mult            ....    1
 Number of Electrons    NEL             ....   86
FINAL SINGLE POINT ENERGY      -538.427674099862
FINAL SINGLE POINT ENERGY      -538.430394624957
FINAL SINGLE POINT ENERGY      -538.430723516062
FINAL SINGLE POINT ENERGY      -538.430770899114
FINAL SINGLE POINT ENERGY      -538.430784774314
                    ***********************HURRAY********************

CARTESIAN COORDINATES (ANGSTROEM)
---------------------------------
  C    -20.989188   26.203739   46.237847
  C    -20.310257   27.541611   45.951430
  C    -20.376199   28.236580   47.332576
  C    -20.197404   27.062103   48.317928
  O    -20.498520   25.833696   47.535975
  H    -20.733360   25.392510   45.550579
  H    -19.270374   27.366904   45.650074
  H    -20.809343   28.110743   45.161814
  H    -19.607941   29.006039   47.453900
  H    -21.358103   28.701173   47.462102
  H    -20.878003   27.107014   49.171501
  H    -19.169097   26.959565   48.676978
  C    -23.316452   24.583949   44.819011
  H    -23.671581   24.420642   43.789638
  C    -23.186843   26.079900   45.097810
  C    -24.649345   26.472554   45.380763
  C    -25.220695   25.228874   46.102659
  O    -24.294684   24.115282   45.799946
  H    -22.402552   24.008281   44.977837
  O    -22.433665   26.371409   46.311781
  H    -22.763408   26.631726   44.245928
  H    -24.694848   27.378773   45.988670
  H    -25.169347   26.657341   44.433934
  H    -26.225381   24.966025   45.754294
  H    -25.231409   25.348569   47.189025

 Multiplicity           Mult            ....    1
 Number of Electrons    NEL             ....   86
 Basis Dimension        Dim             ....  127

ORBITAL ENERGIES
----------------

  NO   OCC          E(Eh)            E(eV)
   0   2.0000     -19.139921      -520.8237
   1   2.0000     -19.138085      -520.7738
   2   2.0000     -19.126422      -520.4564
   3   2.0000     -10.278617      -279.6954
   4   2.0000     -10.242619      -278.7158
   5   2.0000     -10.223259      -278.1890
   6   2.0000     -10.223123      -278.1853
   7   2.0000     -10.218042      -278.0471
   8   2.0000     -10.186548      -277.1901
   9   2.0000     -10.186110      -277.1782
  10   2.0000     -10.185564      -277.1633
  11   2.0000      -1.052429       -28.6380
  12   2.0000      -1.013545       -27.5800
  13   2.0000      -0.989197       -26.9174
  14   2.0000      -0.789446       -21.4819
  15   2.0000      -0.778762       -21.1912
  16   2.0000      -0.736796       -20.0493
  17   2.0000      -0.724576       -19.7167
  18   2.0000      -0.614376       -16.7180
  19   2.0000      -0.599340       -16.3089
  20   2.0000      -0.592728       -16.1289
  21   2.0000      -0.571377       -15.5480
  22   2.0000      -0.526329       -14.3221
  23   2.0000      -0.499212       -13.5843
  24   2.0000      -0.489181       -13.3113
  25   2.0000      -0.477570       -12.9953
  26   2.0000      -0.448852       -12.2139
  27   2.0000      -0.446032       -12.1371
  28   2.0000      -0.433272       -11.7899
  29   2.0000      -0.416962       -11.3461
  30   2.0000      -0.403675       -10.9846
  31   2.0000      -0.377906       -10.2833
  32   2.0000      -0.371679       -10.1139
  33   2.0000      -0.364018        -9.9054
  34   2.0000      -0.361557        -9.8385
  35   2.0000      -0.355653        -9.6778
  36   2.0000      -0.349539        -9.5114
  37   2.0000      -0.312604        -8.5064
  38   2.0000      -0.308645        -8.3986
  39   2.0000      -0.300243        -8.1700
  40   2.0000      -0.260563        -7.0903
  41   2.0000      -0.248325        -6.7573
  42   2.0000      -0.233060        -6.3419
  43   0.0000       0.076309         2.0765
  44   0.0000       0.097248         2.6462
  45   0.0000       0.101993         2.7754
  46   0.0000       0.109248         2.9728
  47   0.0000       0.118309         3.2194

MULLIKEN ATOMIC CHARGES
-----------------------
   0 C :    0.296222
   1 C :   -0.262810
   2 C :   -0.298200
   3 C :   -0.001029
   4 O :   -0.500271
   5 H :    0.135463
   6 H :    0.143454
   7 H :    0.141280
   8 H :    0.141195
   9 H :    0.159745
  10 H :    0.154333
  11 H :    0.141092
  12 C :    0.001406
  13 H :    0.120920
  14 C :    0.059191
  15 C :   -0.291528
  16 C :    0.003365
  17 O :   -0.515275
  18 H :    0.161923
  19 O :   -0.505911
  20 H :    0.120017
  21 H :    0.161097
  22 H :    0.140897
  23 H :    0.132296
  24 H :    0.161125
Sum of atomic charges:   -0.0000000

LOEWDIN ATOMIC CHARGES
----------------------
   0 C :    0.177741
   1 C :   -0.227094
   2 C :   -0.216681
   3 C :   -0.025249
   4 O :   -0.304859
   5 H :    0.095174
   6 H :    0.112667
   7 H :    0.113776
   8 H :    0.113936
   9 H :    0.118014
  10 H :    0.109424
  11 H :    0.102100
  12 C :   -0.046804
  13 H :    0.090668
  14 C :    0.034725
  15 C :   -0.222305
  16 C :   -0.027032
  17 O :   -0.326400
  18 H :    0.116633
  19 O :   -0.326521
  20 H :    0.090060
  21 H :    0.127464
  22 H :    0.111739
  23 H :    0.097121
  24 H :    0.111705

  Mayer bond orders larger than 0.100000
B(  0-C ,  1-C ) :   0.9337 B(  0-C ,  4-O ) :   0.9373 B(  0-C ,  5-H ) :   0.9160
B(  0-C , 19-O ) :   0.8318 B(  1-C ,  2-C ) :   0.9544 B(  1-C ,  6-H ) :   0.9347
B(  1-C ,  7-H ) :   0.9373 B(  2-C ,  3-C ) :   0.9550 B(  2-C ,  8-H ) :   0.9451
B(  2-C ,  9-H ) :   0.9441 B(  3-C ,  4-O ) :   0.8377 B(  3-C , 10-H ) :   0.9342
B(  3-C , 11-H ) :   0.9397 B( 12-C , 13-H ) :   0.9091 B( 12-C , 14-C ) :   0.9092
B( 12-C , 17-O ) :   0.8776 B( 12-C , 18-H ) :   0.9279 B( 14-C , 15-C ) :   0.9593
B( 14-C , 19-O ) :   0.8438 B( 14-C , 20-H ) :   0.9171 B( 15-C , 16-C ) :   0.9472
B( 15-C , 21-H ) :   0.9369 B( 15-C , 22-H ) :   0.9422 B( 16-C , 17-O ) :   0.8545
B( 16-C , 23-H ) :   0.9333 B( 16-C , 24-H ) :   0.9348

FINAL SINGLE POINT ENERGY      -538.430786240641

DIPOLE MOMENT
-------------
                                X             Y             Z
Electronic contribution:     -0.20460      -4.26735       1.23675
Nuclear contribution   :      0.46099       5.68331      -2.12582
                        -----------------------------------------
Total Dipole Moment    :      0.25638       1.41597      -0.88907
                        -----------------------------------------
Magnitude (a.u.)       :      1.69149
Magnitude (Debye)      :      4.29943

Rotational constants in cm-1:     0.082111     0.020009     0.019428
Rotational constants in MHz :  2461.639712   599.868342   582.450131

                             ****ORCA TERMINATED NORMALLY****
TOTAL RUN TIME: 0 days 0 hours 7 minutes 28 seconds 204 msec
