                         Program Version 4.2.0 -  RELEASE  -
|  1> # Test redundant internal optimization
|  2> #
|  3> ! RKS B3LYP  Opt TightSCF SmallPrint
|  4>
|  5> %basis
|  6>         Basis "6-31G"
|  7> end
|  8>
|  9> %geom
| 10> Constraints
| 11> { D 4  0  15  12  135.0   C } # D for Dihedral angle
| 12> { D 0  15  12  16  285.0   C } # D for Dihedral angle
| 13> { D 0  4  3  2   C } # D for Dihedral angle
| 14> { D 4  3  2  1   C } # D for Dihedral angle
| 15> { D 3  2  1  0   C } # D for Dihedral angle
| 16> { D 2  1  0  4   C } # D for Dihedral angle
| 17> { D 1  0  4  3   C } # D for Dihedral angle
| 18> { D 16  20  19  18   C } # D for Dihedral angle
| 19> { D 20  19  18  17   C } # D for Dihedral angle
| 20> { D 19  18  17  16   C } # D for Dihedral angle
| 21> { D 18  17  16  20   C } # D for Dihedral angle
| 22> { D 17  16  20  19   C } # D for Dihedral angle
| 23> { D 15  12  16  20   C } # D for Dihedral angle
| 24> end
| 25> end
| 26>
| 27>
| 28> #%pal
| 29> #nprocs 8
| 30> #end
| 31>
| 32> * xyz 0 1
| 33> C  -21.048   26.222   46.251
| 34> C  -20.361   27.558   45.944
| 35> C  -20.329   28.222   47.341
| 36> C  -20.110   27.022   48.296
| 37> O  -20.473   25.807   47.535
| 38> H  -20.833   25.428   45.533
| 39> H  -19.344   27.382   45.576
| 40> H  -20.898   28.157   45.201
| 41> H  -19.543   28.978   47.434
| 42> H  -21.289   28.710   47.548
| 43> H  -20.733   27.082   49.195
| 44> H  -19.064   26.913   48.597
| 45> C  -23.162   27.680   45.721
| 46> H  -22.720   27.808   44.725
| 47> H  -24.250   27.597   45.605
| 48> O  -22.586   26.394   46.375
| 49> C  -22.870   28.959   46.553
| 50> C  -23.550   30.189   45.939
| 51> C  -25.008   30.017   46.427
| 52> C  -24.837   29.395   47.836
| 53> O  -23.464   28.848   47.889
| 54> H  -21.792   29.060   46.689
| 55> H  -23.111   31.105   46.349
| 56> O  -23.435   30.240   44.391
| 57> H  -25.561   30.961   46.452
| 58> H  -25.548   29.330   45.765
| 59> H  -25.552   28.587   48.027
| 60> H  -24.919   30.139   48.633
| 61> H  -23.870   29.333   43.958
| 62> *
| 63>
| 64>                          ****END OF INPUT****
 Total Charge           Charge          ....    0
 Multiplicity           Mult            ....    1
 Number of Electrons    NEL             ....  102
FINAL SINGLE POINT ENERGY      -652.759957129471
FINAL SINGLE POINT ENERGY      -652.813073170582
FINAL SINGLE POINT ENERGY      -652.833965600679
FINAL SINGLE POINT ENERGY      -652.838883775277
FINAL SINGLE POINT ENERGY      -652.839743808532
FINAL SINGLE POINT ENERGY      -652.839953711756
FINAL SINGLE POINT ENERGY      -652.839975809073
FINAL SINGLE POINT ENERGY      -652.839982681812
                    ***********************HURRAY********************

CARTESIAN COORDINATES (ANGSTROEM)
---------------------------------
  C    -21.048052   26.299515   46.281317
  C    -20.032027   27.411738   45.991604
  C    -19.864280   28.080835   47.391323
  C    -19.990665   26.868016   48.345363
  O    -20.635089   25.793117   47.558072
  H    -20.955246   25.451755   45.596300
  H    -19.093311   26.943347   45.679933
  H    -20.341818   28.110971   45.208354
  H    -18.895041   28.580519   47.488538
  H    -20.641460   28.812844   47.601542
  H    -20.607802   27.081351   49.221932
  H    -19.020139   26.480981   48.668992
  C    -23.116780   27.801357   45.752124
  H    -22.767912   27.992888   44.724726
  H    -24.163792   27.484889   45.698728
  O    -22.469137   26.614263   46.280579
  C    -23.022805   29.122741   46.518001
  C    -23.835416   30.242568   45.839188
  C    -25.278974   29.959524   46.366440
  C    -25.015842   29.451906   47.802325
  O    -23.589393   29.046834   47.858938
  H    -21.986083   29.429193   46.633658
  H    -23.483399   31.208743   46.207869
  O    -23.707734   30.335131   44.400371
  H    -25.908214   30.852875   46.339423
  H    -25.754974   29.189495   45.745490
  H    -25.638372   28.593887   48.073308
  H    -25.154186   30.238853   48.549811
  H    -24.242058   29.642863   43.960752

 Multiplicity           Mult            ....    1
 Number of Electrons    NEL             ....  102
 Basis Dimension        Dim             ....  149

ORBITAL ENERGIES
----------------

  NO   OCC          E(Eh)            E(eV)
   0   2.0000     -19.155419      -521.2455
   1   2.0000     -19.141293      -520.8611
   2   2.0000     -19.132714      -520.6276
   3   2.0000     -19.132110      -520.6112
   4   2.0000     -10.275113      -279.6000
   5   2.0000     -10.250733      -278.9366
   6   2.0000     -10.234405      -278.4923
   7   2.0000     -10.234375      -278.4915
   8   2.0000     -10.233735      -278.4741
   9   2.0000     -10.218904      -278.0705
  10   2.0000     -10.200181      -277.5610
  11   2.0000     -10.190179      -277.2889
  12   2.0000     -10.185603      -277.1644
  13   2.0000      -1.043617       -28.3983
  14   2.0000      -1.037988       -28.2451
  15   2.0000      -1.020466       -27.7683
  16   2.0000      -0.986840       -26.8533
  17   2.0000      -0.787391       -21.4260
  18   2.0000      -0.783109       -21.3095
  19   2.0000      -0.772088       -21.0096
  20   2.0000      -0.732830       -19.9413
  21   2.0000      -0.685330       -18.6488
  22   2.0000      -0.616614       -16.7789
  23   2.0000      -0.607476       -16.5303
  24   2.0000      -0.594273       -16.1710
  25   2.0000      -0.568926       -15.4813
  26   2.0000      -0.527175       -14.3452
  27   2.0000      -0.508595       -13.8396
  28   2.0000      -0.500194       -13.6110
  29   2.0000      -0.496435       -13.5087
  30   2.0000      -0.466419       -12.6919
  31   2.0000      -0.456026       -12.4091
  32   2.0000      -0.443098       -12.0573
  33   2.0000      -0.435418       -11.8483
  34   2.0000      -0.432182       -11.7603
  35   2.0000      -0.426312       -11.6005
  36   2.0000      -0.407796       -11.0967
  37   2.0000      -0.406383       -11.0583
  38   2.0000      -0.382954       -10.4207
  39   2.0000      -0.377321       -10.2674
  40   2.0000      -0.360380        -9.8065
  41   2.0000      -0.351756        -9.5718
  42   2.0000      -0.348151        -9.4737
  43   2.0000      -0.333737        -9.0814
  44   2.0000      -0.320867        -8.7312
  45   2.0000      -0.304930        -8.2976
  46   2.0000      -0.283309        -7.7092
  47   2.0000      -0.276005        -7.5105
  48   2.0000      -0.266193        -7.2435
  49   2.0000      -0.251280        -6.8377
  50   2.0000      -0.233192        -6.3455
  51   0.0000       0.047458         1.2914
  52   0.0000       0.074859         2.0370
  53   0.0000       0.079941         2.1753
  54   0.0000       0.088923         2.4197
  55   0.0000       0.098352         2.6763

MULLIKEN ATOMIC CHARGES
-----------------------
   0 C :    0.326484
   1 C :   -0.305097
   2 C :   -0.316596
   3 C :   -0.004066
   4 O :   -0.495700
   5 H :    0.151261
   6 H :    0.155573
   7 H :    0.145320
   8 H :    0.141275
   9 H :    0.174296
  10 H :    0.159928
  11 H :    0.140461
  12 C :    0.001132
  13 H :    0.119203
  14 H :    0.147864
  15 O :   -0.529017
  16 C :    0.074774
  17 C :    0.084329
  18 C :   -0.330279
  19 C :   -0.011021
  20 O :   -0.510358
  21 H :    0.151551
  22 H :    0.165460
  23 O :   -0.599037
  24 H :    0.160877
  25 H :    0.138064
  26 H :    0.153291
  27 H :    0.151889
  28 H :    0.358139
Sum of atomic charges:    0.0000000

LOEWDIN ATOMIC CHARGES
----------------------
   0 C :    0.185926
   1 C :   -0.233651
   2 C :   -0.223817
   3 C :   -0.027949
   4 O :   -0.306997
   5 H :    0.101017
   6 H :    0.123118
   7 H :    0.113815
   8 H :    0.114111
   9 H :    0.118414
  10 H :    0.111424
  11 H :    0.101222
  12 C :   -0.043165
  13 H :    0.091290
  14 H :    0.111140
  15 O :   -0.329589
  16 C :    0.002175
  17 C :    0.036192
  18 C :   -0.243376
  19 C :   -0.028577
  20 O :   -0.318205
  21 H :    0.110884
  22 H :    0.118041
  23 O :   -0.406966
  24 H :    0.123863
  25 H :    0.105937
  26 H :    0.107640
  27 H :    0.107112
  28 H :    0.278973

  Mayer bond orders larger than 0.100000
B(  0-C ,  1-C ) :   0.9276 B(  0-C ,  4-O ) :   0.9280 B(  0-C ,  5-H ) :   0.9314
B(  0-C , 15-O ) :   0.8600 B(  1-C ,  2-C ) :   0.9540 B(  1-C ,  6-H ) :   0.9330
B(  1-C ,  7-H ) :   0.9312 B(  2-C ,  3-C ) :   0.9489 B(  2-C ,  8-H ) :   0.9459
B(  2-C ,  9-H ) :   0.9218 B(  3-C ,  4-O ) :   0.8398 B(  3-C , 10-H ) :   0.9327
B(  3-C , 11-H ) :   0.9398 B( 12-C , 13-H ) :   0.9016 B( 12-C , 14-H ) :   0.9370
B( 12-C , 15-O ) :   0.8718 B( 12-C , 16-C ) :   0.8810 B( 16-C , 17-C ) :   0.8605
B( 16-C , 20-O ) :   0.8699 B( 16-C , 21-H ) :   0.9127 B( 17-C , 18-C ) :   0.9233
B( 17-C , 22-H ) :   0.9339 B( 17-C , 23-O ) :   0.8990 B( 18-C , 19-C ) :   0.9402
B( 18-C , 24-H ) :   0.9409 B( 18-C , 25-H ) :   0.9394 B( 19-C , 20-O ) :   0.8450
B( 19-C , 26-H ) :   0.9304 B( 19-C , 27-H ) :   0.9372 B( 23-O , 28-H ) :   0.7968

FINAL SINGLE POINT ENERGY      -652.839983358118

DIPOLE MOMENT
-------------
                                X             Y             Z
Electronic contribution:     -0.74469      -3.08665       0.05507
Nuclear contribution   :      0.41700       4.09431      -0.64326
                        -----------------------------------------
Total Dipole Moment    :     -0.32769       1.00766      -0.58820
                        -----------------------------------------
Magnitude (a.u.)       :      1.21191
Magnitude (Debye)      :      3.08044

Rotational constants in cm-1:     0.048702     0.015031     0.014002
Rotational constants in MHz :  1460.060372   450.623533   419.758567

                             ****ORCA TERMINATED NORMALLY****
TOTAL RUN TIME: 0 days 2 hours 24 minutes 26 seconds 428 msec
