                         Program Version 4.2.0 -  RELEASE  -
|  1> # Test redundant internal optimization
|  2> #
|  3> ! RKS B3LYP  Opt TightSCF SmallPrint
|  4>
|  5> %basis
|  6>         Basis "6-31G"
|  7> end
|  8>
|  9> %geom
| 10> Constraints
| 11> { D 4  0  15  12  330.0   C } # D for Dihedral angle
| 12> { D 0  15  12  16  150.0   C } # D for Dihedral angle
| 13> { D 0  4  3  2   C } # D for Dihedral angle
| 14> { D 4  3  2  1   C } # D for Dihedral angle
| 15> { D 3  2  1  0   C } # D for Dihedral angle
| 16> { D 2  1  0  4   C } # D for Dihedral angle
| 17> { D 1  0  4  3   C } # D for Dihedral angle
| 18> { D 16  20  19  18   C } # D for Dihedral angle
| 19> { D 20  19  18  17   C } # D for Dihedral angle
| 20> { D 19  18  17  16   C } # D for Dihedral angle
| 21> { D 18  17  16  20   C } # D for Dihedral angle
| 22> { D 17  16  20  19   C } # D for Dihedral angle
| 23> { D 15  12  16  20   C } # D for Dihedral angle
| 24> end
| 25> end
| 26>
| 27>
| 28> #%pal
| 29> #nprocs 8
| 30> #end
| 31>
| 32> * xyz 0 1
| 33> C  -21.048   26.222   46.251
| 34> C  -20.361   27.558   45.944
| 35> C  -20.329   28.222   47.341
| 36> C  -20.110   27.022   48.296
| 37> O  -20.473   25.807   47.535
| 38> H  -20.833   25.428   45.533
| 39> H  -19.344   27.382   45.576
| 40> H  -20.898   28.157   45.201
| 41> H  -19.543   28.978   47.434
| 42> H  -21.289   28.710   47.548
| 43> H  -20.733   27.082   49.195
| 44> H  -19.064   26.913   48.597
| 45> C  -23.271   25.476   47.424
| 46> H  -23.562   24.533   46.944
| 47> H  -22.577   25.244   48.243
| 48> O  -22.586   26.394   46.375
| 49> C  -24.540   26.119   48.048
| 50> C  -24.226   27.489   48.661
| 51> C  -24.197   28.394   47.406
| 52> C  -25.290   27.775   46.499
| 53> O  -25.533   26.407   47.007
| 54> H  -24.998   25.409   48.739
| 55> O  -25.371   27.918   49.619
| 56> H  -23.284   27.506   49.219
| 57> H  -24.392   29.446   47.636
| 58> H  -23.215   28.334   46.922
| 59> H  -24.983   27.719   45.450
| 60> H  -26.239   28.315   46.562
| 61> H  -26.325   27.909   49.081
| 62> *
| 63>
| 64>                          ****END OF INPUT****
 Total Charge           Charge          ....    0
 Multiplicity           Mult            ....    1
 Number of Electrons    NEL             ....  102
FINAL SINGLE POINT ENERGY      -652.835922986797
FINAL SINGLE POINT ENERGY      -652.857946499315
FINAL SINGLE POINT ENERGY      -652.862219111347
FINAL SINGLE POINT ENERGY      -652.863729290477
FINAL SINGLE POINT ENERGY      -652.863888049514
FINAL SINGLE POINT ENERGY      -652.863913393318
                    ***********************HURRAY********************

CARTESIAN COORDINATES (ANGSTROEM)
---------------------------------
  C    -21.068560   26.144758   46.341028
  C    -20.419224   27.473026   45.950190
  C    -20.322354   28.192628   47.316227
  C    -20.037081   27.038015   48.302577
  O    -20.432015   25.791010   47.587552
  H    -20.854840   25.312836   45.661879
  H    -19.424212   27.274851   45.537530
  H    -21.009016   28.020240   45.211528
  H    -19.531858   28.949678   47.332884
  H    -21.266870   28.688316   47.554910
  H    -20.608476   27.108771   49.231870
  H    -18.975329   26.932663   48.540847
  C    -23.211085   25.494277   47.420347
  H    -23.510356   24.545924   46.954590
  H    -22.535305   25.273395   48.252756
  O    -22.514651   26.303871   46.421221
  C    -24.468827   26.183258   47.943307
  C    -24.291763   27.536404   48.648363
  C    -24.291200   28.523060   47.449206
  C    -25.297142   27.870612   46.466864
  O    -25.440697   26.459778   46.885732
  H    -24.949404   25.472003   48.627417
  O    -25.395400   27.787716   49.563585
  H    -23.392804   27.596852   49.263001
  H    -24.592424   29.524540   47.768376
  H    -23.299796   28.558504   46.999692
  H    -24.941487   27.895020   45.433551
  H    -26.292528   28.325480   46.514158
  H    -26.239296   27.590513   49.104811

 Multiplicity           Mult            ....    1
 Number of Electrons    NEL             ....  102
 Basis Dimension        Dim             ....  149

ORBITAL ENERGIES
----------------

  NO   OCC          E(Eh)            E(eV)
   0   2.0000     -19.155285      -521.2418
   1   2.0000     -19.146008      -520.9894
   2   2.0000     -19.135356      -520.6995
   3   2.0000     -19.135173      -520.6945
   4   2.0000     -10.284153      -279.8460
   5   2.0000     -10.237259      -278.5700
   6   2.0000     -10.236832      -278.5584
   7   2.0000     -10.231928      -278.4249
   8   2.0000     -10.225074      -278.2384
   9   2.0000     -10.221733      -278.1475
  10   2.0000     -10.195670      -277.4383
  11   2.0000     -10.193052      -277.3671
  12   2.0000     -10.177801      -276.9521
  13   2.0000      -1.060333       -28.8531
  14   2.0000      -1.032076       -28.0842
  15   2.0000      -1.003616       -27.3098
  16   2.0000      -0.994912       -27.0729
  17   2.0000      -0.797113       -21.6905
  18   2.0000      -0.776526       -21.1304
  19   2.0000      -0.764312       -20.7980
  20   2.0000      -0.736883       -20.0516
  21   2.0000      -0.672597       -18.3023
  22   2.0000      -0.609979       -16.5984
  23   2.0000      -0.598636       -16.2897
  24   2.0000      -0.597018       -16.2457
  25   2.0000      -0.572088       -15.5673
  26   2.0000      -0.523740       -14.2517
  27   2.0000      -0.511673       -13.9233
  28   2.0000      -0.502462       -13.6727
  29   2.0000      -0.491682       -13.3793
  30   2.0000      -0.470689       -12.8081
  31   2.0000      -0.462494       -12.5851
  32   2.0000      -0.449594       -12.2341
  33   2.0000      -0.431789       -11.7496
  34   2.0000      -0.421427       -11.4676
  35   2.0000      -0.415937       -11.3182
  36   2.0000      -0.405481       -11.0337
  37   2.0000      -0.386197       -10.5089
  38   2.0000      -0.380367       -10.3503
  39   2.0000      -0.367029        -9.9874
  40   2.0000      -0.366314        -9.9679
  41   2.0000      -0.355891        -9.6843
  42   2.0000      -0.352359        -9.5882
  43   2.0000      -0.344839        -9.3835
  44   2.0000      -0.323943        -8.8149
  45   2.0000      -0.305049        -8.3008
  46   2.0000      -0.301612        -8.2073
  47   2.0000      -0.271487        -7.3875
  48   2.0000      -0.266231        -7.2445
  49   2.0000      -0.259259        -7.0548
  50   2.0000      -0.238552        -6.4913
  51   0.0000       0.058503         1.5919
  52   0.0000       0.075837         2.0636
  53   0.0000       0.092083         2.5057
  54   0.0000       0.098524         2.6810
  55   0.0000       0.104087         2.8323

MULLIKEN ATOMIC CHARGES
-----------------------
   0 C :    0.305032
   1 C :   -0.264898
   2 C :   -0.310882
   3 C :   -0.015735
   4 O :   -0.513161
   5 H :    0.152786
   6 H :    0.149993
   7 H :    0.159746
   8 H :    0.149192
   9 H :    0.158490
  10 H :    0.148233
  11 H :    0.152825
  12 C :   -0.003445
  13 H :    0.144873
  14 H :    0.160965
  15 O :   -0.538513
  16 C :    0.065685
  17 C :    0.071902
  18 C :   -0.291874
  19 C :   -0.018132
  20 O :   -0.525664
  21 H :    0.155665
  22 O :   -0.605492
  23 H :    0.143738
  24 H :    0.145915
  25 H :    0.170131
  26 H :    0.153142
  27 H :    0.134912
  28 H :    0.364572
Sum of atomic charges:   -0.0000000

LOEWDIN ATOMIC CHARGES
----------------------
   0 C :    0.179945
   1 C :   -0.215316
   2 C :   -0.218999
   3 C :   -0.030775
   4 O :   -0.320510
   5 H :    0.098935
   6 H :    0.117345
   7 H :    0.125186
   8 H :    0.117839
   9 H :    0.113832
  10 H :    0.103746
  11 H :    0.108116
  12 C :   -0.042764
  13 H :    0.105164
  14 H :    0.114261
  15 O :   -0.339441
  16 C :    0.013162
  17 C :    0.038485
  18 C :   -0.242362
  19 C :   -0.032295
  20 O :   -0.329309
  21 H :    0.115921
  22 O :   -0.418036
  23 H :    0.110645
  24 H :    0.117722
  25 H :    0.122160
  26 H :    0.108789
  27 H :    0.095594
  28 H :    0.282962

  Mayer bond orders larger than 0.100000
B(  0-C ,  1-C ) :   0.9418 B(  0-C ,  4-O ) :   0.9006 B(  0-C ,  5-H ) :   0.9237
B(  0-C , 15-O ) :   0.8503 B(  1-C ,  2-C ) :   0.9537 B(  1-C ,  6-H ) :   0.9371
B(  1-C ,  7-H ) :   0.9353 B(  2-C ,  3-C ) :   0.9545 B(  2-C ,  8-H ) :   0.9440
B(  2-C ,  9-H ) :   0.9346 B(  3-C ,  4-O ) :   0.8288 B(  3-C , 10-H ) :   0.9327
B(  3-C , 11-H ) :   0.9399 B( 12-C , 13-H ) :   0.9219 B( 12-C , 14-H ) :   0.8968
B( 12-C , 15-O ) :   0.8339 B( 12-C , 16-C ) :   0.9127 B( 16-C , 17-C ) :   0.9058
B( 16-C , 20-O ) :   0.8650 B( 16-C , 21-H ) :   0.9214 B( 17-C , 18-C ) :   0.9260
B( 17-C , 22-O ) :   0.8888 B( 17-C , 23-H ) :   0.9348 B( 18-C , 19-C ) :   0.9420
B( 18-C , 24-H ) :   0.9376 B( 18-C , 25-H ) :   0.9080 B( 19-C , 20-O ) :   0.8435
B( 19-C , 26-H ) :   0.9337 B( 19-C , 27-H ) :   0.9370 B( 22-O , 28-H ) :   0.7949

FINAL SINGLE POINT ENERGY      -652.863913417199

DIPOLE MOMENT
-------------
                                X             Y             Z
Electronic contribution:     -3.53021      -4.35710       0.41145
Nuclear contribution   :      4.44100       5.04564      -0.70554
                        -----------------------------------------
Total Dipole Moment    :      0.91079       0.68854      -0.29409
                        -----------------------------------------
Magnitude (a.u.)       :      1.17903
Magnitude (Debye)      :      2.99686

Rotational constants in cm-1:     0.046522     0.016520     0.015890
Rotational constants in MHz :  1394.692536   495.257257   476.369573

                             ****ORCA TERMINATED NORMALLY****
TOTAL RUN TIME: 0 days 0 hours 45 minutes 49 seconds 238 msec
