                         Program Version 4.2.0 -  RELEASE  -
|  1> # Test redundant internal optimization
|  2> #
|  3> ! RKS B3LYP  Opt TightSCF SmallPrint
|  4>
|  5> %basis
|  6>         Basis "6-31G"
|  7> end
|  8>
|  9> %geom
| 10> Constraints
| 11> { D 4  0  15  12  255.0   C } # D for Dihedral angle
| 12> { D 0  15  12  16  90.0   C } # D for Dihedral angle
| 13> { D 0  4  3  2   C } # D for Dihedral angle
| 14> { D 4  3  2  1   C } # D for Dihedral angle
| 15> { D 3  2  1  0   C } # D for Dihedral angle
| 16> { D 2  1  0  4   C } # D for Dihedral angle
| 17> { D 1  0  4  3   C } # D for Dihedral angle
| 18> { D 16  20  19  18   C } # D for Dihedral angle
| 19> { D 20  19  18  17   C } # D for Dihedral angle
| 20> { D 19  18  17  16   C } # D for Dihedral angle
| 21> { D 18  17  16  20   C } # D for Dihedral angle
| 22> { D 17  16  20  19   C } # D for Dihedral angle
| 23> { D 15  12  16  20   C } # D for Dihedral angle
| 24> end
| 25> end
| 26>
| 27>
| 28> #%pal
| 29> #nprocs 8
| 30> #end
| 31>
| 32> * xyz 0 1
| 33> C  -21.048   26.222   46.251
| 34> C  -20.361   27.558   45.944
| 35> C  -20.329   28.222   47.341
| 36> C  -20.110   27.022   48.296
| 37> O  -20.473   25.807   47.535
| 38> H  -20.833   25.428   45.533
| 39> H  -19.344   27.382   45.576
| 40> H  -20.898   28.157   45.201
| 41> H  -19.543   28.978   47.434
| 42> H  -21.289   28.710   47.548
| 43> H  -20.733   27.082   49.195
| 44> H  -19.064   26.913   48.597
| 45> C  -23.431   25.260   45.734
| 46> H  -24.384   25.673   45.381
| 47> H  -22.905   24.828   44.872
| 48> O  -22.586   26.394   46.375
| 49> C  -23.738   24.104   46.727
| 50> C  -24.622   24.585   47.883
| 51> C  -26.022   24.597   47.225
| 52> C  -25.967   23.386   46.260
| 53> O  -24.537   23.064   46.071
| 54> H  -22.800   23.640   47.036
| 55> O  -24.573   23.562   49.051
| 56> H  -24.326   25.565   48.273
| 57> H  -26.834   24.515   47.953
| 58> H  -26.166   25.530   46.666
| 59> H  -26.418   23.604   45.287
| 60> H  -26.445   22.497   46.680
| 61> H  -24.867   22.570   48.684
| 62> *
| 63>
| 64>                          ****END OF INPUT****
 Total Charge           Charge          ....    0
 Multiplicity           Mult            ....    1
 Number of Electrons    NEL             ....  102
FINAL SINGLE POINT ENERGY      -652.839679333644
FINAL SINGLE POINT ENERGY      -652.862475190756
FINAL SINGLE POINT ENERGY      -652.865979463128
FINAL SINGLE POINT ENERGY      -652.866641764885
FINAL SINGLE POINT ENERGY      -652.866745025673
FINAL SINGLE POINT ENERGY      -652.866759544165
FINAL SINGLE POINT ENERGY      -652.866762055965
                    ***********************HURRAY********************

CARTESIAN COORDINATES (ANGSTROEM)
---------------------------------
  C    -21.084436   26.122291   46.225417
  C    -20.449878   27.487716   45.960330
  C    -20.501236   28.141065   47.362337
  C    -20.265036   26.943904   48.310482
  O    -20.549143   25.728372   47.506320
  H    -20.828728   25.332063   45.513552
  H    -19.413099   27.348520   45.632071
  H    -20.991844   28.052267   45.199028
  H    -19.751375   28.927529   47.489540
  H    -21.491766   28.575145   47.528170
  H    -20.923534   26.948572   49.182425
  H    -19.225678   26.863188   48.642363
  C    -23.341971   25.254430   45.681469
  H    -24.243306   25.754189   45.316267
  H    -22.829750   24.799741   44.823192
  O    -22.522348   26.296485   46.284052
  C    -23.688052   24.162164   46.698073
  C    -24.536772   24.636789   47.886352
  C    -25.956294   24.668659   47.265469
  C    -25.940965   23.470456   46.283760
  O    -24.513741   23.135683   46.049279
  H    -22.773013   23.674689   47.046408
  O    -24.458775   23.693812   48.991558
  H    -24.207959   25.594455   48.286007
  H    -26.717854   24.571592   48.043117
  H    -26.122416   25.614900   46.739440
  H    -26.414457   23.698438   45.323819
  H    -26.415676   22.577606   46.702795
  H    -24.486899   22.780278   48.635909

 Multiplicity           Mult            ....    1
 Number of Electrons    NEL             ....  102
 Basis Dimension        Dim             ....  149

ORBITAL ENERGIES
----------------

  NO   OCC          E(Eh)            E(eV)
   0   2.0000     -19.147003      -521.0164
   1   2.0000     -19.142260      -520.8874
   2   2.0000     -19.139030      -520.7995
   3   2.0000     -19.131410      -520.5921
   4   2.0000     -10.280707      -279.7522
   5   2.0000     -10.232547      -278.4418
   6   2.0000     -10.232461      -278.4394
   7   2.0000     -10.229653      -278.3630
   8   2.0000     -10.228307      -278.3264
   9   2.0000     -10.223723      -278.2016
  10   2.0000     -10.185077      -277.1500
  11   2.0000     -10.184911      -277.1455
  12   2.0000     -10.184769      -277.1417
  13   2.0000      -1.054017       -28.6813
  14   2.0000      -1.032725       -28.1019
  15   2.0000      -1.001005       -27.2387
  16   2.0000      -0.996298       -27.1106
  17   2.0000      -0.788406       -21.4536
  18   2.0000      -0.775737       -21.1089
  19   2.0000      -0.764012       -20.7898
  20   2.0000      -0.730316       -19.8729
  21   2.0000      -0.673652       -18.3310
  22   2.0000      -0.600618       -16.3436
  23   2.0000      -0.599409       -16.3107
  24   2.0000      -0.596131       -16.2215
  25   2.0000      -0.577959       -15.7271
  26   2.0000      -0.519507       -14.1365
  27   2.0000      -0.518864       -14.1190
  28   2.0000      -0.492786       -13.4094
  29   2.0000      -0.487949       -13.2778
  30   2.0000      -0.466426       -12.6921
  31   2.0000      -0.458066       -12.4646
  32   2.0000      -0.448818       -12.2129
  33   2.0000      -0.438395       -11.9293
  34   2.0000      -0.423489       -11.5237
  35   2.0000      -0.412106       -11.2140
  36   2.0000      -0.398540       -10.8448
  37   2.0000      -0.389403       -10.5962
  38   2.0000      -0.373175       -10.1546
  39   2.0000      -0.365178        -9.9370
  40   2.0000      -0.356544        -9.7021
  41   2.0000      -0.353099        -9.6083
  42   2.0000      -0.349628        -9.5139
  43   2.0000      -0.331098        -9.0096
  44   2.0000      -0.321467        -8.7476
  45   2.0000      -0.310114        -8.4386
  46   2.0000      -0.300156        -8.1677
  47   2.0000      -0.278494        -7.5782
  48   2.0000      -0.263467        -7.1693
  49   2.0000      -0.254009        -6.9119
  50   2.0000      -0.237104        -6.4519
  51   0.0000       0.066765         1.8168
  52   0.0000       0.076938         2.0936
  53   0.0000       0.096444         2.6244
  54   0.0000       0.100452         2.7334
  55   0.0000       0.106572         2.9000

MULLIKEN ATOMIC CHARGES
-----------------------
   0 C :    0.281304
   1 C :   -0.252590
   2 C :   -0.301477
   3 C :   -0.002236
   4 O :   -0.505040
   5 H :    0.143772
   6 H :    0.144226
   7 H :    0.150281
   8 H :    0.141637
   9 H :    0.162706
  10 H :    0.153881
  11 H :    0.142119
  12 C :   -0.026786
  13 H :    0.145578
  14 H :    0.142751
  15 O :   -0.516016
  16 C :    0.054108
  17 C :    0.097731
  18 C :   -0.293774
  19 C :   -0.032174
  20 O :   -0.528452
  21 H :    0.175027
  22 O :   -0.604324
  23 H :    0.169531
  24 H :    0.162163
  25 H :    0.141023
  26 H :    0.146101
  27 H :    0.146307
  28 H :    0.362623
Sum of atomic charges:    0.0000000

LOEWDIN ATOMIC CHARGES
----------------------
   0 C :    0.172209
   1 C :   -0.217846
   2 C :   -0.216536
   3 C :   -0.026675
   4 O :   -0.322216
   5 H :    0.099605
   6 H :    0.113308
   7 H :    0.120594
   8 H :    0.113900
   9 H :    0.119218
  10 H :    0.108819
  11 H :    0.102664
  12 C :   -0.038859
  13 H :    0.107896
  14 H :    0.103158
  15 O :   -0.329267
  16 C :    0.004721
  17 C :    0.040545
  18 C :   -0.240951
  19 C :   -0.038659
  20 O :   -0.333427
  21 H :    0.121728
  22 O :   -0.414991
  23 H :    0.124880
  24 H :    0.126765
  25 H :    0.112000
  26 H :    0.103303
  27 H :    0.102646
  28 H :    0.281466

  Mayer bond orders larger than 0.100000
B(  0-C ,  1-C ) :   0.9470 B(  0-C ,  4-O ) :   0.9241 B(  0-C ,  5-H ) :   0.9170
B(  0-C , 15-O ) :   0.8425 B(  1-C ,  2-C ) :   0.9572 B(  1-C ,  6-H ) :   0.9382
B(  1-C ,  7-H ) :   0.9380 B(  2-C ,  3-C ) :   0.9541 B(  2-C ,  8-H ) :   0.9452
B(  2-C ,  9-H ) :   0.9440 B(  3-C ,  4-O ) :   0.8353 B(  3-C , 10-H ) :   0.9344
B(  3-C , 11-H ) :   0.9401 B( 12-C , 13-H ) :   0.9395 B( 12-C , 14-H ) :   0.9203
B( 12-C , 15-O ) :   0.8477 B( 12-C , 16-C ) :   0.8810 B( 16-C , 17-C ) :   0.9163
B( 16-C , 20-O ) :   0.8344 B( 16-C , 21-H ) :   0.9224 B( 17-C , 18-C ) :   0.9107
B( 17-C , 22-O ) :   0.8899 B( 17-C , 23-H ) :   0.9259 B( 18-C , 19-C ) :   0.9414
B( 18-C , 24-H ) :   0.9378 B( 18-C , 25-H ) :   0.9355 B( 19-C , 20-O ) :   0.8418
B( 19-C , 26-H ) :   0.9356 B( 19-C , 27-H ) :   0.9383 B( 22-O , 28-H ) :   0.7962

FINAL SINGLE POINT ENERGY      -652.866762321895

DIPOLE MOMENT
-------------
                                X             Y             Z
Electronic contribution:      0.01348      -4.50335       0.66976
Nuclear contribution   :     -0.13533       5.31809      -1.40267
                        -----------------------------------------
Total Dipole Moment    :     -0.12185       0.81474      -0.73291
                        -----------------------------------------
Magnitude (a.u.)       :      1.10264
Magnitude (Debye)      :      2.80268

Rotational constants in cm-1:     0.056414     0.013354     0.012296
Rotational constants in MHz :  1691.246782   400.333893   368.624463

                             ****ORCA TERMINATED NORMALLY****
TOTAL RUN TIME: 0 days 1 hours 16 minutes 36 seconds 364 msec
