                         Program Version 4.2.0 -  RELEASE  -
|  1> # Test redundant internal optimization
|  2> #
|  3> ! RKS B3LYP  Opt TightSCF SmallPrint
|  4>
|  5> %basis
|  6>         Basis "6-31G"
|  7> end
|  8>
|  9> %geom
| 10> Constraints
| 11> { D 4  0  15  12  180.0   C } # D for Dihedral angle
| 12> { D 0  15  12  16  210.0   C } # D for Dihedral angle
| 13> { D 0  4  3  2   C } # D for Dihedral angle
| 14> { D 4  3  2  1   C } # D for Dihedral angle
| 15> { D 3  2  1  0   C } # D for Dihedral angle
| 16> { D 2  1  0  4   C } # D for Dihedral angle
| 17> { D 1  0  4  3   C } # D for Dihedral angle
| 18> { D 16  20  19  18   C } # D for Dihedral angle
| 19> { D 20  19  18  17   C } # D for Dihedral angle
| 20> { D 19  18  17  16   C } # D for Dihedral angle
| 21> { D 18  17  16  20   C } # D for Dihedral angle
| 22> { D 17  16  20  19   C } # D for Dihedral angle
| 23> { D 15  12  16  20   C } # D for Dihedral angle
| 24> end
| 25> end
| 26>
| 27>
| 28> #%pal
| 29> #nprocs 8
| 30> #end
| 31>
| 32> * xyz 0 1
| 33> C  -21.048   26.222   46.251
| 34> C  -20.361   27.558   45.944
| 35> C  -20.329   28.222   47.341
| 36> C  -20.110   27.022   48.296
| 37> O  -20.473   25.807   47.535
| 38> H  -20.833   25.428   45.533
| 39> H  -19.344   27.382   45.576
| 40> H  -20.898   28.157   45.201
| 41> H  -19.543   28.978   47.434
| 42> H  -21.289   28.710   47.548
| 43> H  -20.733   27.082   49.195
| 44> H  -19.064   26.913   48.597
| 45> C  -23.309   26.834   45.072
| 46> H  -22.622   27.435   44.463
| 47> H  -23.610   25.956   44.485
| 48> O  -22.586   26.394   46.375
| 49> C  -24.584   27.678   45.348
| 50> C  -25.333   27.995   44.049
| 51> C  -26.082   26.667   43.787
| 52> C  -26.434   26.174   45.212
| 53> O  -25.547   26.907   46.141
| 54> H  -24.311   28.555   45.939
| 55> H  -26.043   28.813   44.214
| 56> O  -24.389   28.395   42.882
| 57> H  -26.969   26.797   43.159
| 58> H  -25.418   25.953   43.284
| 59> H  -26.271   25.097   45.336
| 60> H  -27.463   26.412   45.494
| 61> H  -23.669   27.590   42.698
| 62> *
| 63>
| 64>                          ****END OF INPUT****
 Total Charge           Charge          ....    0
 Multiplicity           Mult            ....    1
 Number of Electrons    NEL             ....  102
FINAL SINGLE POINT ENERGY      -652.822485217413
FINAL SINGLE POINT ENERGY      -652.845983496775
FINAL SINGLE POINT ENERGY      -652.850618762974
FINAL SINGLE POINT ENERGY      -652.851451284039
FINAL SINGLE POINT ENERGY      -652.851649357125
FINAL SINGLE POINT ENERGY      -652.851688997613
FINAL SINGLE POINT ENERGY      -652.851694236702
FINAL SINGLE POINT ENERGY      -652.851694574281
                    ***********************HURRAY********************

CARTESIAN COORDINATES (ANGSTROEM)
---------------------------------
  C    -21.042449   26.223609   46.189043
  C    -20.318219   27.543944   45.930172
  C    -20.436432   28.252798   47.304108
  C    -20.334819   27.078981   48.299560
  O    -20.625855   25.855126   47.508932
  H    -20.774636   25.402361   45.515668
  H    -19.269710   27.330124   45.691247
  H    -20.735810   28.134220   45.110465
  H    -19.653555   29.001611   47.456838
  H    -21.409372   28.745694   47.385748
  H    -21.056312   27.142637   49.117547
  H    -19.328093   26.953188   48.709074
  C    -23.159601   26.752842   45.001976
  H    -22.518474   27.380386   44.368454
  H    -23.415183   25.842302   44.436883
  O    -22.494322   26.377309   46.234806
  C    -24.409073   27.559642   45.348705
  C    -25.229092   27.980618   44.117584
  C    -26.087191   26.706728   43.852412
  C    -26.363528   26.182004   45.278536
  O    -25.361652   26.820099   46.168504
  H    -24.099822   28.417455   45.953026
  H    -25.870991   28.823915   44.381663
  O    -24.452935   28.447420   42.985254
  H    -27.000103   26.929386   43.294065
  H    -25.498777   25.985562   43.268629
  H    -26.270190   25.094215   45.359004
  H    -27.351027   26.478924   45.644138
  H    -24.097777   27.689902   42.476960

 Multiplicity           Mult            ....    1
 Number of Electrons    NEL             ....  102
 Basis Dimension        Dim             ....  149

ORBITAL ENERGIES
----------------

  NO   OCC          E(Eh)            E(eV)
   0   2.0000     -19.153202      -521.1851
   1   2.0000     -19.136648      -520.7347
   2   2.0000     -19.135986      -520.7166
   3   2.0000     -19.135793      -520.7114
   4   2.0000     -10.277277      -279.6589
   5   2.0000     -10.247226      -278.8412
   6   2.0000     -10.231417      -278.4110
   7   2.0000     -10.230899      -278.3969
   8   2.0000     -10.230172      -278.3771
   9   2.0000     -10.221433      -278.1393
  10   2.0000     -10.198006      -277.5018
  11   2.0000     -10.186787      -277.1966
  12   2.0000     -10.184860      -277.1441
  13   2.0000      -1.050441       -28.5840
  14   2.0000      -1.035506       -28.1776
  15   2.0000      -1.016373       -27.6569
  16   2.0000      -0.989896       -26.9364
  17   2.0000      -0.785131       -21.3645
  18   2.0000      -0.783587       -21.3225
  19   2.0000      -0.768450       -20.9106
  20   2.0000      -0.729967       -19.8634
  21   2.0000      -0.681980       -18.5576
  22   2.0000      -0.613520       -16.6947
  23   2.0000      -0.599502       -16.3133
  24   2.0000      -0.588315       -16.0089
  25   2.0000      -0.575880       -15.6705
  26   2.0000      -0.526292       -14.3211
  27   2.0000      -0.512036       -13.9332
  28   2.0000      -0.502954       -13.6861
  29   2.0000      -0.492538       -13.4026
  30   2.0000      -0.465099       -12.6560
  31   2.0000      -0.457179       -12.4405
  32   2.0000      -0.450428       -12.2568
  33   2.0000      -0.433590       -11.7986
  34   2.0000      -0.428591       -11.6625
  35   2.0000      -0.421664       -11.4741
  36   2.0000      -0.404787       -11.0148
  37   2.0000      -0.399923       -10.8824
  38   2.0000      -0.377951       -10.2846
  39   2.0000      -0.373488       -10.1631
  40   2.0000      -0.356524        -9.7015
  41   2.0000      -0.353945        -9.6313
  42   2.0000      -0.351544        -9.5660
  43   2.0000      -0.331307        -9.0153
  44   2.0000      -0.318498        -8.6668
  45   2.0000      -0.308108        -8.3841
  46   2.0000      -0.297782        -8.1031
  47   2.0000      -0.273597        -7.4450
  48   2.0000      -0.256039        -6.9672
  49   2.0000      -0.252744        -6.8775
  50   2.0000      -0.237790        -6.4706
  51   0.0000       0.048306         1.3145
  52   0.0000       0.075519         2.0550
  53   0.0000       0.085020         2.3135
  54   0.0000       0.088834         2.4173
  55   0.0000       0.105399         2.8681

MULLIKEN ATOMIC CHARGES
-----------------------
   0 C :    0.305026
   1 C :   -0.286534
   2 C :   -0.297696
   3 C :   -0.000160
   4 O :   -0.499964
   5 H :    0.137434
   6 H :    0.147949
   7 H :    0.145890
   8 H :    0.141870
   9 H :    0.160452
  10 H :    0.158592
  11 H :    0.140430
  12 C :   -0.021727
  13 H :    0.128157
  14 H :    0.121134
  15 O :   -0.497907
  16 C :    0.103283
  17 C :    0.081186
  18 C :   -0.331928
  19 C :   -0.008066
  20 O :   -0.500267
  21 H :    0.156278
  22 H :    0.168458
  23 O :   -0.601189
  24 H :    0.159975
  25 H :    0.134345
  26 H :    0.151400
  27 H :    0.147519
  28 H :    0.356057
Sum of atomic charges:   -0.0000000

LOEWDIN ATOMIC CHARGES
----------------------
   0 C :    0.181118
   1 C :   -0.234510
   2 C :   -0.216542
   3 C :   -0.024675
   4 O :   -0.301104
   5 H :    0.094912
   6 H :    0.115917
   7 H :    0.113599
   8 H :    0.114272
   9 H :    0.117004
  10 H :    0.111773
  11 H :    0.101788
  12 C :   -0.054586
  13 H :    0.095487
  14 H :    0.088538
  15 O :   -0.320455
  16 C :    0.023287
  17 C :    0.033330
  18 C :   -0.242729
  19 C :   -0.028916
  20 O :   -0.309641
  21 H :    0.115919
  22 H :    0.119551
  23 O :   -0.409682
  24 H :    0.123018
  25 H :    0.103797
  26 H :    0.106106
  27 H :    0.105503
  28 H :    0.277919

  Mayer bond orders larger than 0.100000
B(  0-C ,  1-C ) :   0.9282 B(  0-C ,  4-O ) :   0.9403 B(  0-C ,  5-H ) :   0.9214
B(  0-C , 15-O ) :   0.8365 B(  1-C ,  2-C ) :   0.9511 B(  1-C ,  6-H ) :   0.9333
B(  1-C ,  7-H ) :   0.9291 B(  2-C ,  3-C ) :   0.9556 B(  2-C ,  8-H ) :   0.9448
B(  2-C ,  9-H ) :   0.9435 B(  3-C ,  4-O ) :   0.8344 B(  3-C , 10-H ) :   0.9338
B(  3-C , 11-H ) :   0.9399 B( 12-C , 13-H ) :   0.8933 B( 12-C , 14-H ) :   0.9195
B( 12-C , 15-O ) :   0.8507 B( 12-C , 16-C ) :   0.9037 B( 16-C , 17-C ) :   0.8707
B( 16-C , 20-O ) :   0.8784 B( 16-C , 21-H ) :   0.9300 B( 17-C , 18-C ) :   0.9275
B( 17-C , 22-H ) :   0.9328 B( 17-C , 23-O ) :   0.8933 B( 18-C , 19-C ) :   0.9380
B( 18-C , 24-H ) :   0.9409 B( 18-C , 25-H ) :   0.9395 B( 19-C , 20-O ) :   0.8500
B( 19-C , 26-H ) :   0.9304 B( 19-C , 27-H ) :   0.9383 B( 23-O , 28-H ) :   0.7992

FINAL SINGLE POINT ENERGY      -652.851694503930

DIPOLE MOMENT
-------------
                                X             Y             Z
Electronic contribution:     -1.15235      -1.97765       1.50642
Nuclear contribution   :      1.24941       2.27524      -2.74334
                        -----------------------------------------
Total Dipole Moment    :      0.09706       0.29760      -1.23692
                        -----------------------------------------
Magnitude (a.u.)       :      1.27591
Magnitude (Debye)      :      3.24312

Rotational constants in cm-1:     0.054956     0.012841     0.011653
Rotational constants in MHz :  1647.545252   384.959679   349.351431

                             ****ORCA TERMINATED NORMALLY****
TOTAL RUN TIME: 0 days 0 hours 22 minutes 23 seconds 255 msec
