                         Program Version 4.2.1 -  RELEASE  -
|  1> # Test redundant internal optimization
|  2> #
|  3> ! RKS B3LYP  Opt TightSCF SmallPrint
|  4>
|  5> %basis
|  6>         Basis "6-31G"
|  7> end
|  8>
|  9> %geom
| 10> Constraints
| 11> { D 4  0  19  14  150.0   C } # D for Dihedral angle
| 12> { D 0  19  14  12  120.0   C } # D for Dihedral angle
| 13> { D 0  4  3  2   C } # D for Dihedral angle
| 14> { D 4  3  2  1   C } # D for Dihedral angle
| 15> { D 3  2  1  0   C } # D for Dihedral angle
| 16> { D 2  1  0  4   C } # D for Dihedral angle
| 17> { D 1  0  4  3   C } # D for Dihedral angle
| 18> { D 14  15  16  17   C } # D for Dihedral angle
| 19> { D 15  16  17  12   C } # D for Dihedral angle
| 20> { D 16  17  12  14   C } # D for Dihedral angle
| 21> { D 17  12  14  15   C } # D for Dihedral angle
| 22> { D 12  14  15  16   C } # D for Dihedral angle
| 23> end
| 24> end
| 25>
| 26>
| 27> #%pal
| 28> #nprocs 8
| 29> #end
| 30>
| 31> * xyz 0 1
| 32> C  -21.048   26.222   46.251
| 33> C  -20.361   27.558   45.944
| 34> C  -20.329   28.222   47.341
| 35> C  -20.110   27.022   48.296
| 36> O  -20.473   25.807   47.535
| 37> H  -20.833   25.428   45.533
| 38> H  -19.344   27.382   45.576
| 39> H  -20.898   28.157   45.201
| 40> H  -19.543   28.978   47.434
| 41> H  -21.289   28.710   47.548
| 42> H  -20.733   27.082   49.195
| 43> H  -19.064   26.913   48.597
| 44> C  -24.059   26.721   44.552
| 45> H  -24.286   27.371   43.692
| 46> C  -23.030   27.370   45.486
| 47> C  -23.908   28.370   46.274
| 48> C  -25.258   27.622   46.412
| 49> O  -25.251   26.550   45.392
| 50> H  -23.780   25.731   44.189
| 51> O  -22.472   26.381   46.366
| 52> H  -22.210   27.857   44.948
| 53> H  -23.479   28.639   47.244
| 54> H  -24.037   29.295   45.698
| 55> H  -26.120   28.275   46.241
| 56> H  -25.369   27.137   47.387
| 57> *
| 58>
| 59>                          ****END OF INPUT****
 Total Charge           Charge          ....    0
 Multiplicity           Mult            ....    1
 Number of Electrons    NEL             ....   86
FINAL SINGLE POINT ENERGY      -538.406026793982
FINAL SINGLE POINT ENERGY      -538.421044359312
FINAL SINGLE POINT ENERGY      -538.422617396597
FINAL SINGLE POINT ENERGY      -538.423026308207
FINAL SINGLE POINT ENERGY      -538.423047120875
FINAL SINGLE POINT ENERGY      -538.423053923258
                    ***********************HURRAY********************

CARTESIAN COORDINATES (ANGSTROEM)
---------------------------------
  C    -21.008501   26.273916   46.229451
  C    -20.143112   27.505314   45.956046
  C    -20.173517   28.234813   47.326221
  C    -20.196502   27.060593   48.329069
  O    -20.624840   25.872471   47.553563
  H    -20.808279   25.421022   45.575874
  H    -19.128348   27.159582   45.728546
  H    -20.469668   28.133226   45.124349
  H    -19.307492   28.888189   47.468502
  H    -21.078382   28.844644   47.412983
  H    -20.897375   27.213160   49.153990
  H    -19.206448   26.831588   48.733998
  C    -24.148778   26.757302   44.521746
  H    -24.475360   27.406259   43.694301
  C    -23.119883   27.472267   45.399957
  C    -24.021945   28.372590   46.269147
  C    -25.288956   27.509984   46.477766
  O    -25.257687   26.465577   45.429961
  H    -23.786965   25.806835   44.127258
  O    -22.451171   26.504827   46.259121
  H    -22.404529   28.049328   44.806136
  H    -23.532638   28.637415   47.208885
  H    -24.256593   29.294713   45.724132
  H    -26.213465   28.089788   46.379677
  H    -25.283567   26.994596   47.441322

 Multiplicity           Mult            ....    1
 Number of Electrons    NEL             ....   86
 Basis Dimension        Dim             ....  127

ORBITAL ENERGIES
----------------

  NO   OCC          E(Eh)            E(eV)
   0   2.0000     -19.140120      -520.8291
   1   2.0000     -19.135573      -520.7054
   2   2.0000     -19.124794      -520.4121
   3   2.0000     -10.282484      -279.8006
   4   2.0000     -10.242401      -278.7099
   5   2.0000     -10.227782      -278.3121
   6   2.0000     -10.219730      -278.0930
   7   2.0000     -10.217559      -278.0339
   8   2.0000     -10.195516      -277.4341
   9   2.0000     -10.194362      -277.4027
  10   2.0000     -10.185807      -277.1699
  11   2.0000      -1.052084       -28.6287
  12   2.0000      -1.012615       -27.5547
  13   2.0000      -0.986384       -26.8409
  14   2.0000      -0.792067       -21.5532
  15   2.0000      -0.783390       -21.3171
  16   2.0000      -0.739945       -20.1349
  17   2.0000      -0.725174       -19.7330
  18   2.0000      -0.619673       -16.8622
  19   2.0000      -0.603290       -16.4164
  20   2.0000      -0.595986       -16.2176
  21   2.0000      -0.566375       -15.4118
  22   2.0000      -0.527418       -14.3518
  23   2.0000      -0.504916       -13.7395
  24   2.0000      -0.490608       -13.3501
  25   2.0000      -0.480615       -13.0782
  26   2.0000      -0.451956       -12.2983
  27   2.0000      -0.444372       -12.0920
  28   2.0000      -0.431726       -11.7478
  29   2.0000      -0.422316       -11.4918
  30   2.0000      -0.406019       -11.0483
  31   2.0000      -0.383788       -10.4434
  32   2.0000      -0.375675       -10.2226
  33   2.0000      -0.366756        -9.9799
  34   2.0000      -0.364795        -9.9266
  35   2.0000      -0.356836        -9.7100
  36   2.0000      -0.354840        -9.6557
  37   2.0000      -0.315121        -8.5749
  38   2.0000      -0.300867        -8.1870
  39   2.0000      -0.293291        -7.9808
  40   2.0000      -0.261908        -7.1269
  41   2.0000      -0.251814        -6.8522
  42   2.0000      -0.229020        -6.2319
  43   0.0000       0.066496         1.8095
  44   0.0000       0.090402         2.4600
  45   0.0000       0.095343         2.5944
  46   0.0000       0.106265         2.8916
  47   0.0000       0.115353         3.1389

MULLIKEN ATOMIC CHARGES
-----------------------
   0 C :    0.318332
   1 C :   -0.300579
   2 C :   -0.301613
   3 C :    0.000169
   4 O :   -0.493978
   5 H :    0.149805
   6 H :    0.155119
   7 H :    0.144744
   8 H :    0.145102
   9 H :    0.152204
  10 H :    0.151393
  11 H :    0.144126
  12 C :    0.018926
  13 H :    0.118455
  14 C :    0.057094
  15 C :   -0.290516
  16 C :    0.008793
  17 O :   -0.517893
  18 H :    0.156281
  19 O :   -0.516947
  20 H :    0.119049
  21 H :    0.155567
  22 H :    0.137902
  23 H :    0.131346
  24 H :    0.157118
Sum of atomic charges:    0.0000000

LOEWDIN ATOMIC CHARGES
----------------------
   0 C :    0.187043
   1 C :   -0.234549
   2 C :   -0.217709
   3 C :   -0.027024
   4 O :   -0.303353
   5 H :    0.100785
   6 H :    0.121143
   7 H :    0.112619
   8 H :    0.115711
   9 H :    0.111056
  10 H :    0.107830
  11 H :    0.103793
  12 C :   -0.039219
  13 H :    0.088058
  14 C :    0.035692
  15 C :   -0.229928
  16 C :   -0.025576
  17 O :   -0.327501
  18 H :    0.117859
  19 O :   -0.329760
  20 H :    0.094506
  21 H :    0.121181
  22 H :    0.110246
  23 H :    0.096510
  24 H :    0.110586

  Mayer bond orders larger than 0.100000
B(  0-C ,  1-C ) :   0.9295 B(  0-C ,  4-O ) :   0.9311 B(  0-C ,  5-H ) :   0.9255
B(  0-C , 19-O ) :   0.8507 B(  1-C ,  2-C ) :   0.9496 B(  1-C ,  6-H ) :   0.9328
B(  1-C ,  7-H ) :   0.9251 B(  2-C ,  3-C ) :   0.9540 B(  2-C ,  8-H ) :   0.9451
B(  2-C ,  9-H ) :   0.9423 B(  3-C ,  4-O ) :   0.8402 B(  3-C , 10-H ) :   0.9342
B(  3-C , 11-H ) :   0.9394 B( 12-C , 13-H ) :   0.9116 B( 12-C , 14-C ) :   0.9206
B( 12-C , 17-O ) :   0.8763 B( 12-C , 18-H ) :   0.9341 B( 14-C , 15-C ) :   0.9464
B( 14-C , 19-O ) :   0.8355 B( 14-C , 20-H ) :   0.9101 B( 15-C , 16-C ) :   0.9463
B( 15-C , 21-H ) :   0.9365 B( 15-C , 22-H ) :   0.9393 B( 16-C , 17-O ) :   0.8567
B( 16-C , 23-H ) :   0.9337 B( 16-C , 24-H ) :   0.9358

FINAL SINGLE POINT ENERGY      -538.423054805934

DIPOLE MOMENT
-------------
                                X             Y             Z
Electronic contribution:     -1.71720      -5.42875      -0.16097
Nuclear contribution   :      2.74461       7.14614      -0.23653
                        -----------------------------------------
Total Dipole Moment    :      1.02741       1.71739      -0.39750
                        -----------------------------------------
Magnitude (a.u.)       :      2.04035
Magnitude (Debye)      :      5.18615

Rotational constants in cm-1:     0.078963     0.020862     0.020352
Rotational constants in MHz :  2367.258892   625.418392   610.141331

                             ****ORCA TERMINATED NORMALLY****
TOTAL RUN TIME: 0 days 0 hours 7 minutes 0 seconds 908 msec
