                         Program Version 4.2.0 -  RELEASE  -
|  1> # Test redundant internal optimization
|  2> #
|  3> ! RKS B3LYP  Opt TightSCF SmallPrint
|  4>
|  5> %basis
|  6>         Basis "6-31G"
|  7> end
|  8>
|  9> %geom
| 10> Constraints
| 11> { D 4  0  15  12  255.0   C } # D for Dihedral angle
| 12> { D 0  15  12  16  45.0   C } # D for Dihedral angle
| 13> { D 0  4  3  2   C } # D for Dihedral angle
| 14> { D 4  3  2  1   C } # D for Dihedral angle
| 15> { D 3  2  1  0   C } # D for Dihedral angle
| 16> { D 2  1  0  4   C } # D for Dihedral angle
| 17> { D 1  0  4  3   C } # D for Dihedral angle
| 18> { D 16  20  19  18   C } # D for Dihedral angle
| 19> { D 20  19  18  17   C } # D for Dihedral angle
| 20> { D 19  18  17  16   C } # D for Dihedral angle
| 21> { D 18  17  16  20   C } # D for Dihedral angle
| 22> { D 17  16  20  19   C } # D for Dihedral angle
| 23> { D 15  12  16  20   C } # D for Dihedral angle
| 24> end
| 25> end
| 26>
| 27>
| 28> #%pal
| 29> #nprocs 8
| 30> #end
| 31>
| 32> * xyz 0 1
| 33> C  -21.048   26.222   46.251
| 34> C  -20.361   27.558   45.944
| 35> C  -20.329   28.222   47.341
| 36> C  -20.110   27.022   48.296
| 37> O  -20.473   25.807   47.535
| 38> H  -20.833   25.428   45.533
| 39> H  -19.344   27.382   45.576
| 40> H  -20.898   28.157   45.201
| 41> H  -19.543   28.978   47.434
| 42> H  -21.289   28.710   47.548
| 43> H  -20.733   27.082   49.195
| 44> H  -19.064   26.913   48.597
| 45> C  -23.431   25.260   45.734
| 46> H  -24.466   25.332   46.092
| 47> H  -23.439   25.358   44.640
| 48> O  -22.586   26.394   46.375
| 49> C  -22.894   23.843   46.077
| 50> C  -23.679   22.755   45.336
| 51> C  -23.050   22.820   43.924
| 52> C  -21.565   23.153   44.217
| 53> O  -21.518   23.686   45.595
| 54> H  -22.869   23.723   47.162
| 55> H  -23.496   21.778   45.797
| 56> O  -25.211   23.010   45.324
| 57> H  -23.165   21.886   43.364
| 58> H  -23.517   23.621   43.340
| 59> H  -21.160   23.903   43.528
| 60> H  -20.925   22.266   44.191
| 61> H  -25.420   23.983   44.866
| 62> *
| 63>
| 64>                          ****END OF INPUT****
 Total Charge           Charge          ....    0
 Multiplicity           Mult            ....    1
 Number of Electrons    NEL             ....  102
FINAL SINGLE POINT ENERGY      -652.822051437737
FINAL SINGLE POINT ENERGY      -652.845868166099
FINAL SINGLE POINT ENERGY      -652.853304391477
FINAL SINGLE POINT ENERGY      -652.855267787950
FINAL SINGLE POINT ENERGY      -652.855568385456
FINAL SINGLE POINT ENERGY      -652.855636063348
FINAL SINGLE POINT ENERGY      -652.855642202484
FINAL SINGLE POINT ENERGY      -652.855643095152
                    ***********************HURRAY********************

CARTESIAN COORDINATES (ANGSTROEM)
---------------------------------
  C    -20.876786   26.253425   46.222026
  C    -20.367870   27.679105   46.004943
  C    -20.485300   28.280323   47.426845
  C    -20.145312   27.078649   48.336588
  O    -20.312554   25.869808   47.495940
  H    -20.566002   25.499462   45.503731
  H    -19.320798   27.643975   45.681153
  H    -20.954118   28.219011   45.258162
  H    -19.811542   29.127891   47.584810
  H    -21.512556   28.614748   47.598313
  H    -20.805533   27.000484   49.204676
  H    -19.104576   27.085219   48.675744
  C    -23.188125   25.309437   45.744439
  H    -24.165846   25.489720   46.200502
  H    -23.277674   25.489092   44.658911
  O    -22.326538   26.329086   46.312480
  C    -22.803260   23.846948   45.994447
  C    -23.758728   22.836032   45.333217
  C    -23.180806   22.749798   43.887237
  C    -21.660239   22.893983   44.116994
  O    -21.484976   23.483091   45.473512
  H    -22.730805   23.694172   47.075359
  H    -23.668344   21.872420   45.838690
  O    -25.166166   23.161041   45.414438
  H    -23.449646   21.813809   43.390346
  H    -23.575758   23.579511   43.285927
  H    -21.176732   23.543651   43.380338
  H    -21.147323   21.928486   44.124152
  H    -25.392088   23.879619   44.789080

 Multiplicity           Mult            ....    1
 Number of Electrons    NEL             ....  102
 Basis Dimension        Dim             ....  149

ORBITAL ENERGIES
----------------

  NO   OCC          E(Eh)            E(eV)
   0   2.0000     -19.153378      -521.1899
   1   2.0000     -19.145847      -520.9850
   2   2.0000     -19.132080      -520.6104
   3   2.0000     -19.123588      -520.3793
   4   2.0000     -10.261334      -279.2251
   5   2.0000     -10.249323      -278.8983
   6   2.0000     -10.236326      -278.5446
   7   2.0000     -10.232408      -278.4380
   8   2.0000     -10.231494      -278.4131
   9   2.0000     -10.212356      -277.8923
  10   2.0000     -10.200281      -277.5638
  11   2.0000     -10.174244      -276.8553
  12   2.0000     -10.173793      -276.8430
  13   2.0000      -1.042305       -28.3625
  14   2.0000      -1.034438       -28.1485
  15   2.0000      -1.020067       -27.7574
  16   2.0000      -0.981274       -26.7018
  17   2.0000      -0.787806       -21.4373
  18   2.0000      -0.777486       -21.1565
  19   2.0000      -0.763703       -20.7814
  20   2.0000      -0.725070       -19.7302
  21   2.0000      -0.678211       -18.4551
  22   2.0000      -0.616827       -16.7847
  23   2.0000      -0.595725       -16.2105
  24   2.0000      -0.586032       -15.9467
  25   2.0000      -0.565180       -15.3793
  26   2.0000      -0.531607       -14.4658
  27   2.0000      -0.509585       -13.8665
  28   2.0000      -0.495623       -13.4866
  29   2.0000      -0.476657       -12.9705
  30   2.0000      -0.465920       -12.6783
  31   2.0000      -0.453164       -12.3312
  32   2.0000      -0.440624       -11.9900
  33   2.0000      -0.433878       -11.8064
  34   2.0000      -0.427584       -11.6351
  35   2.0000      -0.418471       -11.3872
  36   2.0000      -0.405979       -11.0473
  37   2.0000      -0.388859       -10.5814
  38   2.0000      -0.384686       -10.4678
  39   2.0000      -0.364551        -9.9199
  40   2.0000      -0.357939        -9.7400
  41   2.0000      -0.345230        -9.3942
  42   2.0000      -0.338423        -9.2090
  43   2.0000      -0.330470        -8.9925
  44   2.0000      -0.321342        -8.7442
  45   2.0000      -0.309281        -8.4160
  46   2.0000      -0.292970        -7.9721
  47   2.0000      -0.275419        -7.4945
  48   2.0000      -0.257114        -6.9964
  49   2.0000      -0.251352        -6.8396
  50   2.0000      -0.228549        -6.2191
  51   0.0000       0.046398         1.2626
  52   0.0000       0.070185         1.9098
  53   0.0000       0.088436         2.4065
  54   0.0000       0.097419         2.6509
  55   0.0000       0.107324         2.9204

MULLIKEN ATOMIC CHARGES
-----------------------
   0 C :    0.277939
   1 C :   -0.251142
   2 C :   -0.296696
   3 C :   -0.000005
   4 O :   -0.503560
   5 H :    0.175777
   6 H :    0.139200
   7 H :    0.141530
   8 H :    0.133878
   9 H :    0.159803
  10 H :    0.144162
  11 H :    0.136379
  12 C :   -0.002138
  13 H :    0.157585
  14 H :    0.107374
  15 O :   -0.535649
  16 C :    0.073223
  17 C :    0.086405
  18 C :   -0.321125
  19 C :   -0.016508
  20 O :   -0.508291
  21 H :    0.179444
  22 H :    0.170770
  23 O :   -0.597995
  24 H :    0.158848
  25 H :    0.134763
  26 H :    0.142337
  27 H :    0.156368
  28 H :    0.357326
Sum of atomic charges:   -0.0000000

LOEWDIN ATOMIC CHARGES
----------------------
   0 C :    0.169584
   1 C :   -0.218421
   2 C :   -0.216573
   3 C :   -0.028712
   4 O :   -0.317465
   5 H :    0.116208
   6 H :    0.110262
   7 H :    0.116181
   8 H :    0.109830
   9 H :    0.117941
  10 H :    0.103692
  11 H :    0.099296
  12 C :   -0.044379
  13 H :    0.119434
  14 H :    0.079545
  15 O :   -0.332874
  16 C :    0.006133
  17 C :    0.037750
  18 C :   -0.241091
  19 C :   -0.032459
  20 O :   -0.314321
  21 H :    0.125629
  22 H :    0.121251
  23 O :   -0.404672
  24 H :    0.123472
  25 H :    0.104399
  26 H :    0.101592
  27 H :    0.109624
  28 H :    0.279145

  Mayer bond orders larger than 0.100000
B(  0-C ,  1-C ) :   0.9419 B(  0-C ,  4-O ) :   0.9150 B(  0-C ,  5-H ) :   0.9025
B(  0-C , 15-O ) :   0.8237 B(  1-C ,  2-C ) :   0.9567 B(  1-C ,  6-H ) :   0.9406
B(  1-C ,  7-H ) :   0.9393 B(  2-C ,  3-C ) :   0.9543 B(  2-C ,  8-H ) :   0.9464
B(  2-C ,  9-H ) :   0.9441 B(  3-C ,  4-O ) :   0.8463 B(  3-C , 10-H ) :   0.9355
B(  3-C , 11-H ) :   0.9402 B( 12-C , 13-H ) :   0.9200 B( 12-C , 14-H ) :   0.9230
B( 12-C , 15-O ) :   0.8706 B( 12-C , 16-C ) :   0.8964 B( 16-C , 17-C ) :   0.8681
B( 16-C , 20-O ) :   0.8458 B( 16-C , 21-H ) :   0.9243 B( 17-C , 18-C ) :   0.9213
B( 17-C , 22-H ) :   0.9322 B( 17-C , 23-O ) :   0.9022 B( 18-C , 19-C ) :   0.9399
B( 18-C , 24-H ) :   0.9420 B( 18-C , 25-H ) :   0.9396 B( 19-C , 20-O ) :   0.8444
B( 19-C , 26-H ) :   0.9316 B( 19-C , 27-H ) :   0.9372 B( 23-O , 28-H ) :   0.7976

FINAL SINGLE POINT ENERGY      -652.855642952644

DIPOLE MOMENT
-------------
                                X             Y             Z
Electronic contribution:     -1.44990      -3.15844       1.89979
Nuclear contribution   :      1.30846       3.45369      -3.19985
                        -----------------------------------------
Total Dipole Moment    :     -0.14144       0.29525      -1.30005
                        -----------------------------------------
Magnitude (a.u.)       :      1.34064
Magnitude (Debye)      :      3.40764

Rotational constants in cm-1:     0.059342     0.013309     0.012459
Rotational constants in MHz :  1779.035775   398.982834   373.513030

                             ****ORCA TERMINATED NORMALLY****
TOTAL RUN TIME: 0 days 1 hours 3 minutes 2 seconds 881 msec
