                         Program Version 4.2.0 -  RELEASE  -
|  1> # Test redundant internal optimization
|  2> #
|  3> ! RKS B3LYP  Opt TightSCF SmallPrint
|  4>
|  5> %basis
|  6>         Basis "6-31G"
|  7> end
|  8>
|  9> %geom
| 10> Constraints
| 11> { D 4  0  15  12  165.0   C } # D for Dihedral angle
| 12> { D 0  15  12  16  195.0   C } # D for Dihedral angle
| 13> { D 0  4  3  2   C } # D for Dihedral angle
| 14> { D 4  3  2  1   C } # D for Dihedral angle
| 15> { D 3  2  1  0   C } # D for Dihedral angle
| 16> { D 2  1  0  4   C } # D for Dihedral angle
| 17> { D 1  0  4  3   C } # D for Dihedral angle
| 18> { D 16  20  19  18   C } # D for Dihedral angle
| 19> { D 20  19  18  17   C } # D for Dihedral angle
| 20> { D 19  18  17  16   C } # D for Dihedral angle
| 21> { D 18  17  16  20   C } # D for Dihedral angle
| 22> { D 17  16  20  19   C } # D for Dihedral angle
| 23> { D 15  12  16  20   C } # D for Dihedral angle
| 24> end
| 25> end
| 26>
| 27>
| 28> #%pal
| 29> #nprocs 8
| 30> #end
| 31>
| 32> * xyz 0 1
| 33> C  -21.048   26.222   46.251
| 34> C  -20.361   27.558   45.944
| 35> C  -20.329   28.222   47.341
| 36> C  -20.110   27.022   48.296
| 37> O  -20.473   25.807   47.535
| 38> H  -20.833   25.428   45.533
| 39> H  -19.344   27.382   45.576
| 40> H  -20.898   28.157   45.201
| 41> H  -19.543   28.978   47.434
| 42> H  -21.289   28.710   47.548
| 43> H  -20.733   27.082   49.195
| 44> H  -19.064   26.913   48.597
| 45> C  -23.260   27.170   45.210
| 46> H  -22.660   28.057   44.972
| 47> H  -23.315   26.542   44.312
| 48> O  -22.586   26.394   46.375
| 49> C  -24.703   27.633   45.553
| 50> C  -25.579   26.452   45.985
| 51> C  -25.131   26.249   47.452
| 52> C  -24.847   27.693   47.936
| 53> O  -24.693   28.522   46.720
| 54> H  -25.102   28.209   44.716
| 55> O  -27.079   26.849   45.921
| 56> H  -25.432   25.558   45.369
| 57> H  -25.888   25.746   48.062
| 58> H  -24.217   25.644   47.487
| 59> H  -23.933   27.763   48.536
| 60> H  -25.679   28.114   48.508
| 61> H  -27.250   27.743   46.531
| 62> *
| 63>
| 64>                          ****END OF INPUT****
 Total Charge           Charge          ....    0
 Multiplicity           Mult            ....    1
 Number of Electrons    NEL             ....  102
FINAL SINGLE POINT ENERGY      -652.832034573484
FINAL SINGLE POINT ENERGY      -652.855025090770
FINAL SINGLE POINT ENERGY      -652.859920558684
FINAL SINGLE POINT ENERGY      -652.860980476787
FINAL SINGLE POINT ENERGY      -652.861121549855
FINAL SINGLE POINT ENERGY      -652.861141649576
                    ***********************HURRAY********************

CARTESIAN COORDINATES (ANGSTROEM)
---------------------------------
  C    -21.090097   26.271693   46.164212
  C    -20.301879   27.555579   45.909217
  C    -20.383707   28.262879   47.285710
  C    -20.339138   27.082947   48.277178
  O    -20.690785   25.876436   47.483700
  H    -20.868789   25.441011   45.487653
  H    -19.267027   27.280499   45.673881
  H    -20.675465   28.169720   45.087142
  H    -19.564334   28.970876   47.440950
  H    -21.331966   28.803646   47.367440
  H    -21.054259   27.181343   49.097910
  H    -19.340133   26.905901   48.686028
  C    -23.217753   27.187438   45.166578
  H    -22.684146   28.108728   44.906130
  H    -23.294337   26.563504   44.261912
  O    -22.536431   26.475130   46.230260
  C    -24.614384   27.585925   45.640078
  C    -25.561948   26.452583   46.058767
  C    -25.124662   26.200970   47.526662
  C    -24.753324   27.617655   48.027875
  O    -24.549832   28.453921   46.817496
  H    -25.076229   28.175742   44.838772
  O    -26.948692   26.883080   45.952674
  H    -25.489827   25.565342   45.429169
  H    -25.937501   25.745824   48.099857
  H    -24.249076   25.550534   47.540492
  H    -23.829992   27.618796   48.611812
  H    -25.550953   28.090522   48.610868
  H    -27.052335   27.740774   46.415577

 Multiplicity           Mult            ....    1
 Number of Electrons    NEL             ....  102
 Basis Dimension        Dim             ....  149

ORBITAL ENERGIES
----------------

  NO   OCC          E(Eh)            E(eV)
   0   2.0000     -19.145821      -520.9843
   1   2.0000     -19.144179      -520.9396
   2   2.0000     -19.138534      -520.7860
   3   2.0000     -19.132723      -520.6279
   4   2.0000     -10.285521      -279.8833
   5   2.0000     -10.235964      -278.5347
   6   2.0000     -10.233866      -278.4777
   7   2.0000     -10.233723      -278.4738
   8   2.0000     -10.228541      -278.3327
   9   2.0000     -10.220959      -278.1264
  10   2.0000     -10.192790      -277.3599
  11   2.0000     -10.189325      -277.2656
  12   2.0000     -10.171194      -276.7723
  13   2.0000      -1.058195       -28.7950
  14   2.0000      -1.031000       -28.0549
  15   2.0000      -1.002899       -27.2903
  16   2.0000      -0.993691       -27.0397
  17   2.0000      -0.790607       -21.5135
  18   2.0000      -0.777300       -21.1514
  19   2.0000      -0.762058       -20.7366
  20   2.0000      -0.734801       -19.9950
  21   2.0000      -0.676676       -18.4133
  22   2.0000      -0.605541       -16.4776
  23   2.0000      -0.598163       -16.2768
  24   2.0000      -0.593855       -16.1596
  25   2.0000      -0.571925       -15.5629
  26   2.0000      -0.528862       -14.3911
  27   2.0000      -0.505323       -13.7505
  28   2.0000      -0.500543       -13.6205
  29   2.0000      -0.487194       -13.2572
  30   2.0000      -0.476458       -12.9651
  31   2.0000      -0.458140       -12.4666
  32   2.0000      -0.448872       -12.2144
  33   2.0000      -0.441710       -12.0195
  34   2.0000      -0.419979       -11.4282
  35   2.0000      -0.410085       -11.1590
  36   2.0000      -0.404321       -11.0021
  37   2.0000      -0.385170       -10.4810
  38   2.0000      -0.380889       -10.3645
  39   2.0000      -0.366056        -9.9609
  40   2.0000      -0.359731        -9.7888
  41   2.0000      -0.356302        -9.6955
  42   2.0000      -0.353654        -9.6234
  43   2.0000      -0.327453        -8.9105
  44   2.0000      -0.315543        -8.5864
  45   2.0000      -0.305752        -8.3199
  46   2.0000      -0.298092        -8.1115
  47   2.0000      -0.268663        -7.3107
  48   2.0000      -0.262611        -7.1460
  49   2.0000      -0.257001        -6.9934
  50   2.0000      -0.242715        -6.6046
  51   0.0000       0.064141         1.7454
  52   0.0000       0.080460         2.1894
  53   0.0000       0.096907         2.6370
  54   0.0000       0.101711         2.7677
  55   0.0000       0.103598         2.8190

MULLIKEN ATOMIC CHARGES
-----------------------
   0 C :    0.318464
   1 C :   -0.293858
   2 C :   -0.304582
   3 C :   -0.002888
   4 O :   -0.501265
   5 H :    0.146052
   6 H :    0.152013
   7 H :    0.146473
   8 H :    0.143931
   9 H :    0.175244
  10 H :    0.151111
  11 H :    0.144224
  12 C :    0.002095
  13 H :    0.139238
  14 H :    0.126516
  15 O :   -0.527570
  16 C :    0.065438
  17 C :    0.079283
  18 C :   -0.291949
  19 C :   -0.022671
  20 O :   -0.530881
  21 H :    0.154654
  22 O :   -0.604467
  23 H :    0.151815
  24 H :    0.145461
  25 H :    0.191652
  26 H :    0.150895
  27 H :    0.133739
  28 H :    0.361835
Sum of atomic charges:    0.0000000

LOEWDIN ATOMIC CHARGES
----------------------
   0 C :    0.185310
   1 C :   -0.233021
   2 C :   -0.218571
   3 C :   -0.025637
   4 O :   -0.304720
   5 H :    0.099592
   6 H :    0.118733
   7 H :    0.114978
   8 H :    0.115564
   9 H :    0.123704
  10 H :    0.106525
  11 H :    0.103781
  12 C :   -0.040802
  13 H :    0.099732
  14 H :    0.093622
  15 O :   -0.335782
  16 C :    0.015226
  17 C :    0.040067
  18 C :   -0.243162
  19 C :   -0.033037
  20 O :   -0.333850
  21 H :    0.114963
  22 O :   -0.417869
  23 H :    0.116532
  24 H :    0.117128
  25 H :    0.138647
  26 H :    0.106224
  27 H :    0.094807
  28 H :    0.281317

  Mayer bond orders larger than 0.100000
B(  0-C ,  1-C ) :   0.9325 B(  0-C ,  4-O ) :   0.9394 B(  0-C ,  5-H ) :   0.9233
B(  0-C , 15-O ) :   0.8211 B(  1-C ,  2-C ) :   0.9490 B(  1-C ,  6-H ) :   0.9336
B(  1-C ,  7-H ) :   0.9271 B(  2-C ,  3-C ) :   0.9555 B(  2-C ,  8-H ) :   0.9448
B(  2-C ,  9-H ) :   0.9376 B(  3-C ,  4-O ) :   0.8328 B(  3-C , 10-H ) :   0.9332
B(  3-C , 11-H ) :   0.9396 B( 12-C , 13-H ) :   0.9048 B( 12-C , 14-H ) :   0.9102
B( 12-C , 15-O ) :   0.8461 B( 12-C , 16-C ) :   0.9054 B( 16-C , 17-C ) :   0.9086
B( 16-C , 20-O ) :   0.8754 B( 16-C , 21-H ) :   0.9230 B( 17-C , 18-C ) :   0.9271
B( 17-C , 22-O ) :   0.8898 B( 17-C , 23-H ) :   0.9355 B( 18-C , 19-C ) :   0.9461
B( 18-C , 24-H ) :   0.9372 B( 18-C , 25-H ) :   0.9133 B( 19-C , 20-O ) :   0.8358
B( 19-C , 26-H ) :   0.9323 B( 19-C , 27-H ) :   0.9373 B( 22-O , 28-H ) :   0.7969

FINAL SINGLE POINT ENERGY      -652.861131021448

DIPOLE MOMENT
-------------
                                X             Y             Z
Electronic contribution:     -3.25423      -1.95998      -1.13961
Nuclear contribution   :      4.24399       2.57843       0.93923
                        -----------------------------------------
Total Dipole Moment    :      0.98976       0.61845      -0.20038
                        -----------------------------------------
Magnitude (a.u.)       :      1.18417
Magnitude (Debye)      :      3.00991

Rotational constants in cm-1:     0.055982     0.015099     0.014542
Rotational constants in MHz :  1678.297775   452.668257   435.954283

                             ****ORCA TERMINATED NORMALLY****
TOTAL RUN TIME: 0 days 0 hours 27 minutes 47 seconds 569 msec
