                         Program Version 4.2.0 -  RELEASE  -
|  1> # Test redundant internal optimization
|  2> #
|  3> ! RKS B3LYP  Opt TightSCF SmallPrint
|  4>
|  5> %basis
|  6>         Basis "6-31G"
|  7> end
|  8>
|  9> %geom
| 10> Constraints
| 11> { D 4  0  15  12  240.0   C } # D for Dihedral angle
| 12> { D 0  15  12  16  255.0   C } # D for Dihedral angle
| 13> { D 0  4  3  2   C } # D for Dihedral angle
| 14> { D 4  3  2  1   C } # D for Dihedral angle
| 15> { D 3  2  1  0   C } # D for Dihedral angle
| 16> { D 2  1  0  4   C } # D for Dihedral angle
| 17> { D 1  0  4  3   C } # D for Dihedral angle
| 18> { D 16  20  19  18   C } # D for Dihedral angle
| 19> { D 20  19  18  17   C } # D for Dihedral angle
| 20> { D 19  18  17  16   C } # D for Dihedral angle
| 21> { D 18  17  16  20   C } # D for Dihedral angle
| 22> { D 17  16  20  19   C } # D for Dihedral angle
| 23> { D 15  12  16  20   C } # D for Dihedral angle
| 24> end
| 25> end
| 26>
| 27>
| 28> #%pal
| 29> #nprocs 8
| 30> #end
| 31>
| 32> * xyz 0 1
| 33> C  -21.048   26.222   46.251
| 34> C  -20.361   27.558   45.944
| 35> C  -20.329   28.222   47.341
| 36> C  -20.110   27.022   48.296
| 37> O  -20.473   25.807   47.535
| 38> H  -20.833   25.428   45.533
| 39> H  -19.344   27.382   45.576
| 40> H  -20.898   28.157   45.201
| 41> H  -19.543   28.978   47.434
| 42> H  -21.289   28.710   47.548
| 43> H  -20.733   27.082   49.195
| 44> H  -19.064   26.913   48.597
| 45> C  -23.430   25.483   45.442
| 46> H  -22.795   24.678   45.051
| 47> H  -24.259   25.026   45.998
| 48> O  -22.586   26.394   46.375
| 49> C  -24.037   26.254   44.238
| 50> C  -24.955   25.353   43.405
| 51> C  -26.248   25.351   44.255
| 52> C  -26.286   26.786   44.839
| 53> O  -24.917   27.329   44.709
| 54> H  -23.231   26.725   43.671
| 55> H  -25.138   25.804   42.424
| 56> O  -24.377   23.928   43.188
| 57> H  -27.142   25.116   43.668
| 58> H  -26.170   24.609   45.058
| 59> H  -26.579   26.801   45.895
| 60> H  -26.951   27.448   44.277
| 61> H  -24.187   23.454   44.157
| 62> *
| 63>
| 64>                          ****END OF INPUT****
 Total Charge           Charge          ....    0
 Multiplicity           Mult            ....    1
 Number of Electrons    NEL             ....  102
FINAL SINGLE POINT ENERGY      -652.827189861853
FINAL SINGLE POINT ENERGY      -652.850263322823
FINAL SINGLE POINT ENERGY      -652.854774702041
FINAL SINGLE POINT ENERGY      -652.855601852610
FINAL SINGLE POINT ENERGY      -652.855741283254
FINAL SINGLE POINT ENERGY      -652.855775271587
FINAL SINGLE POINT ENERGY      -652.855782647422
FINAL SINGLE POINT ENERGY      -652.855784699427
                    ***********************HURRAY********************

CARTESIAN COORDINATES (ANGSTROEM)
---------------------------------
  C    -21.043355   26.175320   46.204828
  C    -20.447254   27.549913   45.902694
  C    -20.474308   28.222964   47.295987
  C    -20.185328   27.045958   48.253415
  O    -20.464499   25.812919   47.474637
  H    -20.786809   25.380734   45.496633
  H    -19.416609   27.430369   45.547039
  H    -21.023649   28.094337   45.151792
  H    -19.740241   29.028805   47.390092
  H    -21.470743   28.634479   47.481429
  H    -20.821270   27.049637   49.142054
  H    -19.135747   26.993017   48.558594
  C    -23.316910   25.434583   45.510484
  H    -22.729279   24.594595   45.111275
  H    -24.089304   25.033631   46.177150
  O    -22.483091   26.295525   46.326071
  C    -23.945822   26.202539   44.345485
  C    -24.882030   25.348118   43.474230
  C    -26.211460   25.399203   44.286968
  C    -26.193592   26.827469   44.874977
  O    -24.790259   27.306205   44.791713
  H    -23.144889   26.658972   43.754993
  H    -25.011183   25.828415   42.502001
  O    -24.401690   24.017138   43.162724
  H    -27.086198   25.205959   43.660271
  H    -26.188384   24.638035   45.078821
  H    -26.520699   26.863300   45.918609
  H    -26.803082   27.522890   44.290484
  H    -24.505315   23.424971   43.935549

 Multiplicity           Mult            ....    1
 Number of Electrons    NEL             ....  102
 Basis Dimension        Dim             ....  149

ORBITAL ENERGIES
----------------

  NO   OCC          E(Eh)            E(eV)
   0   2.0000     -19.152341      -521.1617
   1   2.0000     -19.138139      -520.7752
   2   2.0000     -19.137029      -520.7450
   3   2.0000     -19.133054      -520.6369
   4   2.0000     -10.275523      -279.6112
   5   2.0000     -10.247500      -278.8487
   6   2.0000     -10.232223      -278.4330
   7   2.0000     -10.231625      -278.4167
   8   2.0000     -10.231559      -278.4149
   9   2.0000     -10.218635      -278.0632
  10   2.0000     -10.198318      -277.5103
  11   2.0000     -10.178836      -276.9802
  12   2.0000     -10.178468      -276.9702
  13   2.0000      -1.047973       -28.5168
  14   2.0000      -1.035246       -28.1705
  15   2.0000      -1.017042       -27.6751
  16   2.0000      -0.989796       -26.9337
  17   2.0000      -0.785378       -21.3712
  18   2.0000      -0.780177       -21.2297
  19   2.0000      -0.766241       -20.8505
  20   2.0000      -0.728576       -19.8255
  21   2.0000      -0.679970       -18.5029
  22   2.0000      -0.613826       -16.7031
  23   2.0000      -0.594590       -16.1796
  24   2.0000      -0.591602       -16.0983
  25   2.0000      -0.575362       -15.6564
  26   2.0000      -0.530034       -14.4230
  27   2.0000      -0.512554       -13.9473
  28   2.0000      -0.495711       -13.4890
  29   2.0000      -0.488656       -13.2970
  30   2.0000      -0.465621       -12.6702
  31   2.0000      -0.452360       -12.3093
  32   2.0000      -0.442464       -12.0401
  33   2.0000      -0.439125       -11.9492
  34   2.0000      -0.429059       -11.6753
  35   2.0000      -0.418127       -11.3778
  36   2.0000      -0.409137       -11.1332
  37   2.0000      -0.395824       -10.7709
  38   2.0000      -0.379278       -10.3207
  39   2.0000      -0.362891        -9.8748
  40   2.0000      -0.358286        -9.7494
  41   2.0000      -0.350422        -9.5355
  42   2.0000      -0.344644        -9.3782
  43   2.0000      -0.331334        -9.0161
  44   2.0000      -0.318465        -8.6659
  45   2.0000      -0.310589        -8.4516
  46   2.0000      -0.300048        -8.1647
  47   2.0000      -0.273648        -7.4463
  48   2.0000      -0.264808        -7.2058
  49   2.0000      -0.250761        -6.8236
  50   2.0000      -0.232867        -6.3366
  51   0.0000       0.048701         1.3252
  52   0.0000       0.077486         2.1085
  53   0.0000       0.085892         2.3372
  54   0.0000       0.090716         2.4685
  55   0.0000       0.105202         2.8627

MULLIKEN ATOMIC CHARGES
-----------------------
   0 C :    0.276578
   1 C :   -0.252909
   2 C :   -0.300935
   3 C :   -0.000390
   4 O :   -0.503788
   5 H :    0.138911
   6 H :    0.139661
   7 H :    0.154016
   8 H :    0.138589
   9 H :    0.169765
  10 H :    0.149812
  11 H :    0.138405
  12 C :   -0.019808
  13 H :    0.129076
  14 H :    0.140155
  15 O :   -0.502553
  16 C :    0.098385
  17 C :    0.080205
  18 C :   -0.327295
  19 C :   -0.009587
  20 O :   -0.505367
  21 H :    0.150227
  22 H :    0.169898
  23 O :   -0.599785
  24 H :    0.157781
  25 H :    0.136018
  26 H :    0.147163
  27 H :    0.151255
  28 H :    0.356516
Sum of atomic charges:   -0.0000000

LOEWDIN ATOMIC CHARGES
----------------------
   0 C :    0.174494
   1 C :   -0.221300
   2 C :   -0.216489
   3 C :   -0.026594
   4 O :   -0.318539
   5 H :    0.096534
   6 H :    0.110890
   7 H :    0.121053
   8 H :    0.112661
   9 H :    0.123015
  10 H :    0.106961
  11 H :    0.100479
  12 C :   -0.045790
  13 H :    0.098232
  14 H :    0.103283
  15 O :   -0.317819
  16 C :    0.011397
  17 C :    0.032829
  18 C :   -0.242135
  19 C :   -0.029431
  20 O :   -0.315112
  21 H :    0.111633
  22 H :    0.120123
  23 O :   -0.407823
  24 H :    0.122883
  25 H :    0.105034
  26 H :    0.104746
  27 H :    0.106643
  28 H :    0.278141

  Mayer bond orders larger than 0.100000
B(  0-C ,  1-C ) :   0.9422 B(  0-C ,  4-O ) :   0.9291 B(  0-C ,  5-H ) :   0.9161
B(  0-C , 15-O ) :   0.8485 B(  1-C ,  2-C ) :   0.9578 B(  1-C ,  6-H ) :   0.9370
B(  1-C ,  7-H ) :   0.9360 B(  2-C ,  3-C ) :   0.9545 B(  2-C ,  8-H ) :   0.9454
B(  2-C ,  9-H ) :   0.9421 B(  3-C ,  4-O ) :   0.8383 B(  3-C , 10-H ) :   0.9352
B(  3-C , 11-H ) :   0.9400 B( 12-C , 13-H ) :   0.9042 B( 12-C , 14-H ) :   0.9351
B( 12-C , 15-O ) :   0.8648 B( 12-C , 16-C ) :   0.8875 B( 16-C , 17-C ) :   0.8697
B( 16-C , 20-O ) :   0.8722 B( 16-C , 21-H ) :   0.9327 B( 17-C , 18-C ) :   0.9258
B( 17-C , 22-H ) :   0.9315 B( 17-C , 23-O ) :   0.8941 B( 18-C , 19-C ) :   0.9394
B( 18-C , 24-H ) :   0.9419 B( 18-C , 25-H ) :   0.9405 B( 19-C , 20-O ) :   0.8494
B( 19-C , 26-H ) :   0.9313 B( 19-C , 27-H ) :   0.9373 B( 23-O , 28-H ) :   0.7984

FINAL SINGLE POINT ENERGY      -652.855785298707

DIPOLE MOMENT
-------------
                                X             Y             Z
Electronic contribution:      0.00296      -2.18032      -0.82987
Nuclear contribution   :     -0.51769       2.14717       0.71206
                        -----------------------------------------
Total Dipole Moment    :     -0.51473      -0.03314      -0.11782
                        -----------------------------------------
Magnitude (a.u.)       :      0.52908
Magnitude (Debye)      :      1.34481

Rotational constants in cm-1:     0.058099     0.012135     0.011192
Rotational constants in MHz :  1741.761942   363.803858   335.527644

                             ****ORCA TERMINATED NORMALLY****
TOTAL RUN TIME: 0 days 0 hours 24 minutes 44 seconds 110 msec
