                         Program Version 4.2.0 -  RELEASE  -
|  1> # Test redundant internal optimization
|  2> #
|  3> ! RKS B3LYP  Opt TightSCF SmallPrint
|  4>
|  5> %basis
|  6>         Basis "6-31G"
|  7> end
|  8>
|  9> %geom
| 10> Constraints
| 11> { D 4  0  15  12  195.0   C } # D for Dihedral angle
| 12> { D 0  15  12  16  60.0   C } # D for Dihedral angle
| 13> { D 0  4  3  2   C } # D for Dihedral angle
| 14> { D 4  3  2  1   C } # D for Dihedral angle
| 15> { D 3  2  1  0   C } # D for Dihedral angle
| 16> { D 2  1  0  4   C } # D for Dihedral angle
| 17> { D 1  0  4  3   C } # D for Dihedral angle
| 18> { D 16  20  19  18   C } # D for Dihedral angle
| 19> { D 20  19  18  17   C } # D for Dihedral angle
| 20> { D 19  18  17  16   C } # D for Dihedral angle
| 21> { D 18  17  16  20   C } # D for Dihedral angle
| 22> { D 17  16  20  19   C } # D for Dihedral angle
| 23> { D 15  12  16  20   C } # D for Dihedral angle
| 24> end
| 25> end
| 26>
| 27>
| 28> #%pal
| 29> #nprocs 8
| 30> #end
| 31>
| 32> * xyz 0 1
| 33> C  -21.048   26.222   46.251
| 34> C  -20.361   27.558   45.944
| 35> C  -20.329   28.222   47.341
| 36> C  -20.110   27.022   48.296
| 37> O  -20.473   25.807   47.535
| 38> H  -20.833   25.428   45.533
| 39> H  -19.344   27.382   45.576
| 40> H  -20.898   28.157   45.201
| 41> H  -19.543   28.978   47.434
| 42> H  -21.289   28.710   47.548
| 43> H  -20.733   27.082   49.195
| 44> H  -19.064   26.913   48.597
| 45> C  -23.353   26.472   45.026
| 46> H  -24.424   26.602   45.226
| 47> H  -23.007   27.332   44.437
| 48> O  -22.586   26.394   46.375
| 49> C  -23.168   25.198   44.156
| 50> C  -23.841   25.357   42.788
| 51> C  -22.803   26.215   42.026
| 52> C  -21.450   25.700   42.576
| 53> O  -21.751   24.994   43.840
| 54> H  -23.499   24.326   44.724
| 55> H  -23.959   24.377   42.310
| 56> O  -25.237   26.032   42.869
| 57> H  -22.880   26.107   40.939
| 58> H  -22.941   27.275   42.268
| 59> H  -20.743   26.513   42.779
| 60> H  -20.975   24.977   41.907
| 61> H  -25.145   27.015   43.344
| 62> *
| 63>
| 64>                          ****END OF INPUT****
 Total Charge           Charge          ....    0
 Multiplicity           Mult            ....    1
 Number of Electrons    NEL             ....  102
FINAL SINGLE POINT ENERGY      -652.825662745518
FINAL SINGLE POINT ENERGY      -652.849158070349
FINAL SINGLE POINT ENERGY      -652.853487522595
FINAL SINGLE POINT ENERGY      -652.855473924168
FINAL SINGLE POINT ENERGY      -652.855673792902
FINAL SINGLE POINT ENERGY      -652.855733791164
FINAL SINGLE POINT ENERGY      -652.855727442143
FINAL SINGLE POINT ENERGY      -652.855725912008
                    ***********************HURRAY********************

CARTESIAN COORDINATES (ANGSTROEM)
---------------------------------
  C    -20.930327   26.234894   46.239013
  C    -20.248554   27.585027   46.025817
  C    -20.393227   28.242492   47.420456
  C    -20.256642   27.041351   48.379835
  O    -20.505689   25.834590   47.549507
  H    -20.667695   25.445987   45.538676
  H    -19.193631   27.422993   45.774176
  H    -20.704772   28.177885   45.226774
  H    -19.637935   29.012748   47.603903
  H    -21.383878   28.697075   47.512149
  H    -20.980737   27.059173   49.198447
  H    -19.247378   26.936804   48.789813
  C    -23.162824   26.479970   45.080125
  H    -24.197376   26.581572   45.420246
  H    -22.890743   27.397213   44.526565
  O    -22.388425   26.398192   46.301434
  C    -23.076331   25.265258   44.149181
  C    -23.898596   25.411877   42.855174
  C    -22.909713   26.193154   41.935722
  C    -21.534359   25.624440   42.352033
  O    -21.722113   24.977096   43.678471
  H    -23.376158   24.381147   44.721016
  H    -24.101534   24.421849   42.442169
  O    -25.203595   26.015995   43.009011
  H    -23.126818   26.043413   40.874778
  H    -22.982033   27.267732   42.149077
  H    -20.760629   26.394041   42.437178
  H    -21.183343   24.846801   41.667787
  H    -25.121947   26.976229   43.182466

 Multiplicity           Mult            ....    1
 Number of Electrons    NEL             ....  102
 Basis Dimension        Dim             ....  149

ORBITAL ENERGIES
----------------

  NO   OCC          E(Eh)            E(eV)
   0   2.0000     -19.155781      -521.2553
   1   2.0000     -19.150940      -521.1236
   2   2.0000     -19.132261      -520.6153
   3   2.0000     -19.129978      -520.5532
   4   2.0000     -10.262543      -279.2580
   5   2.0000     -10.252086      -278.9734
   6   2.0000     -10.240702      -278.6637
   7   2.0000     -10.236139      -278.5395
   8   2.0000     -10.233485      -278.4673
   9   2.0000     -10.216721      -278.0111
  10   2.0000     -10.203277      -277.6453
  11   2.0000     -10.180003      -277.0120
  12   2.0000     -10.179871      -277.0084
  13   2.0000      -1.045807       -28.4579
  14   2.0000      -1.038233       -28.2518
  15   2.0000      -1.024674       -27.8828
  16   2.0000      -0.983955       -26.7748
  17   2.0000      -0.790595       -21.5132
  18   2.0000      -0.779370       -21.2077
  19   2.0000      -0.769246       -20.9322
  20   2.0000      -0.728011       -19.8102
  21   2.0000      -0.682781       -18.5794
  22   2.0000      -0.620029       -16.8719
  23   2.0000      -0.599700       -16.3187
  24   2.0000      -0.590268       -16.0620
  25   2.0000      -0.566017       -15.4021
  26   2.0000      -0.536002       -14.5853
  27   2.0000      -0.511182       -13.9100
  28   2.0000      -0.497642       -13.5415
  29   2.0000      -0.483122       -13.1464
  30   2.0000      -0.471837       -12.8393
  31   2.0000      -0.456819       -12.4307
  32   2.0000      -0.443970       -12.0810
  33   2.0000      -0.439835       -11.9685
  34   2.0000      -0.430345       -11.7103
  35   2.0000      -0.423653       -11.5282
  36   2.0000      -0.404182       -10.9984
  37   2.0000      -0.397271       -10.8103
  38   2.0000      -0.387749       -10.5512
  39   2.0000      -0.369944       -10.0667
  40   2.0000      -0.359716        -9.7884
  41   2.0000      -0.349640        -9.5142
  42   2.0000      -0.347381        -9.4527
  43   2.0000      -0.334990        -9.1155
  44   2.0000      -0.324848        -8.8396
  45   2.0000      -0.303330        -8.2540
  46   2.0000      -0.299777        -8.1573
  47   2.0000      -0.278851        -7.5879
  48   2.0000      -0.264891        -7.2081
  49   2.0000      -0.250175        -6.8076
  50   2.0000      -0.232036        -6.3140
  51   0.0000       0.045038         1.2256
  52   0.0000       0.062776         1.7082
  53   0.0000       0.084270         2.2931
  54   0.0000       0.096031         2.6131
  55   0.0000       0.100945         2.7468

MULLIKEN ATOMIC CHARGES
-----------------------
   0 C :    0.274588
   1 C :   -0.271470
   2 C :   -0.296464
   3 C :    0.000204
   4 O :   -0.502078
   5 H :    0.195422
   6 H :    0.143875
   7 H :    0.131242
   8 H :    0.136970
   9 H :    0.156255
  10 H :    0.151149
  11 H :    0.137985
  12 C :   -0.017521
  13 H :    0.161442
  14 H :    0.099891
  15 O :   -0.516864
  16 C :    0.082441
  17 C :    0.086050
  18 C :   -0.324998
  19 C :   -0.017432
  20 O :   -0.518764
  21 H :    0.170883
  22 H :    0.171026
  23 O :   -0.595307
  24 H :    0.162861
  25 H :    0.136961
  26 H :    0.146415
  27 H :    0.157504
  28 H :    0.357736
Sum of atomic charges:    0.0000000

LOEWDIN ATOMIC CHARGES
----------------------
   0 C :    0.171646
   1 C :   -0.229515
   2 C :   -0.217546
   3 C :   -0.026383
   4 O :   -0.303722
   5 H :    0.122166
   6 H :    0.113251
   7 H :    0.107691
   8 H :    0.111497
   9 H :    0.116113
  10 H :    0.107640
  11 H :    0.100368
  12 C :   -0.050162
  13 H :    0.121241
  14 H :    0.075025
  15 O :   -0.332005
  16 C :    0.006957
  17 C :    0.037735
  18 C :   -0.242389
  19 C :   -0.031926
  20 O :   -0.320520
  21 H :    0.121600
  22 H :    0.121421
  23 O :   -0.403168
  24 H :    0.125117
  25 H :    0.105431
  26 H :    0.103373
  27 H :    0.109825
  28 H :    0.279238

  Mayer bond orders larger than 0.100000
B(  0-C ,  1-C ) :   0.9325 B(  0-C ,  4-O ) :   0.9242 B(  0-C ,  5-H ) :   0.8943
B(  0-C , 15-O ) :   0.8103 B(  1-C ,  2-C ) :   0.9516 B(  1-C ,  6-H ) :   0.9359
B(  1-C ,  7-H ) :   0.9375 B(  2-C ,  3-C ) :   0.9565 B(  2-C ,  8-H ) :   0.9457
B(  2-C ,  9-H ) :   0.9450 B(  3-C ,  4-O ) :   0.8413 B(  3-C , 10-H ) :   0.9347
B(  3-C , 11-H ) :   0.9401 B( 12-C , 13-H ) :   0.9211 B( 12-C , 14-H ) :   0.9148
B( 12-C , 15-O ) :   0.8814 B( 12-C , 16-C ) :   0.8905 B( 16-C , 17-C ) :   0.8684
B( 16-C , 20-O ) :   0.8435 B( 16-C , 21-H ) :   0.9270 B( 17-C , 18-C ) :   0.9211
B( 17-C , 22-H ) :   0.9325 B( 17-C , 23-O ) :   0.9060 B( 18-C , 19-C ) :   0.9415
B( 18-C , 24-H ) :   0.9411 B( 18-C , 25-H ) :   0.9393 B( 19-C , 20-O ) :   0.8381
B( 19-C , 26-H ) :   0.9308 B( 19-C , 27-H ) :   0.9369 B( 23-O , 28-H ) :   0.7970

FINAL SINGLE POINT ENERGY      -652.855726426306

DIPOLE MOMENT
-------------
                                X             Y             Z
Electronic contribution:     -2.55699      -5.13864       1.42994
Nuclear contribution   :      2.87085       6.54401      -2.65715
                        -----------------------------------------
Total Dipole Moment    :      0.31386       1.40538      -1.22721
                        -----------------------------------------
Magnitude (a.u.)       :      1.89199
Magnitude (Debye)      :      4.80907

Rotational constants in cm-1:     0.057998     0.013371     0.012566
Rotational constants in MHz :  1738.734922   400.863730   376.715523

                             ****ORCA TERMINATED NORMALLY****
TOTAL RUN TIME: 0 days 0 hours 25 minutes 8 seconds 379 msec
