                         Program Version 4.2.0 -  RELEASE  -
|  1> # Test redundant internal optimization
|  2> #
|  3> ! RKS B3LYP  Opt TightSCF SmallPrint
|  4>
|  5> %basis
|  6>         Basis "6-31G"
|  7> end
|  8>
|  9> %geom
| 10> Constraints
| 11> { D 4  0  15  12  210.0   C } # D for Dihedral angle
| 12> { D 0  15  12  16  165.0   C } # D for Dihedral angle
| 13> { D 0  4  3  2   C } # D for Dihedral angle
| 14> { D 4  3  2  1   C } # D for Dihedral angle
| 15> { D 3  2  1  0   C } # D for Dihedral angle
| 16> { D 2  1  0  4   C } # D for Dihedral angle
| 17> { D 1  0  4  3   C } # D for Dihedral angle
| 18> { D 16  20  19  18   C } # D for Dihedral angle
| 19> { D 20  19  18  17   C } # D for Dihedral angle
| 20> { D 19  18  17  16   C } # D for Dihedral angle
| 21> { D 18  17  16  20   C } # D for Dihedral angle
| 22> { D 17  16  20  19   C } # D for Dihedral angle
| 23> { D 15  12  16  20   C } # D for Dihedral angle
| 24> end
| 25> end
| 26>
| 27>
| 28> #%pal
| 29> #nprocs 8
| 30> #end
| 31>
| 32> * xyz 0 1
| 33> C  -21.048   26.222   46.251
| 34> C  -20.361   27.558   45.944
| 35> C  -20.329   28.222   47.341
| 36> C  -20.110   27.022   48.296
| 37> O  -20.473   25.807   47.535
| 38> H  -20.833   25.428   45.533
| 39> H  -19.344   27.382   45.576
| 40> H  -20.898   28.157   45.201
| 41> H  -19.543   28.978   47.434
| 42> H  -21.289   28.710   47.548
| 43> H  -20.733   27.082   49.195
| 44> H  -19.064   26.913   48.597
| 45> C  -23.389   26.110   45.076
| 46> H  -23.255   26.946   44.378
| 47> H  -23.024   25.196   44.591
| 48> O  -22.586   26.394   46.375
| 49> C  -24.910   25.932   45.337
| 50> C  -25.653   25.540   44.055
| 51> C  -25.336   24.029   43.959
| 52> C  -25.309   23.580   45.441
| 53> O  -25.146   24.808   46.249
| 54> H  -25.297   26.828   45.828
| 55> O  -27.179   25.770   44.232
| 56> H  -25.319   26.102   43.176
| 57> H  -26.075   23.477   43.369
| 58> H  -24.355   23.879   43.492
| 59> H  -24.481   22.896   45.657
| 60> H  -26.247   23.111   45.753
| 61> H  -27.536   25.217   45.107
| 62> *
| 63>
| 64>                          ****END OF INPUT****
 Total Charge           Charge          ....    0
 Multiplicity           Mult            ....    1
 Number of Electrons    NEL             ....  102
FINAL SINGLE POINT ENERGY      -652.830157901703
FINAL SINGLE POINT ENERGY      -652.853735323543
FINAL SINGLE POINT ENERGY      -652.857517876901
FINAL SINGLE POINT ENERGY      -652.858223749411
FINAL SINGLE POINT ENERGY      -652.858316630849
FINAL SINGLE POINT ENERGY      -652.858325390434
                    ***********************HURRAY********************

CARTESIAN COORDINATES (ANGSTROEM)
---------------------------------
  C    -21.078647   26.206495   46.160972
  C    -20.421617   27.564742   45.925202
  C    -20.500698   28.207455   47.330681
  C    -20.303828   27.000833   48.272667
  O    -20.584011   25.797415   47.444560
  H    -20.814544   25.422310   45.442460
  H    -19.378560   27.419386   45.619159
  H    -20.929040   28.154266   45.155894
  H    -19.745865   28.984769   47.481519
  H    -21.490569   28.650076   47.476147
  H    -20.987028   27.002180   49.125078
  H    -19.274415   26.901563   48.629616
  C    -23.241863   26.072886   45.007839
  H    -23.138225   26.912665   44.300458
  H    -22.834811   25.170735   44.523913
  O    -22.524723   26.335768   46.235116
  C    -24.718324   25.884504   45.347418
  C    -25.596237   25.553158   44.132414
  C    -25.386354   24.021715   43.998879
  C    -25.257969   23.558014   45.471254
  O    -24.945050   24.769758   46.266854
  H    -25.074270   26.781979   45.862121
  O    -26.987346   25.884849   44.394616
  H    -25.334775   26.106115   43.229046
  H    -26.228143   23.560941   43.476083
  H    -24.472645   23.811227   43.431352
  H    -24.462051   22.821428   45.617161
  H    -26.191850   23.144974   45.865276
  H    -27.218542   25.593795   45.302244

 Multiplicity           Mult            ....    1
 Number of Electrons    NEL             ....  102
 Basis Dimension        Dim             ....  149

ORBITAL ENERGIES
----------------

  NO   OCC          E(Eh)            E(eV)
   0   2.0000     -19.139883      -520.8227
   1   2.0000     -19.139815      -520.8209
   2   2.0000     -19.139748      -520.8190
   3   2.0000     -19.137257      -520.7512
   4   2.0000     -10.278415      -279.6899
   5   2.0000     -10.244152      -278.7576
   6   2.0000     -10.236601      -278.5521
   7   2.0000     -10.234867      -278.5049
   8   2.0000     -10.229426      -278.3568
   9   2.0000     -10.222011      -278.1550
  10   2.0000     -10.190635      -277.3013
  11   2.0000     -10.185599      -277.1642
  12   2.0000     -10.184331      -277.1297
  13   2.0000      -1.052778       -28.6475
  14   2.0000      -1.036323       -28.1998
  15   2.0000      -1.006791       -27.3962
  16   2.0000      -0.993714       -27.0403
  17   2.0000      -0.788249       -21.4493
  18   2.0000      -0.782454       -21.2917
  19   2.0000      -0.768210       -20.9041
  20   2.0000      -0.729791       -19.8586
  21   2.0000      -0.675228       -18.3739
  22   2.0000      -0.605026       -16.4636
  23   2.0000      -0.598581       -16.2882
  24   2.0000      -0.589723       -16.0472
  25   2.0000      -0.586818       -15.9681
  26   2.0000      -0.526213       -14.3190
  27   2.0000      -0.511738       -13.9251
  28   2.0000      -0.494542       -13.4572
  29   2.0000      -0.488610       -13.2957
  30   2.0000      -0.476117       -12.9558
  31   2.0000      -0.460427       -12.5289
  32   2.0000      -0.453540       -12.3414
  33   2.0000      -0.442054       -12.0289
  34   2.0000      -0.426310       -11.6005
  35   2.0000      -0.408451       -11.1145
  36   2.0000      -0.399974       -10.8839
  37   2.0000      -0.394141       -10.7251
  38   2.0000      -0.374263       -10.1842
  39   2.0000      -0.372100       -10.1254
  40   2.0000      -0.358364        -9.7516
  41   2.0000      -0.356591        -9.7033
  42   2.0000      -0.351348        -9.5607
  43   2.0000      -0.332993        -9.0612
  44   2.0000      -0.310938        -8.4611
  45   2.0000      -0.308379        -8.3914
  46   2.0000      -0.304629        -8.2894
  47   2.0000      -0.272139        -7.4053
  48   2.0000      -0.260385        -7.0854
  49   2.0000      -0.248096        -6.7510
  50   2.0000      -0.244396        -6.6504
  51   0.0000       0.064113         1.7446
  52   0.0000       0.081653         2.2219
  53   0.0000       0.086992         2.3672
  54   0.0000       0.096141         2.6161
  55   0.0000       0.106570         2.8999

MULLIKEN ATOMIC CHARGES
-----------------------
   0 C :    0.298892
   1 C :   -0.264687
   2 C :   -0.299130
   3 C :   -0.001438
   4 O :   -0.500673
   5 H :    0.134623
   6 H :    0.142978
   7 H :    0.141183
   8 H :    0.141029
   9 H :    0.162348
  10 H :    0.157294
  11 H :    0.140035
  12 C :    0.003543
  13 H :    0.123134
  14 H :    0.120898
  15 O :   -0.502538
  16 C :    0.074464
  17 C :    0.073528
  18 C :   -0.295300
  19 C :   -0.031189
  20 O :   -0.505275
  21 H :    0.168970
  22 O :   -0.602942
  23 H :    0.149348
  24 H :    0.163709
  25 H :    0.142028
  26 H :    0.153272
  27 H :    0.144935
  28 H :    0.366962
Sum of atomic charges:    0.0000000

LOEWDIN ATOMIC CHARGES
----------------------
   0 C :    0.178924
   1 C :   -0.228202
   2 C :   -0.216718
   3 C :   -0.025151
   4 O :   -0.304669
   5 H :    0.094638
   6 H :    0.112678
   7 H :    0.113753
   8 H :    0.113900
   9 H :    0.119324
  10 H :    0.110951
  11 H :    0.101559
  12 C :   -0.040875
  13 H :    0.089619
  14 H :    0.089827
  15 O :   -0.321081
  16 C :    0.019543
  17 C :    0.035044
  18 C :   -0.241536
  19 C :   -0.038561
  20 O :   -0.316160
  21 H :    0.121078
  22 O :   -0.414629
  23 H :    0.113997
  24 H :    0.126961
  25 H :    0.111450
  26 H :    0.107346
  27 H :    0.102363
  28 H :    0.284625

  Mayer bond orders larger than 0.100000
B(  0-C ,  1-C ) :   0.9324 B(  0-C ,  4-O ) :   0.9385 B(  0-C ,  5-H ) :   0.9181
B(  0-C , 15-O ) :   0.8338 B(  1-C ,  2-C ) :   0.9552 B(  1-C ,  6-H ) :   0.9346
B(  1-C ,  7-H ) :   0.9379 B(  2-C ,  3-C ) :   0.9552 B(  2-C ,  8-H ) :   0.9451
B(  2-C ,  9-H ) :   0.9436 B(  3-C ,  4-O ) :   0.8366 B(  3-C , 10-H ) :   0.9339
B(  3-C , 11-H ) :   0.9397 B( 12-C , 13-H ) :   0.9076 B( 12-C , 14-H ) :   0.9120
B( 12-C , 15-O ) :   0.8492 B( 12-C , 16-C ) :   0.8984 B( 16-C , 17-C ) :   0.8987
B( 16-C , 20-O ) :   0.8731 B( 16-C , 21-H ) :   0.9239 B( 17-C , 18-C ) :   0.9114
B( 17-C , 22-O ) :   0.8944 B( 17-C , 23-H ) :   0.9331 B( 18-C , 19-C ) :   0.9388
B( 18-C , 24-H ) :   0.9374 B( 18-C , 25-H ) :   0.9341 B( 19-C , 20-O ) :   0.8517
B( 19-C , 26-H ) :   0.9332 B( 19-C , 27-H ) :   0.9378 B( 22-O , 28-H ) :   0.7928

FINAL SINGLE POINT ENERGY      -652.858327096312

DIPOLE MOMENT
-------------
                                X             Y             Z
Electronic contribution:     -3.10058      -1.59581       1.99193
Nuclear contribution   :      3.73920       1.84365      -2.85340
                        -----------------------------------------
Total Dipole Moment    :      0.63862       0.24784      -0.86147
                        -----------------------------------------
Magnitude (a.u.)       :      1.10063
Magnitude (Debye)      :      2.79759

Rotational constants in cm-1:     0.066298     0.011256     0.010741
Rotational constants in MHz :  1987.571921   337.433341   322.002137

                             ****ORCA TERMINATED NORMALLY****
TOTAL RUN TIME: 0 days 1 hours 18 minutes 46 seconds 625 msec
