                         Program Version 4.2.1 -  RELEASE  -
|  1> # Test redundant internal optimization
|  2> #
|  3> ! RKS B3LYP  Opt TightSCF SmallPrint
|  4>
|  5> %basis
|  6>         Basis "6-31G"
|  7> end
|  8>
|  9> %geom
| 10> Constraints
| 11> { D 4  0  19  14  30.0   C } # D for Dihedral angle
| 12> { D 0  19  14  12  165.0   C } # D for Dihedral angle
| 13> { D 0  4  3  2   C } # D for Dihedral angle
| 14> { D 4  3  2  1   C } # D for Dihedral angle
| 15> { D 3  2  1  0   C } # D for Dihedral angle
| 16> { D 2  1  0  4   C } # D for Dihedral angle
| 17> { D 1  0  4  3   C } # D for Dihedral angle
| 18> { D 14  15  16  17   C } # D for Dihedral angle
| 19> { D 15  16  17  12   C } # D for Dihedral angle
| 20> { D 16  17  12  14   C } # D for Dihedral angle
| 21> { D 17  12  14  15   C } # D for Dihedral angle
| 22> { D 12  14  15  16   C } # D for Dihedral angle
| 23> end
| 24> end
| 25>
| 26>
| 27> #%pal
| 28> #nprocs 8
| 29> #end
| 30>
| 31> * xyz 0 1
| 32> C  -21.048   26.222   46.251
| 33> C  -20.361   27.558   45.944
| 34> C  -20.329   28.222   47.341
| 35> C  -20.110   27.022   48.296
| 36> O  -20.473   25.807   47.535
| 37> H  -20.833   25.428   45.533
| 38> H  -19.344   27.382   45.576
| 39> H  -20.898   28.157   45.201
| 40> H  -19.543   28.978   47.434
| 41> H  -21.289   28.710   47.548
| 42> H  -20.733   27.082   49.195
| 43> H  -19.064   26.913   48.597
| 44> C  -24.368   27.277   47.601
| 45> H  -24.639   27.849   48.502
| 46> C  -22.920   26.779   47.672
| 47> C  -23.055   25.550   48.601
| 48> C  -24.441   24.971   48.220
| 49> O  -25.168   26.050   47.515
| 50> H  -24.600   27.872   46.716
| 51> O  -22.472   26.381   46.366
| 52> H  -22.225   27.531   48.061
| 53> H  -22.248   24.823   48.465
| 54> H  -23.046   25.868   49.651
| 55> H  -25.022   24.659   49.094
| 56> H  -24.365   24.128   47.526
| 57> *
| 58>
| 59>                          ****END OF INPUT****
 Total Charge           Charge          ....    0
 Multiplicity           Mult            ....    1
 Number of Electrons    NEL             ....   86
FINAL SINGLE POINT ENERGY      -538.410488216551
FINAL SINGLE POINT ENERGY      -538.426611596686
FINAL SINGLE POINT ENERGY      -538.428446913789
FINAL SINGLE POINT ENERGY      -538.428682710972
FINAL SINGLE POINT ENERGY      -538.428704810879
FINAL SINGLE POINT ENERGY      -538.428704421739
                    ***********************HURRAY********************

CARTESIAN COORDINATES (ANGSTROEM)
---------------------------------
  C    -21.056639   26.307335   46.359462
  C    -20.352130   27.601033   45.931916
  C    -20.067526   28.279295   47.300419
  C    -19.771581   27.072939   48.225077
  O    -20.322404   25.879553   47.531468
  H    -20.959219   25.505051   45.625617
  H    -19.416875   27.345299   45.421568
  H    -20.970905   28.204946   45.264826
  H    -19.222376   28.973474   47.256055
  H    -20.941062   28.844834   47.639437
  H    -20.237075   27.155750   49.211598
  H    -18.699520   26.895612   48.350790
  C    -24.527778   27.184783   47.545503
  H    -24.943917   27.737432   48.401902
  C    -23.079875   26.780902   47.823844
  C    -23.267687   25.540868   48.720650
  C    -24.540949   24.877062   48.147293
  O    -25.225614   25.915908   47.345108
  H    -24.637535   27.771245   46.632292
  O    -22.488948   26.431190   46.536098
  H    -22.518813   27.577558   48.323066
  H    -22.388051   24.896126   48.692483
  H    -23.428001   25.866543   49.756454
  H    -25.220104   24.521548   48.930224
  H    -24.309416   24.052713   47.467850

 Multiplicity           Mult            ....    1
 Number of Electrons    NEL             ....   86
 Basis Dimension        Dim             ....  127

ORBITAL ENERGIES
----------------

  NO   OCC          E(Eh)            E(eV)
   0   2.0000     -19.151668      -521.1434
   1   2.0000     -19.138591      -520.7875
   2   2.0000     -19.121941      -520.3345
   3   2.0000     -10.280774      -279.7541
   4   2.0000     -10.239478      -278.6304
   5   2.0000     -10.236293      -278.5437
   6   2.0000     -10.218503      -278.0596
   7   2.0000     -10.213582      -277.9257
   8   2.0000     -10.196990      -277.4742
   9   2.0000     -10.189691      -277.2756
  10   2.0000     -10.176338      -276.9122
  11   2.0000      -1.055879       -28.7319
  12   2.0000      -1.011622       -27.5276
  13   2.0000      -0.988769       -26.9058
  14   2.0000      -0.793817       -21.6009
  15   2.0000      -0.780481       -21.2380
  16   2.0000      -0.740154       -20.1406
  17   2.0000      -0.721394       -19.6301
  18   2.0000      -0.617998       -16.8166
  19   2.0000      -0.607218       -16.5232
  20   2.0000      -0.592825       -16.1316
  21   2.0000      -0.563778       -15.3412
  22   2.0000      -0.526263       -14.3204
  23   2.0000      -0.502740       -13.6803
  24   2.0000      -0.485302       -13.2057
  25   2.0000      -0.479887       -13.0584
  26   2.0000      -0.451364       -12.2822
  27   2.0000      -0.447686       -12.1822
  28   2.0000      -0.423665       -11.5285
  29   2.0000      -0.411818       -11.2061
  30   2.0000      -0.410874       -11.1804
  31   2.0000      -0.385845       -10.4994
  32   2.0000      -0.374985       -10.2039
  33   2.0000      -0.365473        -9.9450
  34   2.0000      -0.363686        -9.8964
  35   2.0000      -0.360060        -9.7977
  36   2.0000      -0.343647        -9.3511
  37   2.0000      -0.325840        -8.8666
  38   2.0000      -0.311264        -8.4699
  39   2.0000      -0.292223        -7.9518
  40   2.0000      -0.265187        -7.2161
  41   2.0000      -0.252147        -6.8613
  42   2.0000      -0.227176        -6.1818
  43   0.0000       0.065306         1.7771
  44   0.0000       0.092052         2.5049
  45   0.0000       0.096857         2.6356
  46   0.0000       0.109818         2.9883
  47   0.0000       0.121427         3.3042

MULLIKEN ATOMIC CHARGES
-----------------------
   0 C :    0.299908
   1 C :   -0.259810
   2 C :   -0.318044
   3 C :   -0.016250
   4 O :   -0.512121
   5 H :    0.164903
   6 H :    0.149271
   7 H :    0.158269
   8 H :    0.149296
   9 H :    0.152213
  10 H :    0.144368
  11 H :    0.152552
  12 C :    0.009518
  13 H :    0.119362
  14 C :    0.071357
  15 C :   -0.297183
  16 C :    0.000910
  17 O :   -0.520653
  18 H :    0.161915
  19 O :   -0.527400
  20 H :    0.119596
  21 H :    0.182126
  22 H :    0.130226
  23 H :    0.132375
  24 H :    0.153294
Sum of atomic charges:   -0.0000000

LOEWDIN ATOMIC CHARGES
----------------------
   0 C :    0.180229
   1 C :   -0.224473
   2 C :   -0.223423
   3 C :   -0.035026
   4 O :   -0.321503
   5 H :    0.111325
   6 H :    0.117158
   7 H :    0.124120
   8 H :    0.117931
   9 H :    0.109891
  10 H :    0.101411
  11 H :    0.107625
  12 C :   -0.033444
  13 H :    0.088731
  14 C :    0.039967
  15 C :   -0.237701
  16 C :   -0.028591
  17 O :   -0.329610
  18 H :    0.120028
  19 O :   -0.324372
  20 H :    0.092371
  21 H :    0.134763
  22 H :    0.107666
  23 H :    0.096939
  24 H :    0.107987

  Mayer bond orders larger than 0.100000
B(  0-C ,  1-C ) :   0.9196 B(  0-C ,  4-O ) :   0.8943 B(  0-C ,  5-H ) :   0.9346
B(  0-C , 19-O ) :   0.8777 B(  1-C ,  2-C ) :   0.9528 B(  1-C ,  6-H ) :   0.9346
B(  1-C ,  7-H ) :   0.9369 B(  2-C ,  3-C ) :   0.9498 B(  2-C ,  8-H ) :   0.9440
B(  2-C ,  9-H ) :   0.9407 B(  3-C ,  4-O ) :   0.8364 B(  3-C , 10-H ) :   0.9319
B(  3-C , 11-H ) :   0.9388 B( 12-C , 13-H ) :   0.9157 B( 12-C , 14-C ) :   0.9388
B( 12-C , 17-O ) :   0.8750 B( 12-C , 18-H ) :   0.9308 B( 14-C , 15-C ) :   0.9322
B( 14-C , 19-O ) :   0.8214 B( 14-C , 20-H ) :   0.9112 B( 15-C , 16-C ) :   0.9468
B( 15-C , 21-H ) :   0.9273 B( 15-C , 22-H ) :   0.9372 B( 16-C , 17-O ) :   0.8548
B( 16-C , 23-H ) :   0.9331 B( 16-C , 24-H ) :   0.9362

FINAL SINGLE POINT ENERGY      -538.428703677358

DIPOLE MOMENT
-------------
                                X             Y             Z
Electronic contribution:     -2.28164      -2.77513      -2.40560
Nuclear contribution   :      3.44086       3.74731       3.06527
                        -----------------------------------------
Total Dipole Moment    :      1.15922       0.97218       0.65967
                        -----------------------------------------
Magnitude (a.u.)       :      1.65048
Magnitude (Debye)      :      4.19517

Rotational constants in cm-1:     0.080052     0.022574     0.021210
Rotational constants in MHz :  2399.906920   676.739109   635.854431

                             ****ORCA TERMINATED NORMALLY****
TOTAL RUN TIME: 0 days 0 hours 7 minutes 30 seconds 236 msec
