                         Program Version 4.2.0 -  RELEASE  -
|  1> # Test redundant internal optimization
|  2> #
|  3> ! RKS B3LYP  Opt TightSCF SmallPrint
|  4>
|  5> %basis
|  6>         Basis "6-31G"
|  7> end
|  8>
|  9> %geom
| 10> Constraints
| 11> { D 4  0  15  12  75.0   C } # D for Dihedral angle
| 12> { D 0  15  12  16  60.0   C } # D for Dihedral angle
| 13> { D 0  4  3  2   C } # D for Dihedral angle
| 14> { D 4  3  2  1   C } # D for Dihedral angle
| 15> { D 3  2  1  0   C } # D for Dihedral angle
| 16> { D 2  1  0  4   C } # D for Dihedral angle
| 17> { D 1  0  4  3   C } # D for Dihedral angle
| 18> { D 16  20  19  18   C } # D for Dihedral angle
| 19> { D 20  19  18  17   C } # D for Dihedral angle
| 20> { D 19  18  17  16   C } # D for Dihedral angle
| 21> { D 18  17  16  20   C } # D for Dihedral angle
| 22> { D 17  16  20  19   C } # D for Dihedral angle
| 23> { D 15  12  16  20   C } # D for Dihedral angle
| 24> end
| 25> end
| 26>
| 27>
| 28> #%pal
| 29> #nprocs 8
| 30> #end
| 31>
| 32> * xyz 0 1
| 33> C  -21.048   26.222   46.251
| 34> C  -20.361   27.558   45.944
| 35> C  -20.329   28.222   47.341
| 36> C  -20.110   27.022   48.296
| 37> O  -20.473   25.807   47.535
| 38> H  -20.833   25.428   45.533
| 39> H  -19.344   27.382   45.576
| 40> H  -20.898   28.157   45.201
| 41> H  -19.543   28.978   47.434
| 42> H  -21.289   28.710   47.548
| 43> H  -20.733   27.082   49.195
| 44> H  -19.064   26.913   48.597
| 45> C  -23.049   27.675   47.122
| 46> H  -24.146   27.694   47.161
| 47> H  -22.669   27.677   48.152
| 48> O  -22.586   26.394   46.375
| 49> C  -22.562   28.980   46.435
| 50> C  -23.186   29.143   45.044
| 51> C  -24.597   29.672   45.394
| 52> C  -24.342   30.558   46.639
| 53> O  -23.026   30.155   47.179
| 54> H  -21.471   29.005   46.447
| 55> H  -22.626   29.888   44.466
| 56> O  -23.221   27.820   44.232
| 57> H  -25.057   30.229   44.572
| 58> H  -25.261   28.835   45.644
| 59> H  -25.105   30.423   47.413
| 60> H  -24.277   31.620   46.389
| 61> H  -23.777   27.060   44.792
| 62> *
| 63>
| 64>                          ****END OF INPUT****
 Total Charge           Charge          ....    0
 Multiplicity           Mult            ....    1
 Number of Electrons    NEL             ....  102
FINAL SINGLE POINT ENERGY      -652.728767534405
FINAL SINGLE POINT ENERGY      -652.817262510599
FINAL SINGLE POINT ENERGY      -652.841896351321
FINAL SINGLE POINT ENERGY      -652.849629961553
FINAL SINGLE POINT ENERGY      -652.851125076280
FINAL SINGLE POINT ENERGY      -652.851573028634
FINAL SINGLE POINT ENERGY      -652.851694589958
FINAL SINGLE POINT ENERGY      -652.851708277199
FINAL SINGLE POINT ENERGY      -652.851708651141
                    ***********************HURRAY********************

CARTESIAN COORDINATES (ANGSTROEM)
---------------------------------
  C    -21.193689   26.275163   46.487194
  C    -20.152607   27.259651   45.934474
  C    -19.694241   28.012679   47.221194
  C    -19.754783   26.893713   48.293028
  O    -20.610788   25.827119   47.724867
  H    -21.287389   25.381189   45.868763
  H    -19.325125   26.672623   45.523971
  H    -20.552773   27.904258   45.148580
  H    -18.684284   28.421380   47.119495
  H    -20.355469   28.838126   47.479969
  H    -20.184389   27.227368   49.242076
  H    -18.776287   26.443873   48.483529
  C    -23.236083   27.840383   47.161386
  H    -24.300792   27.639692   47.018603
  H    -23.045314   27.874636   48.241849
  O    -22.599377   26.648148   46.584166
  C    -22.859460   29.207389   46.566473
  C    -23.283391   29.388978   45.097682
  C    -24.805539   29.681632   45.243279
  C    -24.884098   30.490944   46.555203
  O    -23.605511   30.237776   47.287194
  H    -21.810384   29.441462   46.715832
  H    -22.775807   30.256873   44.668870
  O    -22.955426   28.277002   44.234195
  H    -25.196949   30.232029   44.383398
  H    -25.352617   28.734901   45.309070
  H    -25.719961   30.197677   47.197732
  H    -24.933027   31.569618   46.381130
  H    -23.047438   27.432719   44.733796

 Multiplicity           Mult            ....    1
 Number of Electrons    NEL             ....  102
 Basis Dimension        Dim             ....  149

ORBITAL ENERGIES
----------------

  NO   OCC          E(Eh)            E(eV)
   0   2.0000     -19.155906      -521.2587
   1   2.0000     -19.147970      -521.0428
   2   2.0000     -19.145938      -520.9875
   3   2.0000     -19.136038      -520.7181
   4   2.0000     -10.286788      -279.9177
   5   2.0000     -10.241898      -278.6962
   6   2.0000     -10.240599      -278.6609
   7   2.0000     -10.238860      -278.6135
   8   2.0000     -10.234428      -278.4929
   9   2.0000     -10.231405      -278.4107
  10   2.0000     -10.194946      -277.4186
  11   2.0000     -10.192461      -277.3510
  12   2.0000     -10.189727      -277.2766
  13   2.0000      -1.055005       -28.7081
  14   2.0000      -1.033329       -28.1183
  15   2.0000      -1.012086       -27.5403
  16   2.0000      -0.999632       -27.2014
  17   2.0000      -0.791098       -21.5269
  18   2.0000      -0.782423       -21.2908
  19   2.0000      -0.775251       -21.0957
  20   2.0000      -0.739859       -20.1326
  21   2.0000      -0.687504       -18.7079
  22   2.0000      -0.610968       -16.6253
  23   2.0000      -0.607679       -16.5358
  24   2.0000      -0.605788       -16.4843
  25   2.0000      -0.575487       -15.6598
  26   2.0000      -0.536246       -14.5920
  27   2.0000      -0.508530       -13.8378
  28   2.0000      -0.504825       -13.7370
  29   2.0000      -0.490307       -13.3419
  30   2.0000      -0.474976       -12.9248
  31   2.0000      -0.459601       -12.5064
  32   2.0000      -0.453289       -12.3346
  33   2.0000      -0.436893       -11.8885
  34   2.0000      -0.425012       -11.5652
  35   2.0000      -0.419964       -11.4278
  36   2.0000      -0.418343       -11.3837
  37   2.0000      -0.402832       -10.9616
  38   2.0000      -0.388735       -10.5780
  39   2.0000      -0.374489       -10.1904
  40   2.0000      -0.363134        -9.8814
  41   2.0000      -0.355935        -9.6855
  42   2.0000      -0.351725        -9.5709
  43   2.0000      -0.343939        -9.3590
  44   2.0000      -0.318868        -8.6768
  45   2.0000      -0.315335        -8.5807
  46   2.0000      -0.300804        -8.1853
  47   2.0000      -0.281444        -7.6585
  48   2.0000      -0.263496        -7.1701
  49   2.0000      -0.260712        -7.0943
  50   2.0000      -0.245269        -6.6741
  51   0.0000       0.053024         1.4429
  52   0.0000       0.069007         1.8778
  53   0.0000       0.082393         2.2420
  54   0.0000       0.091276         2.4837
  55   0.0000       0.105909         2.8819

MULLIKEN ATOMIC CHARGES
-----------------------
   0 C :    0.313982
   1 C :   -0.300754
   2 C :   -0.320879
   3 C :   -0.011496
   4 O :   -0.503844
   5 H :    0.171748
   6 H :    0.159488
   7 H :    0.171024
   8 H :    0.148420
   9 H :    0.158124
  10 H :    0.147957
  11 H :    0.149549
  12 C :   -0.041144
  13 H :    0.166073
  14 H :    0.164182
  15 O :   -0.551246
  16 C :    0.047516
  17 C :    0.105977
  18 C :   -0.306781
  19 C :   -0.026238
  20 O :   -0.518988
  21 H :    0.159988
  22 H :    0.155123
  23 O :   -0.623831
  24 H :    0.154316
  25 H :    0.147931
  26 H :    0.147372
  27 H :    0.155308
  28 H :    0.381125
Sum of atomic charges:   -0.0000000

LOEWDIN ATOMIC CHARGES
----------------------
   0 C :    0.179556
   1 C :   -0.236755
   2 C :   -0.225502
   3 C :   -0.031827
   4 O :   -0.314228
   5 H :    0.115300
   6 H :    0.125841
   7 H :    0.127746
   8 H :    0.118027
   9 H :    0.110777
  10 H :    0.104161
  11 H :    0.105224
  12 C :   -0.050488
  13 H :    0.117583
  14 H :    0.113733
  15 O :   -0.337548
  16 C :    0.000581
  17 C :    0.037782
  18 C :   -0.239046
  19 C :   -0.033500
  20 O :   -0.321875
  21 H :    0.112274
  22 H :    0.111684
  23 O :   -0.421465
  24 H :    0.122988
  25 H :    0.112517
  26 H :    0.104613
  27 H :    0.108772
  28 H :    0.283075

  Mayer bond orders larger than 0.100000
B(  0-C ,  1-C ) :   0.9184 B(  0-C ,  4-O ) :   0.9177 B(  0-C ,  5-H ) :   0.9347
B(  0-C , 15-O ) :   0.8484 B(  1-C ,  2-C ) :   0.9534 B(  1-C ,  6-H ) :   0.9314
B(  1-C ,  7-H ) :   0.9143 B(  2-C ,  3-C ) :   0.9442 B(  2-C ,  8-H ) :   0.9451
B(  2-C ,  9-H ) :   0.9225 B(  3-C ,  4-O ) :   0.8401 B(  3-C , 10-H ) :   0.9348
B(  3-C , 11-H ) :   0.9388 B( 12-C , 13-H ) :   0.9365 B( 12-C , 14-H ) :   0.9239
B( 12-C , 15-O ) :   0.8077 B( 12-C , 16-C ) :   0.8769 B( 16-C , 17-C ) :   0.9007
B( 16-C , 20-O ) :   0.8439 B( 16-C , 21-H ) :   0.9073 B( 17-C , 18-C ) :   0.9077
B( 17-C , 22-H ) :   0.9345 B( 17-C , 23-O ) :   0.9142 B( 18-C , 19-C ) :   0.9413
B( 18-C , 24-H ) :   0.9435 B( 18-C , 25-H ) :   0.9413 B( 19-C , 20-O ) :   0.8335
B( 19-C , 26-H ) :   0.9327 B( 19-C , 27-H ) :   0.9373 B( 23-O , 28-H ) :   0.7393

FINAL SINGLE POINT ENERGY      -652.851707404724

DIPOLE MOMENT
-------------
                                X             Y             Z
Electronic contribution:     -1.00463      -3.01204       0.27530
Nuclear contribution   :      1.16410       3.72020      -0.25735
                        -----------------------------------------
Total Dipole Moment    :      0.15947       0.70816       0.01795
                        -----------------------------------------
Magnitude (a.u.)       :      0.72612
Magnitude (Debye)      :      1.84564

Rotational constants in cm-1:     0.051620     0.015942     0.014863
Rotational constants in MHz :  1547.525936   477.934196   445.584283

                             ****ORCA TERMINATED NORMALLY****
TOTAL RUN TIME: 0 days 1 hours 24 minutes 13 seconds 411 msec
