                         Program Version 4.2.0 -  RELEASE  -
|  1> # Test redundant internal optimization
|  2> #
|  3> ! RKS B3LYP  Opt TightSCF SmallPrint
|  4>
|  5> %basis
|  6>         Basis "6-31G"
|  7> end
|  8>
|  9> %geom
| 10> Constraints
| 11> { D 4  0  15  12  330.0   C } # D for Dihedral angle
| 12> { D 0  15  12  16  150.0   C } # D for Dihedral angle
| 13> { D 0  4  3  2   C } # D for Dihedral angle
| 14> { D 4  3  2  1   C } # D for Dihedral angle
| 15> { D 3  2  1  0   C } # D for Dihedral angle
| 16> { D 2  1  0  4   C } # D for Dihedral angle
| 17> { D 1  0  4  3   C } # D for Dihedral angle
| 18> { D 16  20  19  18   C } # D for Dihedral angle
| 19> { D 20  19  18  17   C } # D for Dihedral angle
| 20> { D 19  18  17  16   C } # D for Dihedral angle
| 21> { D 18  17  16  20   C } # D for Dihedral angle
| 22> { D 17  16  20  19   C } # D for Dihedral angle
| 23> { D 15  12  16  20   C } # D for Dihedral angle
| 24> end
| 25> end
| 26>
| 27>
| 28> #%pal
| 29> #nprocs 8
| 30> #end
| 31>
| 32> * xyz 0 1
| 33> C  -21.048   26.222   46.251
| 34> C  -20.361   27.558   45.944
| 35> C  -20.329   28.222   47.341
| 36> C  -20.110   27.022   48.296
| 37> O  -20.473   25.807   47.535
| 38> H  -20.833   25.428   45.533
| 39> H  -19.344   27.382   45.576
| 40> H  -20.898   28.157   45.201
| 41> H  -19.543   28.978   47.434
| 42> H  -21.289   28.710   47.548
| 43> H  -20.733   27.082   49.195
| 44> H  -19.064   26.913   48.597
| 45> C  -23.271   25.476   47.424
| 46> H  -23.562   24.533   46.944
| 47> H  -22.577   25.244   48.243
| 48> O  -22.586   26.394   46.375
| 49> C  -24.540   26.119   48.048
| 50> C  -24.226   27.489   48.661
| 51> C  -24.197   28.394   47.406
| 52> C  -25.290   27.775   46.499
| 53> O  -25.533   26.407   47.007
| 54> H  -24.998   25.409   48.739
| 55> H  -25.034   27.792   49.336
| 56> O  -22.890   27.512   49.452
| 57> H  -24.392   29.446   47.636
| 58> H  -23.215   28.334   46.922
| 59> H  -24.983   27.719   45.450
| 60> H  -26.239   28.315   46.562
| 61> H  -22.068   27.212   48.794
| 62> *
| 63>
| 64>                          ****END OF INPUT****
 Total Charge           Charge          ....    0
 Multiplicity           Mult            ....    1
 Number of Electrons    NEL             ....  102
FINAL SINGLE POINT ENERGY      -652.822858432221
FINAL SINGLE POINT ENERGY      -652.848413076348
FINAL SINGLE POINT ENERGY      -652.857254298055
FINAL SINGLE POINT ENERGY      -652.859684265482
FINAL SINGLE POINT ENERGY      -652.860064523965
FINAL SINGLE POINT ENERGY      -652.860149707098
FINAL SINGLE POINT ENERGY      -652.860158616570
FINAL SINGLE POINT ENERGY      -652.860158608039
FINAL SINGLE POINT ENERGY      -652.860155712246
FINAL SINGLE POINT ENERGY      -652.860141272993
FINAL SINGLE POINT ENERGY      -652.860137164205
                    ***********************HURRAY********************

CARTESIAN COORDINATES (ANGSTROEM)
---------------------------------
  C    -21.044464   26.147491   46.330103
  C    -20.388117   27.471467   45.931918
  C    -20.245285   28.181618   47.301051
  C    -19.948359   27.011211   48.270701
  O    -20.378368   25.778414   47.556831
  H    -20.833001   25.322284   45.641241
  H    -19.405971   27.262527   45.495511
  H    -20.988482   28.032050   45.212311
  H    -19.441745   28.924586   47.305179
  H    -21.172069   28.703488   47.561450
  H    -20.470578   27.069599   49.230572
  H    -18.879227   26.896596   48.468636
  C    -23.197435   25.462592   47.390636
  H    -23.485547   24.521544   46.905103
  H    -22.527317   25.232350   48.225452
  O    -22.490979   26.292738   46.407914
  C    -24.466085   26.127857   47.922022
  C    -24.313667   27.467433   48.662632
  C    -24.324659   28.490777   47.484588
  C    -25.313795   27.843474   46.490161
  O    -25.434745   26.418215   46.873681
  H    -24.937565   25.380232   48.572907
  H    -25.175428   27.619870   49.316052
  O    -23.164399   27.558138   49.536136
  H    -24.635525   29.488897   47.805426
  H    -23.325798   28.542388   47.047405
  H    -24.964427   27.899162   45.455464
  H    -26.316548   28.278225   46.556083
  H    -22.356415   27.625773   48.991834

 Multiplicity           Mult            ....    1
 Number of Electrons    NEL             ....  102
 Basis Dimension        Dim             ....  149

ORBITAL ENERGIES
----------------

  NO   OCC          E(Eh)            E(eV)
   0   2.0000     -19.160012      -521.3704
   1   2.0000     -19.148920      -521.0686
   2   2.0000     -19.143496      -520.9210
   3   2.0000     -19.130372      -520.5639
   4   2.0000     -10.287102      -279.9263
   5   2.0000     -10.243603      -278.7426
   6   2.0000     -10.237247      -278.5696
   7   2.0000     -10.228630      -278.3352
   8   2.0000     -10.224053      -278.2106
   9   2.0000     -10.220328      -278.1093
  10   2.0000     -10.204170      -277.6696
  11   2.0000     -10.197721      -277.4941
  12   2.0000     -10.181096      -277.0417
  13   2.0000      -1.063243       -28.9323
  14   2.0000      -1.029050       -28.0019
  15   2.0000      -1.011824       -27.5331
  16   2.0000      -0.998951       -27.1828
  17   2.0000      -0.802000       -21.8235
  18   2.0000      -0.772437       -21.0191
  19   2.0000      -0.767195       -20.8764
  20   2.0000      -0.740783       -20.1577
  21   2.0000      -0.676365       -18.4048
  22   2.0000      -0.616275       -16.7697
  23   2.0000      -0.603371       -16.4186
  24   2.0000      -0.600451       -16.3391
  25   2.0000      -0.566961       -15.4278
  26   2.0000      -0.522921       -14.2294
  27   2.0000      -0.518403       -14.1065
  28   2.0000      -0.508902       -13.8479
  29   2.0000      -0.493177       -13.4200
  30   2.0000      -0.474517       -12.9123
  31   2.0000      -0.463113       -12.6020
  32   2.0000      -0.441413       -12.0115
  33   2.0000      -0.429591       -11.6898
  34   2.0000      -0.421929       -11.4813
  35   2.0000      -0.418120       -11.3776
  36   2.0000      -0.409567       -11.1449
  37   2.0000      -0.400232       -10.8909
  38   2.0000      -0.384309       -10.4576
  39   2.0000      -0.372830       -10.1452
  40   2.0000      -0.370297       -10.0763
  41   2.0000      -0.358201        -9.7471
  42   2.0000      -0.350851        -9.5472
  43   2.0000      -0.346039        -9.4162
  44   2.0000      -0.323966        -8.8156
  45   2.0000      -0.308493        -8.3945
  46   2.0000      -0.306726        -8.3464
  47   2.0000      -0.275798        -7.5048
  48   2.0000      -0.264045        -7.1850
  49   2.0000      -0.259930        -7.0731
  50   2.0000      -0.235587        -6.4107
  51   0.0000       0.047084         1.2812
  52   0.0000       0.082352         2.2409
  53   0.0000       0.090162         2.4534
  54   0.0000       0.092193         2.5087
  55   0.0000       0.100076         2.7232

MULLIKEN ATOMIC CHARGES
-----------------------
   0 C :    0.304635
   1 C :   -0.265268
   2 C :   -0.323804
   3 C :   -0.034142
   4 O :   -0.509080
   5 H :    0.154775
   6 H :    0.154111
   7 H :    0.163121
   8 H :    0.156647
   9 H :    0.151210
  10 H :    0.156543
  11 H :    0.159092
  12 C :   -0.021927
  13 H :    0.149140
  14 H :    0.164909
  15 O :   -0.541232
  16 C :    0.086795
  17 C :    0.074468
  18 C :   -0.317442
  19 C :   -0.000326
  20 O :   -0.519934
  21 H :    0.151681
  22 H :    0.162002
  23 O :   -0.618866
  24 H :    0.140348
  25 H :    0.161916
  26 H :    0.148332
  27 H :    0.139822
  28 H :    0.372475
Sum of atomic charges:   -0.0000000

LOEWDIN ATOMIC CHARGES
----------------------
   0 C :    0.178120
   1 C :   -0.214622
   2 C :   -0.223207
   3 C :   -0.039436
   4 O :   -0.317728
   5 H :    0.098935
   6 H :    0.119593
   7 H :    0.126997
   8 H :    0.121641
   9 H :    0.106227
  10 H :    0.105164
  11 H :    0.112118
  12 C :   -0.050145
  13 H :    0.107961
  14 H :    0.115472
  15 O :   -0.342702
  16 C :    0.016965
  17 C :    0.038189
  18 C :   -0.242752
  19 C :   -0.023967
  20 O :   -0.322326
  21 H :    0.115426
  22 H :    0.116285
  23 O :   -0.410115
  24 H :    0.113964
  25 H :    0.114570
  26 H :    0.106139
  27 H :    0.099818
  28 H :    0.273415

  Mayer bond orders larger than 0.100000
B(  0-C ,  1-C ) :   0.9390 B(  0-C ,  4-O ) :   0.8972 B(  0-C ,  5-H ) :   0.9238
B(  0-C , 15-O ) :   0.8587 B(  1-C ,  2-C ) :   0.9509 B(  1-C ,  6-H ) :   0.9369
B(  1-C ,  7-H ) :   0.9347 B(  2-C ,  3-C ) :   0.9481 B(  2-C ,  8-H ) :   0.9429
B(  2-C ,  9-H ) :   0.9287 B(  3-C ,  4-O ) :   0.8318 B(  3-C , 10-H ) :   0.9186
B(  3-C , 11-H ) :   0.9369 B( 12-C , 13-H ) :   0.9248 B( 12-C , 14-H ) :   0.8943
B( 12-C , 15-O ) :   0.8213 B( 12-C , 16-C ) :   0.9206 B( 16-C , 17-C ) :   0.8829
B( 16-C , 20-O ) :   0.8703 B( 16-C , 21-H ) :   0.9258 B( 17-C , 18-C ) :   0.9346
B( 17-C , 22-H ) :   0.9352 B( 17-C , 23-O ) :   0.9066 B( 18-C , 19-C ) :   0.9435
B( 18-C , 24-H ) :   0.9417 B( 18-C , 25-H ) :   0.9199 B( 19-C , 20-O ) :   0.8412
B( 19-C , 26-H ) :   0.9322 B( 19-C , 27-H ) :   0.9376 B( 23-O , 28-H ) :   0.7577

FINAL SINGLE POINT ENERGY      -652.860136398653

DIPOLE MOMENT
-------------
                                X             Y             Z
Electronic contribution:     -2.51322      -4.51198       0.39540
Nuclear contribution   :      3.50257       5.42992      -0.71835
                        -----------------------------------------
Total Dipole Moment    :      0.98935       0.91794      -0.32295
                        -----------------------------------------
Magnitude (a.u.)       :      1.38770
Magnitude (Debye)      :      3.52726

Rotational constants in cm-1:     0.044471     0.018549     0.017541
Rotational constants in MHz :  1333.208761   556.085134   525.870806

                             ****ORCA TERMINATED NORMALLY****
TOTAL RUN TIME: 0 days 0 hours 39 minutes 43 seconds 133 msec
