                         Program Version 4.2.0 -  RELEASE  -
|  1> # Test redundant internal optimization
|  2> #
|  3> ! RKS B3LYP  Opt TightSCF SmallPrint
|  4>
|  5> %basis
|  6>         Basis "6-31G"
|  7> end
|  8>
|  9> %geom
| 10> Constraints
| 11> { D 4  0  15  12  225.0   C } # D for Dihedral angle
| 12> { D 0  15  12  16  165.0   C } # D for Dihedral angle
| 13> { D 0  4  3  2   C } # D for Dihedral angle
| 14> { D 4  3  2  1   C } # D for Dihedral angle
| 15> { D 3  2  1  0   C } # D for Dihedral angle
| 16> { D 2  1  0  4   C } # D for Dihedral angle
| 17> { D 1  0  4  3   C } # D for Dihedral angle
| 18> { D 16  20  19  18   C } # D for Dihedral angle
| 19> { D 20  19  18  17   C } # D for Dihedral angle
| 20> { D 19  18  17  16   C } # D for Dihedral angle
| 21> { D 18  17  16  20   C } # D for Dihedral angle
| 22> { D 17  16  20  19   C } # D for Dihedral angle
| 23> { D 15  12  16  20   C } # D for Dihedral angle
| 24> end
| 25> end
| 26>
| 27>
| 28> #%pal
| 29> #nprocs 8
| 30> #end
| 31>
| 32> * xyz 0 1
| 33> C  -21.048   26.222   46.251
| 34> C  -20.361   27.558   45.944
| 35> C  -20.329   28.222   47.341
| 36> C  -20.110   27.022   48.296
| 37> O  -20.473   25.807   47.535
| 38> H  -20.833   25.428   45.533
| 39> H  -19.344   27.382   45.576
| 40> H  -20.898   28.157   45.201
| 41> H  -19.543   28.978   47.434
| 42> H  -21.289   28.710   47.548
| 43> H  -20.733   27.082   49.195
| 44> H  -19.064   26.913   48.597
| 45> C  -23.415   25.773   45.218
| 46> H  -23.319   26.403   44.325
| 47> H  -23.041   24.771   44.972
| 48> O  -22.586   26.394   46.375
| 49> C  -24.925   25.642   45.564
| 50> C  -25.133   24.846   46.857
| 51> C  -24.820   25.912   47.935
| 52> C  -25.359   27.220   47.303
| 53> O  -25.500   26.960   45.853
| 54> H  -25.457   25.244   44.698
| 55> H  -26.174   24.516   46.931
| 56> O  -24.214   23.598   46.961
| 57> H  -25.288   25.691   48.899
| 58> H  -23.738   25.979   48.096
| 59> H  -24.683   28.068   47.452
| 60> H  -26.351   27.488   47.679
| 61> H  -23.165   23.906   46.889
| 62> *
| 63>
| 64>                          ****END OF INPUT****
 Total Charge           Charge          ....    0
 Multiplicity           Mult            ....    1
 Number of Electrons    NEL             ....  102
FINAL SINGLE POINT ENERGY      -652.834110906405
FINAL SINGLE POINT ENERGY      -652.857512066276
FINAL SINGLE POINT ENERGY      -652.862187648209
FINAL SINGLE POINT ENERGY      -652.863939554204
FINAL SINGLE POINT ENERGY      -652.864124783843
FINAL SINGLE POINT ENERGY      -652.864156218117
FINAL SINGLE POINT ENERGY      -652.864156882991
                    ***********************HURRAY********************

CARTESIAN COORDINATES (ANGSTROEM)
---------------------------------
  C    -21.065083   26.206650   46.171412
  C    -20.377502   27.543219   45.897196
  C    -20.408465   28.208874   47.292626
  C    -20.222521   27.014567   48.253366
  O    -20.551888   25.802045   47.455321
  H    -20.834944   25.404520   45.462743
  H    -19.346657   27.362834   45.570337
  H    -20.893259   28.127639   45.131118
  H    -19.629364   28.967000   47.415321
  H    -21.381454   28.683879   47.450195
  H    -20.884317   27.051530   49.122124
  H    -19.188764   26.894464   48.589843
  C    -23.300437   25.804703   45.195496
  H    -23.212228   26.427737   44.295622
  H    -22.947833   24.789776   44.960432
  O    -22.503169   26.377926   46.273265
  C    -24.767591   25.727093   45.600670
  C    -25.053143   24.868342   46.844782
  C    -24.817823   25.889628   48.002342
  C    -25.326669   27.212841   47.390537
  O    -25.368753   27.014539   45.918035
  H    -25.310874   25.345979   44.727318
  H    -26.087947   24.519630   46.825865
  O    -24.246680   23.668778   46.937795
  H    -25.359478   25.610100   48.910658
  H    -23.748778   25.942424   48.216295
  H    -24.668149   28.058264   47.608374
  H    -26.345825   27.457178   47.704506
  H    -23.343405   23.909839   47.234404

 Multiplicity           Mult            ....    1
 Number of Electrons    NEL             ....  102
 Basis Dimension        Dim             ....  149

ORBITAL ENERGIES
----------------

  NO   OCC          E(Eh)            E(eV)
   0   2.0000     -19.150543      -521.1128
   1   2.0000     -19.148204      -521.0491
   2   2.0000     -19.134552      -520.6776
   3   2.0000     -19.131593      -520.5971
   4   2.0000     -10.287086      -279.9258
   5   2.0000     -10.233229      -278.4603
   6   2.0000     -10.233076      -278.4562
   7   2.0000     -10.231538      -278.4143
   8   2.0000     -10.229020      -278.3458
   9   2.0000     -10.219176      -278.0779
  10   2.0000     -10.191095      -277.3138
  11   2.0000     -10.190931      -277.3093
  12   2.0000     -10.175406      -276.8869
  13   2.0000      -1.060887       -28.8682
  14   2.0000      -1.024221       -27.8705
  15   2.0000      -1.006083       -27.3769
  16   2.0000      -0.999403       -27.1951
  17   2.0000      -0.792484       -21.5646
  18   2.0000      -0.771876       -21.0038
  19   2.0000      -0.763192       -20.7675
  20   2.0000      -0.734446       -19.9853
  21   2.0000      -0.676983       -18.4216
  22   2.0000      -0.605059       -16.4645
  23   2.0000      -0.600649       -16.3445
  24   2.0000      -0.595939       -16.2163
  25   2.0000      -0.572435       -15.5767
  26   2.0000      -0.528697       -14.3866
  27   2.0000      -0.505119       -13.7450
  28   2.0000      -0.500166       -13.6102
  29   2.0000      -0.488087       -13.2815
  30   2.0000      -0.474289       -12.9061
  31   2.0000      -0.456356       -12.4181
  32   2.0000      -0.447151       -12.1676
  33   2.0000      -0.431231       -11.7344
  34   2.0000      -0.421943       -11.4817
  35   2.0000      -0.410907       -11.1814
  36   2.0000      -0.403873       -10.9899
  37   2.0000      -0.399216       -10.8632
  38   2.0000      -0.374881       -10.2010
  39   2.0000      -0.370691       -10.0870
  40   2.0000      -0.362000        -9.8505
  41   2.0000      -0.355598        -9.6763
  42   2.0000      -0.349992        -9.5238
  43   2.0000      -0.322957        -8.7881
  44   2.0000      -0.321266        -8.7421
  45   2.0000      -0.311855        -8.4860
  46   2.0000      -0.305012        -8.2998
  47   2.0000      -0.272815        -7.4237
  48   2.0000      -0.259638        -7.0651
  49   2.0000      -0.255559        -6.9541
  50   2.0000      -0.237033        -6.4500
  51   0.0000       0.065342         1.7781
  52   0.0000       0.082102         2.2341
  53   0.0000       0.088381         2.4050
  54   0.0000       0.096695         2.6312
  55   0.0000       0.106351         2.8940

MULLIKEN ATOMIC CHARGES
-----------------------
   0 C :    0.285177
   1 C :   -0.254217
   2 C :   -0.303096
   3 C :   -0.004367
   4 O :   -0.510331
   5 H :    0.144772
   6 H :    0.145291
   7 H :    0.152962
   8 H :    0.145141
   9 H :    0.164582
  10 H :    0.150126
  11 H :    0.145384
  12 C :   -0.018909
  13 H :    0.144725
  14 H :    0.138431
  15 O :   -0.527193
  16 C :    0.092153
  17 C :    0.088764
  18 C :   -0.313955
  19 C :    0.001387
  20 O :   -0.523748
  21 H :    0.148108
  22 H :    0.159063
  23 O :   -0.611480
  24 H :    0.139767
  25 H :    0.172345
  26 H :    0.142068
  27 H :    0.138420
  28 H :    0.368629
Sum of atomic charges:   -0.0000000

LOEWDIN ATOMIC CHARGES
----------------------
   0 C :    0.174420
   1 C :   -0.222352
   2 C :   -0.216670
   3 C :   -0.026812
   4 O :   -0.317986
   5 H :    0.099855
   6 H :    0.114175
   7 H :    0.121258
   8 H :    0.116052
   9 H :    0.119767
  10 H :    0.106642
  11 H :    0.104249
  12 C :   -0.046594
  13 H :    0.101944
  14 H :    0.101278
  15 O :   -0.337171
  16 C :    0.019626
  17 C :    0.038774
  18 C :   -0.243153
  19 C :   -0.023521
  20 O :   -0.324220
  21 H :    0.113998
  22 H :    0.114586
  23 O :   -0.414011
  24 H :    0.113233
  25 H :    0.124999
  26 H :    0.102720
  27 H :    0.099887
  28 H :    0.285029

  Mayer bond orders larger than 0.100000
B(  0-C ,  1-C ) :   0.9393 B(  0-C ,  4-O ) :   0.9255 B(  0-C ,  5-H ) :   0.9174
B(  0-C , 15-O ) :   0.8338 B(  1-C ,  2-C ) :   0.9546 B(  1-C ,  6-H ) :   0.9349
B(  1-C ,  7-H ) :   0.9371 B(  2-C ,  3-C ) :   0.9552 B(  2-C ,  8-H ) :   0.9447
B(  2-C ,  9-H ) :   0.9428 B(  3-C ,  4-O ) :   0.8335 B(  3-C , 10-H ) :   0.9347
B(  3-C , 11-H ) :   0.9396 B( 12-C , 13-H ) :   0.9212 B( 12-C , 14-H ) :   0.8999
B( 12-C , 15-O ) :   0.8285 B( 12-C , 16-C ) :   0.9195 B( 16-C , 17-C ) :   0.8852
B( 16-C , 20-O ) :   0.8814 B( 16-C , 21-H ) :   0.9280 B( 17-C , 18-C ) :   0.9357
B( 17-C , 22-H ) :   0.9368 B( 17-C , 23-O ) :   0.9005 B( 18-C , 19-C ) :   0.9469
B( 18-C , 24-H ) :   0.9417 B( 18-C , 25-H ) :   0.9232 B( 19-C , 20-O ) :   0.8365
B( 19-C , 26-H ) :   0.9331 B( 19-C , 27-H ) :   0.9386 B( 23-O , 28-H ) :   0.7887

FINAL SINGLE POINT ENERGY      -652.864143253182

DIPOLE MOMENT
-------------
                                X             Y             Z
Electronic contribution:     -2.48860      -3.65431      -1.60886
Nuclear contribution   :      3.38207       4.46875       1.67441
                        -----------------------------------------
Total Dipole Moment    :      0.89347       0.81444       0.06555
                        -----------------------------------------
Magnitude (a.u.)       :      1.21074
Magnitude (Debye)      :      3.07747

Rotational constants in cm-1:     0.044450     0.016349     0.015659
Rotational constants in MHz :  1332.577860   490.145138   469.442884

                             ****ORCA TERMINATED NORMALLY****
TOTAL RUN TIME: 0 days 0 hours 29 minutes 18 seconds 336 msec
