                         Program Version 4.2.0 -  RELEASE  -
|  1> # Test redundant internal optimization
|  2> #
|  3> ! RKS B3LYP  Opt TightSCF SmallPrint
|  4>
|  5> %basis
|  6>         Basis "6-31G"
|  7> end
|  8>
|  9> %geom
| 10> Constraints
| 11> { D 4  0  15  12  45.0   C } # D for Dihedral angle
| 12> { D 0  15  12  16  120.0   C } # D for Dihedral angle
| 13> { D 0  4  3  2   C } # D for Dihedral angle
| 14> { D 4  3  2  1   C } # D for Dihedral angle
| 15> { D 3  2  1  0   C } # D for Dihedral angle
| 16> { D 2  1  0  4   C } # D for Dihedral angle
| 17> { D 1  0  4  3   C } # D for Dihedral angle
| 18> { D 16  20  19  18   C } # D for Dihedral angle
| 19> { D 20  19  18  17   C } # D for Dihedral angle
| 20> { D 19  18  17  16   C } # D for Dihedral angle
| 21> { D 18  17  16  20   C } # D for Dihedral angle
| 22> { D 17  16  20  19   C } # D for Dihedral angle
| 23> { D 15  12  16  20   C } # D for Dihedral angle
| 24> end
| 25> end
| 26>
| 27>
| 28> #%pal
| 29> #nprocs 8
| 30> #end
| 31>
| 32> * xyz 0 1
| 33> C  -21.048   26.222   46.251
| 34> C  -20.361   27.558   45.944
| 35> C  -20.329   28.222   47.341
| 36> C  -20.110   27.022   48.296
| 37> O  -20.473   25.807   47.535
| 38> H  -20.833   25.428   45.533
| 39> H  -19.344   27.382   45.576
| 40> H  -20.898   28.157   45.201
| 41> H  -19.543   28.978   47.434
| 42> H  -21.289   28.710   47.548
| 43> H  -20.733   27.082   49.195
| 44> H  -19.064   26.913   48.597
| 45> C  -23.065   27.161   47.638
| 46> H  -23.711   26.507   48.236
| 47> H  -22.208   27.455   48.257
| 48> O  -22.586   26.394   46.375
| 49> C  -23.861   28.450   47.291
| 50> C  -24.217   29.241   48.555
| 51> C  -22.883   29.962   48.860
| 52> C  -22.316   30.264   47.450
| 53> O  -23.030   29.372   46.511
| 54> H  -24.717   28.185   46.667
| 55> H  -25.008   29.967   48.335
| 56> O  -24.695   28.338   49.725
| 57> H  -23.018   30.869   49.458
| 58> H  -22.211   29.294   49.411
| 59> H  -21.240   30.071   47.380
| 60> H  -22.513   31.292   47.132
| 61> H  -23.919   27.603   49.965
| 62> *
| 63>
| 64>                          ****END OF INPUT****
 Total Charge           Charge          ....    0
 Multiplicity           Mult            ....    1
 Number of Electrons    NEL             ....  102
FINAL SINGLE POINT ENERGY      -652.778616304245
FINAL SINGLE POINT ENERGY      -652.822841347477
FINAL SINGLE POINT ENERGY      -652.844379137863
FINAL SINGLE POINT ENERGY      -652.849555698671
FINAL SINGLE POINT ENERGY      -652.850297435008
FINAL SINGLE POINT ENERGY      -652.850511613896
FINAL SINGLE POINT ENERGY      -652.850546729719
FINAL SINGLE POINT ENERGY      -652.850552746533
FINAL SINGLE POINT ENERGY      -652.850552419573
                    ***********************HURRAY********************

CARTESIAN COORDINATES (ANGSTROEM)
---------------------------------
  C    -21.126158   26.254446   46.325014
  C    -20.262547   27.434873   45.865976
  C    -19.797587   28.038283   47.218242
  C    -19.631416   26.784036   48.112295
  O    -20.394770   25.701504   47.445442
  H    -21.181537   25.459545   45.579082
  H    -19.412259   27.048616   45.293209
  H    -20.828162   28.143246   45.258147
  H    -18.866984   28.607941   47.133817
  H    -20.569691   28.702110   47.606216
  H    -20.014412   26.918251   49.129499
  H    -18.591524   26.447711   48.170373
  C    -23.049199   27.172485   47.753411
  H    -23.774687   26.486597   48.204877
  H    -22.256550   27.361284   48.488553
  O    -22.521979   26.522223   46.567658
  C    -23.788009   28.452216   47.350127
  C    -24.454950   29.238106   48.493733
  C    -23.294524   30.165266   48.961732
  C    -22.555916   30.484799   47.644656
  O    -22.978252   29.452653   46.657173
  H    -24.532035   28.144710   46.607556
  H    -25.277460   29.831958   48.090157
  O    -25.061501   28.438271   49.535177
  H    -23.656280   31.059702   49.474792
  H    -22.647874   29.614258   49.659629
  H    -21.467742   30.471233   47.748055
  H    -22.854149   31.452501   47.230438
  H    -24.374846   28.017175   50.091963

 Multiplicity           Mult            ....    1
 Number of Electrons    NEL             ....  102
 Basis Dimension        Dim             ....  149

ORBITAL ENERGIES
----------------

  NO   OCC          E(Eh)            E(eV)
   0   2.0000     -19.153639      -521.1970
   1   2.0000     -19.147968      -521.0427
   2   2.0000     -19.142463      -520.8929
   3   2.0000     -19.135803      -520.7117
   4   2.0000     -10.274537      -279.5844
   5   2.0000     -10.249654      -278.9073
   6   2.0000     -10.237862      -278.5864
   7   2.0000     -10.233997      -278.4812
   8   2.0000     -10.232334      -278.4360
   9   2.0000     -10.230030      -278.3733
  10   2.0000     -10.201538      -277.5980
  11   2.0000     -10.188429      -277.2412
  12   2.0000     -10.178923      -276.9826
  13   2.0000      -1.049318       -28.5534
  14   2.0000      -1.037946       -28.2440
  15   2.0000      -1.021379       -27.7931
  16   2.0000      -0.991830       -26.9891
  17   2.0000      -0.788750       -21.4630
  18   2.0000      -0.784710       -21.3530
  19   2.0000      -0.774037       -21.0626
  20   2.0000      -0.733957       -19.9720
  21   2.0000      -0.684626       -18.6296
  22   2.0000      -0.617696       -16.8084
  23   2.0000      -0.601568       -16.3695
  24   2.0000      -0.598004       -16.2725
  25   2.0000      -0.572509       -15.5788
  26   2.0000      -0.528958       -14.3937
  27   2.0000      -0.515494       -14.0273
  28   2.0000      -0.504073       -13.7165
  29   2.0000      -0.489866       -13.3299
  30   2.0000      -0.467621       -12.7246
  31   2.0000      -0.462433       -12.5834
  32   2.0000      -0.449234       -12.2243
  33   2.0000      -0.440603       -11.9894
  34   2.0000      -0.432980       -11.7820
  35   2.0000      -0.415959       -11.3188
  36   2.0000      -0.409784       -11.1508
  37   2.0000      -0.402646       -10.9565
  38   2.0000      -0.385842       -10.4993
  39   2.0000      -0.372630       -10.1398
  40   2.0000      -0.360300        -9.8043
  41   2.0000      -0.354368        -9.6428
  42   2.0000      -0.342375        -9.3165
  43   2.0000      -0.338310        -9.2059
  44   2.0000      -0.320499        -8.7212
  45   2.0000      -0.317005        -8.6261
  46   2.0000      -0.304275        -8.2798
  47   2.0000      -0.275132        -7.4867
  48   2.0000      -0.262959        -7.1555
  49   2.0000      -0.259053        -7.0492
  50   2.0000      -0.237273        -6.4565
  51   0.0000       0.043641         1.1875
  52   0.0000       0.059668         1.6236
  53   0.0000       0.082786         2.2527
  54   0.0000       0.090105         2.4519
  55   0.0000       0.100192         2.7264

MULLIKEN ATOMIC CHARGES
-----------------------
   0 C :    0.301362
   1 C :   -0.261881
   2 C :   -0.328491
   3 C :   -0.014990
   4 O :   -0.509616
   5 H :    0.165036
   6 H :    0.143396
   7 H :    0.175701
   8 H :    0.141160
   9 H :    0.160459
  10 H :    0.134132
  11 H :    0.148133
  12 C :   -0.021486
  13 H :    0.158140
  14 H :    0.119100
  15 O :   -0.523137
  16 C :    0.096973
  17 C :    0.087101
  18 C :   -0.322798
  19 C :   -0.015483
  20 O :   -0.514572
  21 H :    0.170157
  22 H :    0.170517
  23 O :   -0.597838
  24 H :    0.161785
  25 H :    0.129281
  26 H :    0.140585
  27 H :    0.151090
  28 H :    0.356187
Sum of atomic charges:   -0.0000000

LOEWDIN ATOMIC CHARGES
----------------------
   0 C :    0.182425
   1 C :   -0.226878
   2 C :   -0.225841
   3 C :   -0.036563
   4 O :   -0.322116
   5 H :    0.112604
   6 H :    0.114701
   7 H :    0.133139
   8 H :    0.114958
   9 H :    0.112032
  10 H :    0.094899
  11 H :    0.104555
  12 C :   -0.045568
  13 H :    0.114817
  14 H :    0.090660
  15 O :   -0.320419
  16 C :    0.011947
  17 C :    0.036296
  18 C :   -0.240999
  19 C :   -0.034107
  20 O :   -0.318446
  21 H :    0.121203
  22 H :    0.120785
  23 O :   -0.404456
  24 H :    0.124799
  25 H :    0.101839
  26 H :    0.098375
  27 H :    0.106948
  28 H :    0.278412

  Mayer bond orders larger than 0.100000
B(  0-C ,  1-C ) :   0.9171 B(  0-C ,  4-O ) :   0.9022 B(  0-C ,  5-H ) :   0.9357
B(  0-C , 15-O ) :   0.8853 B(  1-C ,  2-C ) :   0.9589 B(  1-C ,  6-H ) :   0.9336
B(  1-C ,  7-H ) :   0.9275 B(  2-C ,  3-C ) :   0.9478 B(  2-C ,  8-H ) :   0.9464
B(  2-C ,  9-H ) :   0.9249 B(  3-C ,  4-O ) :   0.8433 B(  3-C , 10-H ) :   0.9319
B(  3-C , 11-H ) :   0.9385 B( 12-C , 13-H ) :   0.9153 B( 12-C , 14-H ) :   0.9180
B( 12-C , 15-O ) :   0.8453 B( 12-C , 16-C ) :   0.8992 B( 16-C , 17-C ) :   0.8676
B( 16-C , 20-O ) :   0.8590 B( 16-C , 21-H ) :   0.9273 B( 17-C , 18-C ) :   0.9197
B( 17-C , 22-H ) :   0.9328 B( 17-C , 23-O ) :   0.9004 B( 18-C , 19-C ) :   0.9408
B( 18-C , 24-H ) :   0.9413 B( 18-C , 25-H ) :   0.9421 B( 19-C , 20-O ) :   0.8454
B( 19-C , 26-H ) :   0.9193 B( 19-C , 27-H ) :   0.9392 B( 23-O , 28-H ) :   0.7985

FINAL SINGLE POINT ENERGY      -652.850550880810

DIPOLE MOMENT
-------------
                                X             Y             Z
Electronic contribution:     -4.24651      -4.19084      -1.93543
Nuclear contribution   :      5.15763       5.38518       2.75286
                        -----------------------------------------
Total Dipole Moment    :      0.91112       1.19434       0.81743
                        -----------------------------------------
Magnitude (a.u.)       :      1.71020
Magnitude (Debye)      :      4.34698

Rotational constants in cm-1:     0.044746     0.016976     0.015538
Rotational constants in MHz :  1341.461490   508.929339   465.828334

                             ****ORCA TERMINATED NORMALLY****
TOTAL RUN TIME: 0 days 0 hours 32 minutes 59 seconds 544 msec
