                         Program Version 4.2.1 -  RELEASE  -
|  1> # Test redundant internal optimization
|  2> #
|  3> ! RKS B3LYP  Opt TightSCF SmallPrint
|  4>
|  5> %basis
|  6>         Basis "6-31G"
|  7> end
|  8>
|  9> %geom
| 10> Constraints
| 11> { D 4  0  19  14  150.0   C } # D for Dihedral angle
| 12> { D 0  19  14  12  105.0   C } # D for Dihedral angle
| 13> { D 0  4  3  2   C } # D for Dihedral angle
| 14> { D 4  3  2  1   C } # D for Dihedral angle
| 15> { D 3  2  1  0   C } # D for Dihedral angle
| 16> { D 2  1  0  4   C } # D for Dihedral angle
| 17> { D 1  0  4  3   C } # D for Dihedral angle
| 18> { D 14  15  16  17   C } # D for Dihedral angle
| 19> { D 15  16  17  12   C } # D for Dihedral angle
| 20> { D 16  17  12  14   C } # D for Dihedral angle
| 21> { D 17  12  14  15   C } # D for Dihedral angle
| 22> { D 12  14  15  16   C } # D for Dihedral angle
| 23> end
| 24> end
| 25>
| 26>
| 27> #%pal
| 28> #nprocs 8
| 29> #end
| 30>
| 31> * xyz 0 1
| 32> C  -21.048   26.222   46.251
| 33> C  -20.361   27.558   45.944
| 34> C  -20.329   28.222   47.341
| 35> C  -20.110   27.022   48.296
| 36> O  -20.473   25.807   47.535
| 37> H  -20.833   25.428   45.533
| 38> H  -19.344   27.382   45.576
| 39> H  -20.898   28.157   45.201
| 40> H  -19.543   28.978   47.434
| 41> H  -21.289   28.710   47.548
| 42> H  -20.733   27.082   49.195
| 43> H  -19.064   26.913   48.597
| 44> C  -23.762   26.686   44.325
| 45> H  -23.945   27.389   43.497
| 46> C  -23.030   27.370   45.486
| 47> C  -24.184   28.130   46.180
| 48> C  -25.393   27.178   46.000
| 49> O  -25.033   26.244   44.909
| 50> H  -23.263   25.797   43.936
| 51> O  -22.472   26.381   46.366
| 52> H  -22.224   28.033   45.155
| 53> H  -23.978   28.347   47.233
| 54> H  -24.366   29.085   45.672
| 55> H  -26.311   27.710   45.728
| 56> H  -25.585   26.573   46.891
| 57> *
| 58>
| 59>                          ****END OF INPUT****
 Total Charge           Charge          ....    0
 Multiplicity           Mult            ....    1
 Number of Electrons    NEL             ....   86
FINAL SINGLE POINT ENERGY      -538.405445477788
FINAL SINGLE POINT ENERGY      -538.421557526057
FINAL SINGLE POINT ENERGY      -538.423369769136
FINAL SINGLE POINT ENERGY      -538.423845351762
FINAL SINGLE POINT ENERGY      -538.423876284438
FINAL SINGLE POINT ENERGY      -538.423885390522
                    ***********************HURRAY********************

CARTESIAN COORDINATES (ANGSTROEM)
---------------------------------
  C    -21.013024   26.267716   46.236239
  C    -20.143243   27.494666   45.958449
  C    -20.183973   28.236553   47.320933
  C    -20.217596   27.072603   48.335050
  O    -20.641506   25.877555   47.567643
  H    -20.813284   25.408428   45.591474
  H    -19.127192   27.144029   45.744394
  H    -20.459318   28.113226   45.115697
  H    -19.319033   28.891040   47.464434
  H    -21.090078   28.847064   47.395122
  H    -20.925115   27.234861   49.152341
  H    -19.231361   26.845820   48.750577
  C    -23.867189   26.762615   44.263089
  H    -24.158826   27.479256   43.479733
  C    -23.113349   27.471699   45.389969
  C    -24.270752   28.099484   46.193282
  C    -25.400921   27.050799   46.067818
  O    -25.042492   26.189690   44.917891
  H    -23.307101   25.938904   43.816631
  O    -22.454340   26.508820   46.260216
  H    -22.415315   28.227156   45.015875
  H    -23.973267   28.281388   47.227996
  H    -24.562090   29.052444   45.736439
  H    -26.379737   27.506428   45.882804
  H    -25.460897   26.401754   46.944903

 Multiplicity           Mult            ....    1
 Number of Electrons    NEL             ....   86
 Basis Dimension        Dim             ....  127

ORBITAL ENERGIES
----------------

  NO   OCC          E(Eh)            E(eV)
   0   2.0000     -19.139914      -520.8235
   1   2.0000     -19.136269      -520.7244
   2   2.0000     -19.125335      -520.4268
   3   2.0000     -10.282076      -279.7895
   4   2.0000     -10.242338      -278.7082
   5   2.0000     -10.227621      -278.3077
   6   2.0000     -10.220601      -278.1167
   7   2.0000     -10.216882      -278.0155
   8   2.0000     -10.195288      -277.4279
   9   2.0000     -10.194168      -277.3974
  10   2.0000     -10.184788      -277.1422
  11   2.0000      -1.052274       -28.6338
  12   2.0000      -1.012700       -27.5570
  13   2.0000      -0.986460       -26.8429
  14   2.0000      -0.792148       -21.5555
  15   2.0000      -0.783167       -21.3111
  16   2.0000      -0.738832       -20.1046
  17   2.0000      -0.725692       -19.7471
  18   2.0000      -0.620018       -16.8715
  19   2.0000      -0.603746       -16.4288
  20   2.0000      -0.594797       -16.1853
  21   2.0000      -0.565524       -15.3887
  22   2.0000      -0.528657       -14.3855
  23   2.0000      -0.504072       -13.7165
  24   2.0000      -0.490092       -13.3361
  25   2.0000      -0.480283       -13.0692
  26   2.0000      -0.451741       -12.2925
  27   2.0000      -0.446790       -12.1578
  28   2.0000      -0.430738       -11.7210
  29   2.0000      -0.422166       -11.4877
  30   2.0000      -0.404623       -11.0103
  31   2.0000      -0.383784       -10.4433
  32   2.0000      -0.374671       -10.1953
  33   2.0000      -0.366083        -9.9616
  34   2.0000      -0.364503        -9.9186
  35   2.0000      -0.356686        -9.7059
  36   2.0000      -0.354718        -9.6524
  37   2.0000      -0.314608        -8.5609
  38   2.0000      -0.301742        -8.2108
  39   2.0000      -0.294217        -8.0061
  40   2.0000      -0.261743        -7.1224
  41   2.0000      -0.251542        -6.8448
  42   2.0000      -0.229990        -6.2584
  43   0.0000       0.067722         1.8428
  44   0.0000       0.095648         2.6027
  45   0.0000       0.096939         2.6379
  46   0.0000       0.104278         2.8375
  47   0.0000       0.114529         3.1165

MULLIKEN ATOMIC CHARGES
-----------------------
   0 C :    0.319225
   1 C :   -0.301524
   2 C :   -0.300004
   3 C :    0.000354
   4 O :   -0.494394
   5 H :    0.150624
   6 H :    0.155215
   7 H :    0.143682
   8 H :    0.145106
   9 H :    0.151795
  10 H :    0.151453
  11 H :    0.144089
  12 C :    0.017839
  13 H :    0.117842
  14 C :    0.050988
  15 C :   -0.282483
  16 C :    0.005453
  17 O :   -0.517608
  18 H :    0.153096
  19 O :   -0.516662
  20 H :    0.121137
  21 H :    0.157222
  22 H :    0.136652
  23 H :    0.131242
  24 H :    0.159660
Sum of atomic charges:   -0.0000000

LOEWDIN ATOMIC CHARGES
----------------------
   0 C :    0.186725
   1 C :   -0.234786
   2 C :   -0.217660
   3 C :   -0.026831
   4 O :   -0.303596
   5 H :    0.101262
   6 H :    0.121216
   7 H :    0.112349
   8 H :    0.115705
   9 H :    0.111479
  10 H :    0.107819
  11 H :    0.103690
  12 C :   -0.042507
  13 H :    0.088213
  14 C :    0.034052
  15 C :   -0.225748
  16 C :   -0.026455
  17 O :   -0.328151
  18 H :    0.115270
  19 O :   -0.328720
  20 H :    0.094095
  21 H :    0.124458
  22 H :    0.109768
  23 H :    0.096645
  24 H :    0.111709

  Mayer bond orders larger than 0.100000
B(  0-C ,  1-C ) :   0.9299 B(  0-C ,  4-O ) :   0.9305 B(  0-C ,  5-H ) :   0.9251
B(  0-C , 19-O ) :   0.8475 B(  1-C ,  2-C ) :   0.9494 B(  1-C ,  6-H ) :   0.9329
B(  1-C ,  7-H ) :   0.9252 B(  2-C ,  3-C ) :   0.9536 B(  2-C ,  8-H ) :   0.9453
B(  2-C ,  9-H ) :   0.9452 B(  3-C ,  4-O ) :   0.8402 B(  3-C , 10-H ) :   0.9343
B(  3-C , 11-H ) :   0.9394 B( 12-C , 13-H ) :   0.9106 B( 12-C , 14-C ) :   0.9150
B( 12-C , 17-O ) :   0.8783 B( 12-C , 18-H ) :   0.9349 B( 14-C , 15-C ) :   0.9517
B( 14-C , 19-O ) :   0.8374 B( 14-C , 20-H ) :   0.9077 B( 15-C , 16-C ) :   0.9473
B( 15-C , 21-H ) :   0.9382 B( 15-C , 22-H ) :   0.9408 B( 16-C , 17-O ) :   0.8553
B( 16-C , 23-H ) :   0.9337 B( 16-C , 24-H ) :   0.9353

FINAL SINGLE POINT ENERGY      -538.423886404412

DIPOLE MOMENT
-------------
                                X             Y             Z
Electronic contribution:     -1.37567      -5.28195      -0.30755
Nuclear contribution   :      2.27699       7.03424       0.08580
                        -----------------------------------------
Total Dipole Moment    :      0.90132       1.75229      -0.22175
                        -----------------------------------------
Magnitude (a.u.)       :      1.98294
Magnitude (Debye)      :      5.04024

Rotational constants in cm-1:     0.081429     0.020365     0.020026
Rotational constants in MHz :  2441.177217   610.523629   600.376881

                             ****ORCA TERMINATED NORMALLY****
TOTAL RUN TIME: 0 days 0 hours 7 minutes 2 seconds 384 msec
