                         Program Version 4.2.0 -  RELEASE  -
|  1> # Test redundant internal optimization
|  2> #
|  3> ! RKS B3LYP  Opt TightSCF SmallPrint
|  4>
|  5> %basis
|  6>         Basis "6-31G"
|  7> end
|  8>
|  9> %geom
| 10> Constraints
| 11> { D 4  0  15  12  225.0   C } # D for Dihedral angle
| 12> { D 0  15  12  16  105.0   C } # D for Dihedral angle
| 13> { D 0  4  3  2   C } # D for Dihedral angle
| 14> { D 4  3  2  1   C } # D for Dihedral angle
| 15> { D 3  2  1  0   C } # D for Dihedral angle
| 16> { D 2  1  0  4   C } # D for Dihedral angle
| 17> { D 1  0  4  3   C } # D for Dihedral angle
| 18> { D 16  20  19  18   C } # D for Dihedral angle
| 19> { D 20  19  18  17   C } # D for Dihedral angle
| 20> { D 19  18  17  16   C } # D for Dihedral angle
| 21> { D 18  17  16  20   C } # D for Dihedral angle
| 22> { D 17  16  20  19   C } # D for Dihedral angle
| 23> { D 15  12  16  20   C } # D for Dihedral angle
| 24> end
| 25> end
| 26>
| 27>
| 28> #%pal
| 29> #nprocs 8
| 30> #end
| 31>
| 32> * xyz 0 1
| 33> C  -21.048   26.222   46.251
| 34> C  -20.361   27.558   45.944
| 35> C  -20.329   28.222   47.341
| 36> C  -20.110   27.022   48.296
| 37> O  -20.473   25.807   47.535
| 38> H  -20.833   25.428   45.533
| 39> H  -19.344   27.382   45.576
| 40> H  -20.898   28.157   45.201
| 41> H  -19.543   28.978   47.434
| 42> H  -21.289   28.710   47.548
| 43> H  -20.733   27.082   49.195
| 44> H  -19.064   26.913   48.597
| 45> C  -23.415   25.773   45.218
| 46> H  -24.180   26.490   44.895
| 47> H  -22.769   25.550   44.359
| 48> O  -22.586   26.394   46.375
| 49> C  -24.126   24.454   45.629
| 50> C  -24.839   23.810   44.435
| 51> C  -23.661   23.126   43.699
| 52> C  -22.741   22.668   44.858
| 53> O  -23.142   23.450   46.047
| 54> H  -24.771   24.648   46.489
| 55> O  -25.862   22.752   44.931
| 56> H  -25.368   24.535   43.807
| 57> H  -23.983   22.292   43.067
| 58> H  -23.145   23.852   43.059
| 59> H  -21.681   22.852   44.649
| 60> H  -22.875   21.612   45.105
| 61> H  -25.354   22.015   45.562
| 62> *
| 63>
| 64>                          ****END OF INPUT****
 Total Charge           Charge          ....    0
 Multiplicity           Mult            ....    1
 Number of Electrons    NEL             ....  102
FINAL SINGLE POINT ENERGY      -652.831556381391
FINAL SINGLE POINT ENERGY      -652.854142384126
FINAL SINGLE POINT ENERGY      -652.857838264979
FINAL SINGLE POINT ENERGY      -652.858494017960
FINAL SINGLE POINT ENERGY      -652.858568487381
FINAL SINGLE POINT ENERGY      -652.858577111237
FINAL SINGLE POINT ENERGY      -652.858578767330
                    ***********************HURRAY********************

CARTESIAN COORDINATES (ANGSTROEM)
---------------------------------
  C    -21.035197   26.204733   46.172307
  C    -20.402234   27.577910   45.955225
  C    -20.461359   28.187125   47.377103
  C    -20.227944   26.960819   48.285179
  O    -20.507463   25.773808   47.436960
  H    -20.776374   25.439373   45.435945
  H    -19.362421   27.453521   45.628501
  H    -20.936063   28.172613   45.209575
  H    -19.715175   28.972098   47.531580
  H    -21.454698   28.611210   47.552235
  H    -20.892249   26.933886   49.152237
  H    -19.190014   26.869922   48.619617
  C    -23.277706   25.796199   45.176311
  H    -24.039631   26.545184   44.930117
  H    -22.656093   25.638122   44.281949
  O    -22.481387   26.339196   46.258690
  C    -23.958558   24.494663   45.599866
  C    -24.793091   23.823284   44.499974
  C    -23.704123   23.055275   43.704182
  C    -22.708903   22.615626   44.806562
  O    -22.981798   23.472320   45.986422
  H    -24.559252   24.693621   46.492425
  O    -25.777710   22.920564   45.072058
  H    -25.363486   24.521375   43.884910
  H    -24.144726   22.213960   43.164038
  H    -23.225124   23.719630   42.975456
  H    -21.662799   22.739212   44.509235
  H    -22.859693   21.577696   45.119775
  H    -25.367730   22.431055   45.816566

 Multiplicity           Mult            ....    1
 Number of Electrons    NEL             ....  102
 Basis Dimension        Dim             ....  149

ORBITAL ENERGIES
----------------

  NO   OCC          E(Eh)            E(eV)
   0   2.0000     -19.141684      -520.8717
   1   2.0000     -19.139243      -520.8053
   2   2.0000     -19.136589      -520.7331
   3   2.0000     -19.132732      -520.6281
   4   2.0000     -10.275021      -279.5975
   5   2.0000     -10.243974      -278.7527
   6   2.0000     -10.235666      -278.5266
   7   2.0000     -10.231965      -278.4259
   8   2.0000     -10.231284      -278.4074
   9   2.0000     -10.218947      -278.0717
  10   2.0000     -10.191454      -277.3236
  11   2.0000     -10.181605      -277.0556
  12   2.0000     -10.181417      -277.0505
  13   2.0000      -1.048158       -28.5218
  14   2.0000      -1.035761       -28.1845
  15   2.0000      -1.006751       -27.3951
  16   2.0000      -0.989737       -26.9321
  17   2.0000      -0.787095       -21.4179
  18   2.0000      -0.780445       -21.2370
  19   2.0000      -0.766586       -20.8599
  20   2.0000      -0.728275       -19.8174
  21   2.0000      -0.674901       -18.3650
  22   2.0000      -0.604772       -16.4567
  23   2.0000      -0.596473       -16.2308
  24   2.0000      -0.591669       -16.1001
  25   2.0000      -0.582173       -15.8417
  26   2.0000      -0.526152       -14.3173
  27   2.0000      -0.508625       -13.8404
  28   2.0000      -0.496534       -13.5114
  29   2.0000      -0.485544       -13.2123
  30   2.0000      -0.473809       -12.8930
  31   2.0000      -0.457088       -12.4380
  32   2.0000      -0.451531       -12.2868
  33   2.0000      -0.441998       -12.0274
  34   2.0000      -0.422645       -11.5008
  35   2.0000      -0.410589       -11.1727
  36   2.0000      -0.395140       -10.7523
  37   2.0000      -0.393780       -10.7153
  38   2.0000      -0.374362       -10.1869
  39   2.0000      -0.369290       -10.0489
  40   2.0000      -0.359584        -9.7848
  41   2.0000      -0.352555        -9.5935
  42   2.0000      -0.347550        -9.4573
  43   2.0000      -0.334250        -9.0954
  44   2.0000      -0.308438        -8.3930
  45   2.0000      -0.305924        -8.3246
  46   2.0000      -0.303584        -8.2609
  47   2.0000      -0.272098        -7.4042
  48   2.0000      -0.264975        -7.2103
  49   2.0000      -0.250357        -6.8126
  50   2.0000      -0.233941        -6.3659
  51   0.0000       0.058769         1.5992
  52   0.0000       0.084006         2.2859
  53   0.0000       0.086114         2.3433
  54   0.0000       0.101016         2.7488
  55   0.0000       0.108305         2.9471

MULLIKEN ATOMIC CHARGES
-----------------------
   0 C :    0.299474
   1 C :   -0.256596
   2 C :   -0.300462
   3 C :   -0.000655
   4 O :   -0.494496
   5 H :    0.138147
   6 H :    0.139888
   7 H :    0.140724
   8 H :    0.139236
   9 H :    0.161668
  10 H :    0.153003
  11 H :    0.138532
  12 C :   -0.021820
  13 H :    0.145748
  14 H :    0.119238
  15 O :   -0.507190
  16 C :    0.073268
  17 C :    0.079661
  18 C :   -0.294887
  19 C :   -0.032058
  20 O :   -0.505799
  21 H :    0.172374
  22 O :   -0.603127
  23 H :    0.150064
  24 H :    0.163821
  25 H :    0.139696
  26 H :    0.146037
  27 H :    0.149031
  28 H :    0.367477
Sum of atomic charges:   -0.0000000

LOEWDIN ATOMIC CHARGES
----------------------
   0 C :    0.182001
   1 C :   -0.226182
   2 C :   -0.217120
   3 C :   -0.026182
   4 O :   -0.303545
   5 H :    0.097713
   6 H :    0.110866
   7 H :    0.114645
   8 H :    0.112827
   9 H :    0.118979
  10 H :    0.108601
  11 H :    0.100651
  12 C :   -0.040307
  13 H :    0.109241
  14 H :    0.090461
  15 O :   -0.327566
  16 C :    0.008572
  17 C :    0.034335
  18 C :   -0.241427
  19 C :   -0.039369
  20 O :   -0.319274
  21 H :    0.122177
  22 O :   -0.414288
  23 H :    0.114482
  24 H :    0.127458
  25 H :    0.110158
  26 H :    0.103083
  27 H :    0.104080
  28 H :    0.284930

  Mayer bond orders larger than 0.100000
B(  0-C ,  1-C ) :   0.9356 B(  0-C ,  4-O ) :   0.9384 B(  0-C ,  5-H ) :   0.9188
B(  0-C , 15-O ) :   0.8267 B(  1-C ,  2-C ) :   0.9565 B(  1-C ,  6-H ) :   0.9357
B(  1-C ,  7-H ) :   0.9392 B(  2-C ,  3-C ) :   0.9540 B(  2-C ,  8-H ) :   0.9454
B(  2-C ,  9-H ) :   0.9436 B(  3-C ,  4-O ) :   0.8407 B(  3-C , 10-H ) :   0.9343
B(  3-C , 11-H ) :   0.9397 B( 12-C , 13-H ) :   0.9251 B( 12-C , 14-H ) :   0.9217
B( 12-C , 15-O ) :   0.8700 B( 12-C , 16-C ) :   0.8856 B( 16-C , 17-C ) :   0.8936
B( 16-C , 20-O ) :   0.8674 B( 16-C , 21-H ) :   0.9238 B( 17-C , 18-C ) :   0.9091
B( 17-C , 22-O ) :   0.8925 B( 17-C , 23-H ) :   0.9332 B( 18-C , 19-C ) :   0.9393
B( 18-C , 24-H ) :   0.9374 B( 18-C , 25-H ) :   0.9344 B( 19-C , 20-O ) :   0.8506
B( 19-C , 26-H ) :   0.9337 B( 19-C , 27-H ) :   0.9377 B( 22-O , 28-H ) :   0.7930

FINAL SINGLE POINT ENERGY      -652.858578853386

DIPOLE MOMENT
-------------
                                X             Y             Z
Electronic contribution:     -3.01738      -3.30542       2.47911
Nuclear contribution   :      3.61051       3.92005      -3.50850
                        -----------------------------------------
Total Dipole Moment    :      0.59314       0.61462      -1.02939
                        -----------------------------------------
Magnitude (a.u.)       :      1.33762
Magnitude (Debye)      :      3.39996

Rotational constants in cm-1:     0.067711     0.012033     0.011694
Rotational constants in MHz :  2029.929201   360.752563   350.563948

                             ****ORCA TERMINATED NORMALLY****
TOTAL RUN TIME: 0 days 0 hours 26 minutes 49 seconds 690 msec
