                         Program Version 4.2.0 -  RELEASE  -
|  1> # Test redundant internal optimization
|  2> #
|  3> ! RKS B3LYP  Opt TightSCF SmallPrint
|  4>
|  5> %basis
|  6>         Basis "6-31G"
|  7> end
|  8>
|  9> %geom
| 10> Constraints
| 11> { D 4  0  15  12  120.0   C } # D for Dihedral angle
| 12> { D 0  15  12  16  90.0   C } # D for Dihedral angle
| 13> { D 0  4  3  2   C } # D for Dihedral angle
| 14> { D 4  3  2  1   C } # D for Dihedral angle
| 15> { D 3  2  1  0   C } # D for Dihedral angle
| 16> { D 2  1  0  4   C } # D for Dihedral angle
| 17> { D 1  0  4  3   C } # D for Dihedral angle
| 18> { D 16  20  19  18   C } # D for Dihedral angle
| 19> { D 20  19  18  17   C } # D for Dihedral angle
| 20> { D 19  18  17  16   C } # D for Dihedral angle
| 21> { D 18  17  16  20   C } # D for Dihedral angle
| 22> { D 17  16  20  19   C } # D for Dihedral angle
| 23> { D 15  12  16  20   C } # D for Dihedral angle
| 24> end
| 25> end
| 26>
| 27>
| 28> #%pal
| 29> #nprocs 8
| 30> #end
| 31>
| 32> * xyz 0 1
| 33> C  -21.048   26.222   46.251
| 34> C  -20.361   27.558   45.944
| 35> C  -20.329   28.222   47.341
| 36> C  -20.110   27.022   48.296
| 37> O  -20.473   25.807   47.535
| 38> H  -20.833   25.428   45.533
| 39> H  -19.344   27.382   45.576
| 40> H  -20.898   28.157   45.201
| 41> H  -19.543   28.978   47.434
| 42> H  -21.289   28.710   47.548
| 43> H  -20.733   27.082   49.195
| 44> H  -19.064   26.913   48.597
| 45> C  -23.119   27.818   46.058
| 46> H  -24.020   28.008   46.654
| 47> H  -22.369   28.576   46.319
| 48> O  -22.586   26.394   46.375
| 49> C  -23.477   28.005   44.557
| 50> C  -24.642   27.098   44.146
| 51> C  -25.858   27.882   44.693
| 52> C  -25.441   29.361   44.494
| 53> O  -23.974   29.363   44.314
| 54> H  -22.574   27.882   43.956
| 55> H  -24.691   27.021   43.054
| 56> O  -24.536   25.664   44.733
| 57> H  -26.790   27.638   44.172
| 58> H  -26.001   27.660   45.757
| 59> H  -25.699   29.988   45.354
| 60> H  -25.877   29.800   43.593
| 61> H  -24.485   25.717   45.826
| 62> *
| 63>
| 64>                          ****END OF INPUT****
 Total Charge           Charge          ....    0
 Multiplicity           Mult            ....    1
 Number of Electrons    NEL             ....  102
FINAL SINGLE POINT ENERGY      -652.815927406105
FINAL SINGLE POINT ENERGY      -652.843118105486
FINAL SINGLE POINT ENERGY      -652.853030664984
FINAL SINGLE POINT ENERGY      -652.856059031650
FINAL SINGLE POINT ENERGY      -652.857429665398
FINAL SINGLE POINT ENERGY      -652.858046462595
FINAL SINGLE POINT ENERGY      -652.858247509855
FINAL SINGLE POINT ENERGY      -652.858294365231
FINAL SINGLE POINT ENERGY      -652.858297062663
                    ***********************HURRAY********************

CARTESIAN COORDINATES (ANGSTROEM)
---------------------------------
  C    -21.197695   26.328171   46.332287
  C    -20.251675   27.474803   45.961665
  C    -20.062430   28.197478   47.326651
  C    -20.089255   27.020770   48.330381
  O    -20.711751   25.884730   47.608426
  H    -21.140581   25.460905   45.673413
  H    -19.305285   27.037903   45.627512
  H    -20.620471   28.129997   45.168490
  H    -19.121035   28.753371   47.368850
  H    -20.873658   28.904457   47.522662
  H    -20.675576   27.232404   49.228403
  H    -19.087612   26.694329   48.622817
  C    -23.200478   27.961423   46.114755
  H    -24.088677   28.027107   46.748419
  H    -22.528705   28.778811   46.385977
  O    -22.624435   26.644011   46.403891
  C    -23.563303   28.077426   44.628799
  C    -24.650351   27.096052   44.157446
  C    -25.946150   27.798625   44.656802
  C    -25.622305   29.296444   44.488103
  O    -24.134095   29.398785   44.373403
  H    -22.657477   28.004969   44.018835
  H    -24.651220   27.069574   43.062408
  O    -24.503712   25.734915   44.604148
  H    -26.821953   27.485880   44.082704
  H    -26.119070   27.526776   45.703805
  H    -25.950131   29.911882   45.331636
  H    -26.033065   29.715294   43.565007
  H    -23.931853   25.708707   45.408305

 Multiplicity           Mult            ....    1
 Number of Electrons    NEL             ....  102
 Basis Dimension        Dim             ....  149

ORBITAL ENERGIES
----------------

  NO   OCC          E(Eh)            E(eV)
   0   2.0000     -19.160861      -521.3935
   1   2.0000     -19.148656      -521.0614
   2   2.0000     -19.143824      -520.9299
   3   2.0000     -19.116071      -520.1747
   4   2.0000     -10.292578      -280.0753
   5   2.0000     -10.241509      -278.6856
   6   2.0000     -10.236272      -278.5431
   7   2.0000     -10.234885      -278.5054
   8   2.0000     -10.232778      -278.4480
   9   2.0000     -10.229439      -278.3572
  10   2.0000     -10.203581      -277.6536
  11   2.0000     -10.201550      -277.5983
  12   2.0000     -10.181214      -277.0449
  13   2.0000      -1.062033       -28.8994
  14   2.0000      -1.028027       -27.9740
  15   2.0000      -1.007703       -27.4210
  16   2.0000      -0.993991       -27.0479
  17   2.0000      -0.798701       -21.7338
  18   2.0000      -0.777719       -21.1628
  19   2.0000      -0.770552       -20.9678
  20   2.0000      -0.741489       -20.1769
  21   2.0000      -0.686521       -18.6812
  22   2.0000      -0.613758       -16.7012
  23   2.0000      -0.604943       -16.4613
  24   2.0000      -0.598448       -16.2846
  25   2.0000      -0.575566       -15.6620
  26   2.0000      -0.540196       -14.6995
  27   2.0000      -0.512675       -13.9506
  28   2.0000      -0.508120       -13.8266
  29   2.0000      -0.490566       -13.3490
  30   2.0000      -0.476160       -12.9570
  31   2.0000      -0.463620       -12.6158
  32   2.0000      -0.444004       -12.0820
  33   2.0000      -0.439988       -11.9727
  34   2.0000      -0.427092       -11.6218
  35   2.0000      -0.421290       -11.4639
  36   2.0000      -0.410892       -11.1809
  37   2.0000      -0.394379       -10.7316
  38   2.0000      -0.391851       -10.6628
  39   2.0000      -0.375433       -10.2161
  40   2.0000      -0.366977        -9.9859
  41   2.0000      -0.363848        -9.9008
  42   2.0000      -0.350121        -9.5273
  43   2.0000      -0.340186        -9.2569
  44   2.0000      -0.325459        -8.8562
  45   2.0000      -0.311633        -8.4800
  46   2.0000      -0.291739        -7.9386
  47   2.0000      -0.282407        -7.6847
  48   2.0000      -0.267412        -7.2766
  49   2.0000      -0.250066        -6.8046
  50   2.0000      -0.240627        -6.5478
  51   0.0000       0.055610         1.5132
  52   0.0000       0.069125         1.8810
  53   0.0000       0.090579         2.4648
  54   0.0000       0.091406         2.4873
  55   0.0000       0.103053         2.8042

MULLIKEN ATOMIC CHARGES
-----------------------
   0 C :    0.324492
   1 C :   -0.310247
   2 C :   -0.312078
   3 C :   -0.005845
   4 O :   -0.492080
   5 H :    0.168002
   6 H :    0.164359
   7 H :    0.156983
   8 H :    0.151460
   9 H :    0.157644
  10 H :    0.153331
  11 H :    0.150079
  12 C :   -0.036661
  13 H :    0.163832
  14 H :    0.153955
  15 O :   -0.559740
  16 C :    0.051778
  17 C :    0.114763
  18 C :   -0.300361
  19 C :   -0.022943
  20 O :   -0.522360
  21 H :    0.150328
  22 H :    0.151496
  23 O :   -0.637393
  24 H :    0.153025
  25 H :    0.144485
  26 H :    0.144255
  27 H :    0.150494
  28 H :    0.394947
Sum of atomic charges:   -0.0000000

LOEWDIN ATOMIC CHARGES
----------------------
   0 C :    0.182280
   1 C :   -0.231720
   2 C :   -0.220633
   3 C :   -0.029050
   4 O :   -0.307097
   5 H :    0.111870
   6 H :    0.127446
   7 H :    0.119448
   8 H :    0.119213
   9 H :    0.111828
  10 H :    0.108321
  11 H :    0.106780
  12 C :   -0.048788
  13 H :    0.116408
  14 H :    0.108794
  15 O :   -0.337617
  16 C :    0.005210
  17 C :    0.040524
  18 C :   -0.237528
  19 C :   -0.032219
  20 O :   -0.327110
  21 H :    0.106955
  22 H :    0.107404
  23 O :   -0.432098
  24 H :    0.122346
  25 H :    0.111199
  26 H :    0.102652
  27 H :    0.106615
  28 H :    0.288568

  Mayer bond orders larger than 0.100000
B(  0-C ,  1-C ) :   0.9365 B(  0-C ,  4-O ) :   0.9340 B(  0-C ,  5-H ) :   0.9297
B(  0-C , 15-O ) :   0.8184 B(  1-C ,  2-C ) :   0.9498 B(  1-C ,  6-H ) :   0.9329
B(  1-C ,  7-H ) :   0.9252 B(  2-C ,  3-C ) :   0.9475 B(  2-C ,  8-H ) :   0.9446
B(  2-C ,  9-H ) :   0.9362 B(  3-C ,  4-O ) :   0.8386 B(  3-C , 10-H ) :   0.9342
B(  3-C , 11-H ) :   0.9390 B( 12-C , 13-H ) :   0.9353 B( 12-C , 14-H ) :   0.9113
B( 12-C , 15-O ) :   0.7993 B( 12-C , 16-C ) :   0.8818 B( 16-C , 17-C ) :   0.9092
B( 16-C , 20-O ) :   0.8554 B( 16-C , 21-H ) :   0.9271 B( 17-C , 18-C ) :   0.9013
B( 17-C , 22-H ) :   0.9314 B( 17-C , 23-O ) :   0.9387 B( 18-C , 19-C ) :   0.9367
B( 18-C , 24-H ) :   0.9445 B( 18-C , 25-H ) :   0.9432 B( 19-C , 20-O ) :   0.8295
B( 19-C , 26-H ) :   0.9341 B( 19-C , 27-H ) :   0.9387 B( 23-O , 28-H ) :   0.7237

FINAL SINGLE POINT ENERGY      -652.858297756346

DIPOLE MOMENT
-------------
                                X             Y             Z
Electronic contribution:     -0.72853      -3.85673      -0.77711
Nuclear contribution   :      1.41078       5.08489       1.07811
                        -----------------------------------------
Total Dipole Moment    :      0.68225       1.22816       0.30100
                        -----------------------------------------
Magnitude (a.u.)       :      1.43682
Magnitude (Debye)      :      3.65210

Rotational constants in cm-1:     0.056815     0.014061     0.012522
Rotational constants in MHz :  1703.262339   421.531757   375.409251

                             ****ORCA TERMINATED NORMALLY****
TOTAL RUN TIME: 0 days 0 hours 58 minutes 36 seconds 389 msec
