                         Program Version 4.2.1 -  RELEASE  -
|  1> # Test redundant internal optimization
|  2> #
|  3> ! RKS B3LYP  Opt TightSCF SmallPrint
|  4>
|  5> %basis
|  6>         Basis "6-31G"
|  7> end
|  8>
|  9> %geom
| 10> Constraints
| 11> { D 4  0  19  14  285.0   C } # D for Dihedral angle
| 12> { D 0  19  14  12  180.0   C } # D for Dihedral angle
| 13> { D 0  4  3  2   C } # D for Dihedral angle
| 14> { D 4  3  2  1   C } # D for Dihedral angle
| 15> { D 3  2  1  0   C } # D for Dihedral angle
| 16> { D 2  1  0  4   C } # D for Dihedral angle
| 17> { D 1  0  4  3   C } # D for Dihedral angle
| 18> { D 14  15  16  17   C } # D for Dihedral angle
| 19> { D 15  16  17  12   C } # D for Dihedral angle
| 20> { D 16  17  12  14   C } # D for Dihedral angle
| 21> { D 17  12  14  15   C } # D for Dihedral angle
| 22> { D 12  14  15  16   C } # D for Dihedral angle
| 23> end
| 24> end
| 25>
| 26>
| 27> #%pal
| 28> #nprocs 8
| 29> #end
| 30>
| 31> * xyz 0 1
| 32> C  -21.048   26.222   46.251
| 33> C  -20.361   27.558   45.944
| 34> C  -20.329   28.222   47.341
| 35> C  -20.110   27.022   48.296
| 36> O  -20.473   25.807   47.535
| 37> H  -20.833   25.428   45.533
| 38> H  -19.344   27.382   45.576
| 39> H  -20.898   28.157   45.201
| 40> H  -19.543   28.978   47.434
| 41> H  -21.289   28.710   47.548
| 42> H  -20.733   27.082   49.195
| 43> H  -19.064   26.913   48.597
| 44> C  -24.705   25.429   46.542
| 45> H  -25.256   24.535   46.874
| 46> C  -23.203   25.146   46.420
| 47> C  -23.132   24.408   45.063
| 48> C  -24.230   25.108   44.223
| 49> O  -25.112   25.806   45.184
| 50> H  -24.956   26.266   47.195
| 51> O  -22.472   26.381   46.366
| 52> H  -22.810   24.548   47.250
| 53> H  -22.144   24.473   44.596
| 54> H  -23.369   23.345   45.198
| 55> H  -24.826   24.401   43.637
| 56> H  -23.820   25.868   43.551
| 57> *
| 58>
| 59>                          ****END OF INPUT****
 Total Charge           Charge          ....    0
 Multiplicity           Mult            ....    1
 Number of Electrons    NEL             ....   86
FINAL SINGLE POINT ENERGY      -538.434240267992
FINAL SINGLE POINT ENERGY      -538.437337353842
FINAL SINGLE POINT ENERGY      -538.437662536287
FINAL SINGLE POINT ENERGY      -538.437695876206
FINAL SINGLE POINT ENERGY      -538.437704442023
                    ***********************HURRAY********************

CARTESIAN COORDINATES (ANGSTROEM)
---------------------------------
  C    -20.969009   26.201143   46.224076
  C    -20.403155   27.597889   45.961977
  C    -20.419673   28.216245   47.378997
  C    -20.092928   27.012092   48.291054
  O    -20.359701   25.798799   47.477480
  H    -20.696911   25.433960   45.495662
  H    -19.378912   27.507956   45.582505
  H    -21.005703   28.154301   45.241398
  H    -19.697044   29.030153   47.492044
  H    -21.418543   28.605050   47.595899
  H    -20.710923   26.977603   49.191953
  H    -19.037487   26.970052   48.576740
  C    -24.643089   25.524646   46.522344
  H    -25.259005   24.692387   46.892953
  C    -23.179134   25.102653   46.401496
  C    -23.188018   24.328742   45.070666
  C    -24.220608   25.099628   44.215246
  O    -25.026381   25.901056   45.159798
  H    -24.775485   26.401408   47.157485
  O    -22.396752   26.339078   46.341143
  H    -22.829457   24.496456   47.245497
  H    -22.205388   24.270826   44.595662
  H    -23.519613   23.301350   45.262793
  H    -24.881195   24.430842   43.652219
  H    -23.745886   25.800686   43.522915

 Multiplicity           Mult            ....    1
 Number of Electrons    NEL             ....   86
 Basis Dimension        Dim             ....  127

ORBITAL ENERGIES
----------------

  NO   OCC          E(Eh)            E(eV)
   0   2.0000     -19.143348      -520.9170
   1   2.0000     -19.137862      -520.7677
   2   2.0000     -19.126778      -520.4661
   3   2.0000     -10.276962      -279.6503
   4   2.0000     -10.238181      -278.5951
   5   2.0000     -10.223462      -278.1945
   6   2.0000     -10.221028      -278.1283
   7   2.0000     -10.220626      -278.1174
   8   2.0000     -10.188510      -277.2434
   9   2.0000     -10.183384      -277.1040
  10   2.0000     -10.182852      -277.0895
  11   2.0000      -1.053877       -28.6774
  12   2.0000      -1.012896       -27.5623
  13   2.0000      -0.988508       -26.8987
  14   2.0000      -0.791515       -21.5382
  15   2.0000      -0.775079       -21.0910
  16   2.0000      -0.743289       -20.2259
  17   2.0000      -0.718198       -19.5432
  18   2.0000      -0.611339       -16.6354
  19   2.0000      -0.599946       -16.3254
  20   2.0000      -0.594005       -16.1637
  21   2.0000      -0.568498       -15.4696
  22   2.0000      -0.526137       -14.3169
  23   2.0000      -0.498831       -13.5739
  24   2.0000      -0.485873       -13.2213
  25   2.0000      -0.476485       -12.9658
  26   2.0000      -0.456560       -12.4236
  27   2.0000      -0.434995       -11.8368
  28   2.0000      -0.427623       -11.6362
  29   2.0000      -0.418505       -11.3881
  30   2.0000      -0.400644       -10.9021
  31   2.0000      -0.383430       -10.4337
  32   2.0000      -0.376213       -10.2373
  33   2.0000      -0.364510        -9.9188
  34   2.0000      -0.359374        -9.7791
  35   2.0000      -0.354221        -9.6388
  36   2.0000      -0.342017        -9.3068
  37   2.0000      -0.326582        -8.8867
  38   2.0000      -0.301414        -8.2019
  39   2.0000      -0.295135        -8.0310
  40   2.0000      -0.268824        -7.3151
  41   2.0000      -0.250541        -6.8176
  42   2.0000      -0.233520        -6.3544
  43   0.0000       0.079678         2.1681
  44   0.0000       0.095702         2.6042
  45   0.0000       0.102668         2.7937
  46   0.0000       0.114166         3.1066
  47   0.0000       0.118722         3.2306

MULLIKEN ATOMIC CHARGES
-----------------------
   0 C :    0.286641
   1 C :   -0.259776
   2 C :   -0.297627
   3 C :   -0.002735
   4 O :   -0.516064
   5 H :    0.138715
   6 H :    0.142882
   7 H :    0.159398
   8 H :    0.139979
   9 H :    0.164543
  10 H :    0.145849
  11 H :    0.141326
  12 C :   -0.001923
  13 H :    0.126358
  14 C :    0.071964
  15 C :   -0.314219
  16 C :    0.009535
  17 O :   -0.519256
  18 H :    0.167113
  19 O :   -0.514467
  20 H :    0.150393
  21 H :    0.150517
  22 H :    0.148658
  23 H :    0.135287
  24 H :    0.146909
Sum of atomic charges:   -0.0000000

LOEWDIN ATOMIC CHARGES
----------------------
   0 C :    0.170032
   1 C :   -0.214634
   2 C :   -0.215685
   3 C :   -0.027831
   4 O :   -0.333289
   5 H :    0.093993
   6 H :    0.112766
   7 H :    0.125412
   8 H :    0.112977
   9 H :    0.120247
  10 H :    0.104660
  11 H :    0.101920
  12 C :   -0.033525
  13 H :    0.092368
  14 C :    0.036383
  15 C :   -0.238566
  16 C :   -0.027702
  17 O :   -0.328965
  18 H :    0.122870
  19 O :   -0.318026
  20 H :    0.107528
  21 H :    0.117369
  22 H :    0.116640
  23 H :    0.098451
  24 H :    0.104605

  Mayer bond orders larger than 0.100000
B(  0-C ,  1-C ) :   0.9494 B(  0-C ,  4-O ) :   0.9003 B(  0-C ,  5-H ) :   0.9128
B(  0-C , 19-O ) :   0.8671 B(  1-C ,  2-C ) :   0.9571 B(  1-C ,  6-H ) :   0.9408
B(  1-C ,  7-H ) :   0.9353 B(  2-C ,  3-C ) :   0.9551 B(  2-C ,  8-H ) :   0.9453
B(  2-C ,  9-H ) :   0.9438 B(  3-C ,  4-O ) :   0.8382 B(  3-C , 10-H ) :   0.9360
B(  3-C , 11-H ) :   0.9404 B( 12-C , 13-H ) :   0.9162 B( 12-C , 14-C ) :   0.9370
B( 12-C , 17-O ) :   0.8685 B( 12-C , 18-H ) :   0.9301 B( 14-C , 15-C ) :   0.9341
B( 14-C , 19-O ) :   0.8272 B( 14-C , 20-H ) :   0.9179 B( 15-C , 16-C ) :   0.9416
B( 15-C , 21-H ) :   0.9336 B( 15-C , 22-H ) :   0.9356 B( 16-C , 17-O ) :   0.8620
B( 16-C , 23-H ) :   0.9331 B( 16-C , 24-H ) :   0.9374

FINAL SINGLE POINT ENERGY      -538.437705150599

DIPOLE MOMENT
-------------
                                X             Y             Z
Electronic contribution:     -1.78211      -0.86245       0.36851
Nuclear contribution   :      2.47391       0.63579      -0.36207
                        -----------------------------------------
Total Dipole Moment    :      0.69179      -0.22665       0.00644
                        -----------------------------------------
Magnitude (a.u.)       :      0.72800
Magnitude (Debye)      :      1.85044

Rotational constants in cm-1:     0.084293     0.019850     0.019743
Rotational constants in MHz :  2527.041151   595.081345   591.869510

                             ****ORCA TERMINATED NORMALLY****
TOTAL RUN TIME: 0 days 0 hours 5 minutes 41 seconds 355 msec
