                         Program Version 4.2.0 -  RELEASE  -
|  1> # Test redundant internal optimization
|  2> #
|  3> ! RKS B3LYP  Opt TightSCF SmallPrint
|  4>
|  5> %basis
|  6>         Basis "6-31G"
|  7> end
|  8>
|  9> %geom
| 10> Constraints
| 11> { D 4  0  15  12  60.0   C } # D for Dihedral angle
| 12> { D 0  15  12  16  165.0   C } # D for Dihedral angle
| 13> { D 0  4  3  2   C } # D for Dihedral angle
| 14> { D 4  3  2  1   C } # D for Dihedral angle
| 15> { D 3  2  1  0   C } # D for Dihedral angle
| 16> { D 2  1  0  4   C } # D for Dihedral angle
| 17> { D 1  0  4  3   C } # D for Dihedral angle
| 18> { D 16  20  19  18   C } # D for Dihedral angle
| 19> { D 20  19  18  17   C } # D for Dihedral angle
| 20> { D 19  18  17  16   C } # D for Dihedral angle
| 21> { D 18  17  16  20   C } # D for Dihedral angle
| 22> { D 17  16  20  19   C } # D for Dihedral angle
| 23> { D 15  12  16  20   C } # D for Dihedral angle
| 24> end
| 25> end
| 26>
| 27>
| 28> #%pal
| 29> #nprocs 8
| 30> #end
| 31>
| 32> * xyz 0 1
| 33> C  -21.048   26.222   46.251
| 34> C  -20.361   27.558   45.944
| 35> C  -20.329   28.222   47.341
| 36> C  -20.110   27.022   48.296
| 37> O  -20.473   25.807   47.535
| 38> H  -20.833   25.428   45.533
| 39> H  -19.344   27.382   45.576
| 40> H  -20.898   28.157   45.201
| 41> H  -19.543   28.978   47.434
| 42> H  -21.289   28.710   47.548
| 43> H  -20.733   27.082   49.195
| 44> H  -19.064   26.913   48.597
| 45> C  -23.051   27.452   47.413
| 46> H  -22.917   27.049   48.425
| 47> H  -22.449   28.366   47.326
| 48> O  -22.586   26.394   46.375
| 49> C  -24.543   27.849   47.239
| 50> C  -25.471   26.660   47.514
| 51> C  -25.498   26.635   49.061
| 52> C  -25.427   28.136   49.439
| 53> O  -24.928   28.847   48.243
| 54> H  -24.678   28.311   46.260
| 55> O  -26.887   26.948   46.946
| 56> H  -25.110   25.722   47.080
| 57> H  -26.391   26.145   49.462
| 58> H  -24.621   26.098   49.444
| 59> H  -24.750   28.326   50.278
| 60> H  -26.410   28.553   49.675
| 61> H  -27.271   27.884   47.368
| 62> *
| 63>
| 64>                          ****END OF INPUT****
 Total Charge           Charge          ....    0
 Multiplicity           Mult            ....    1
 Number of Electrons    NEL             ....  102
FINAL SINGLE POINT ENERGY      -652.807300537717
FINAL SINGLE POINT ENERGY      -652.839184308668
FINAL SINGLE POINT ENERGY      -652.856752281161
FINAL SINGLE POINT ENERGY      -652.859449872195
FINAL SINGLE POINT ENERGY      -652.859834418974
FINAL SINGLE POINT ENERGY      -652.859902689436
FINAL SINGLE POINT ENERGY      -652.859910045628
FINAL SINGLE POINT ENERGY      -652.859910555052
                    ***********************HURRAY********************

CARTESIAN COORDINATES (ANGSTROEM)
---------------------------------
  C    -21.247739   26.379464   46.437955
  C    -20.389872   27.534238   45.897982
  C    -19.919045   28.231898   47.210043
  C    -19.744324   27.034786   48.179415
  O    -20.506142   25.908233   47.587204
  H    -21.296820   25.535530   45.747909
  H    -19.537182   27.110674   45.357401
  H    -20.943252   28.194535   45.225113
  H    -18.979625   28.777196   47.073145
  H    -20.661257   28.946441   47.571736
  H    -20.126880   27.234161   49.184914
  H    -18.702688   26.708504   48.252191
  C    -23.107237   27.597241   47.664543
  H    -22.959016   27.206875   48.679464
  H    -22.590014   28.557610   47.581816
  O    -22.645553   26.629328   46.681913
  C    -24.584681   27.843028   47.361734
  C    -25.496654   26.617149   47.511074
  C    -25.708541   26.570987   49.045302
  C    -25.738262   28.066110   49.446459
  O    -25.121900   28.815058   48.320640
  H    -24.680514   28.280426   46.364568
  O    -26.749921   26.820551   46.799810
  H    -25.060420   25.710104   47.097327
  H    -26.635066   26.045927   49.290823
  H    -24.878149   26.043844   49.527422
  H    -25.174831   28.274303   50.361096
  H    -26.755491   28.450856   49.568302
  H    -27.071925   27.730946   46.971697

 Multiplicity           Mult            ....    1
 Number of Electrons    NEL             ....  102
 Basis Dimension        Dim             ....  149

ORBITAL ENERGIES
----------------

  NO   OCC          E(Eh)            E(eV)
   0   2.0000     -19.148005      -521.0437
   1   2.0000     -19.145274      -520.9694
   2   2.0000     -19.144779      -520.9559
   3   2.0000     -19.132761      -520.6289
   4   2.0000     -10.281392      -279.7709
   5   2.0000     -10.232962      -278.4531
   6   2.0000     -10.232707      -278.4461
   7   2.0000     -10.232664      -278.4449
   8   2.0000     -10.232426      -278.4385
   9   2.0000     -10.231200      -278.4051
  10   2.0000     -10.195764      -277.4408
  11   2.0000     -10.193048      -277.3669
  12   2.0000     -10.185272      -277.1554
  13   2.0000      -1.055584       -28.7239
  14   2.0000      -1.034940       -28.1621
  15   2.0000      -1.002914       -27.2907
  16   2.0000      -0.999404       -27.1952
  17   2.0000      -0.791323       -21.5330
  18   2.0000      -0.781436       -21.2639
  19   2.0000      -0.770579       -20.9685
  20   2.0000      -0.733336       -19.9551
  21   2.0000      -0.679067       -18.4784
  22   2.0000      -0.607348       -16.5268
  23   2.0000      -0.603110       -16.4114
  24   2.0000      -0.596723       -16.2377
  25   2.0000      -0.576047       -15.6750
  26   2.0000      -0.522772       -14.2253
  27   2.0000      -0.515191       -14.0191
  28   2.0000      -0.504964       -13.7408
  29   2.0000      -0.489088       -13.3088
  30   2.0000      -0.473023       -12.8716
  31   2.0000      -0.461633       -12.5617
  32   2.0000      -0.449310       -12.2263
  33   2.0000      -0.438955       -11.9446
  34   2.0000      -0.423887       -11.5345
  35   2.0000      -0.417239       -11.3537
  36   2.0000      -0.408913       -11.1271
  37   2.0000      -0.390602       -10.6288
  38   2.0000      -0.384487       -10.4624
  39   2.0000      -0.366213        -9.9652
  40   2.0000      -0.363228        -9.8839
  41   2.0000      -0.358382        -9.7521
  42   2.0000      -0.352522        -9.5926
  43   2.0000      -0.329548        -8.9674
  44   2.0000      -0.320186        -8.7127
  45   2.0000      -0.313480        -8.5302
  46   2.0000      -0.302695        -8.2367
  47   2.0000      -0.269753        -7.3404
  48   2.0000      -0.267531        -7.2799
  49   2.0000      -0.255486        -6.9521
  50   2.0000      -0.246437        -6.7059
  51   0.0000       0.065283         1.7764
  52   0.0000       0.067654         1.8410
  53   0.0000       0.090474         2.4619
  54   0.0000       0.097124         2.6429
  55   0.0000       0.102464         2.7882

MULLIKEN ATOMIC CHARGES
-----------------------
   0 C :    0.304022
   1 C :   -0.274044
   2 C :   -0.317820
   3 C :   -0.011692
   4 O :   -0.507736
   5 H :    0.167659
   6 H :    0.156598
   7 H :    0.152173
   8 H :    0.147075
   9 H :    0.152026
  10 H :    0.144438
  11 H :    0.150042
  12 C :   -0.009282
  13 H :    0.139161
  14 H :    0.145971
  15 O :   -0.530677
  16 C :    0.058485
  17 C :    0.096434
  18 C :   -0.302719
  19 C :   -0.029499
  20 O :   -0.531755
  21 H :    0.162967
  22 O :   -0.604835
  23 H :    0.178343
  24 H :    0.162328
  25 H :    0.151298
  26 H :    0.143758
  27 H :    0.145989
  28 H :    0.361290
Sum of atomic charges:    0.0000000

LOEWDIN ATOMIC CHARGES
----------------------
   0 C :    0.175803
   1 C :   -0.228299
   2 C :   -0.224016
   3 C :   -0.033583
   4 O :   -0.322095
   5 H :    0.114066
   6 H :    0.122453
   7 H :    0.120591
   8 H :    0.116317
   9 H :    0.109780
  10 H :    0.102397
  11 H :    0.105747
  12 C :   -0.042604
  13 H :    0.098938
  14 H :    0.101910
  15 O :   -0.323514
  16 C :    0.018976
  17 C :    0.040057
  18 C :   -0.241624
  19 C :   -0.037836
  20 O :   -0.333764
  21 H :    0.117177
  22 O :   -0.415448
  23 H :    0.129438
  24 H :    0.126923
  25 H :    0.116405
  26 H :    0.102801
  27 H :    0.102485
  28 H :    0.280520

  Mayer bond orders larger than 0.100000
B(  0-C ,  1-C ) :   0.9176 B(  0-C ,  4-O ) :   0.9028 B(  0-C ,  5-H ) :   0.9363
B(  0-C , 15-O ) :   0.8898 B(  1-C ,  2-C ) :   0.9555 B(  1-C ,  6-H ) :   0.9345
B(  1-C ,  7-H ) :   0.9368 B(  2-C ,  3-C ) :   0.9474 B(  2-C ,  8-H ) :   0.9446
B(  2-C ,  9-H ) :   0.9374 B(  3-C ,  4-O ) :   0.8438 B(  3-C , 10-H ) :   0.9338
B(  3-C , 11-H ) :   0.9388 B( 12-C , 13-H ) :   0.9214 B( 12-C , 14-H ) :   0.9022
B( 12-C , 15-O ) :   0.8194 B( 12-C , 16-C ) :   0.9041 B( 16-C , 17-C ) :   0.9144
B( 16-C , 20-O ) :   0.8457 B( 16-C , 21-H ) :   0.9259 B( 17-C , 18-C ) :   0.9123
B( 17-C , 22-O ) :   0.8861 B( 17-C , 23-H ) :   0.9236 B( 18-C , 19-C ) :   0.9403
B( 18-C , 24-H ) :   0.9379 B( 18-C , 25-H ) :   0.9339 B( 19-C , 20-O ) :   0.8415
B( 19-C , 26-H ) :   0.9365 B( 19-C , 27-H ) :   0.9385 B( 22-O , 28-H ) :   0.7968

FINAL SINGLE POINT ENERGY      -652.859899155198

DIPOLE MOMENT
-------------
                                X             Y             Z
Electronic contribution:     -3.60405      -2.06601      -2.31810
Nuclear contribution   :      4.47479       2.85368       2.87199
                        -----------------------------------------
Total Dipole Moment    :      0.87074       0.78768       0.55389
                        -----------------------------------------
Magnitude (a.u.)       :      1.29824
Magnitude (Debye)      :      3.29986

Rotational constants in cm-1:     0.056029     0.012755     0.012209
Rotational constants in MHz :  1679.710421   382.378648   366.005015

                             ****ORCA TERMINATED NORMALLY****
TOTAL RUN TIME: 0 days 0 hours 23 minutes 44 seconds 721 msec
