                         Program Version 4.2.0 -  RELEASE  -
|  1> # Test redundant internal optimization
|  2> #
|  3> ! RKS B3LYP  Opt TightSCF SmallPrint
|  4>
|  5> %basis
|  6>         Basis "6-31G"
|  7> end
|  8>
|  9> %geom
| 10> Constraints
| 11> { D 4  0  15  12  345.0   C } # D for Dihedral angle
| 12> { D 0  15  12  16  315.0   C } # D for Dihedral angle
| 13> { D 0  4  3  2   C } # D for Dihedral angle
| 14> { D 4  3  2  1   C } # D for Dihedral angle
| 15> { D 3  2  1  0   C } # D for Dihedral angle
| 16> { D 2  1  0  4   C } # D for Dihedral angle
| 17> { D 1  0  4  3   C } # D for Dihedral angle
| 18> { D 16  20  19  18   C } # D for Dihedral angle
| 19> { D 20  19  18  17   C } # D for Dihedral angle
| 20> { D 19  18  17  16   C } # D for Dihedral angle
| 21> { D 18  17  16  20   C } # D for Dihedral angle
| 22> { D 17  16  20  19   C } # D for Dihedral angle
| 23> { D 15  12  16  20   C } # D for Dihedral angle
| 24> end
| 25> end
| 26>
| 27>
| 28> #%pal
| 29> #nprocs 8
| 30> #end
| 31>
| 32> * xyz 0 1
| 33> C  -21.048   26.222   46.251
| 34> C  -20.361   27.558   45.944
| 35> C  -20.329   28.222   47.341
| 36> C  -20.110   27.022   48.296
| 37> O  -20.473   25.807   47.535
| 38> H  -20.833   25.428   45.533
| 39> H  -19.344   27.382   45.576
| 40> H  -20.898   28.157   45.201
| 41> H  -19.543   28.978   47.434
| 42> H  -21.289   28.710   47.548
| 43> H  -20.733   27.082   49.195
| 44> H  -19.064   26.913   48.597
| 45> C  -23.221   25.764   47.645
| 46> H  -22.998   26.398   48.513
| 47> H  -24.311   25.700   47.538
| 48> O  -22.586   26.394   46.375
| 49> C  -22.689   24.333   47.936
| 50> C  -23.419   23.699   49.125
| 51> C  -24.745   23.241   48.471
| 52> C  -24.306   22.817   47.047
| 53> O  -22.985   23.439   46.812
| 54> H  -21.603   24.369   48.039
| 55> H  -22.854   22.838   49.498
| 56> O  -23.639   24.688   50.303
| 57> H  -25.229   22.426   49.019
| 58> H  -25.451   24.079   48.424
| 59> H  -25.005   23.157   46.275
| 60> H  -24.174   21.735   46.956
| 61> H  -24.204   25.558   49.954
| 62> *
| 63>
| 64>                          ****END OF INPUT****
 Total Charge           Charge          ....    0
 Multiplicity           Mult            ....    1
 Number of Electrons    NEL             ....  102
FINAL SINGLE POINT ENERGY      -652.822477330645
FINAL SINGLE POINT ENERGY      -652.846314500144
FINAL SINGLE POINT ENERGY      -652.851482686791
FINAL SINGLE POINT ENERGY      -652.853874163725
FINAL SINGLE POINT ENERGY      -652.854146960748
FINAL SINGLE POINT ENERGY      -652.854246752200
FINAL SINGLE POINT ENERGY      -652.854265603005
FINAL SINGLE POINT ENERGY      -652.854272911970
                    ***********************HURRAY********************

CARTESIAN COORDINATES (ANGSTROEM)
---------------------------------
  C    -21.004303   26.237605   46.279747
  C    -20.465234   27.631717   45.954643
  C    -20.317889   28.249389   47.364569
  C    -19.895442   27.045740   48.236524
  O    -20.261381   25.830897   47.453234
  H    -20.812473   25.470295   45.526532
  H    -19.492353   27.537261   45.458438
  H    -21.145283   28.189520   45.307790
  H    -19.583091   29.059770   47.395577
  H    -21.281669   28.649737   47.694563
  H    -20.406384   27.007186   49.202482
  H    -18.814905   26.995623   48.399020
  C    -23.126775   25.739414   47.603192
  H    -22.985507   26.381185   48.486333
  H    -24.180368   25.779298   47.308724
  O    -22.444649   26.328216   46.461153
  C    -22.716120   24.312380   47.992219
  C    -23.547491   23.750960   49.160277
  C    -24.841629   23.270067   48.431480
  C    -24.296400   22.766668   47.075376
  O    -22.947677   23.360237   46.906561
  H    -21.646533   24.288101   48.193050
  H    -23.020140   22.901803   49.600192
  O    -23.769780   24.656478   50.270125
  H    -25.369426   22.495003   48.993750
  H    -25.525613   24.119204   48.298836
  H    -24.925969   23.059778   46.228828
  H    -24.171803   21.679267   47.060009
  H    -24.447714   25.323201   50.037776

 Multiplicity           Mult            ....    1
 Number of Electrons    NEL             ....  102
 Basis Dimension        Dim             ....  149

ORBITAL ENERGIES
----------------

  NO   OCC          E(Eh)            E(eV)
   0   2.0000     -19.146809      -521.0111
   1   2.0000     -19.146693      -521.0080
   2   2.0000     -19.132244      -520.6148
   3   2.0000     -19.131372      -520.5911
   4   2.0000     -10.274076      -279.5718
   5   2.0000     -10.240821      -278.6669
   6   2.0000     -10.228740      -278.3382
   7   2.0000     -10.227492      -278.3042
   8   2.0000     -10.226400      -278.2745
   9   2.0000     -10.218020      -278.0464
  10   2.0000     -10.192522      -277.3526
  11   2.0000     -10.187427      -277.2140
  12   2.0000     -10.182299      -277.0744
  13   2.0000      -1.049659       -28.5627
  14   2.0000      -1.029070       -28.0024
  15   2.0000      -1.010134       -27.4872
  16   2.0000      -0.986875       -26.8542
  17   2.0000      -0.788520       -21.4567
  18   2.0000      -0.777722       -21.1629
  19   2.0000      -0.761161       -20.7122
  20   2.0000      -0.731531       -19.9060
  21   2.0000      -0.675789       -18.3892
  22   2.0000      -0.607575       -16.5330
  23   2.0000      -0.599945       -16.3253
  24   2.0000      -0.597860       -16.2686
  25   2.0000      -0.560640       -15.2558
  26   2.0000      -0.520594       -14.1661
  27   2.0000      -0.509593       -13.8667
  28   2.0000      -0.498333       -13.5603
  29   2.0000      -0.487375       -13.2622
  30   2.0000      -0.464153       -12.6302
  31   2.0000      -0.455782       -12.4025
  32   2.0000      -0.438167       -11.9231
  33   2.0000      -0.427845       -11.6423
  34   2.0000      -0.424097       -11.5403
  35   2.0000      -0.412233       -11.2174
  36   2.0000      -0.405614       -11.0373
  37   2.0000      -0.397057       -10.8045
  38   2.0000      -0.377784       -10.2800
  39   2.0000      -0.368106       -10.0167
  40   2.0000      -0.357604        -9.7309
  41   2.0000      -0.356240        -9.6938
  42   2.0000      -0.346763        -9.4359
  43   2.0000      -0.329344        -8.9619
  44   2.0000      -0.320936        -8.7331
  45   2.0000      -0.311369        -8.4728
  46   2.0000      -0.300940        -8.1890
  47   2.0000      -0.268152        -7.2968
  48   2.0000      -0.259763        -7.0685
  49   2.0000      -0.249529        -6.7900
  50   2.0000      -0.228273        -6.2116
  51   0.0000       0.053456         1.4546
  52   0.0000       0.075166         2.0454
  53   0.0000       0.087812         2.3895
  54   0.0000       0.095282         2.5928
  55   0.0000       0.108931         2.9642

MULLIKEN ATOMIC CHARGES
-----------------------
   0 C :    0.307332
   1 C :   -0.259114
   2 C :   -0.305524
   3 C :   -0.017457
   4 O :   -0.516366
   5 H :    0.166653
   6 H :    0.144118
   7 H :    0.161366
   8 H :    0.145417
   9 H :    0.154979
  10 H :    0.149737
  11 H :    0.150630
  12 C :    0.001882
  13 H :    0.120915
  14 H :    0.140337
  15 O :   -0.541597
  16 C :    0.053255
  17 C :    0.084317
  18 C :   -0.329119
  19 C :   -0.011116
  20 O :   -0.513023
  21 H :    0.206437
  22 H :    0.167488
  23 O :   -0.600437
  24 H :    0.156372
  25 H :    0.133721
  26 H :    0.144137
  27 H :    0.150196
  28 H :    0.354462
Sum of atomic charges:   -0.0000000

LOEWDIN ATOMIC CHARGES
----------------------
   0 C :    0.184333
   1 C :   -0.216799
   2 C :   -0.218259
   3 C :   -0.033017
   4 O :   -0.319910
   5 H :    0.109163
   6 H :    0.113323
   7 H :    0.126369
   8 H :    0.116154
   9 H :    0.114980
  10 H :    0.104893
  11 H :    0.106652
  12 C :   -0.043226
  13 H :    0.090570
  14 H :    0.106544
  15 O :   -0.334664
  16 C :   -0.003388
  17 C :    0.036287
  18 C :   -0.243904
  19 C :   -0.031303
  20 O :   -0.320803
  21 H :    0.135531
  22 H :    0.119121
  23 O :   -0.408688
  24 H :    0.121576
  25 H :    0.103400
  26 H :    0.102702
  27 H :    0.105754
  28 H :    0.276609

  Mayer bond orders larger than 0.100000
B(  0-C ,  1-C ) :   0.9366 B(  0-C ,  4-O ) :   0.8898 B(  0-C ,  5-H ) :   0.9247
B(  0-C , 15-O ) :   0.8440 B(  1-C ,  2-C ) :   0.9529 B(  1-C ,  6-H ) :   0.9367
B(  1-C ,  7-H ) :   0.9362 B(  2-C ,  3-C ) :   0.9546 B(  2-C ,  8-H ) :   0.9448
B(  2-C ,  9-H ) :   0.9458 B(  3-C ,  4-O ) :   0.8286 B(  3-C , 10-H ) :   0.9328
B(  3-C , 11-H ) :   0.9399 B( 12-C , 13-H ) :   0.9041 B( 12-C , 14-H ) :   0.9388
B( 12-C , 15-O ) :   0.8509 B( 12-C , 16-C ) :   0.8916 B( 16-C , 17-C ) :   0.8675
B( 16-C , 20-O ) :   0.8520 B( 16-C , 21-H ) :   0.8996 B( 17-C , 18-C ) :   0.9225
B( 17-C , 22-H ) :   0.9335 B( 17-C , 23-O ) :   0.8940 B( 18-C , 19-C ) :   0.9403
B( 18-C , 24-H ) :   0.9419 B( 18-C , 25-H ) :   0.9404 B( 19-C , 20-O ) :   0.8520
B( 19-C , 26-H ) :   0.9313 B( 19-C , 27-H ) :   0.9377 B( 23-O , 28-H ) :   0.7991

FINAL SINGLE POINT ENERGY      -652.854273638034

DIPOLE MOMENT
-------------
                                X             Y             Z
Electronic contribution:      0.53551      -2.89982      -0.58751
Nuclear contribution   :     -1.05239       3.58953       0.78039
                        -----------------------------------------
Total Dipole Moment    :     -0.51688       0.68971       0.19289
                        -----------------------------------------
Magnitude (a.u.)       :      0.88321
Magnitude (Debye)      :      2.24495

Rotational constants in cm-1:     0.053137     0.015016     0.013408
Rotational constants in MHz :  1593.003946   450.169137   401.971312

                             ****ORCA TERMINATED NORMALLY****
TOTAL RUN TIME: 0 days 0 hours 19 minutes 53 seconds 947 msec
