                         Program Version 4.2.0 -  RELEASE  -
|  1> # Test redundant internal optimization
|  2> #
|  3> ! RKS B3LYP  Opt TightSCF SmallPrint
|  4>
|  5> %basis
|  6>         Basis "6-31G"
|  7> end
|  8>
|  9> %geom
| 10> Constraints
| 11> { D 4  0  15  12  135.0   C } # D for Dihedral angle
| 12> { D 0  15  12  16  165.0   C } # D for Dihedral angle
| 13> { D 0  4  3  2   C } # D for Dihedral angle
| 14> { D 4  3  2  1   C } # D for Dihedral angle
| 15> { D 3  2  1  0   C } # D for Dihedral angle
| 16> { D 2  1  0  4   C } # D for Dihedral angle
| 17> { D 1  0  4  3   C } # D for Dihedral angle
| 18> { D 16  20  19  18   C } # D for Dihedral angle
| 19> { D 20  19  18  17   C } # D for Dihedral angle
| 20> { D 19  18  17  16   C } # D for Dihedral angle
| 21> { D 18  17  16  20   C } # D for Dihedral angle
| 22> { D 17  16  20  19   C } # D for Dihedral angle
| 23> { D 15  12  16  20   C } # D for Dihedral angle
| 24> end
| 25> end
| 26>
| 27>
| 28> #%pal
| 29> #nprocs 8
| 30> #end
| 31>
| 32> * xyz 0 1
| 33> C  -21.048   26.222   46.251
| 34> C  -20.361   27.558   45.944
| 35> C  -20.329   28.222   47.341
| 36> C  -20.110   27.022   48.296
| 37> O  -20.473   25.807   47.535
| 38> H  -20.833   25.428   45.533
| 39> H  -19.344   27.382   45.576
| 40> H  -20.898   28.157   45.201
| 41> H  -19.543   28.978   47.434
| 42> H  -21.289   28.710   47.548
| 43> H  -20.733   27.082   49.195
| 44> H  -19.064   26.913   48.597
| 45> C  -23.162   27.680   45.721
| 46> H  -22.917   28.546   46.348
| 47> H  -22.718   27.838   44.729
| 48> O  -22.586   26.394   46.375
| 49> C  -24.705   27.625   45.544
| 50> C  -25.418   27.575   46.900
| 51> C  -25.366   29.059   47.337
| 52> C  -25.516   29.824   45.998
| 53> O  -25.194   28.861   44.924
| 54> H  -24.959   26.806   44.869
| 55> H  -26.455   27.248   46.767
| 56> O  -24.731   26.623   47.917
| 57> H  -26.149   29.317   48.055
| 58> H  -24.398   29.280   47.802
| 59> H  -24.838   30.681   45.927
| 60> H  -26.539   30.168   45.826
| 61> H  -23.690   26.933   48.066
| 62> *
| 63>
| 64>                          ****END OF INPUT****
 Total Charge           Charge          ....    0
 Multiplicity           Mult            ....    1
 Number of Electrons    NEL             ....  102
FINAL SINGLE POINT ENERGY      -652.820935523022
FINAL SINGLE POINT ENERGY      -652.846116051772
FINAL SINGLE POINT ENERGY      -652.853698545067
FINAL SINGLE POINT ENERGY      -652.857028940166
FINAL SINGLE POINT ENERGY      -652.858825897946
FINAL SINGLE POINT ENERGY      -652.859985340951
FINAL SINGLE POINT ENERGY      -652.860598196815
FINAL SINGLE POINT ENERGY      -652.860758933694
FINAL SINGLE POINT ENERGY      -652.860787206847
FINAL SINGLE POINT ENERGY      -652.860793507230
                    ***********************HURRAY********************

CARTESIAN COORDINATES (ANGSTROEM)
---------------------------------
  C    -21.150624   26.312789   46.275120
  C    -20.208195   27.468535   45.935987
  C    -20.127277   28.227488   47.286982
  C    -20.195603   27.083787   48.322333
  O    -20.745347   25.911605   47.590840
  H    -21.060298   25.432294   45.637153
  H    -19.232935   27.046695   45.670799
  H    -20.540502   28.095573   45.105394
  H    -19.208803   28.814768   47.376761
  H    -20.975219   28.910829   47.399341
  H    -20.848986   27.304423   49.169789
  H    -19.210782   26.785174   48.690943
  C    -23.118299   27.857441   45.673723
  H    -22.858987   28.756469   46.245542
  H    -22.738553   27.970790   44.652212
  O    -22.574686   26.658877   46.313295
  C    -24.637118   27.659494   45.610485
  C    -25.340770   27.556486   46.974469
  C    -25.434969   29.052944   47.394823
  C    -25.662079   29.779366   46.053520
  O    -25.244546   28.828253   44.978826
  H    -24.854020   26.800349   44.970271
  H    -26.351884   27.164691   46.809655
  O    -24.704474   26.730020   47.965088
  H    -26.241552   29.222179   48.112991
  H    -24.493403   29.345392   47.872138
  H    -25.078140   30.699211   45.952613
  H    -26.715574   30.009256   45.870860
  H    -23.812374   26.453823   47.644046

 Multiplicity           Mult            ....    1
 Number of Electrons    NEL             ....  102
 Basis Dimension        Dim             ....  149

ORBITAL ENERGIES
----------------

  NO   OCC          E(Eh)            E(eV)
   0   2.0000     -19.161932      -521.4227
   1   2.0000     -19.152331      -521.1614
   2   2.0000     -19.140691      -520.8447
   3   2.0000     -19.107283      -519.9356
   4   2.0000     -10.294675      -280.1324
   5   2.0000     -10.242572      -278.7146
   6   2.0000     -10.236278      -278.5433
   7   2.0000     -10.234212      -278.4871
   8   2.0000     -10.227986      -278.3177
   9   2.0000     -10.226525      -278.2779
  10   2.0000     -10.204342      -277.6743
  11   2.0000     -10.202584      -277.6264
  12   2.0000     -10.178411      -276.9687
  13   2.0000      -1.066018       -29.0078
  14   2.0000      -1.025761       -27.9124
  15   2.0000      -1.007910       -27.4266
  16   2.0000      -0.987531       -26.8721
  17   2.0000      -0.801246       -21.8030
  18   2.0000      -0.777458       -21.1557
  19   2.0000      -0.767735       -20.8911
  20   2.0000      -0.739470       -20.1220
  21   2.0000      -0.683944       -18.6110
  22   2.0000      -0.615136       -16.7387
  23   2.0000      -0.600111       -16.3299
  24   2.0000      -0.596028       -16.2188
  25   2.0000      -0.577459       -15.7134
  26   2.0000      -0.526216       -14.3191
  27   2.0000      -0.524134       -14.2624
  28   2.0000      -0.511422       -13.9165
  29   2.0000      -0.487640       -13.2693
  30   2.0000      -0.478110       -13.0100
  31   2.0000      -0.461696       -12.5634
  32   2.0000      -0.445190       -12.1142
  33   2.0000      -0.435861       -11.8604
  34   2.0000      -0.430403       -11.7119
  35   2.0000      -0.422108       -11.4861
  36   2.0000      -0.411202       -11.1894
  37   2.0000      -0.392061       -10.6685
  38   2.0000      -0.385673       -10.4947
  39   2.0000      -0.373530       -10.1643
  40   2.0000      -0.368294       -10.0218
  41   2.0000      -0.363036        -9.8787
  42   2.0000      -0.349582        -9.5126
  43   2.0000      -0.340743        -9.2721
  44   2.0000      -0.323085        -8.7916
  45   2.0000      -0.312895        -8.5143
  46   2.0000      -0.289423        -7.8756
  47   2.0000      -0.275277        -7.4907
  48   2.0000      -0.267310        -7.2739
  49   2.0000      -0.247935        -6.7467
  50   2.0000      -0.238958        -6.5024
  51   0.0000       0.054680         1.4879
  52   0.0000       0.066768         1.8169
  53   0.0000       0.088495         2.4081
  54   0.0000       0.095510         2.5990
  55   0.0000       0.102515         2.7896

MULLIKEN ATOMIC CHARGES
-----------------------
   0 C :    0.327388
   1 C :   -0.296816
   2 C :   -0.310501
   3 C :   -0.007973
   4 O :   -0.495681
   5 H :    0.164768
   6 H :    0.160225
   7 H :    0.151984
   8 H :    0.151152
   9 H :    0.156815
  10 H :    0.160856
  11 H :    0.150937
  12 C :   -0.008241
  13 H :    0.135102
  14 H :    0.153011
  15 O :   -0.570999
  16 C :    0.050845
  17 C :    0.123656
  18 C :   -0.299754
  19 C :   -0.018799
  20 O :   -0.522998
  21 H :    0.162024
  22 H :    0.144727
  23 O :   -0.643890
  24 H :    0.153883
  25 H :    0.138541
  26 H :    0.138809
  27 H :    0.148491
  28 H :    0.402437
Sum of atomic charges:   -0.0000000

LOEWDIN ATOMIC CHARGES
----------------------
   0 C :    0.186409
   1 C :   -0.230475
   2 C :   -0.218750
   3 C :   -0.028450
   4 O :   -0.305644
   5 H :    0.110412
   6 H :    0.124870
   7 H :    0.118762
   8 H :    0.119312
   9 H :    0.112314
  10 H :    0.112211
  11 H :    0.107612
  12 C :   -0.042326
  13 H :    0.093749
  14 H :    0.106841
  15 O :   -0.346298
  16 C :    0.019539
  17 C :    0.042701
  18 C :   -0.235939
  19 C :   -0.032300
  20 O :   -0.325271
  21 H :    0.116742
  22 H :    0.103734
  23 O :   -0.437501
  24 H :    0.122037
  25 H :    0.107865
  26 H :    0.100164
  27 H :    0.105988
  28 H :    0.291693

  Mayer bond orders larger than 0.100000
B(  0-C ,  1-C ) :   0.9382 B(  0-C ,  4-O ) :   0.9400 B(  0-C ,  5-H ) :   0.9278
B(  0-C , 15-O ) :   0.8005 B(  1-C ,  2-C ) :   0.9483 B(  1-C ,  6-H ) :   0.9329
B(  1-C ,  7-H ) :   0.9270 B(  2-C ,  3-C ) :   0.9506 B(  2-C ,  8-H ) :   0.9448
B(  2-C ,  9-H ) :   0.9405 B(  3-C ,  4-O ) :   0.8317 B(  3-C , 10-H ) :   0.9334
B(  3-C , 11-H ) :   0.9392 B( 12-C , 13-H ) :   0.9120 B( 12-C , 14-H ) :   0.9205
B( 12-C , 15-O ) :   0.7926 B( 12-C , 16-C ) :   0.8996 B( 16-C , 17-C ) :   0.9158
B( 16-C , 20-O ) :   0.8560 B( 16-C , 21-H ) :   0.9283 B( 17-C , 18-C ) :   0.9008
B( 17-C , 22-H ) :   0.9277 B( 17-C , 23-O ) :   0.9417 B( 18-C , 19-C ) :   0.9387
B( 18-C , 24-H ) :   0.9447 B( 18-C , 25-H ) :   0.9442 B( 19-C , 20-O ) :   0.8324
B( 19-C , 26-H ) :   0.9348 B( 19-C , 27-H ) :   0.9388 B( 23-O , 28-H ) :   0.7151

FINAL SINGLE POINT ENERGY      -652.860794846031

DIPOLE MOMENT
-------------
                                X             Y             Z
Electronic contribution:     -2.45796      -5.34486      -1.08450
Nuclear contribution   :      3.76442       6.56108       0.66538
                        -----------------------------------------
Total Dipole Moment    :      1.30646       1.21623      -0.41912
                        -----------------------------------------
Magnitude (a.u.)       :      1.83350
Magnitude (Debye)      :      4.66038

Rotational constants in cm-1:     0.050358     0.014763     0.013910
Rotational constants in MHz :  1509.695387   442.592114   417.005899

                             ****ORCA TERMINATED NORMALLY****
TOTAL RUN TIME: 0 days 1 hours 3 minutes 21 seconds 445 msec
