                         Program Version 4.2.0 -  RELEASE  -
|  1> # Test redundant internal optimization
|  2> #
|  3> ! RKS B3LYP  Opt TightSCF SmallPrint
|  4>
|  5> %basis
|  6>         Basis "6-31G"
|  7> end
|  8>
|  9> %geom
| 10> Constraints
| 11> { D 4  0  15  12  0.0   C } # D for Dihedral angle
| 12> { D 0  15  12  16  270.0   C } # D for Dihedral angle
| 13> { D 0  4  3  2   C } # D for Dihedral angle
| 14> { D 4  3  2  1   C } # D for Dihedral angle
| 15> { D 3  2  1  0   C } # D for Dihedral angle
| 16> { D 2  1  0  4   C } # D for Dihedral angle
| 17> { D 1  0  4  3   C } # D for Dihedral angle
| 18> { D 16  20  19  18   C } # D for Dihedral angle
| 19> { D 20  19  18  17   C } # D for Dihedral angle
| 20> { D 19  18  17  16   C } # D for Dihedral angle
| 21> { D 18  17  16  20   C } # D for Dihedral angle
| 22> { D 17  16  20  19   C } # D for Dihedral angle
| 23> { D 15  12  16  20   C } # D for Dihedral angle
| 24> end
| 25> end
| 26>
| 27>
| 28> #%pal
| 29> #nprocs 8
| 30> #end
| 31>
| 32> * xyz 0 1
| 33> C  -21.048   26.222   46.251
| 34> C  -20.361   27.558   45.944
| 35> C  -20.329   28.222   47.341
| 36> C  -20.110   27.022   48.296
| 37> O  -20.473   25.807   47.535
| 38> H  -20.833   25.428   45.533
| 39> H  -19.344   27.382   45.576
| 40> H  -20.898   28.157   45.201
| 41> H  -19.543   28.978   47.434
| 42> H  -21.289   28.710   47.548
| 43> H  -20.733   27.082   49.195
| 44> H  -19.064   26.913   48.597
| 45> C  -23.172   26.101   47.783
| 46> H  -22.423   26.348   48.546
| 47> H  -24.062   26.717   47.965
| 48> O  -22.586   26.394   46.375
| 49> C  -23.581   24.613   47.966
| 50> C  -24.260   24.384   49.320
| 51> C  -25.691   24.905   49.046
| 52> C  -25.934   24.505   47.570
| 53> O  -24.603   24.238   46.982
| 54> H  -22.712   23.978   47.782
| 55> O  -24.283   22.868   49.656
| 56> H  -23.766   24.913   50.143
| 57> H  -26.437   24.475   49.723
| 58> H  -25.724   25.995   49.161
| 59> H  -26.427   25.297   46.996
| 60> H  -26.518   23.584   47.477
| 61> H  -24.774   22.319   48.845
| 62> *
| 63>
| 64>                          ****END OF INPUT****
 Total Charge           Charge          ....    0
 Multiplicity           Mult            ....    1
 Number of Electrons    NEL             ....  102
FINAL SINGLE POINT ENERGY      -652.829950030885
FINAL SINGLE POINT ENERGY      -652.852690404265
FINAL SINGLE POINT ENERGY      -652.857277913782
FINAL SINGLE POINT ENERGY      -652.858149496480
FINAL SINGLE POINT ENERGY      -652.858283443731
FINAL SINGLE POINT ENERGY      -652.858305021959
                    ***********************HURRAY********************

CARTESIAN COORDINATES (ANGSTROEM)
---------------------------------
  C    -21.114277   26.206659   46.359527
  C    -20.459992   27.533817   45.971398
  C    -20.273024   28.209844   47.350537
  C    -19.957678   27.020719   48.285706
  O    -20.416651   25.802880   47.559123
  H    -20.970065   25.401507   45.635759
  H    -19.492929   27.333495   45.495984
  H    -21.083585   28.111860   45.286522
  H    -19.473581   28.957094   47.349690
  H    -21.201136   28.707872   47.650595
  H    -20.473267   27.075385   49.248993
  H    -18.886195   26.889925   48.461568
  C    -23.173985   26.130055   47.809094
  H    -22.502532   26.393851   48.632950
  H    -24.039577   26.799090   47.826381
  O    -22.554620   26.370389   46.518337
  C    -23.613563   24.672831   47.977032
  C    -24.325761   24.397859   49.308627
  C    -25.772397   24.867240   48.997843
  C    -25.950949   24.477013   47.508637
  O    -24.590355   24.271607   46.960296
  H    -22.743730   24.021920   47.852408
  O    -24.284208   22.982202   49.640600
  H    -23.880550   24.906967   50.165066
  H    -26.488419   24.373926   49.659252
  H    -25.860217   25.950610   49.139995
  H    -26.457927   25.251761   46.924926
  H    -26.496079   23.535684   47.385467
  H    -24.440752   22.460938   48.824687

 Multiplicity           Mult            ....    1
 Number of Electrons    NEL             ....  102
 Basis Dimension        Dim             ....  149

ORBITAL ENERGIES
----------------

  NO   OCC          E(Eh)            E(eV)
   0   2.0000     -19.152396      -521.1632
   1   2.0000     -19.135783      -520.7111
   2   2.0000     -19.135678      -520.7083
   3   2.0000     -19.134729      -520.6824
   4   2.0000     -10.277904      -279.6760
   5   2.0000     -10.239221      -278.6234
   6   2.0000     -10.234861      -278.5047
   7   2.0000     -10.229363      -278.3551
   8   2.0000     -10.226639      -278.2810
   9   2.0000     -10.226288      -278.2714
  10   2.0000     -10.192690      -277.3572
  11   2.0000     -10.187016      -277.2028
  12   2.0000     -10.185863      -277.1714
  13   2.0000      -1.055207       -28.7136
  14   2.0000      -1.031867       -28.0785
  15   2.0000      -1.002325       -27.2747
  16   2.0000      -0.990530       -26.9537
  17   2.0000      -0.792406       -21.5625
  18   2.0000      -0.780257       -21.2319
  19   2.0000      -0.764972       -20.8159
  20   2.0000      -0.734946       -19.9989
  21   2.0000      -0.672007       -18.2862
  22   2.0000      -0.605156       -16.4671
  23   2.0000      -0.602018       -16.3818
  24   2.0000      -0.598238       -16.2789
  25   2.0000      -0.570304       -15.5187
  26   2.0000      -0.521639       -14.1945
  27   2.0000      -0.512924       -13.9574
  28   2.0000      -0.499595       -13.5947
  29   2.0000      -0.490018       -13.3341
  30   2.0000      -0.472555       -12.8589
  31   2.0000      -0.460633       -12.5345
  32   2.0000      -0.448186       -12.1958
  33   2.0000      -0.438850       -11.9417
  34   2.0000      -0.420643       -11.4463
  35   2.0000      -0.414111       -11.2685
  36   2.0000      -0.396498       -10.7892
  37   2.0000      -0.389580       -10.6010
  38   2.0000      -0.375781       -10.2255
  39   2.0000      -0.368852       -10.0370
  40   2.0000      -0.362119        -9.8538
  41   2.0000      -0.356628        -9.7043
  42   2.0000      -0.351849        -9.5743
  43   2.0000      -0.332329        -9.0431
  44   2.0000      -0.327293        -8.9061
  45   2.0000      -0.310753        -8.4560
  46   2.0000      -0.298551        -8.1240
  47   2.0000      -0.266963        -7.2644
  48   2.0000      -0.265221        -7.2170
  49   2.0000      -0.259614        -7.0645
  50   2.0000      -0.230323        -6.2674
  51   0.0000       0.067456         1.8356
  52   0.0000       0.076930         2.0934
  53   0.0000       0.088073         2.3966
  54   0.0000       0.096800         2.6341
  55   0.0000       0.104967         2.8563

MULLIKEN ATOMIC CHARGES
-----------------------
   0 C :    0.296309
   1 C :   -0.254882
   2 C :   -0.306504
   3 C :   -0.022034
   4 O :   -0.514684
   5 H :    0.162579
   6 H :    0.144714
   7 H :    0.162221
   8 H :    0.148357
   9 H :    0.153727
  10 H :    0.143722
  11 H :    0.153466
  12 C :   -0.005419
  13 H :    0.133587
  14 H :    0.143287
  15 O :   -0.523133
  16 C :    0.062754
  17 C :    0.075536
  18 C :   -0.296698
  19 C :   -0.028239
  20 O :   -0.511161
  21 H :    0.175888
  22 O :   -0.601493
  23 H :    0.147166
  24 H :    0.162525
  25 H :    0.140225
  26 H :    0.148838
  27 H :    0.144101
  28 H :    0.365245
Sum of atomic charges:    0.0000000

LOEWDIN ATOMIC CHARGES
----------------------
   0 C :    0.181445
   1 C :   -0.219348
   2 C :   -0.220102
   3 C :   -0.034291
   4 O :   -0.321864
   5 H :    0.107334
   6 H :    0.113992
   7 H :    0.126647
   8 H :    0.117884
   9 H :    0.113939
  10 H :    0.099965
  11 H :    0.108147
  12 C :   -0.040562
  13 H :    0.100812
  14 H :    0.107844
  15 O :   -0.327734
  16 C :    0.006944
  17 C :    0.034654
  18 C :   -0.242073
  19 C :   -0.038719
  20 O :   -0.323138
  21 H :    0.122708
  22 O :   -0.414707
  23 H :    0.112761
  24 H :    0.126634
  25 H :    0.110701
  26 H :    0.105158
  27 H :    0.101578
  28 H :    0.283393

  Mayer bond orders larger than 0.100000
B(  0-C ,  1-C ) :   0.9311 B(  0-C ,  4-O ) :   0.9017 B(  0-C ,  5-H ) :   0.9281
B(  0-C , 15-O ) :   0.8488 B(  1-C ,  2-C ) :   0.9525 B(  1-C ,  6-H ) :   0.9355
B(  1-C ,  7-H ) :   0.9360 B(  2-C ,  3-C ) :   0.9524 B(  2-C ,  8-H ) :   0.9448
B(  2-C ,  9-H ) :   0.9455 B(  3-C ,  4-O ) :   0.8309 B(  3-C , 10-H ) :   0.9295
B(  3-C , 11-H ) :   0.9401 B( 12-C , 13-H ) :   0.9062 B( 12-C , 14-H ) :   0.9373
B( 12-C , 15-O ) :   0.8586 B( 12-C , 16-C ) :   0.8791 B( 16-C , 17-C ) :   0.8988
B( 16-C , 20-O ) :   0.8606 B( 16-C , 21-H ) :   0.9222 B( 17-C , 18-C ) :   0.9103
B( 17-C , 22-O ) :   0.8942 B( 17-C , 23-H ) :   0.9339 B( 18-C , 19-C ) :   0.9411
B( 18-C , 24-H ) :   0.9372 B( 18-C , 25-H ) :   0.9351 B( 19-C , 20-O ) :   0.8522
B( 19-C , 26-H ) :   0.9336 B( 19-C , 27-H ) :   0.9379 B( 22-O , 28-H ) :   0.7937

FINAL SINGLE POINT ENERGY      -652.858307546075

DIPOLE MOMENT
-------------
                                X             Y             Z
Electronic contribution:     -0.44395      -5.15674      -1.61709
Nuclear contribution   :      0.54612       6.40286       1.90260
                        -----------------------------------------
Total Dipole Moment    :      0.10217       1.24612       0.28552
                        -----------------------------------------
Magnitude (a.u.)       :      1.28248
Magnitude (Debye)      :      3.25982

Rotational constants in cm-1:     0.058711     0.013156     0.012204
Rotational constants in MHz :  1760.114925   394.393846   365.853181

                             ****ORCA TERMINATED NORMALLY****
TOTAL RUN TIME: 0 days 0 hours 19 minutes 57 seconds 362 msec
