                         Program Version 4.2.1 -  RELEASE  -
|  1> # Test redundant internal optimization
|  2> #
|  3> ! RKS B3LYP  Opt TightSCF SmallPrint
|  4>
|  5> %basis
|  6>         Basis "6-31G"
|  7> end
|  8>
|  9> %geom
| 10> Constraints
| 11> { D 4  0  19  14  210.0   C } # D for Dihedral angle
| 12> { D 0  19  14  12  30.0   C } # D for Dihedral angle
| 13> { D 0  4  3  2   C } # D for Dihedral angle
| 14> { D 4  3  2  1   C } # D for Dihedral angle
| 15> { D 3  2  1  0   C } # D for Dihedral angle
| 16> { D 2  1  0  4   C } # D for Dihedral angle
| 17> { D 1  0  4  3   C } # D for Dihedral angle
| 18> { D 14  15  16  17   C } # D for Dihedral angle
| 19> { D 15  16  17  12   C } # D for Dihedral angle
| 20> { D 16  17  12  14   C } # D for Dihedral angle
| 21> { D 17  12  14  15   C } # D for Dihedral angle
| 22> { D 12  14  15  16   C } # D for Dihedral angle
| 23> end
| 24> end
| 25>
| 26>
| 27> #%pal
| 28> #nprocs 8
| 29> #end
| 30>
| 31> * xyz 0 1
| 32> C  -21.048   26.222   46.251
| 33> C  -20.361   27.558   45.944
| 34> C  -20.329   28.222   47.341
| 35> C  -20.110   27.022   48.296
| 36> O  -20.473   25.807   47.535
| 37> H  -20.833   25.428   45.533
| 38> H  -19.344   27.382   45.576
| 39> H  -20.898   28.157   45.201
| 40> H  -19.543   28.978   47.434
| 41> H  -21.289   28.710   47.548
| 42> H  -20.733   27.082   49.195
| 43> H  -19.064   26.913   48.597
| 44> C  -22.454   25.069   44.316
| 45> H  -22.816   25.057   43.276
| 46> C  -23.197   26.114   45.155
| 47> C  -24.525   25.384   45.463
| 48> C  -24.087   23.905   45.614
| 49> O  -22.756   23.794   44.977
| 50> H  -21.368   25.178   44.315
| 51> O  -22.472   26.381   46.366
| 52> H  -23.347   27.062   44.626
| 53> H  -25.022   25.766   46.360
| 54> H  -25.221   25.495   44.622
| 55> H  -24.777   23.210   45.126
| 56> H  -23.968   23.610   46.661
| 57> *
| 58>
| 59>                          ****END OF INPUT****
 Total Charge           Charge          ....    0
 Multiplicity           Mult            ....    1
 Number of Electrons    NEL             ....   86
FINAL SINGLE POINT ENERGY      -538.407155500698
FINAL SINGLE POINT ENERGY      -538.425518817076
FINAL SINGLE POINT ENERGY      -538.427325703822
FINAL SINGLE POINT ENERGY      -538.427649092402
FINAL SINGLE POINT ENERGY      -538.427719199345
FINAL SINGLE POINT ENERGY      -538.427732639923
FINAL SINGLE POINT ENERGY      -538.427734464485
                    ***********************HURRAY********************

CARTESIAN COORDINATES (ANGSTROEM)
---------------------------------
  C    -20.900663   26.202793   46.237492
  C    -20.213097   27.545682   45.994913
  C    -20.380525   28.243127   47.366410
  C    -20.262041   27.071955   48.365112
  O    -20.497955   25.838872   47.570698
  H    -20.591423   25.383439   45.588792
  H    -19.153108   27.378868   45.768002
  H    -20.661613   28.108529   45.171184
  H    -19.628627   29.018863   47.539436
  H    -21.372455   28.700473   47.426611
  H    -21.000257   27.116889   49.170223
  H    -19.260357   26.980236   48.796130
  C    -22.622338   25.022447   44.091532
  H    -23.194088   25.068262   43.152656
  C    -23.161469   26.081981   45.050699
  C    -24.434037   25.398951   45.584965
  C    -24.040271   23.905599   45.651743
  O    -22.846626   23.753974   44.784582
  H    -21.560843   25.086251   43.850332
  O    -22.345018   26.351195   46.238302
  H    -23.365682   27.032209   44.540170
  H    -24.704111   25.813767   46.557631
  H    -25.266052   25.560076   44.888732
  H    -24.830961   23.242599   45.285104
  H    -23.741382   23.598965   46.656549

 Multiplicity           Mult            ....    1
 Number of Electrons    NEL             ....   86
 Basis Dimension        Dim             ....  127

ORBITAL ENERGIES
----------------

  NO   OCC          E(Eh)            E(eV)
   0   2.0000     -19.135475      -520.7027
   1   2.0000     -19.134256      -520.6696
   2   2.0000     -19.131991      -520.6079
   3   2.0000     -10.274380      -279.5801
   4   2.0000     -10.243206      -278.7318
   5   2.0000     -10.229138      -278.3490
   6   2.0000     -10.220571      -278.1159
   7   2.0000     -10.219089      -278.0755
   8   2.0000     -10.183509      -277.1074
   9   2.0000     -10.183253      -277.1004
  10   2.0000     -10.183083      -277.0958
  11   2.0000      -1.047909       -28.5150
  12   2.0000      -1.015660       -27.6375
  13   2.0000      -0.984463       -26.7886
  14   2.0000      -0.788565       -21.4579
  15   2.0000      -0.777103       -21.1460
  16   2.0000      -0.738427       -20.0936
  17   2.0000      -0.723749       -19.6942
  18   2.0000      -0.619065       -16.8456
  19   2.0000      -0.598329       -16.2814
  20   2.0000      -0.591707       -16.1012
  21   2.0000      -0.563635       -15.3373
  22   2.0000      -0.526901       -14.3377
  23   2.0000      -0.498833       -13.5739
  24   2.0000      -0.486598       -13.2410
  25   2.0000      -0.478234       -13.0134
  26   2.0000      -0.450782       -12.2664
  27   2.0000      -0.448632       -12.2079
  28   2.0000      -0.425875       -11.5886
  29   2.0000      -0.416336       -11.3291
  30   2.0000      -0.398263       -10.8373
  31   2.0000      -0.378719       -10.3055
  32   2.0000      -0.371993       -10.1224
  33   2.0000      -0.364905        -9.9296
  34   2.0000      -0.361962        -9.8495
  35   2.0000      -0.353868        -9.6292
  36   2.0000      -0.347284        -9.4501
  37   2.0000      -0.314240        -8.5509
  38   2.0000      -0.307377        -8.3642
  39   2.0000      -0.293720        -7.9925
  40   2.0000      -0.257021        -6.9939
  41   2.0000      -0.244554        -6.6546
  42   2.0000      -0.238738        -6.4964
  43   0.0000       0.077158         2.0996
  44   0.0000       0.097400         2.6504
  45   0.0000       0.105872         2.8809
  46   0.0000       0.110025         2.9939
  47   0.0000       0.110769         3.0142

MULLIKEN ATOMIC CHARGES
-----------------------
   0 C :    0.288442
   1 C :   -0.261507
   2 C :   -0.298053
   3 C :   -0.001531
   4 O :   -0.501156
   5 H :    0.159756
   6 H :    0.143063
   7 H :    0.138088
   8 H :    0.139801
   9 H :    0.159322
  10 H :    0.150827
  11 H :    0.140062
  12 C :   -0.028450
  13 H :    0.132328
  14 C :    0.088485
  15 C :   -0.282072
  16 C :   -0.004207
  17 O :   -0.521415
  18 H :    0.151261
  19 O :   -0.526019
  20 H :    0.128046
  21 H :    0.169078
  22 H :    0.133480
  23 H :    0.138083
  24 H :    0.164286
Sum of atomic charges:   -0.0000000

LOEWDIN ATOMIC CHARGES
----------------------
   0 C :    0.177828
   1 C :   -0.228705
   2 C :   -0.216664
   3 C :   -0.026744
   4 O :   -0.306414
   5 H :    0.106203
   6 H :    0.112630
   7 H :    0.112537
   8 H :    0.113078
   9 H :    0.117679
  10 H :    0.107286
  11 H :    0.101307
  12 C :   -0.051884
  13 H :    0.097476
  14 C :    0.042511
  15 C :   -0.222641
  16 C :   -0.027650
  17 O :   -0.332209
  18 H :    0.110373
  19 O :   -0.334483
  20 H :    0.095986
  21 H :    0.131323
  22 H :    0.107504
  23 H :    0.099679
  24 H :    0.113992

  Mayer bond orders larger than 0.100000
B(  0-C ,  1-C ) :   0.9298 B(  0-C ,  4-O ) :   0.9276 B(  0-C ,  5-H ) :   0.9116
B(  0-C , 19-O ) :   0.8320 B(  1-C ,  2-C ) :   0.9542 B(  1-C ,  6-H ) :   0.9350
B(  1-C ,  7-H ) :   0.9396 B(  2-C ,  3-C ) :   0.9547 B(  2-C ,  8-H ) :   0.9454
B(  2-C ,  9-H ) :   0.9444 B(  3-C ,  4-O ) :   0.8406 B(  3-C , 10-H ) :   0.9348
B(  3-C , 11-H ) :   0.9397 B( 12-C , 13-H ) :   0.9101 B( 12-C , 14-C ) :   0.9192
B( 12-C , 17-O ) :   0.8708 B( 12-C , 18-H ) :   0.9264 B( 14-C , 15-C ) :   0.9480
B( 14-C , 19-O ) :   0.8420 B( 14-C , 20-H ) :   0.9222 B( 15-C , 16-C ) :   0.9469
B( 15-C , 21-H ) :   0.9353 B( 15-C , 22-H ) :   0.9403 B( 16-C , 17-O ) :   0.8445
B( 16-C , 23-H ) :   0.9336 B( 16-C , 24-H ) :   0.9352

FINAL SINGLE POINT ENERGY      -538.427734870565

DIPOLE MOMENT
-------------
                                X             Y             Z
Electronic contribution:      0.42495      -3.48758       0.27753
Nuclear contribution   :     -0.67737       4.72961      -0.79096
                        -----------------------------------------
Total Dipole Moment    :     -0.25242       1.24203      -0.51344
                        -----------------------------------------
Magnitude (a.u.)       :      1.36747
Magnitude (Debye)      :      3.47583

Rotational constants in cm-1:     0.081564     0.020893     0.020408
Rotational constants in MHz :  2445.215574   626.364100   611.824854

                             ****ORCA TERMINATED NORMALLY****
TOTAL RUN TIME: 0 days 0 hours 9 minutes 25 seconds 666 msec
