                         Program Version 4.2.0 -  RELEASE  -
|  1> # Test redundant internal optimization
|  2> #
|  3> ! RKS B3LYP  Opt TightSCF SmallPrint
|  4>
|  5> %basis
|  6>         Basis "6-31G"
|  7> end
|  8>
|  9> %geom
| 10> Constraints
| 11> { D 4  0  15  12  255.0   C } # D for Dihedral angle
| 12> { D 0  15  12  16  270.0   C } # D for Dihedral angle
| 13> { D 0  4  3  2   C } # D for Dihedral angle
| 14> { D 4  3  2  1   C } # D for Dihedral angle
| 15> { D 3  2  1  0   C } # D for Dihedral angle
| 16> { D 2  1  0  4   C } # D for Dihedral angle
| 17> { D 1  0  4  3   C } # D for Dihedral angle
| 18> { D 16  20  19  18   C } # D for Dihedral angle
| 19> { D 20  19  18  17   C } # D for Dihedral angle
| 20> { D 19  18  17  16   C } # D for Dihedral angle
| 21> { D 18  17  16  20   C } # D for Dihedral angle
| 22> { D 17  16  20  19   C } # D for Dihedral angle
| 23> { D 15  12  16  20   C } # D for Dihedral angle
| 24> end
| 25> end
| 26>
| 27>
| 28> #%pal
| 29> #nprocs 8
| 30> #end
| 31>
| 32> * xyz 0 1
| 33> C  -21.048   26.222   46.251
| 34> C  -20.361   27.558   45.944
| 35> C  -20.329   28.222   47.341
| 36> C  -20.110   27.022   48.296
| 37> O  -20.473   25.807   47.535
| 38> H  -20.833   25.428   45.533
| 39> H  -19.344   27.382   45.576
| 40> H  -20.898   28.157   45.201
| 41> H  -19.543   28.978   47.434
| 42> H  -21.289   28.710   47.548
| 43> H  -20.733   27.082   49.195
| 44> H  -19.064   26.913   48.597
| 45> C  -23.431   25.260   45.734
| 46> H  -22.872   24.317   45.787
| 47> H  -24.376   25.130   46.278
| 48> O  -22.586   26.394   46.375
| 49> C  -23.778   25.538   44.245
| 50> C  -24.707   24.458   43.679
| 51> C  -26.079   24.899   44.241
| 52> C  -25.987   26.445   44.222
| 53> O  -24.550   26.779   44.121
| 54> H  -22.853   25.678   43.682
| 55> H  -24.707   24.497   42.583
| 56> O  -24.310   23.021   44.116
| 57> H  -26.921   24.523   43.649
| 58> H  -26.201   24.532   45.267
| 59> H  -26.398   26.901   45.129
| 60> H  -26.481   26.882   43.350
| 61> H  -24.304   22.957   45.210
| 62> *
| 63>
| 64>                          ****END OF INPUT****
 Total Charge           Charge          ....    0
 Multiplicity           Mult            ....    1
 Number of Electrons    NEL             ....  102
FINAL SINGLE POINT ENERGY      -652.828421222597
FINAL SINGLE POINT ENERGY      -652.852151317087
FINAL SINGLE POINT ENERGY      -652.856764987811
FINAL SINGLE POINT ENERGY      -652.857609499440
FINAL SINGLE POINT ENERGY      -652.857764013331
FINAL SINGLE POINT ENERGY      -652.857790063039
FINAL SINGLE POINT ENERGY      -652.857793951967
FINAL SINGLE POINT ENERGY      -652.857794367896
                    ***********************HURRAY********************

CARTESIAN COORDINATES (ANGSTROEM)
---------------------------------
  C    -21.060119   26.169137   46.213811
  C    -20.462510   27.542028   45.905471
  C    -20.449542   28.204122   47.303212
  C    -20.144112   27.018925   48.246155
  O    -20.450236   25.791952   47.469148
  H    -20.823731   25.375288   45.498983
  H    -19.442588   27.417818   45.522424
  H    -21.057885   28.091126   45.173429
  H    -19.707139   29.003959   47.384554
  H    -21.437249   28.622491   47.517751
  H    -20.756226   27.023410   49.151554
  H    -19.087404   26.958056   48.524295
  C    -23.330318   25.269412   45.814590
  H    -22.822093   24.297454   45.888065
  H    -24.217561   25.249267   46.455730
  O    -22.491934   26.323447   46.357516
  C    -23.713662   25.533033   44.356751
  C    -24.646646   24.464107   43.761228
  C    -26.042420   24.939840   44.266427
  C    -25.908354   26.478039   44.234734
  O    -24.455171   26.779422   44.189272
  H    -22.800352   25.647170   43.763660
  H    -24.601096   24.511507   42.670756
  O    -24.307356   23.092892   44.080938
  H    -26.857289   24.568434   43.639907
  H    -26.207186   24.573103   45.288504
  H    -26.345535   26.962668   45.113354
  H    -26.352883   26.913724   43.334813
  H    -24.587402   22.870169   44.991971

 Multiplicity           Mult            ....    1
 Number of Electrons    NEL             ....  102
 Basis Dimension        Dim             ....  149

ORBITAL ENERGIES
----------------

  NO   OCC          E(Eh)            E(eV)
   0   2.0000     -19.152593      -521.1685
   1   2.0000     -19.138614      -520.7882
   2   2.0000     -19.137547      -520.7591
   3   2.0000     -19.131993      -520.6080
   4   2.0000     -10.273745      -279.5628
   5   2.0000     -10.247965      -278.8613
   6   2.0000     -10.232239      -278.4334
   7   2.0000     -10.232103      -278.4297
   8   2.0000     -10.230313      -278.3810
   9   2.0000     -10.218377      -278.0562
  10   2.0000     -10.198453      -277.5140
  11   2.0000     -10.178151      -276.9616
  12   2.0000     -10.177424      -276.9418
  13   2.0000      -1.047650       -28.5080
  14   2.0000      -1.035246       -28.1705
  15   2.0000      -1.017305       -27.6823
  16   2.0000      -0.988865       -26.9084
  17   2.0000      -0.785768       -21.3818
  18   2.0000      -0.780116       -21.2280
  19   2.0000      -0.765315       -20.8253
  20   2.0000      -0.728390       -19.8205
  21   2.0000      -0.679154       -18.4807
  22   2.0000      -0.614217       -16.7137
  23   2.0000      -0.597325       -16.2540
  24   2.0000      -0.590691       -16.0735
  25   2.0000      -0.570878       -15.5344
  26   2.0000      -0.531368       -14.4592
  27   2.0000      -0.512211       -13.9380
  28   2.0000      -0.495057       -13.4712
  29   2.0000      -0.487889       -13.2761
  30   2.0000      -0.465434       -12.6651
  31   2.0000      -0.450385       -12.2556
  32   2.0000      -0.443137       -12.0584
  33   2.0000      -0.436519       -11.8783
  34   2.0000      -0.429839       -11.6965
  35   2.0000      -0.419392       -11.4122
  36   2.0000      -0.408892       -11.1265
  37   2.0000      -0.395069       -10.7504
  38   2.0000      -0.379882       -10.3371
  39   2.0000      -0.363679        -9.8962
  40   2.0000      -0.356064        -9.6890
  41   2.0000      -0.349369        -9.5068
  42   2.0000      -0.343037        -9.3345
  43   2.0000      -0.331917        -9.0319
  44   2.0000      -0.319398        -8.6912
  45   2.0000      -0.312648        -8.5076
  46   2.0000      -0.298460        -8.1215
  47   2.0000      -0.274041        -7.4570
  48   2.0000      -0.267473        -7.2783
  49   2.0000      -0.248695        -6.7673
  50   2.0000      -0.233461        -6.3528
  51   0.0000       0.049860         1.3568
  52   0.0000       0.077055         2.0968
  53   0.0000       0.087350         2.3769
  54   0.0000       0.092125         2.5068
  55   0.0000       0.102838         2.7984

MULLIKEN ATOMIC CHARGES
-----------------------
   0 C :    0.276599
   1 C :   -0.254092
   2 C :   -0.300676
   3 C :   -0.000114
   4 O :   -0.507969
   5 H :    0.138914
   6 H :    0.139914
   7 H :    0.162373
   8 H :    0.138528
   9 H :    0.166113
  10 H :    0.146929
  11 H :    0.138704
  12 C :   -0.029031
  13 H :    0.140830
  14 H :    0.143064
  15 O :   -0.501886
  16 C :    0.090912
  17 C :    0.078062
  18 C :   -0.322489
  19 C :   -0.009976
  20 O :   -0.505646
  21 H :    0.151926
  22 H :    0.171228
  23 O :   -0.599818
  24 H :    0.158680
  25 H :    0.132653
  26 H :    0.148418
  27 H :    0.149900
  28 H :    0.357951
Sum of atomic charges:   -0.0000000

LOEWDIN ATOMIC CHARGES
----------------------
   0 C :    0.172131
   1 C :   -0.218244
   2 C :   -0.216335
   3 C :   -0.026996
   4 O :   -0.324790
   5 H :    0.096983
   6 H :    0.111113
   7 H :    0.126043
   8 H :    0.112355
   9 H :    0.121072
  10 H :    0.105442
  11 H :    0.100621
  12 C :   -0.049346
  13 H :    0.103106
  14 H :    0.106884
  15 O :   -0.316792
  16 C :    0.009262
  17 C :    0.032454
  18 C :   -0.240842
  19 C :   -0.029342
  20 O :   -0.315916
  21 H :    0.111338
  22 H :    0.120304
  23 O :   -0.408100
  24 H :    0.123292
  25 H :    0.104055
  26 H :    0.104959
  27 H :    0.106157
  28 H :    0.279133

  Mayer bond orders larger than 0.100000
B(  0-C ,  1-C ) :   0.9450 B(  0-C ,  4-O ) :   0.9202 B(  0-C ,  5-H ) :   0.9178
B(  0-C , 15-O ) :   0.8528 B(  1-C ,  2-C ) :   0.9578 B(  1-C ,  6-H ) :   0.9390
B(  1-C ,  7-H ) :   0.9349 B(  2-C ,  3-C ) :   0.9546 B(  2-C ,  8-H ) :   0.9455
B(  2-C ,  9-H ) :   0.9433 B(  3-C ,  4-O ) :   0.8397 B(  3-C , 10-H ) :   0.9356
B(  3-C , 11-H ) :   0.9401 B( 12-C , 13-H ) :   0.9053 B( 12-C , 14-H ) :   0.9387
B( 12-C , 15-O ) :   0.8663 B( 12-C , 16-C ) :   0.8849 B( 16-C , 17-C ) :   0.8711
B( 16-C , 20-O ) :   0.8709 B( 16-C , 21-H ) :   0.9319 B( 17-C , 18-C ) :   0.9267
B( 17-C , 22-H ) :   0.9308 B( 17-C , 23-O ) :   0.8981 B( 18-C , 19-C ) :   0.9375
B( 18-C , 24-H ) :   0.9415 B( 18-C , 25-H ) :   0.9408 B( 19-C , 20-O ) :   0.8479
B( 19-C , 26-H ) :   0.9312 B( 19-C , 27-H ) :   0.9377 B( 23-O , 28-H ) :   0.7974

FINAL SINGLE POINT ENERGY      -652.857794461082

DIPOLE MOMENT
-------------
                                X             Y             Z
Electronic contribution:      0.13993      -2.65494      -0.92478
Nuclear contribution   :     -0.79996       2.77969       0.94419
                        -----------------------------------------
Total Dipole Moment    :     -0.66003       0.12475       0.01942
                        -----------------------------------------
Magnitude (a.u.)       :      0.67199
Magnitude (Debye)      :      1.70808

Rotational constants in cm-1:     0.058753     0.012277     0.011127
Rotational constants in MHz :  1761.383384   368.044556   333.584512

                             ****ORCA TERMINATED NORMALLY****
TOTAL RUN TIME: 0 days 2 hours 8 minutes 52 seconds 370 msec
