                         Program Version 4.2.0 -  RELEASE  -
|  1> # Test redundant internal optimization
|  2> #
|  3> ! RKS B3LYP  Opt TightSCF SmallPrint
|  4>
|  5> %basis
|  6>         Basis "6-31G"
|  7> end
|  8>
|  9> %geom
| 10> Constraints
| 11> { D 4  0  15  12  330.0   C } # D for Dihedral angle
| 12> { D 0  15  12  16  225.0   C } # D for Dihedral angle
| 13> { D 0  4  3  2   C } # D for Dihedral angle
| 14> { D 4  3  2  1   C } # D for Dihedral angle
| 15> { D 3  2  1  0   C } # D for Dihedral angle
| 16> { D 2  1  0  4   C } # D for Dihedral angle
| 17> { D 1  0  4  3   C } # D for Dihedral angle
| 18> { D 16  20  19  18   C } # D for Dihedral angle
| 19> { D 20  19  18  17   C } # D for Dihedral angle
| 20> { D 19  18  17  16   C } # D for Dihedral angle
| 21> { D 18  17  16  20   C } # D for Dihedral angle
| 22> { D 17  16  20  19   C } # D for Dihedral angle
| 23> { D 15  12  16  20   C } # D for Dihedral angle
| 24> end
| 25> end
| 26>
| 27>
| 28> #%pal
| 29> #nprocs 8
| 30> #end
| 31>
| 32> * xyz 0 1
| 33> C  -21.048   26.222   46.251
| 34> C  -20.361   27.558   45.944
| 35> C  -20.329   28.222   47.341
| 36> C  -20.110   27.022   48.296
| 37> O  -20.473   25.807   47.535
| 38> H  -20.833   25.428   45.533
| 39> H  -19.344   27.382   45.576
| 40> H  -20.898   28.157   45.201
| 41> H  -19.543   28.978   47.434
| 42> H  -21.289   28.710   47.548
| 43> H  -20.733   27.082   49.195
| 44> H  -19.064   26.913   48.597
| 45> C  -23.271   25.476   47.424
| 46> H  -22.576   24.679   47.716
| 47> H  -23.533   26.048   48.323
| 48> O  -22.586   26.394   46.375
| 49> C  -24.571   24.816   46.887
| 50> C  -25.281   24.012   47.982
| 51> C  -25.993   25.129   48.781
| 52> C  -26.385   26.150   47.683
| 53> O  -25.547   25.843   46.505
| 54> H  -24.338   24.246   45.986
| 55> O  -26.317   23.046   47.347
| 56> H  -24.592   23.423   48.598
| 57> H  -26.860   24.764   49.340
| 58> H  -25.298   25.581   49.498
| 59> H  -26.205   27.186   47.991
| 60> H  -27.429   26.049   47.372
| 61> H  -27.018   23.614   46.726
| 62> *
| 63>
| 64>                          ****END OF INPUT****
 Total Charge           Charge          ....    0
 Multiplicity           Mult            ....    1
 Number of Electrons    NEL             ....  102
FINAL SINGLE POINT ENERGY      -652.834379890429
FINAL SINGLE POINT ENERGY      -652.857041561528
FINAL SINGLE POINT ENERGY      -652.860835904864
FINAL SINGLE POINT ENERGY      -652.861519654517
FINAL SINGLE POINT ENERGY      -652.861608527457
FINAL SINGLE POINT ENERGY      -652.861620560721
                    ***********************HURRAY********************

CARTESIAN COORDINATES (ANGSTROEM)
---------------------------------
  C    -21.125124   26.145401   46.312369
  C    -20.541144   27.509326   45.946714
  C    -20.411131   28.176284   47.332742
  C    -20.042875   26.999811   48.262843
  O    -20.422644   25.764298   47.519251
  H    -20.939519   25.339694   45.595604
  H    -19.560303   27.368952   45.478064
  H    -21.190275   28.060448   45.263228
  H    -19.656390   28.968718   47.349573
  H    -21.373043   28.610622   47.620973
  H    -20.579714   27.016208   49.215086
  H    -18.968837   26.925983   48.456027
  C    -23.197896   25.490528   47.523226
  H    -22.530157   24.683337   47.844959
  H    -23.402927   26.127981   48.392844
  O    -22.557056   26.306859   46.499748
  C    -24.489226   24.906572   46.957004
  C    -25.281505   24.059928   47.964087
  C    -26.059733   25.148145   48.750002
  C    -26.367115   26.208612   47.662852
  O    -25.436489   25.945890   46.540835
  H    -24.251036   24.331943   46.056405
  O    -26.182813   23.148449   47.276993
  H    -24.660858   23.427212   48.599914
  H    -26.959306   24.726307   49.204063
  H    -25.432386   25.563221   49.547008
  H    -26.218974   27.233296   48.017751
  H    -27.384624   26.121818   47.267903
  H    -26.601900   23.621158   46.526933

 Multiplicity           Mult            ....    1
 Number of Electrons    NEL             ....  102
 Basis Dimension        Dim             ....  149

ORBITAL ENERGIES
----------------

  NO   OCC          E(Eh)            E(eV)
   0   2.0000     -19.147996      -521.0435
   1   2.0000     -19.137237      -520.7507
   2   2.0000     -19.136960      -520.7432
   3   2.0000     -19.136759      -520.7377
   4   2.0000     -10.277677      -279.6698
   5   2.0000     -10.240544      -278.6594
   6   2.0000     -10.230467      -278.3852
   7   2.0000     -10.230433      -278.3842
   8   2.0000     -10.227926      -278.3160
   9   2.0000     -10.226407      -278.2747
  10   2.0000     -10.187826      -277.2248
  11   2.0000     -10.187499      -277.2160
  12   2.0000     -10.184187      -277.1258
  13   2.0000      -1.054018       -28.6813
  14   2.0000      -1.033561       -28.1246
  15   2.0000      -1.003751       -27.3135
  16   2.0000      -0.989675       -26.9304
  17   2.0000      -0.791467       -21.5369
  18   2.0000      -0.780424       -21.2364
  19   2.0000      -0.765377       -20.8270
  20   2.0000      -0.732041       -19.9198
  21   2.0000      -0.670925       -18.2568
  22   2.0000      -0.603058       -16.4100
  23   2.0000      -0.601692       -16.3729
  24   2.0000      -0.593365       -16.1463
  25   2.0000      -0.574359       -15.6291
  26   2.0000      -0.525587       -14.3019
  27   2.0000      -0.506179       -13.7738
  28   2.0000      -0.496708       -13.5161
  29   2.0000      -0.491368       -13.3708
  30   2.0000      -0.473803       -12.8928
  31   2.0000      -0.457661       -12.4536
  32   2.0000      -0.452533       -12.3140
  33   2.0000      -0.436335       -11.8733
  34   2.0000      -0.419363       -11.4114
  35   2.0000      -0.411159       -11.1882
  36   2.0000      -0.400376       -10.8948
  37   2.0000      -0.391393       -10.6503
  38   2.0000      -0.370845       -10.0912
  39   2.0000      -0.369117       -10.0442
  40   2.0000      -0.358993        -9.7687
  41   2.0000      -0.355656        -9.6779
  42   2.0000      -0.348836        -9.4923
  43   2.0000      -0.339308        -9.2330
  44   2.0000      -0.324999        -8.8437
  45   2.0000      -0.306239        -8.3332
  46   2.0000      -0.297727        -8.1016
  47   2.0000      -0.269263        -7.3270
  48   2.0000      -0.264264        -7.1910
  49   2.0000      -0.257136        -6.9970
  50   2.0000      -0.236241        -6.4284
  51   0.0000       0.067874         1.8469
  52   0.0000       0.080450         2.1892
  53   0.0000       0.091504         2.4899
  54   0.0000       0.102084         2.7778
  55   0.0000       0.103921         2.8278

MULLIKEN ATOMIC CHARGES
-----------------------
   0 C :    0.290389
   1 C :   -0.258105
   2 C :   -0.302459
   3 C :   -0.012084
   4 O :   -0.515222
   5 H :    0.149165
   6 H :    0.143146
   7 H :    0.166703
   8 H :    0.144272
   9 H :    0.160795
  10 H :    0.142884
  11 H :    0.148874
  12 C :   -0.002629
  13 H :    0.158564
  14 H :    0.127163
  15 O :   -0.522162
  16 C :    0.064117
  17 C :    0.078919
  18 C :   -0.294880
  19 C :   -0.025822
  20 O :   -0.510322
  21 H :    0.162449
  22 O :   -0.604050
  23 H :    0.151588
  24 H :    0.161009
  25 H :    0.142423
  26 H :    0.145775
  27 H :    0.143622
  28 H :    0.365877
Sum of atomic charges:   -0.0000000

LOEWDIN ATOMIC CHARGES
----------------------
   0 C :    0.177933
   1 C :   -0.215248
   2 C :   -0.217369
   3 C :   -0.030549
   4 O :   -0.326830
   5 H :    0.098603
   6 H :    0.113070
   7 H :    0.129131
   8 H :    0.115540
   9 H :    0.118413
  10 H :    0.102619
  11 H :    0.105873
  12 C :   -0.043537
  13 H :    0.114452
  14 H :    0.095537
  15 O :   -0.329461
  16 C :    0.013527
  17 C :    0.034912
  18 C :   -0.241170
  19 C :   -0.037712
  20 O :   -0.322015
  21 H :    0.117787
  22 O :   -0.415493
  23 H :    0.115279
  24 H :    0.126098
  25 H :    0.111681
  26 H :    0.103986
  27 H :    0.101213
  28 H :    0.283731

  Mayer bond orders larger than 0.100000
B(  0-C ,  1-C ) :   0.9446 B(  0-C ,  4-O ) :   0.8980 B(  0-C ,  5-H ) :   0.9228
B(  0-C , 15-O ) :   0.8572 B(  1-C ,  2-C ) :   0.9531 B(  1-C ,  6-H ) :   0.9377
B(  1-C ,  7-H ) :   0.9344 B(  2-C ,  3-C ) :   0.9562 B(  2-C ,  8-H ) :   0.9447
B(  2-C ,  9-H ) :   0.9446 B(  3-C ,  4-O ) :   0.8310 B(  3-C , 10-H ) :   0.9357
B(  3-C , 11-H ) :   0.9404 B( 12-C , 13-H ) :   0.9063 B( 12-C , 14-H ) :   0.9287
B( 12-C , 15-O ) :   0.8303 B( 12-C , 16-C ) :   0.8989 B( 16-C , 17-C ) :   0.8981
B( 16-C , 20-O ) :   0.8604 B( 16-C , 21-H ) :   0.9257 B( 17-C , 18-C ) :   0.9119
B( 17-C , 22-O ) :   0.8915 B( 17-C , 23-H ) :   0.9329 B( 18-C , 19-C ) :   0.9397
B( 18-C , 24-H ) :   0.9376 B( 18-C , 25-H ) :   0.9341 B( 19-C , 20-O ) :   0.8537
B( 19-C , 26-H ) :   0.9347 B( 19-C , 27-H ) :   0.9379 B( 22-O , 28-H ) :   0.7933

FINAL SINGLE POINT ENERGY      -652.861622729399

DIPOLE MOMENT
-------------
                                X             Y             Z
Electronic contribution:     -1.90045      -3.94445      -3.18566
Nuclear contribution   :      2.32024       4.79281       3.87101
                        -----------------------------------------
Total Dipole Moment    :      0.41979       0.84835       0.68535
                        -----------------------------------------
Magnitude (a.u.)       :      1.16860
Magnitude (Debye)      :      2.97035

Rotational constants in cm-1:     0.061463     0.011791     0.011493
Rotational constants in MHz :  1842.599759   353.472915   344.561456

                             ****ORCA TERMINATED NORMALLY****
TOTAL RUN TIME: 0 days 0 hours 21 minutes 49 seconds 315 msec
