                         Program Version 4.2.0 -  RELEASE  -
|  1> # Test redundant internal optimization
|  2> #
|  3> ! RKS B3LYP  Opt TightSCF SmallPrint
|  4>
|  5> %basis
|  6>         Basis "6-31G"
|  7> end
|  8>
|  9> %geom
| 10> Constraints
| 11> { D 4  0  15  12  255.0   C } # D for Dihedral angle
| 12> { D 0  15  12  16  210.0   C } # D for Dihedral angle
| 13> { D 0  4  3  2   C } # D for Dihedral angle
| 14> { D 4  3  2  1   C } # D for Dihedral angle
| 15> { D 3  2  1  0   C } # D for Dihedral angle
| 16> { D 2  1  0  4   C } # D for Dihedral angle
| 17> { D 1  0  4  3   C } # D for Dihedral angle
| 18> { D 16  20  19  18   C } # D for Dihedral angle
| 19> { D 20  19  18  17   C } # D for Dihedral angle
| 20> { D 19  18  17  16   C } # D for Dihedral angle
| 21> { D 18  17  16  20   C } # D for Dihedral angle
| 22> { D 17  16  20  19   C } # D for Dihedral angle
| 23> { D 15  12  16  20   C } # D for Dihedral angle
| 24> end
| 25> end
| 26>
| 27>
| 28> #%pal
| 29> #nprocs 8
| 30> #end
| 31>
| 32> * xyz 0 1
| 33> C  -21.048   26.222   46.251
| 34> C  -20.361   27.558   45.944
| 35> C  -20.329   28.222   47.341
| 36> C  -20.110   27.022   48.296
| 37> O  -20.473   25.807   47.535
| 38> H  -20.833   25.428   45.533
| 39> H  -19.344   27.382   45.576
| 40> H  -20.898   28.157   45.201
| 41> H  -19.543   28.978   47.434
| 42> H  -21.289   28.710   47.548
| 43> H  -20.733   27.082   49.195
| 44> H  -19.064   26.913   48.597
| 45> C  -23.431   25.260   45.734
| 46> H  -22.879   24.831   44.888
| 47> H  -23.617   24.460   46.462
| 48> O  -22.586   26.394   46.375
| 49> C  -24.809   25.757   45.215
| 50> C  -24.643   26.759   44.067
| 51> C  -24.359   25.820   42.871
| 52> C  -25.232   24.579   43.182
| 53> O  -25.563   24.648   44.621
| 54> H  -25.396   26.128   46.058
| 55> O  -25.967   27.541   43.848
| 56> H  -23.840   27.483   44.240
| 57> H  -24.607   26.275   41.906
| 58> H  -23.296   25.550   42.849
| 59> H  -24.711   23.638   42.978
| 60> H  -26.178   24.586   42.632
| 61> H  -26.788   26.836   43.672
| 62> *
| 63>
| 64>                          ****END OF INPUT****
 Total Charge           Charge          ....    0
 Multiplicity           Mult            ....    1
 Number of Electrons    NEL             ....  102
FINAL SINGLE POINT ENERGY      -652.837506302729
FINAL SINGLE POINT ENERGY      -652.860457782790
FINAL SINGLE POINT ENERGY      -652.864161331122
FINAL SINGLE POINT ENERGY      -652.864810473564
FINAL SINGLE POINT ENERGY      -652.864904713097
FINAL SINGLE POINT ENERGY      -652.864916704068
FINAL SINGLE POINT ENERGY      -652.864919926992
                    ***********************HURRAY********************

CARTESIAN COORDINATES (ANGSTROEM)
---------------------------------
  C    -21.074720   26.127784   46.212873
  C    -20.489933   27.501979   45.885203
  C    -20.546435   28.209673   47.260975
  C    -20.258433   27.059797   48.251567
  O    -20.510687   25.804584   47.501060
  H    -20.798611   25.317825   45.531304
  H    -19.452606   27.383319   45.550458
  H    -21.055985   28.020771   45.108800
  H    -19.822505   29.025531   47.345934
  H    -21.549124   28.616075   47.422518
  H    -20.907135   27.078737   49.130774
  H    -19.213200   27.027336   48.573437
  C    -23.324655   25.175409   45.740200
  H    -22.789605   24.673864   44.920398
  H    -23.540172   24.428551   46.512551
  O    -22.514799   26.256263   46.283294
  C    -24.636516   25.775529   45.234024
  C    -24.494487   26.781737   44.082763
  C    -24.325541   25.839988   42.862815
  C    -25.233448   24.636122   43.217307
  O    -25.474587   24.706634   44.679649
  H    -25.184410   26.217640   46.070497
  O    -25.686558   27.605761   43.964159
  H    -23.668591   27.476151   44.223898
  H    -24.628589   26.343994   41.941743
  H    -23.279053   25.533720   42.756683
  H    -24.774876   23.671582   42.978578
  H    -26.210632   24.687153   42.727408
  H    -26.481108   27.042491   44.078130

 Multiplicity           Mult            ....    1
 Number of Electrons    NEL             ....  102
 Basis Dimension        Dim             ....  149

ORBITAL ENERGIES
----------------

  NO   OCC          E(Eh)            E(eV)
   0   2.0000     -19.146917      -521.0141
   1   2.0000     -19.146524      -521.0034
   2   2.0000     -19.138752      -520.7919
   3   2.0000     -19.137108      -520.7472
   4   2.0000     -10.282439      -279.7994
   5   2.0000     -10.238177      -278.5950
   6   2.0000     -10.234103      -278.4841
   7   2.0000     -10.233780      -278.4753
   8   2.0000     -10.233599      -278.4704
   9   2.0000     -10.224069      -278.2111
  10   2.0000     -10.190358      -277.2937
  11   2.0000     -10.186729      -277.1950
  12   2.0000     -10.185070      -277.1499
  13   2.0000      -1.054427       -28.6924
  14   2.0000      -1.037856       -28.2415
  15   2.0000      -1.006301       -27.3828
  16   2.0000      -0.997081       -27.1320
  17   2.0000      -0.789714       -21.4892
  18   2.0000      -0.780291       -21.2328
  19   2.0000      -0.769062       -20.9272
  20   2.0000      -0.730777       -19.8854
  21   2.0000      -0.675872       -18.3914
  22   2.0000      -0.605959       -16.4890
  23   2.0000      -0.598481       -16.2855
  24   2.0000      -0.591193       -16.0872
  25   2.0000      -0.588011       -16.0006
  26   2.0000      -0.523396       -14.2423
  27   2.0000      -0.521523       -14.1914
  28   2.0000      -0.495809       -13.4916
  29   2.0000      -0.491774       -13.3819
  30   2.0000      -0.470953       -12.8153
  31   2.0000      -0.458076       -12.4649
  32   2.0000      -0.451229       -12.2786
  33   2.0000      -0.439879       -11.9697
  34   2.0000      -0.426478       -11.6051
  35   2.0000      -0.413519       -11.2524
  36   2.0000      -0.403401       -10.9771
  37   2.0000      -0.394017       -10.7217
  38   2.0000      -0.376648       -10.2491
  39   2.0000      -0.370176       -10.0730
  40   2.0000      -0.359433        -9.7807
  41   2.0000      -0.356009        -9.6875
  42   2.0000      -0.350377        -9.5342
  43   2.0000      -0.333469        -9.0741
  44   2.0000      -0.321197        -8.7402
  45   2.0000      -0.309090        -8.4108
  46   2.0000      -0.306471        -8.3395
  47   2.0000      -0.271886        -7.3984
  48   2.0000      -0.268914        -7.3175
  49   2.0000      -0.256291        -6.9740
  50   2.0000      -0.242862        -6.6086
  51   0.0000       0.062773         1.7081
  52   0.0000       0.068821         1.8727
  53   0.0000       0.087663         2.3854
  54   0.0000       0.094193         2.5631
  55   0.0000       0.104121         2.8333

MULLIKEN ATOMIC CHARGES
-----------------------
   0 C :    0.286058
   1 C :   -0.257954
   2 C :   -0.299525
   3 C :   -0.000671
   4 O :   -0.503951
   5 H :    0.139379
   6 H :    0.144244
   7 H :    0.149033
   8 H :    0.141592
   9 H :    0.165590
  10 H :    0.151523
  11 H :    0.141147
  12 C :    0.003740
  13 H :    0.118981
  14 H :    0.162604
  15 O :   -0.526475
  16 C :    0.055711
  17 C :    0.092193
  18 C :   -0.297458
  19 C :   -0.028838
  20 O :   -0.526455
  21 H :    0.168729
  22 O :   -0.604725
  23 H :    0.165297
  24 H :    0.161463
  25 H :    0.141115
  26 H :    0.144842
  27 H :    0.148718
  28 H :    0.364094
Sum of atomic charges:   -0.0000000

LOEWDIN ATOMIC CHARGES
----------------------
   0 C :    0.174975
   1 C :   -0.219153
   2 C :   -0.215996
   3 C :   -0.026505
   4 O :   -0.320957
   5 H :    0.097410
   6 H :    0.113284
   7 H :    0.117920
   8 H :    0.114026
   9 H :    0.120807
  10 H :    0.107860
  11 H :    0.102019
  12 C :   -0.033774
  13 H :    0.089828
  14 H :    0.112338
  15 O :   -0.332994
  16 C :    0.015720
  17 C :    0.038136
  18 C :   -0.241478
  19 C :   -0.037692
  20 O :   -0.329403
  21 H :    0.119825
  22 O :   -0.414869
  23 H :    0.121147
  24 H :    0.126539
  25 H :    0.111271
  26 H :    0.103479
  27 H :    0.103738
  28 H :    0.282499

  Mayer bond orders larger than 0.100000
B(  0-C ,  1-C ) :   0.9443 B(  0-C ,  4-O ) :   0.9299 B(  0-C ,  5-H ) :   0.9195
B(  0-C , 15-O ) :   0.8441 B(  1-C ,  2-C ) :   0.9582 B(  1-C ,  6-H ) :   0.9381
B(  1-C ,  7-H ) :   0.9363 B(  2-C ,  3-C ) :   0.9540 B(  2-C ,  8-H ) :   0.9451
B(  2-C ,  9-H ) :   0.9434 B(  3-C ,  4-O ) :   0.8370 B(  3-C , 10-H ) :   0.9350
B(  3-C , 11-H ) :   0.9400 B( 12-C , 13-H ) :   0.9195 B( 12-C , 14-H ) :   0.9187
B( 12-C , 15-O ) :   0.8269 B( 12-C , 16-C ) :   0.9066 B( 16-C , 17-C ) :   0.9095
B( 16-C , 20-O ) :   0.8424 B( 16-C , 21-H ) :   0.9248 B( 17-C , 18-C ) :   0.9114
B( 17-C , 22-O ) :   0.8907 B( 17-C , 23-H ) :   0.9246 B( 18-C , 19-C ) :   0.9407
B( 18-C , 24-H ) :   0.9383 B( 18-C , 25-H ) :   0.9356 B( 19-C , 20-O ) :   0.8430
B( 19-C , 26-H ) :   0.9362 B( 19-C , 27-H ) :   0.9376 B( 22-O , 28-H ) :   0.7950

FINAL SINGLE POINT ENERGY      -652.864919868652

DIPOLE MOMENT
-------------
                                X             Y             Z
Electronic contribution:     -3.59033      -2.09166       1.76794
Nuclear contribution   :      4.23503       2.15050      -2.49991
                        -----------------------------------------
Total Dipole Moment    :      0.64470       0.05884      -0.73197
                        -----------------------------------------
Magnitude (a.u.)       :      0.97718
Magnitude (Debye)      :      2.48379

Rotational constants in cm-1:     0.058514     0.012305     0.011502
Rotational constants in MHz :  1754.193979   368.899183   344.821913

                             ****ORCA TERMINATED NORMALLY****
TOTAL RUN TIME: 0 days 0 hours 23 minutes 10 seconds 531 msec
