                         Program Version 4.2.0 -  RELEASE  -
|  1> # Test redundant internal optimization
|  2> #
|  3> ! RKS B3LYP  Opt TightSCF SmallPrint
|  4>
|  5> %basis
|  6>         Basis "6-31G"
|  7> end
|  8>
|  9> %geom
| 10> Constraints
| 11> { D 4  0  15  12  270.0   C } # D for Dihedral angle
| 12> { D 0  15  12  16  105.0   C } # D for Dihedral angle
| 13> { D 0  4  3  2   C } # D for Dihedral angle
| 14> { D 4  3  2  1   C } # D for Dihedral angle
| 15> { D 3  2  1  0   C } # D for Dihedral angle
| 16> { D 2  1  0  4   C } # D for Dihedral angle
| 17> { D 1  0  4  3   C } # D for Dihedral angle
| 18> { D 16  20  19  18   C } # D for Dihedral angle
| 19> { D 20  19  18  17   C } # D for Dihedral angle
| 20> { D 19  18  17  16   C } # D for Dihedral angle
| 21> { D 18  17  16  20   C } # D for Dihedral angle
| 22> { D 17  16  20  19   C } # D for Dihedral angle
| 23> { D 15  12  16  20   C } # D for Dihedral angle
| 24> end
| 25> end
| 26>
| 27>
| 28> #%pal
| 29> #nprocs 8
| 30> #end
| 31>
| 32> * xyz 0 1
| 33> C  -21.048   26.222   46.251
| 34> C  -20.361   27.558   45.944
| 35> C  -20.329   28.222   47.341
| 36> C  -20.110   27.022   48.296
| 37> O  -20.473   25.807   47.535
| 38> H  -20.833   25.428   45.533
| 39> H  -19.344   27.382   45.576
| 40> H  -20.898   28.157   45.201
| 41> H  -19.543   28.978   47.434
| 42> H  -21.289   28.710   47.548
| 43> H  -20.733   27.082   49.195
| 44> H  -19.064   26.913   48.597
| 45> C  -23.420   25.119   46.072
| 46> H  -24.261   25.383   45.420
| 47> H  -22.805   24.372   45.553
| 48> O  -22.586   26.394   46.375
| 49> C  -23.987   24.453   47.357
| 50> C  -24.704   23.138   47.032
| 51> C  -23.514   22.164   46.867
| 52> C  -22.494   22.676   47.915
| 53> O  -22.896   24.058   48.254
| 54> H  -24.598   25.180   47.896
| 55> H  -25.338   22.836   47.874
| 56> O  -25.591   23.225   45.760
| 57> H  -23.794   21.119   47.034
| 58> H  -23.100   22.243   45.855
| 59> H  -21.467   22.685   47.531
| 60> H  -22.520   22.096   48.842
| 61> H  -24.979   23.525   44.902
| 62> *
| 63>
| 64>                          ****END OF INPUT****
 Total Charge           Charge          ....    0
 Multiplicity           Mult            ....    1
 Number of Electrons    NEL             ....  102
FINAL SINGLE POINT ENERGY      -652.827897529787
FINAL SINGLE POINT ENERGY      -652.851640656473
FINAL SINGLE POINT ENERGY      -652.856562009192
FINAL SINGLE POINT ENERGY      -652.857372753624
FINAL SINGLE POINT ENERGY      -652.857525065970
FINAL SINGLE POINT ENERGY      -652.857570929815
FINAL SINGLE POINT ENERGY      -652.857578004967
FINAL SINGLE POINT ENERGY      -652.857579602145
                    ***********************HURRAY********************

CARTESIAN COORDINATES (ANGSTROEM)
---------------------------------
  C    -21.007307   26.193266   46.210798
  C    -20.463530   27.600426   45.966065
  C    -20.457510   28.195223   47.395311
  C    -20.097960   26.974577   48.272445
  O    -20.370562   25.781268   47.435386
  H    -20.752450   25.439553   45.457961
  H    -19.443744   27.531415   45.568944
  H    -21.082259   28.163812   45.265098
  H    -19.742560   29.015955   47.507562
  H    -21.456475   28.566305   47.641653
  H    -20.700120   26.905128   49.180993
  H    -19.036054   26.937782   48.535051
  C    -23.263058   25.159983   46.018707
  H    -24.095992   25.511140   45.399466
  H    -22.671048   24.434563   45.437238
  O    -22.445567   26.322413   46.312437
  C    -23.835472   24.513135   47.284854
  C    -24.666923   23.252237   46.996011
  C    -23.564997   22.153800   46.899476
  C    -22.532996   22.621701   47.950543
  O    -22.816574   24.053922   48.216893
  H    -24.409816   25.274008   47.821463
  H    -25.327855   23.052413   47.842082
  O    -25.553041   23.336724   45.851873
  H    -23.958978   21.154539   47.101767
  H    -23.136576   22.150349   45.888410
  H    -21.497323   22.527818   47.611164
  H    -22.642680   22.091080   48.901428
  H    -25.049572   23.232466   45.018925

 Multiplicity           Mult            ....    1
 Number of Electrons    NEL             ....  102
 Basis Dimension        Dim             ....  149

ORBITAL ENERGIES
----------------

  NO   OCC          E(Eh)            E(eV)
   0   2.0000     -19.148360      -521.0534
   1   2.0000     -19.138414      -520.7827
   2   2.0000     -19.131228      -520.5872
   3   2.0000     -19.128555      -520.5144
   4   2.0000     -10.273456      -279.5550
   5   2.0000     -10.242492      -278.7124
   6   2.0000     -10.229574      -278.3608
   7   2.0000     -10.225250      -278.2432
   8   2.0000     -10.225197      -278.2417
   9   2.0000     -10.214993      -277.9641
  10   2.0000     -10.193560      -277.3809
  11   2.0000     -10.177993      -276.9573
  12   2.0000     -10.177394      -276.9410
  13   2.0000      -1.045569       -28.4514
  14   2.0000      -1.030609       -28.0443
  15   2.0000      -1.011712       -27.5301
  16   2.0000      -0.988402       -26.8958
  17   2.0000      -0.782536       -21.2939
  18   2.0000      -0.777999       -21.1704
  19   2.0000      -0.761445       -20.7200
  20   2.0000      -0.725007       -19.7284
  21   2.0000      -0.675975       -18.3942
  22   2.0000      -0.608971       -16.5709
  23   2.0000      -0.590200       -16.0602
  24   2.0000      -0.587241       -15.9796
  25   2.0000      -0.575393       -15.6572
  26   2.0000      -0.525220       -14.2920
  27   2.0000      -0.509192       -13.8558
  28   2.0000      -0.493151       -13.4193
  29   2.0000      -0.481471       -13.1015
  30   2.0000      -0.462474       -12.5845
  31   2.0000      -0.452850       -12.3227
  32   2.0000      -0.444983       -12.1086
  33   2.0000      -0.427332       -11.6283
  34   2.0000      -0.421915       -11.4809
  35   2.0000      -0.416551       -11.3349
  36   2.0000      -0.402333       -10.9480
  37   2.0000      -0.391678       -10.6581
  38   2.0000      -0.378253       -10.2928
  39   2.0000      -0.365108        -9.9351
  40   2.0000      -0.348403        -9.4805
  41   2.0000      -0.346498        -9.4287
  42   2.0000      -0.340468        -9.2646
  43   2.0000      -0.327978        -8.9247
  44   2.0000      -0.315586        -8.5875
  45   2.0000      -0.311415        -8.4740
  46   2.0000      -0.295476        -8.0403
  47   2.0000      -0.268677        -7.3111
  48   2.0000      -0.263478        -7.1696
  49   2.0000      -0.248731        -6.7683
  50   2.0000      -0.226743        -6.1700
  51   0.0000       0.051371         1.3979
  52   0.0000       0.074911         2.0384
  53   0.0000       0.091147         2.4802
  54   0.0000       0.101081         2.7506
  55   0.0000       0.109733         2.9860

MULLIKEN ATOMIC CHARGES
-----------------------
   0 C :    0.293228
   1 C :   -0.259630
   2 C :   -0.298936
   3 C :    0.000104
   4 O :   -0.494854
   5 H :    0.131348
   6 H :    0.140125
   7 H :    0.150926
   8 H :    0.136946
   9 H :    0.162971
  10 H :    0.156301
  11 H :    0.136119
  12 C :   -0.021140
  13 H :    0.151537
  14 H :    0.108142
  15 O :   -0.514476
  16 C :    0.101045
  17 C :    0.081517
  18 C :   -0.318504
  19 C :   -0.012693
  20 O :   -0.495607
  21 H :    0.160692
  22 H :    0.167117
  23 O :   -0.601932
  24 H :    0.154785
  25 H :    0.129003
  26 H :    0.153622
  27 H :    0.147695
  28 H :    0.354550
Sum of atomic charges:    0.0000000

LOEWDIN ATOMIC CHARGES
----------------------
   0 C :    0.175310
   1 C :   -0.217786
   2 C :   -0.216283
   3 C :   -0.026270
   4 O :   -0.315294
   5 H :    0.091660
   6 H :    0.111034
   7 H :    0.120616
   8 H :    0.111331
   9 H :    0.119474
  10 H :    0.110413
  11 H :    0.099466
  12 C :   -0.048925
  13 H :    0.111830
  14 H :    0.085016
  15 O :   -0.320748
  16 C :    0.013209
  17 C :    0.033066
  18 C :   -0.240514
  19 C :   -0.029710
  20 O :   -0.307168
  21 H :    0.117784
  22 H :    0.119148
  23 O :   -0.409474
  24 H :    0.121401
  25 H :    0.101488
  26 H :    0.107801
  27 H :    0.105090
  28 H :    0.277036

  Mayer bond orders larger than 0.100000
B(  0-C ,  1-C ) :   0.9467 B(  0-C ,  4-O ) :   0.9298 B(  0-C ,  5-H ) :   0.9194
B(  0-C , 15-O ) :   0.8526 B(  1-C ,  2-C ) :   0.9598 B(  1-C ,  6-H ) :   0.9405
B(  1-C ,  7-H ) :   0.9374 B(  2-C ,  3-C ) :   0.9541 B(  2-C ,  8-H ) :   0.9456
B(  2-C ,  9-H ) :   0.9441 B(  3-C ,  4-O ) :   0.8390 B(  3-C , 10-H ) :   0.9334
B(  3-C , 11-H ) :   0.9404 B( 12-C , 13-H ) :   0.9188 B( 12-C , 14-H ) :   0.9207
B( 12-C , 15-O ) :   0.8623 B( 12-C , 16-C ) :   0.8893 B( 16-C , 17-C ) :   0.8685
B( 16-C , 20-O ) :   0.8803 B( 16-C , 21-H ) :   0.9311 B( 17-C , 18-C ) :   0.9235
B( 17-C , 22-H ) :   0.9322 B( 17-C , 23-O ) :   0.8934 B( 18-C , 19-C ) :   0.9373
B( 18-C , 24-H ) :   0.9424 B( 18-C , 25-H ) :   0.9406 B( 19-C , 20-O ) :   0.8495
B( 19-C , 26-H ) :   0.9295 B( 19-C , 27-H ) :   0.9376 B( 23-O , 28-H ) :   0.7994

FINAL SINGLE POINT ENERGY      -652.857579785174

DIPOLE MOMENT
-------------
                                X             Y             Z
Electronic contribution:     -2.75560      -1.06540       0.60675
Nuclear contribution   :      3.27554       0.74467      -1.32348
                        -----------------------------------------
Total Dipole Moment    :      0.51994      -0.32073      -0.71673
                        -----------------------------------------
Magnitude (a.u.)       :      0.94176
Magnitude (Debye)      :      2.39377

Rotational constants in cm-1:     0.056903     0.014378     0.012710
Rotational constants in MHz :  1705.895880   431.039759   381.035422

                             ****ORCA TERMINATED NORMALLY****
TOTAL RUN TIME: 0 days 1 hours 30 minutes 27 seconds 956 msec
