                         Program Version 4.2.0 -  RELEASE  -
|  1> # Test redundant internal optimization
|  2> #
|  3> ! RKS B3LYP  Opt TightSCF SmallPrint
|  4>
|  5> %basis
|  6>         Basis "6-31G"
|  7> end
|  8>
|  9> %geom
| 10> Constraints
| 11> { D 4  0  15  12  240.0   C } # D for Dihedral angle
| 12> { D 0  15  12  16  285.0   C } # D for Dihedral angle
| 13> { D 0  4  3  2   C } # D for Dihedral angle
| 14> { D 4  3  2  1   C } # D for Dihedral angle
| 15> { D 3  2  1  0   C } # D for Dihedral angle
| 16> { D 2  1  0  4   C } # D for Dihedral angle
| 17> { D 1  0  4  3   C } # D for Dihedral angle
| 18> { D 16  20  19  18   C } # D for Dihedral angle
| 19> { D 20  19  18  17   C } # D for Dihedral angle
| 20> { D 19  18  17  16   C } # D for Dihedral angle
| 21> { D 18  17  16  20   C } # D for Dihedral angle
| 22> { D 17  16  20  19   C } # D for Dihedral angle
| 23> { D 15  12  16  20   C } # D for Dihedral angle
| 24> end
| 25> end
| 26>
| 27>
| 28> #%pal
| 29> #nprocs 8
| 30> #end
| 31>
| 32> * xyz 0 1
| 33> C  -21.048   26.222   46.251
| 34> C  -20.361   27.558   45.944
| 35> C  -20.329   28.222   47.341
| 36> C  -20.110   27.022   48.296
| 37> O  -20.473   25.807   47.535
| 38> H  -20.833   25.428   45.533
| 39> H  -19.344   27.382   45.576
| 40> H  -20.898   28.157   45.201
| 41> H  -19.543   28.978   47.434
| 42> H  -21.289   28.710   47.548
| 43> H  -20.733   27.082   49.195
| 44> H  -19.064   26.913   48.597
| 45> C  -23.430   25.483   45.442
| 46> H  -23.033   24.460   45.479
| 47> H  -24.476   25.457   45.774
| 48> O  -22.586   26.394   46.375
| 49> C  -23.415   25.959   43.963
| 50> C  -23.873   27.417   43.843
| 51> C  -22.596   28.183   44.264
| 52> C  -21.454   27.298   43.703
| 53> O  -22.044   25.967   43.441
| 54> H  -23.985   25.255   43.355
| 55> O  -24.244   27.739   42.370
| 56> H  -24.736   27.651   44.476
| 57> H  -22.563   29.204   43.870
| 58> H  -22.536   28.243   45.357
| 59> H  -20.623   27.189   44.408
| 60> H  -21.066   27.671   42.751
| 61> H  -23.394   27.512   41.717
| 62> *
| 63>
| 64>                          ****END OF INPUT****
 Total Charge           Charge          ....    0
 Multiplicity           Mult            ....    1
 Number of Electrons    NEL             ....  102
FINAL SINGLE POINT ENERGY      -652.747880950206
FINAL SINGLE POINT ENERGY      -652.827113924661
FINAL SINGLE POINT ENERGY      -652.849324877321
FINAL SINGLE POINT ENERGY      -652.855136389028
FINAL SINGLE POINT ENERGY      -652.856348671530
FINAL SINGLE POINT ENERGY      -652.856546289989
FINAL SINGLE POINT ENERGY      -652.856558117578
FINAL SINGLE POINT ENERGY      -652.856559106848
                    ***********************HURRAY********************

CARTESIAN COORDINATES (ANGSTROEM)
---------------------------------
  C    -20.906072   26.201058   46.395858
  C    -20.198329   27.553559   46.286041
  C    -20.292363   28.090372   47.740969
  C    -20.157681   26.798348   48.578451
  O    -20.453018   25.680934   47.657718
  H    -20.667462   25.467648   45.622970
  H    -19.151490   27.390060   46.002287
  H    -20.657267   28.228388   45.567547
  H    -19.513785   28.823117   47.971168
  H    -21.270635   28.554554   47.898227
  H    -20.857804   26.756797   49.416910
  H    -19.140410   26.641028   48.950552
  C    -23.203511   25.692585   45.534170
  H    -22.909856   24.632280   45.552291
  H    -24.205498   25.764085   45.972182
  O    -22.350092   26.411196   46.467427
  C    -23.314299   26.090979   44.055429
  C    -23.930645   27.449880   43.693581
  C    -22.681483   28.367967   43.671910
  C    -21.572224   27.437592   43.119507
  O    -22.065958   26.048635   43.291790
  H    -23.951120   25.305950   43.624003
  O    -24.591971   27.390053   42.398955
  H    -24.697572   27.783440   44.392556
  H    -22.848730   29.249308   43.048059
  H    -22.461259   28.691305   44.693332
  H    -20.614682   27.544684   43.630952
  H    -21.406995   27.582805   42.046773
  H    -24.006788   26.934395   41.757385

 Multiplicity           Mult            ....    1
 Number of Electrons    NEL             ....  102
 Basis Dimension        Dim             ....  149

ORBITAL ENERGIES
----------------

  NO   OCC          E(Eh)            E(eV)
   0   2.0000     -19.152285      -521.1602
   1   2.0000     -19.143097      -520.9102
   2   2.0000     -19.141583      -520.8690
   3   2.0000     -19.136889      -520.7412
   4   2.0000     -10.278052      -279.6800
   5   2.0000     -10.244237      -278.7599
   6   2.0000     -10.239886      -278.6415
   7   2.0000     -10.236046      -278.5370
   8   2.0000     -10.235611      -278.5251
   9   2.0000     -10.223135      -278.1856
  10   2.0000     -10.190811      -277.3061
  11   2.0000     -10.186607      -277.1917
  12   2.0000     -10.185956      -277.1740
  13   2.0000      -1.052065       -28.6281
  14   2.0000      -1.041475       -28.3400
  15   2.0000      -1.010916       -27.5084
  16   2.0000      -0.992662       -27.0117
  17   2.0000      -0.788641       -21.4600
  18   2.0000      -0.783611       -21.3231
  19   2.0000      -0.772428       -21.0188
  20   2.0000      -0.733079       -19.9481
  21   2.0000      -0.681430       -18.5427
  22   2.0000      -0.608538       -16.5592
  23   2.0000      -0.603435       -16.4203
  24   2.0000      -0.599159       -16.3039
  25   2.0000      -0.576885       -15.6978
  26   2.0000      -0.527584       -14.3563
  27   2.0000      -0.509475       -13.8635
  28   2.0000      -0.506634       -13.7862
  29   2.0000      -0.483098       -13.1458
  30   2.0000      -0.472829       -12.8663
  31   2.0000      -0.463212       -12.6046
  32   2.0000      -0.454019       -12.3545
  33   2.0000      -0.437930       -11.9167
  34   2.0000      -0.433268       -11.7898
  35   2.0000      -0.414039       -11.2666
  36   2.0000      -0.400834       -10.9072
  37   2.0000      -0.397765       -10.8237
  38   2.0000      -0.379271       -10.3205
  39   2.0000      -0.371807       -10.1174
  40   2.0000      -0.364949        -9.9308
  41   2.0000      -0.354618        -9.6496
  42   2.0000      -0.349868        -9.5204
  43   2.0000      -0.337305        -9.1785
  44   2.0000      -0.316725        -8.6185
  45   2.0000      -0.311261        -8.4699
  46   2.0000      -0.307566        -8.3693
  47   2.0000      -0.275101        -7.4859
  48   2.0000      -0.271496        -7.3878
  49   2.0000      -0.254079        -6.9138
  50   2.0000      -0.241124        -6.5613
  51   0.0000       0.058812         1.6003
  52   0.0000       0.080737         2.1970
  53   0.0000       0.086286         2.3480
  54   0.0000       0.097931         2.6648
  55   0.0000       0.102418         2.7869

MULLIKEN ATOMIC CHARGES
-----------------------
   0 C :    0.277745
   1 C :   -0.263126
   2 C :   -0.306308
   3 C :    0.003122
   4 O :   -0.501991
   5 H :    0.165682
   6 H :    0.145265
   7 H :    0.141503
   8 H :    0.141099
   9 H :    0.161264
  10 H :    0.151555
  11 H :    0.139558
  12 C :   -0.022899
  13 H :    0.148459
  14 H :    0.152318
  15 O :   -0.518145
  16 C :    0.070188
  17 C :    0.076043
  18 C :   -0.296275
  19 C :   -0.037057
  20 O :   -0.530485
  21 H :    0.159596
  22 O :   -0.599540
  23 H :    0.158572
  24 H :    0.159691
  25 H :    0.163610
  26 H :    0.150515
  27 H :    0.146168
  28 H :    0.363872
Sum of atomic charges:    0.0000000

LOEWDIN ATOMIC CHARGES
----------------------
   0 C :    0.174651
   1 C :   -0.224872
   2 C :   -0.217601
   3 C :   -0.025870
   4 O :   -0.312707
   5 H :    0.111175
   6 H :    0.113729
   7 H :    0.113875
   8 H :    0.113659
   9 H :    0.118200
  10 H :    0.107477
  11 H :    0.101048
  12 C :   -0.040403
  13 H :    0.105042
  14 H :    0.118168
  15 O :   -0.336143
  16 C :   -0.000767
  17 C :    0.037029
  18 C :   -0.239989
  19 C :   -0.040088
  20 O :   -0.333094
  21 H :    0.118808
  22 O :   -0.414177
  23 H :    0.119190
  24 H :    0.125036
  25 H :    0.120126
  26 H :    0.104076
  27 H :    0.101933
  28 H :    0.282489

  Mayer bond orders larger than 0.100000
B(  0-C ,  1-C ) :   0.9408 B(  0-C ,  4-O ) :   0.9233 B(  0-C ,  5-H ) :   0.9119
B(  0-C , 15-O ) :   0.8282 B(  1-C ,  2-C ) :   0.9507 B(  1-C ,  6-H ) :   0.9360
B(  1-C ,  7-H ) :   0.9227 B(  2-C ,  3-C ) :   0.9541 B(  2-C ,  8-H ) :   0.9451
B(  2-C ,  9-H ) :   0.9433 B(  3-C ,  4-O ) :   0.8379 B(  3-C , 10-H ) :   0.9348
B(  3-C , 11-H ) :   0.9399 B( 12-C , 13-H ) :   0.9204 B( 12-C , 14-H ) :   0.9292
B( 12-C , 15-O ) :   0.8866 B( 12-C , 16-C ) :   0.8831 B( 16-C , 17-C ) :   0.9041
B( 16-C , 20-O ) :   0.8556 B( 16-C , 21-H ) :   0.9119 B( 17-C , 18-C ) :   0.9189
B( 17-C , 22-O ) :   0.8958 B( 17-C , 23-H ) :   0.9344 B( 18-C , 19-C ) :   0.9455
B( 18-C , 24-H ) :   0.9358 B( 18-C , 25-H ) :   0.9171 B( 19-C , 20-O ) :   0.8403
B( 19-C , 26-H ) :   0.9203 B( 19-C , 27-H ) :   0.9360 B( 22-O , 28-H ) :   0.7955

FINAL SINGLE POINT ENERGY      -652.856557846887

DIPOLE MOMENT
-------------
                                X             Y             Z
Electronic contribution:     -2.75312      -4.51648      -1.68925
Nuclear contribution   :      3.29341       5.34261       1.58453
                        -----------------------------------------
Total Dipole Moment    :      0.54029       0.82613      -0.10472
                        -----------------------------------------
Magnitude (a.u.)       :      0.99266
Magnitude (Debye)      :      2.52313

Rotational constants in cm-1:     0.058576     0.014612     0.013700
Rotational constants in MHz :  1756.076606   438.050514   410.712396

                             ****ORCA TERMINATED NORMALLY****
TOTAL RUN TIME: 0 days 0 hours 59 minutes 22 seconds 402 msec
