                         Program Version 4.2.0 -  RELEASE  -
|  1> # Test redundant internal optimization
|  2> #
|  3> ! RKS B3LYP  Opt TightSCF SmallPrint
|  4>
|  5> %basis
|  6>         Basis "6-31G"
|  7> end
|  8>
|  9> %geom
| 10> Constraints
| 11> { D 4  0  15  12  165.0   C } # D for Dihedral angle
| 12> { D 0  15  12  16  315.0   C } # D for Dihedral angle
| 13> { D 0  4  3  2   C } # D for Dihedral angle
| 14> { D 4  3  2  1   C } # D for Dihedral angle
| 15> { D 3  2  1  0   C } # D for Dihedral angle
| 16> { D 2  1  0  4   C } # D for Dihedral angle
| 17> { D 1  0  4  3   C } # D for Dihedral angle
| 18> { D 16  20  19  18   C } # D for Dihedral angle
| 19> { D 20  19  18  17   C } # D for Dihedral angle
| 20> { D 19  18  17  16   C } # D for Dihedral angle
| 21> { D 18  17  16  20   C } # D for Dihedral angle
| 22> { D 17  16  20  19   C } # D for Dihedral angle
| 23> { D 15  12  16  20   C } # D for Dihedral angle
| 24> end
| 25> end
| 26>
| 27>
| 28> #%pal
| 29> #nprocs 8
| 30> #end
| 31>
| 32> * xyz 0 1
| 33> C  -21.048   26.222   46.251
| 34> C  -20.361   27.558   45.944
| 35> C  -20.329   28.222   47.341
| 36> C  -20.110   27.022   48.296
| 37> O  -20.473   25.807   47.535
| 38> H  -20.833   25.428   45.533
| 39> H  -19.344   27.382   45.576
| 40> H  -20.898   28.157   45.201
| 41> H  -19.543   28.978   47.434
| 42> H  -21.289   28.710   47.548
| 43> H  -20.733   27.082   49.195
| 44> H  -19.064   26.913   48.597
| 45> C  -23.260   27.170   45.210
| 46> H  -23.322   26.519   44.330
| 47> H  -24.279   27.470   45.488
| 48> O  -22.586   26.394   46.375
| 49> C  -22.480   28.454   44.814
| 50> C  -23.232   29.254   43.744
| 51> C  -24.304   29.980   44.591
| 52> C  -23.563   30.273   45.920
| 53> O  -22.391   29.372   45.955
| 54> H  -21.458   28.183   44.541
| 55> H  -22.558   29.977   43.271
| 56> O  -23.847   28.359   42.634
| 57> H  -24.677   30.892   44.113
| 58> H  -25.160   29.318   44.764
| 59> H  -24.188   30.081   46.800
| 60> H  -23.184   31.297   45.971
| 61> H  -24.527   27.628   43.083
| 62> *
| 63>
| 64>                          ****END OF INPUT****
 Total Charge           Charge          ....    0
 Multiplicity           Mult            ....    1
 Number of Electrons    NEL             ....  102
FINAL SINGLE POINT ENERGY      -652.722891157582
FINAL SINGLE POINT ENERGY      -652.813382034965
FINAL SINGLE POINT ENERGY      -652.836632092774
FINAL SINGLE POINT ENERGY      -652.841971209145
FINAL SINGLE POINT ENERGY      -652.842843582500
FINAL SINGLE POINT ENERGY      -652.843063958430
FINAL SINGLE POINT ENERGY      -652.843092064189
FINAL SINGLE POINT ENERGY      -652.843098421082
FINAL SINGLE POINT ENERGY      -652.843099208078
                    ***********************HURRAY********************

CARTESIAN COORDINATES (ANGSTROEM)
---------------------------------
  C    -20.894557   26.225183   46.229379
  C    -19.935736   27.408558   46.088255
  C    -20.073772   28.107652   47.469339
  C    -20.272814   26.913677   48.424652
  O    -20.680806   25.772975   47.571802
  H    -20.680054   25.383944   45.562491
  H    -18.926134   26.995925   45.966504
  H    -20.126777   28.078345   45.254654
  H    -19.190717   28.702864   47.721591
  H    -20.947767   28.763063   47.451481
  H    -21.052656   27.085226   49.171411
  H    -19.349345   26.610997   48.928338
  C    -23.067512   27.273438   45.172844
  H    -23.224259   26.633227   44.288505
  H    -24.036868   27.416376   45.662901
  O    -22.329908   26.516378   46.170052
  C    -22.559637   28.617036   44.640917
  C    -23.555520   29.256343   43.652778
  C    -24.572983   29.945651   44.619817
  C    -23.666825   30.407993   45.783054
  O    -22.406767   29.627001   45.683888
  H    -21.585557   28.503531   44.165224
  H    -23.030498   30.010576   43.062223
  O    -24.137224   28.370285   42.671119
  H    -25.101423   30.772022   44.138339
  H    -25.317737   29.212844   44.955337
  H    -24.112465   30.235039   46.767204
  H    -23.392879   31.464206   45.699882
  H    -24.811799   27.791646   43.081022

 Multiplicity           Mult            ....    1
 Number of Electrons    NEL             ....  102
 Basis Dimension        Dim             ....  149

ORBITAL ENERGIES
----------------

  NO   OCC          E(Eh)            E(eV)
   0   2.0000     -19.156984      -521.2880
   1   2.0000     -19.149504      -521.0845
   2   2.0000     -19.130006      -520.5539
   3   2.0000     -19.129263      -520.5337
   4   2.0000     -10.274303      -279.5780
   5   2.0000     -10.253848      -279.0214
   6   2.0000     -10.239964      -278.6436
   7   2.0000     -10.239812      -278.6394
   8   2.0000     -10.233884      -278.4781
   9   2.0000     -10.214177      -277.9419
  10   2.0000     -10.202922      -277.6356
  11   2.0000     -10.178327      -276.9664
  12   2.0000     -10.170989      -276.7667
  13   2.0000      -1.045038       -28.4369
  14   2.0000      -1.039584       -28.2885
  15   2.0000      -1.025364       -27.9016
  16   2.0000      -0.979671       -26.6582
  17   2.0000      -0.790950       -21.5228
  18   2.0000      -0.774297       -21.0697
  19   2.0000      -0.773295       -21.0424
  20   2.0000      -0.731704       -19.9107
  21   2.0000      -0.683455       -18.5977
  22   2.0000      -0.620174       -16.8758
  23   2.0000      -0.602873       -16.4050
  24   2.0000      -0.589207       -16.0331
  25   2.0000      -0.569148       -15.4873
  26   2.0000      -0.530639       -14.4394
  27   2.0000      -0.513882       -13.9834
  28   2.0000      -0.492017       -13.3885
  29   2.0000      -0.489516       -13.3204
  30   2.0000      -0.465885       -12.6774
  31   2.0000      -0.453810       -12.3488
  32   2.0000      -0.445113       -12.1121
  33   2.0000      -0.437603       -11.9078
  34   2.0000      -0.434308       -11.8181
  35   2.0000      -0.421555       -11.4711
  36   2.0000      -0.409864       -11.1530
  37   2.0000      -0.403738       -10.9863
  38   2.0000      -0.383885       -10.4460
  39   2.0000      -0.370714       -10.0876
  40   2.0000      -0.360272        -9.8035
  41   2.0000      -0.347354        -9.4520
  42   2.0000      -0.342360        -9.3161
  43   2.0000      -0.334835        -9.1113
  44   2.0000      -0.322088        -8.7645
  45   2.0000      -0.302386        -8.2284
  46   2.0000      -0.284750        -7.7484
  47   2.0000      -0.279072        -7.5939
  48   2.0000      -0.260392        -7.0856
  49   2.0000      -0.249760        -6.7963
  50   2.0000      -0.236540        -6.4366
  51   0.0000       0.047130         1.2825
  52   0.0000       0.070242         1.9114
  53   0.0000       0.078192         2.1277
  54   0.0000       0.094187         2.5630
  55   0.0000       0.103674         2.8211

MULLIKEN ATOMIC CHARGES
-----------------------
   0 C :    0.308392
   1 C :   -0.275691
   2 C :   -0.310982
   3 C :   -0.000582
   4 O :   -0.496988
   5 H :    0.139660
   6 H :    0.140763
   7 H :    0.144683
   8 H :    0.131977
   9 H :    0.191331
  10 H :    0.148067
  11 H :    0.137597
  12 C :    0.002881
  13 H :    0.125123
  14 H :    0.142926
  15 O :   -0.527148
  16 C :    0.065209
  17 C :    0.084514
  18 C :   -0.322804
  19 C :   -0.013022
  20 O :   -0.513973
  21 H :    0.158433
  22 H :    0.169398
  23 O :   -0.596391
  24 H :    0.159612
  25 H :    0.140991
  26 H :    0.151712
  27 H :    0.154293
  28 H :    0.360019
Sum of atomic charges:   -0.0000000

LOEWDIN ATOMIC CHARGES
----------------------
   0 C :    0.190435
   1 C :   -0.229492
   2 C :   -0.222709
   3 C :   -0.027094
   4 O :   -0.303065
   5 H :    0.095804
   6 H :    0.113866
   7 H :    0.115335
   8 H :    0.110470
   9 H :    0.130649
  10 H :    0.106053
  11 H :    0.099528
  12 C :   -0.046028
  13 H :    0.093769
  14 H :    0.108446
  15 O :   -0.339579
  16 C :    0.001698
  17 C :    0.037819
  18 C :   -0.240698
  19 C :   -0.029179
  20 O :   -0.320307
  21 H :    0.111223
  22 H :    0.119458
  23 O :   -0.403371
  24 H :    0.124161
  25 H :    0.107342
  26 H :    0.106957
  27 H :    0.108152
  28 H :    0.280354

  Mayer bond orders larger than 0.100000
B(  0-C ,  1-C ) :   0.9282 B(  0-C ,  4-O ) :   0.9391 B(  0-C ,  5-H ) :   0.9239
B(  0-C , 15-O ) :   0.8325 B(  1-C ,  2-C ) :   0.9525 B(  1-C ,  6-H ) :   0.9329
B(  1-C ,  7-H ) :   0.9215 B(  2-C ,  3-C ) :   0.9532 B(  2-C ,  8-H ) :   0.9462
B(  2-C ,  9-H ) :   0.9213 B(  3-C ,  4-O ) :   0.8317 B(  3-C , 10-H ) :   0.9362
B(  3-C , 11-H ) :   0.9399 B( 12-C , 13-H ) :   0.8998 B( 12-C , 14-H ) :   0.9354
B( 12-C , 15-O ) :   0.8779 B( 12-C , 16-C ) :   0.8850 B( 16-C , 17-C ) :   0.8608
B( 16-C , 20-O ) :   0.8503 B( 16-C , 21-H ) :   0.9181 B( 17-C , 18-C ) :   0.9204
B( 17-C , 22-H ) :   0.9334 B( 17-C , 23-O ) :   0.9063 B( 18-C , 19-C ) :   0.9397
B( 18-C , 24-H ) :   0.9416 B( 18-C , 25-H ) :   0.9395 B( 19-C , 20-O ) :   0.8360
B( 19-C , 26-H ) :   0.9318 B( 19-C , 27-H ) :   0.9372 B( 23-O , 28-H ) :   0.7952

FINAL SINGLE POINT ENERGY      -652.843099287440

DIPOLE MOMENT
-------------
                                X             Y             Z
Electronic contribution:     -0.56023      -3.75723      -1.05334
Nuclear contribution   :      0.06942       4.94966       0.71980
                        -----------------------------------------
Total Dipole Moment    :     -0.49081       1.19244      -0.33354
                        -----------------------------------------
Magnitude (a.u.)       :      1.33193
Magnitude (Debye)      :      3.38550

Rotational constants in cm-1:     0.053050     0.014955     0.013310
Rotational constants in MHz :  1590.409941   448.340892   399.014236

                             ****ORCA TERMINATED NORMALLY****
TOTAL RUN TIME: 0 days 0 hours 33 minutes 37 seconds 166 msec
