                         Program Version 4.2.1 -  RELEASE  -
|  1> # Test redundant internal optimization
|  2> #
|  3> ! RKS B3LYP  Opt TightSCF SmallPrint
|  4>
|  5> %basis
|  6>         Basis "6-31G"
|  7> end
|  8>
|  9> %geom
| 10> Constraints
| 11> { D 4  0  19  14  150.0   C } # D for Dihedral angle
| 12> { D 0  19  14  12  135.0   C } # D for Dihedral angle
| 13> { D 0  4  3  2   C } # D for Dihedral angle
| 14> { D 4  3  2  1   C } # D for Dihedral angle
| 15> { D 3  2  1  0   C } # D for Dihedral angle
| 16> { D 2  1  0  4   C } # D for Dihedral angle
| 17> { D 1  0  4  3   C } # D for Dihedral angle
| 18> { D 14  15  16  17   C } # D for Dihedral angle
| 19> { D 15  16  17  12   C } # D for Dihedral angle
| 20> { D 16  17  12  14   C } # D for Dihedral angle
| 21> { D 17  12  14  15   C } # D for Dihedral angle
| 22> { D 12  14  15  16   C } # D for Dihedral angle
| 23> end
| 24> end
| 25>
| 26>
| 27> #%pal
| 28> #nprocs 8
| 29> #end
| 30>
| 31> * xyz 0 1
| 32> C  -21.048   26.222   46.251
| 33> C  -20.361   27.558   45.944
| 34> C  -20.329   28.222   47.341
| 35> C  -20.110   27.022   48.296
| 36> O  -20.473   25.807   47.535
| 37> H  -20.833   25.428   45.533
| 38> H  -19.344   27.382   45.576
| 39> H  -20.898   28.157   45.201
| 40> H  -19.543   28.978   47.434
| 41> H  -21.289   28.710   47.548
| 42> H  -20.733   27.082   49.195
| 43> H  -19.064   26.913   48.597
| 44> C  -24.300   26.825   44.822
| 45> H  -24.583   27.426   43.944
| 46> C  -23.030   27.370   45.486
| 47> C  -23.586   28.567   46.292
| 48> C  -24.983   28.070   46.742
| 49> O  -25.327   26.929   45.865
| 50> H  -24.245   25.774   44.533
| 51> O  -22.472   26.381   46.366
| 52> H  -22.261   27.664   44.764
| 53> H  -22.949   28.843   47.137
| 54> H  -23.681   29.447   45.643
| 55> H  -25.755   28.841   46.646
| 56> H  -24.982   27.697   47.771
| 57> *
| 58>
| 59>                          ****END OF INPUT****
 Total Charge           Charge          ....    0
 Multiplicity           Mult            ....    1
 Number of Electrons    NEL             ....   86
FINAL SINGLE POINT ENERGY      -538.407276996239
FINAL SINGLE POINT ENERGY      -538.420688565521
FINAL SINGLE POINT ENERGY      -538.422034858184
FINAL SINGLE POINT ENERGY      -538.422358175221
FINAL SINGLE POINT ENERGY      -538.422372837509
FINAL SINGLE POINT ENERGY      -538.422377876837
                    ***********************HURRAY********************

CARTESIAN COORDINATES (ANGSTROEM)
---------------------------------
  C    -21.015021   26.285128   46.235804
  C    -20.143647   27.512594   45.959442
  C    -20.137075   28.225791   47.340167
  C    -20.149499   27.037475   48.327590
  O    -20.606181   25.864149   47.545310
  H    -20.819123   25.440192   45.569551
  H    -19.137722   27.162304   45.703442
  H    -20.490365   28.153946   45.145634
  H    -19.258331   28.864702   47.471276
  H    -21.027719   28.848383   47.456676
  H    -20.830473   27.185160   49.169915
  H    -19.153154   26.793588   48.707176
  C    -24.372742   26.822872   44.818200
  H    -24.745708   27.403031   43.960366
  C    -23.126847   27.478059   45.416770
  C    -23.744710   28.608812   46.264067
  C    -25.061282   27.983069   46.784494
  O    -25.343967   26.822216   45.913207
  H    -24.203998   25.786554   44.524743
  O    -22.459852   26.499030   46.266859
  H    -22.454039   27.855741   44.638933
  H    -23.085275   28.924050   47.074786
  H    -23.945564   29.476602   45.624397
  H    -25.904882   28.681501   46.739719
  H    -24.961825   27.600054   47.803479

 Multiplicity           Mult            ....    1
 Number of Electrons    NEL             ....   86
 Basis Dimension        Dim             ....  127

ORBITAL ENERGIES
----------------

  NO   OCC          E(Eh)            E(eV)
   0   2.0000     -19.140542      -520.8406
   1   2.0000     -19.135856      -520.7131
   2   2.0000     -19.125136      -520.4214
   3   2.0000     -10.282022      -279.7881
   4   2.0000     -10.243389      -278.7368
   5   2.0000     -10.227995      -278.3179
   6   2.0000     -10.219628      -278.0902
   7   2.0000     -10.218925      -278.0711
   8   2.0000     -10.195815      -277.4422
   9   2.0000     -10.194545      -277.4077
  10   2.0000     -10.187576      -277.2181
  11   2.0000      -1.051747       -28.6195
  12   2.0000      -1.013091       -27.5676
  13   2.0000      -0.987069       -26.8595
  14   2.0000      -0.791855       -21.5475
  15   2.0000      -0.784308       -21.3421
  16   2.0000      -0.741431       -20.1754
  17   2.0000      -0.725001       -19.7283
  18   2.0000      -0.619494       -16.8573
  19   2.0000      -0.603016       -16.4089
  20   2.0000      -0.597726       -16.2650
  21   2.0000      -0.567312       -15.4373
  22   2.0000      -0.524943       -14.2844
  23   2.0000      -0.505501       -13.7554
  24   2.0000      -0.492548       -13.4029
  25   2.0000      -0.481741       -13.1088
  26   2.0000      -0.452264       -12.3067
  27   2.0000      -0.443120       -12.0579
  28   2.0000      -0.431491       -11.7415
  29   2.0000      -0.422432       -11.4950
  30   2.0000      -0.408403       -11.1132
  31   2.0000      -0.384753       -10.4697
  32   2.0000      -0.375957       -10.2303
  33   2.0000      -0.367781       -10.0078
  34   2.0000      -0.366161        -9.9637
  35   2.0000      -0.358552        -9.7567
  36   2.0000      -0.353453        -9.6179
  37   2.0000      -0.315621        -8.5885
  38   2.0000      -0.301237        -8.1971
  39   2.0000      -0.292393        -7.9564
  40   2.0000      -0.262041        -7.1305
  41   2.0000      -0.252903        -6.8818
  42   2.0000      -0.229004        -6.2315
  43   0.0000       0.066458         1.8084
  44   0.0000       0.087576         2.3831
  45   0.0000       0.093057         2.5322
  46   0.0000       0.108355         2.9485
  47   0.0000       0.116047         3.1578

MULLIKEN ATOMIC CHARGES
-----------------------
   0 C :    0.319325
   1 C :   -0.298576
   2 C :   -0.306058
   3 C :   -0.000425
   4 O :   -0.494540
   5 H :    0.149302
   6 H :    0.155494
   7 H :    0.143511
   8 H :    0.145271
   9 H :    0.153552
  10 H :    0.151635
  11 H :    0.144240
  12 C :    0.016235
  13 H :    0.118949
  14 C :    0.057714
  15 C :   -0.297276
  16 C :    0.004118
  17 O :   -0.516512
  18 H :    0.163131
  19 O :   -0.516466
  20 H :    0.122340
  21 H :    0.155806
  22 H :    0.138056
  23 H :    0.134298
  24 H :    0.156878
Sum of atomic charges:    0.0000000

LOEWDIN ATOMIC CHARGES
----------------------
   0 C :    0.186083
   1 C :   -0.233991
   2 C :   -0.218619
   3 C :   -0.027112
   4 O :   -0.303258
   5 H :    0.099881
   6 H :    0.121588
   7 H :    0.112763
   8 H :    0.115763
   9 H :    0.110371
  10 H :    0.107958
  11 H :    0.103857
  12 C :   -0.036445
  13 H :    0.088416
  14 C :    0.037097
  15 C :   -0.233693
  16 C :   -0.027242
  17 O :   -0.326482
  18 H :    0.121349
  19 O :   -0.329950
  20 H :    0.094912
  21 H :    0.118408
  22 H :    0.110811
  23 H :    0.097461
  24 H :    0.110073

  Mayer bond orders larger than 0.100000
B(  0-C ,  1-C ) :   0.9273 B(  0-C ,  4-O ) :   0.9314 B(  0-C ,  5-H ) :   0.9263
B(  0-C , 19-O ) :   0.8543 B(  1-C ,  2-C ) :   0.9508 B(  1-C ,  6-H ) :   0.9329
B(  1-C ,  7-H ) :   0.9273 B(  2-C ,  3-C ) :   0.9539 B(  2-C ,  8-H ) :   0.9449
B(  2-C ,  9-H ) :   0.9355 B(  3-C ,  4-O ) :   0.8405 B(  3-C , 10-H ) :   0.9340
B(  3-C , 11-H ) :   0.9394 B( 12-C , 13-H ) :   0.9128 B( 12-C , 14-C ) :   0.9271
B( 12-C , 17-O ) :   0.8748 B( 12-C , 18-H ) :   0.9321 B( 14-C , 15-C ) :   0.9387
B( 14-C , 19-O ) :   0.8363 B( 14-C , 20-H ) :   0.9144 B( 15-C , 16-C ) :   0.9473
B( 15-C , 21-H ) :   0.9300 B( 15-C , 22-H ) :   0.9379 B( 16-C , 17-O ) :   0.8574
B( 16-C , 23-H ) :   0.9331 B( 16-C , 24-H ) :   0.9350

FINAL SINGLE POINT ENERGY      -538.422378346378

DIPOLE MOMENT
-------------
                                X             Y             Z
Electronic contribution:     -2.09235      -5.48332       0.07543
Nuclear contribution   :      3.20439       7.12777      -0.64743
                        -----------------------------------------
Total Dipole Moment    :      1.11204       1.64445      -0.57200
                        -----------------------------------------
Magnitude (a.u.)       :      2.06592
Magnitude (Debye)      :      5.25115

Rotational constants in cm-1:     0.076515     0.021475     0.020748
Rotational constants in MHz :  2293.875896   643.815289   622.009920

                             ****ORCA TERMINATED NORMALLY****
TOTAL RUN TIME: 0 days 0 hours 15 minutes 10 seconds 846 msec
