                         Program Version 4.2.0 -  RELEASE  -
|  1> # Test redundant internal optimization
|  2> #
|  3> ! RKS B3LYP  Opt TightSCF SmallPrint
|  4>
|  5> %basis
|  6>         Basis "6-31G"
|  7> end
|  8>
|  9> %geom
| 10> Constraints
| 11> { D 4  0  15  12  300.0   C } # D for Dihedral angle
| 12> { D 0  15  12  16  45.0   C } # D for Dihedral angle
| 13> { D 0  4  3  2   C } # D for Dihedral angle
| 14> { D 4  3  2  1   C } # D for Dihedral angle
| 15> { D 3  2  1  0   C } # D for Dihedral angle
| 16> { D 2  1  0  4   C } # D for Dihedral angle
| 17> { D 1  0  4  3   C } # D for Dihedral angle
| 18> { D 16  20  19  18   C } # D for Dihedral angle
| 19> { D 20  19  18  17   C } # D for Dihedral angle
| 20> { D 19  18  17  16   C } # D for Dihedral angle
| 21> { D 18  17  16  20   C } # D for Dihedral angle
| 22> { D 17  16  20  19   C } # D for Dihedral angle
| 23> { D 15  12  16  20   C } # D for Dihedral angle
| 24> end
| 25> end
| 26>
| 27>
| 28> #%pal
| 29> #nprocs 8
| 30> #end
| 31>
| 32> * xyz 0 1
| 33> C  -21.048   26.222   46.251
| 34> C  -20.361   27.558   45.944
| 35> C  -20.329   28.222   47.341
| 36> C  -20.110   27.022   48.296
| 37> O  -20.473   25.807   47.535
| 38> H  -20.833   25.428   45.533
| 39> H  -19.344   27.382   45.576
| 40> H  -20.898   28.157   45.201
| 41> H  -19.543   28.978   47.434
| 42> H  -21.289   28.710   47.548
| 43> H  -20.733   27.082   49.195
| 44> H  -19.064   26.913   48.597
| 45> C  -23.362   25.116   46.798
| 46> H  -24.377   25.395   47.106
| 47> H  -23.438   24.417   45.955
| 48> O  -22.586   26.394   46.375
| 49> C  -22.683   24.364   47.976
| 50> C  -22.686   25.211   49.253
| 51> C  -24.135   25.012   49.758
| 52> C  -24.446   23.546   49.363
| 53> O  -23.454   23.169   48.333
| 54> H  -21.694   24.024   47.661
| 55> H  -21.966   24.807   49.974
| 56> O  -22.336   26.703   48.997
| 57> H  -24.236   25.184   50.834
| 58> H  -24.811   25.704   49.242
| 59> H  -25.454   23.429   48.951
| 60> H  -24.323   22.853   50.199
| 61> H  -23.045   27.128   48.277
| 62> *
| 63>
| 64>                          ****END OF INPUT****
 Total Charge           Charge          ....    0
 Multiplicity           Mult            ....    1
 Number of Electrons    NEL             ....  102
FINAL SINGLE POINT ENERGY      -652.807310603291
FINAL SINGLE POINT ENERGY      -652.838841090154
FINAL SINGLE POINT ENERGY      -652.855924603770
FINAL SINGLE POINT ENERGY      -652.859601081315
FINAL SINGLE POINT ENERGY      -652.860605630056
FINAL SINGLE POINT ENERGY      -652.860864566908
FINAL SINGLE POINT ENERGY      -652.860942210819
FINAL SINGLE POINT ENERGY      -652.860962771571
FINAL SINGLE POINT ENERGY      -652.860968275049
                    ***********************HURRAY********************

CARTESIAN COORDINATES (ANGSTROEM)
---------------------------------
  C    -21.024173   26.233423   46.342255
  C    -20.501558   27.599906   45.897882
  C    -20.314656   28.325404   47.252821
  C    -19.860483   27.192770   48.202120
  O    -20.252510   25.920837   47.509514
  H    -20.799341   25.425372   45.634821
  H    -19.540662   27.460380   45.391123
  H    -21.192332   28.109150   45.222608
  H    -19.580790   29.135458   47.197565
  H    -21.265416   28.757082   47.583916
  H    -20.348959   27.208773   49.172860
  H    -18.772675   27.146692   48.308835
  C    -23.223586   25.086548   46.872755
  H    -24.232331   25.455917   47.069762
  H    -23.279138   24.398278   46.017919
  O    -22.487870   26.298379   46.442061
  C    -22.682864   24.293181   48.076524
  C    -22.776187   25.099714   49.391043
  C    -24.304579   24.984688   49.739819
  C    -24.639901   23.558673   49.247962
  O    -23.561242   23.153770   48.311738
  H    -21.684572   23.902832   47.886742
  H    -22.158507   24.642855   50.166757
  O    -22.407389   26.498255   49.336601
  H    -24.485348   25.123666   50.808365
  H    -24.853154   25.760009   49.196950
  H    -25.600013   23.493743   48.725615
  H    -24.636965   22.827008   50.061729
  H    -22.589798   26.844238   48.434338

 Multiplicity           Mult            ....    1
 Number of Electrons    NEL             ....  102
 Basis Dimension        Dim             ....  149

ORBITAL ENERGIES
----------------

  NO   OCC          E(Eh)            E(eV)
   0   2.0000     -19.160053      -521.3715
   1   2.0000     -19.148719      -521.0631
   2   2.0000     -19.140737      -520.8459
   3   2.0000     -19.128510      -520.5132
   4   2.0000     -10.283366      -279.8246
   5   2.0000     -10.234930      -278.5066
   6   2.0000     -10.234264      -278.4885
   7   2.0000     -10.232399      -278.4377
   8   2.0000     -10.226886      -278.2877
   9   2.0000     -10.218222      -278.0520
  10   2.0000     -10.188461      -277.2421
  11   2.0000     -10.187609      -277.2189
  12   2.0000     -10.183031      -277.0943
  13   2.0000      -1.055568       -28.7235
  14   2.0000      -1.027863       -27.9696
  15   2.0000      -1.006083       -27.3769
  16   2.0000      -1.000547       -27.2263
  17   2.0000      -0.790981       -21.5237
  18   2.0000      -0.770302       -20.9610
  19   2.0000      -0.763023       -20.7629
  20   2.0000      -0.734018       -19.9736
  21   2.0000      -0.676409       -18.4060
  22   2.0000      -0.602265       -16.3885
  23   2.0000      -0.600061       -16.3285
  24   2.0000      -0.597523       -16.2594
  25   2.0000      -0.572391       -15.5755
  26   2.0000      -0.527174       -14.3451
  27   2.0000      -0.513721       -13.9791
  28   2.0000      -0.494307       -13.4508
  29   2.0000      -0.486811       -13.2468
  30   2.0000      -0.463343       -12.6082
  31   2.0000      -0.455718       -12.4007
  32   2.0000      -0.438952       -11.9445
  33   2.0000      -0.435685       -11.8556
  34   2.0000      -0.424396       -11.5484
  35   2.0000      -0.408665       -11.1203
  36   2.0000      -0.403371       -10.9763
  37   2.0000      -0.394108       -10.7242
  38   2.0000      -0.379465       -10.3258
  39   2.0000      -0.367899       -10.0111
  40   2.0000      -0.358189        -9.7468
  41   2.0000      -0.353100        -9.6083
  42   2.0000      -0.349711        -9.5161
  43   2.0000      -0.345384        -9.3984
  44   2.0000      -0.331622        -9.0239
  45   2.0000      -0.306389        -8.3373
  46   2.0000      -0.301312        -8.1991
  47   2.0000      -0.273707        -7.4479
  48   2.0000      -0.263351        -7.1661
  49   2.0000      -0.252126        -6.8607
  50   2.0000      -0.241178        -6.5628
  51   0.0000       0.058607         1.5948
  52   0.0000       0.083552         2.2736
  53   0.0000       0.095307         2.5934
  54   0.0000       0.101780         2.7696
  55   0.0000       0.108605         2.9553

MULLIKEN ATOMIC CHARGES
-----------------------
   0 C :    0.290665
   1 C :   -0.266281
   2 C :   -0.314092
   3 C :   -0.031795
   4 O :   -0.515282
   5 H :    0.148317
   6 H :    0.152672
   7 H :    0.160579
   8 H :    0.146756
   9 H :    0.153373
  10 H :    0.198367
  11 H :    0.141456
  12 C :   -0.052628
  13 H :    0.158408
  14 H :    0.158967
  15 O :   -0.538734
  16 C :    0.066126
  17 C :    0.106986
  18 C :   -0.303461
  19 C :   -0.020737
  20 O :   -0.522057
  21 H :    0.182611
  22 H :    0.157756
  23 O :   -0.625073
  24 H :    0.152166
  25 H :    0.142791
  26 H :    0.139799
  27 H :    0.152013
  28 H :    0.380331
Sum of atomic charges:   -0.0000000

LOEWDIN ATOMIC CHARGES
----------------------
   0 C :    0.166819
   1 C :   -0.213604
   2 C :   -0.218414
   3 C :   -0.042822
   4 O :   -0.320043
   5 H :    0.095437
   6 H :    0.118267
   7 H :    0.125289
   8 H :    0.116911
   9 H :    0.112939
  10 H :    0.129058
  11 H :    0.102083
  12 C :   -0.057483
  13 H :    0.113498
  14 H :    0.109951
  15 O :   -0.339152
  16 C :    0.010047
  17 C :    0.041493
  18 C :   -0.237625
  19 C :   -0.035595
  20 O :   -0.320093
  21 H :    0.126995
  22 H :    0.114464
  23 O :   -0.414599
  24 H :    0.122073
  25 H :    0.109443
  26 H :    0.100483
  27 H :    0.106935
  28 H :    0.277241

  Mayer bond orders larger than 0.100000
B(  0-C ,  1-C ) :   0.9414 B(  0-C ,  4-O ) :   0.9234 B(  0-C ,  5-H ) :   0.9253
B(  0-C , 15-O ) :   0.8259 B(  1-C ,  2-C ) :   0.9564 B(  1-C ,  6-H ) :   0.9397
B(  1-C ,  7-H ) :   0.9364 B(  2-C ,  3-C ) :   0.9578 B(  2-C ,  8-H ) :   0.9450
B(  2-C ,  9-H ) :   0.9447 B(  3-C ,  4-O ) :   0.8061 B(  3-C , 10-H ) :   0.9038
B(  3-C , 11-H ) :   0.9392 B( 12-C , 13-H ) :   0.9362 B( 12-C , 14-H ) :   0.9269
B( 12-C , 15-O ) :   0.8116 B( 12-C , 16-C ) :   0.8817 B( 16-C , 17-C ) :   0.9054
B( 16-C , 20-O ) :   0.8336 B( 16-C , 21-H ) :   0.9205 B( 17-C , 18-C ) :   0.9078
B( 17-C , 22-H ) :   0.9344 B( 17-C , 23-O ) :   0.8950 B( 18-C , 19-C ) :   0.9408
B( 18-C , 24-H ) :   0.9445 B( 18-C , 25-H ) :   0.9431 B( 19-C , 20-O ) :   0.8321
B( 19-C , 26-H ) :   0.9340 B( 19-C , 27-H ) :   0.9383 B( 23-O , 28-H ) :   0.7338

FINAL SINGLE POINT ENERGY      -652.860969809410

DIPOLE MOMENT
-------------
                                X             Y             Z
Electronic contribution:      0.32151      -3.40204      -0.69031
Nuclear contribution   :     -0.41478       3.99414       0.48549
                        -----------------------------------------
Total Dipole Moment    :     -0.09327       0.59209      -0.20482
                        -----------------------------------------
Magnitude (a.u.)       :      0.63343
Magnitude (Debye)      :      1.61004

Rotational constants in cm-1:     0.057602     0.016915     0.015302
Rotational constants in MHz :  1726.856078   507.093387   458.729667

                             ****ORCA TERMINATED NORMALLY****
TOTAL RUN TIME: 0 days 0 hours 35 minutes 25 seconds 827 msec
