                         Program Version 4.2.0 -  RELEASE  -
|  1> # Test redundant internal optimization
|  2> #
|  3> ! RKS B3LYP  Opt TightSCF SmallPrint
|  4>
|  5> %basis
|  6>         Basis "6-31G"
|  7> end
|  8>
|  9> %geom
| 10> Constraints
| 11> { D 4  0  15  12  270.0   C } # D for Dihedral angle
| 12> { D 0  15  12  16  120.0   C } # D for Dihedral angle
| 13> { D 0  4  3  2   C } # D for Dihedral angle
| 14> { D 4  3  2  1   C } # D for Dihedral angle
| 15> { D 3  2  1  0   C } # D for Dihedral angle
| 16> { D 2  1  0  4   C } # D for Dihedral angle
| 17> { D 1  0  4  3   C } # D for Dihedral angle
| 18> { D 16  20  19  18   C } # D for Dihedral angle
| 19> { D 20  19  18  17   C } # D for Dihedral angle
| 20> { D 19  18  17  16   C } # D for Dihedral angle
| 21> { D 18  17  16  20   C } # D for Dihedral angle
| 22> { D 17  16  20  19   C } # D for Dihedral angle
| 23> { D 15  12  16  20   C } # D for Dihedral angle
| 24> end
| 25> end
| 26>
| 27>
| 28> #%pal
| 29> #nprocs 8
| 30> #end
| 31>
| 32> * xyz 0 1
| 33> C  -21.048   26.222   46.251
| 34> C  -20.361   27.558   45.944
| 35> C  -20.329   28.222   47.341
| 36> C  -20.110   27.022   48.296
| 37> O  -20.473   25.807   47.535
| 38> H  -20.833   25.428   45.533
| 39> H  -19.344   27.382   45.576
| 40> H  -20.898   28.157   45.201
| 41> H  -19.543   28.978   47.434
| 42> H  -21.289   28.710   47.548
| 43> H  -20.733   27.082   49.195
| 44> H  -19.064   26.913   48.597
| 45> C  -23.420   25.119   46.072
| 46> H  -24.087   25.316   45.224
| 47> H  -22.760   24.284   45.803
| 48> O  -22.586   26.394   46.375
| 49> C  -24.285   24.666   47.281
| 50> C  -23.427   24.458   48.534
| 51> C  -23.229   25.913   49.023
| 52> C  -24.575   26.591   48.664
| 53> O  -25.228   25.723   47.660
| 54> H  -24.878   23.797   46.990
| 55> H  -23.981   23.873   49.276
| 56> O  -22.084   23.734   48.241
| 57> H  -23.003   25.975   50.093
| 58> H  -22.402   26.384   48.479
| 59> H  -24.441   27.592   48.241
| 60> H  -25.251   26.657   49.521
| 61> H  -21.513   24.303   47.500
| 62> *
| 63>
| 64>                          ****END OF INPUT****
 Total Charge           Charge          ....    0
 Multiplicity           Mult            ....    1
 Number of Electrons    NEL             ....  102
FINAL SINGLE POINT ENERGY      -652.827549878586
FINAL SINGLE POINT ENERGY      -652.855065814521
FINAL SINGLE POINT ENERGY      -652.867205517505
FINAL SINGLE POINT ENERGY      -652.870593134185
FINAL SINGLE POINT ENERGY      -652.871602278477
FINAL SINGLE POINT ENERGY      -652.871737782060
FINAL SINGLE POINT ENERGY      -652.871762663019
FINAL SINGLE POINT ENERGY      -652.871768145057
                    ***********************HURRAY********************

CARTESIAN COORDINATES (ANGSTROEM)
---------------------------------
  C    -21.046938   26.219287   46.202181
  C    -20.360425   27.539048   45.833258
  C    -20.283769   28.249234   47.207328
  C    -20.045643   27.082090   48.196017
  O    -20.444314   25.843442   47.471784
  H    -20.831128   25.391124   45.520221
  H    -19.359335   27.328036   45.442054
  H    -20.930598   28.096121   45.088172
  H    -19.484351   28.994585   47.255648
  H    -21.234740   28.747672   47.418758
  H    -20.636401   27.165473   49.110852
  H    -18.991792   26.955814   48.458206
  C    -23.290781   25.229270   46.047568
  H    -23.923567   25.474035   45.188129
  H    -22.647147   24.379357   45.789790
  O    -22.466446   26.424411   46.292000
  C    -24.196328   24.798856   47.197912
  C    -23.489282   24.414926   48.509089
  C    -23.357169   25.797497   49.219411
  C    -24.654441   26.519671   48.794663
  O    -25.176132   25.797122   47.607324
  H    -24.775513   23.951343   46.807721
  H    -24.131838   23.741813   49.082859
  O    -22.238509   23.717013   48.329532
  H    -23.262144   25.696886   50.304562
  H    -22.483319   26.308467   48.822674
  H    -24.487471   27.565897   48.521482
  H    -25.433870   26.469781   49.562400
  H    -21.511605   24.361729   48.146406

 Multiplicity           Mult            ....    1
 Number of Electrons    NEL             ....  102
 Basis Dimension        Dim             ....  149

ORBITAL ENERGIES
----------------

  NO   OCC          E(Eh)            E(eV)
   0   2.0000     -19.166843      -521.5563
   1   2.0000     -19.156130      -521.2648
   2   2.0000     -19.128272      -520.5067
   3   2.0000     -19.114905      -520.1430
   4   2.0000     -10.293182      -280.0917
   5   2.0000     -10.242246      -278.7057
   6   2.0000     -10.229478      -278.3582
   7   2.0000     -10.226223      -278.2697
   8   2.0000     -10.223794      -278.2036
   9   2.0000     -10.218004      -278.0460
  10   2.0000     -10.198471      -277.5145
  11   2.0000     -10.197014      -277.4749
  12   2.0000     -10.174710      -276.8679
  13   2.0000      -1.069037       -29.0900
  14   2.0000      -1.018483       -27.7143
  15   2.0000      -1.006921       -27.3997
  16   2.0000      -0.991346       -26.9759
  17   2.0000      -0.800174       -21.7739
  18   2.0000      -0.770201       -20.9582
  19   2.0000      -0.761297       -20.7159
  20   2.0000      -0.739023       -20.1098
  21   2.0000      -0.675609       -18.3843
  22   2.0000      -0.613108       -16.6835
  23   2.0000      -0.604440       -16.4476
  24   2.0000      -0.595065       -16.1925
  25   2.0000      -0.571513       -15.5517
  26   2.0000      -0.524714       -14.2782
  27   2.0000      -0.510299       -13.8859
  28   2.0000      -0.505471       -13.7546
  29   2.0000      -0.484639       -13.1877
  30   2.0000      -0.475532       -12.9399
  31   2.0000      -0.460602       -12.5336
  32   2.0000      -0.445026       -12.1098
  33   2.0000      -0.431678       -11.7465
  34   2.0000      -0.421340       -11.4652
  35   2.0000      -0.413159       -11.2426
  36   2.0000      -0.406782       -11.0691
  37   2.0000      -0.397268       -10.8102
  38   2.0000      -0.373645       -10.1674
  39   2.0000      -0.370133       -10.0718
  40   2.0000      -0.366833        -9.9820
  41   2.0000      -0.358925        -9.7668
  42   2.0000      -0.344238        -9.3672
  43   2.0000      -0.343552        -9.3485
  44   2.0000      -0.320292        -8.7156
  45   2.0000      -0.312038        -8.4910
  46   2.0000      -0.298911        -8.1338
  47   2.0000      -0.280360        -7.6290
  48   2.0000      -0.268747        -7.3130
  49   2.0000      -0.248826        -6.7709
  50   2.0000      -0.230058        -6.2602
  51   0.0000       0.066846         1.8190
  52   0.0000       0.082656         2.2492
  53   0.0000       0.089275         2.4293
  54   0.0000       0.097689         2.6583
  55   0.0000       0.109423         2.9775

MULLIKEN ATOMIC CHARGES
-----------------------
   0 C :    0.280937
   1 C :   -0.256080
   2 C :   -0.301085
   3 C :   -0.009016
   4 O :   -0.535401
   5 H :    0.154881
   6 H :    0.150473
   7 H :    0.164890
   8 H :    0.149297
   9 H :    0.167092
  10 H :    0.148439
  11 H :    0.154100
  12 C :   -0.026569
  13 H :    0.157960
  14 H :    0.145194
  15 O :   -0.515039
  16 C :    0.097210
  17 C :    0.093442
  18 C :   -0.336493
  19 C :   -0.009890
  20 O :   -0.521240
  21 H :    0.145121
  22 H :    0.153476
  23 O :   -0.645486
  24 H :    0.142539
  25 H :    0.169558
  26 H :    0.144924
  27 H :    0.142199
  28 H :    0.394568
Sum of atomic charges:   -0.0000000

LOEWDIN ATOMIC CHARGES
----------------------
   0 C :    0.169545
   1 C :   -0.212805
   2 C :   -0.214587
   3 C :   -0.029651
   4 O :   -0.330779
   5 H :    0.101034
   6 H :    0.117115
   7 H :    0.128742
   8 H :    0.117950
   9 H :    0.121087
  10 H :    0.104910
  11 H :    0.108979
  12 C :   -0.045020
  13 H :    0.114615
  14 H :    0.109607
  15 O :   -0.323451
  16 C :    0.013251
  17 C :    0.040252
  18 C :   -0.247400
  19 C :   -0.027650
  20 O :   -0.324941
  21 H :    0.113938
  22 H :    0.110509
  23 O :   -0.435992
  24 H :    0.114998
  25 H :    0.119716
  26 H :    0.103255
  27 H :    0.100595
  28 H :    0.282177

  Mayer bond orders larger than 0.100000
B(  0-C ,  1-C ) :   0.9462 B(  0-C ,  4-O ) :   0.8498 B(  0-C ,  5-H ) :   0.9163
B(  0-C , 15-O ) :   0.8935 B(  1-C ,  2-C ) :   0.9549 B(  1-C ,  6-H ) :   0.9383
B(  1-C ,  7-H ) :   0.9365 B(  2-C ,  3-C ) :   0.9557 B(  2-C ,  8-H ) :   0.9444
B(  2-C ,  9-H ) :   0.9432 B(  3-C ,  4-O ) :   0.8104 B(  3-C , 10-H ) :   0.9273
B(  3-C , 11-H ) :   0.9414 B( 12-C , 13-H ) :   0.9320 B( 12-C , 14-H ) :   0.9028
B( 12-C , 15-O ) :   0.8294 B( 12-C , 16-C ) :   0.9114 B( 16-C , 17-C ) :   0.8815
B( 16-C , 20-O ) :   0.8767 B( 16-C , 21-H ) :   0.9226 B( 17-C , 18-C ) :   0.9337
B( 17-C , 22-H ) :   0.9370 B( 17-C , 23-O ) :   0.9271 B( 18-C , 19-C ) :   0.9466
B( 18-C , 24-H ) :   0.9427 B( 18-C , 25-H ) :   0.9150 B( 19-C , 20-O ) :   0.8393
B( 19-C , 26-H ) :   0.9321 B( 19-C , 27-H ) :   0.9378 B( 23-O , 28-H ) :   0.7198

FINAL SINGLE POINT ENERGY      -652.871760742712

DIPOLE MOMENT
-------------
                                X             Y             Z
Electronic contribution:     -2.69928      -3.89823      -1.30226
Nuclear contribution   :      3.74266       4.99791       1.10622
                        -----------------------------------------
Total Dipole Moment    :      1.04337       1.09968      -0.19604
                        -----------------------------------------
Magnitude (a.u.)       :      1.52852
Magnitude (Debye)      :      3.88518

Rotational constants in cm-1:     0.043473     0.018793     0.018301
Rotational constants in MHz :  1303.274047   563.393164   548.653458

                             ****ORCA TERMINATED NORMALLY****
TOTAL RUN TIME: 0 days 0 hours 21 minutes 23 seconds 833 msec
