                         Program Version 4.2.1 -  RELEASE  -
|  1> # Test redundant internal optimization
|  2> #
|  3> ! RKS B3LYP  Opt TightSCF SmallPrint
|  4>
|  5> %basis
|  6>         Basis "6-31G"
|  7> end
|  8>
|  9> %geom
| 10> Constraints
| 11> { D 4  0  19  14  270.0   C } # D for Dihedral angle
| 12> { D 0  19  14  12  345.0   C } # D for Dihedral angle
| 13> { D 0  4  3  2   C } # D for Dihedral angle
| 14> { D 4  3  2  1   C } # D for Dihedral angle
| 15> { D 3  2  1  0   C } # D for Dihedral angle
| 16> { D 2  1  0  4   C } # D for Dihedral angle
| 17> { D 1  0  4  3   C } # D for Dihedral angle
| 18> { D 14  15  16  17   C } # D for Dihedral angle
| 19> { D 15  16  17  12   C } # D for Dihedral angle
| 20> { D 16  17  12  14   C } # D for Dihedral angle
| 21> { D 17  12  14  15   C } # D for Dihedral angle
| 22> { D 12  14  15  16   C } # D for Dihedral angle
| 23> end
| 24> end
| 25>
| 26>
| 27> #%pal
| 28> #nprocs 8
| 29> #end
| 30>
| 31> * xyz 0 1
| 32> C  -21.048   26.222   46.251
| 33> C  -20.361   27.558   45.944
| 34> C  -20.329   28.222   47.341
| 35> C  -20.110   27.022   48.296
| 36> O  -20.473   25.807   47.535
| 37> H  -20.833   25.428   45.533
| 38> H  -19.344   27.382   45.576
| 39> H  -20.898   28.157   45.201
| 40> H  -19.543   28.978   47.434
| 41> H  -21.289   28.710   47.548
| 42> H  -20.733   27.082   49.195
| 43> H  -19.064   26.913   48.597
| 44> C  -22.337   24.163   45.373
| 45> H  -22.940   23.378   44.890
| 46> C  -23.226   25.191   46.082
| 47> C  -23.585   24.447   47.390
| 48> C  -22.297   23.646   47.705
| 49> O  -21.518   23.591   46.448
| 50> H  -21.650   24.588   44.640
| 51> O  -22.472   26.381   46.366
| 52> H  -24.108   25.473   45.498
| 53> H  -23.864   25.126   48.202
| 54> H  -24.429   23.768   47.217
| 55> H  -22.507   22.626   48.041
| 56> H  -21.668   24.142   48.451
| 57> *
| 58>
| 59>                          ****END OF INPUT****
 Total Charge           Charge          ....    0
 Multiplicity           Mult            ....    1
 Number of Electrons    NEL             ....   86
FINAL SINGLE POINT ENERGY      -538.409719017541
FINAL SINGLE POINT ENERGY      -538.430458226875
FINAL SINGLE POINT ENERGY      -538.432456957484
FINAL SINGLE POINT ENERGY      -538.432830114699
FINAL SINGLE POINT ENERGY      -538.432868220456
FINAL SINGLE POINT ENERGY      -538.432879648473
                    ***********************HURRAY********************

CARTESIAN COORDINATES (ANGSTROEM)
---------------------------------
  C    -20.824381   26.251959   46.228936
  C    -20.338364   27.681660   45.977513
  C    -20.426764   28.300038   47.393865
  C    -20.048771   27.116938   48.314047
  O    -20.220690   25.889736   47.498837
  H    -20.484004   25.504253   45.514143
  H    -19.300474   27.653238   45.626340
  H    -20.953426   28.199913   45.239501
  H    -19.759118   29.157178   47.522840
  H    -21.452895   28.626322   47.586343
  H    -20.684394   27.047486   49.201054
  H    -19.000115   27.142482   48.625946
  C    -22.476228   23.953848   45.342681
  H    -23.264422   23.308129   44.926620
  C    -23.123557   25.140679   46.055490
  C    -23.539243   24.507301   47.396547
  C    -22.409961   23.490752   47.685794
  O    -21.719962   23.265776   46.386549
  H    -21.782839   24.214283   44.540244
  O    -22.261703   26.302042   46.316924
  H    -23.973472   25.549463   45.502107
  H    -23.635402   25.274262   48.167982
  H    -24.506688   24.002058   47.284627
  H    -22.785370   22.531344   48.055664
  H    -21.653758   23.889861   48.363404

 Multiplicity           Mult            ....    1
 Number of Electrons    NEL             ....   86
 Basis Dimension        Dim             ....  127

ORBITAL ENERGIES
----------------

  NO   OCC          E(Eh)            E(eV)
   0   2.0000     -19.137611      -520.7609
   1   2.0000     -19.132055      -520.6097
   2   2.0000     -19.128334      -520.5084
   3   2.0000     -10.272751      -279.5358
   4   2.0000     -10.240265      -278.6518
   5   2.0000     -10.226907      -278.2883
   6   2.0000     -10.219223      -278.0792
   7   2.0000     -10.212508      -277.8965
   8   2.0000     -10.180294      -277.0199
   9   2.0000     -10.180152      -277.0160
  10   2.0000     -10.179394      -276.9954
  11   2.0000      -1.046302       -28.4713
  12   2.0000      -1.010314       -27.4920
  13   2.0000      -0.983980       -26.7755
  14   2.0000      -0.788920       -21.4676
  15   2.0000      -0.771959       -21.0061
  16   2.0000      -0.735381       -20.0107
  17   2.0000      -0.719915       -19.5899
  18   2.0000      -0.617135       -16.7931
  19   2.0000      -0.592944       -16.1348
  20   2.0000      -0.592396       -16.1199
  21   2.0000      -0.562051       -15.2942
  22   2.0000      -0.522015       -14.2047
  23   2.0000      -0.498683       -13.5699
  24   2.0000      -0.480560       -13.0767
  25   2.0000      -0.473936       -12.8964
  26   2.0000      -0.447231       -12.1698
  27   2.0000      -0.443716       -12.0741
  28   2.0000      -0.421618       -11.4728
  29   2.0000      -0.410038       -11.1577
  30   2.0000      -0.396988       -10.8026
  31   2.0000      -0.381591       -10.3836
  32   2.0000      -0.371689       -10.1142
  33   2.0000      -0.362306        -9.8588
  34   2.0000      -0.355980        -9.6867
  35   2.0000      -0.350580        -9.5398
  36   2.0000      -0.339757        -9.2452
  37   2.0000      -0.317801        -8.6478
  38   2.0000      -0.305925        -8.3246
  39   2.0000      -0.289281        -7.8717
  40   2.0000      -0.263767        -7.1775
  41   2.0000      -0.242712        -6.6045
  42   2.0000      -0.233017        -6.3407
  43   0.0000       0.081007         2.2043
  44   0.0000       0.102135         2.7792
  45   0.0000       0.103055         2.8043
  46   0.0000       0.109428         2.9777
  47   0.0000       0.115524         3.1436

MULLIKEN ATOMIC CHARGES
-----------------------
   0 C :    0.289421
   1 C :   -0.254048
   2 C :   -0.296141
   3 C :   -0.003604
   4 O :   -0.501201
   5 H :    0.159429
   6 H :    0.143326
   7 H :    0.150156
   8 H :    0.137344
   9 H :    0.159790
  10 H :    0.141159
  11 H :    0.140607
  12 C :   -0.040629
  13 H :    0.134342
  14 C :    0.094819
  15 C :   -0.287445
  16 C :   -0.011122
  17 O :   -0.519462
  18 H :    0.153643
  19 O :   -0.538684
  20 H :    0.143086
  21 H :    0.162127
  22 H :    0.133350
  23 H :    0.131996
  24 H :    0.177738
Sum of atomic charges:    0.0000000

LOEWDIN ATOMIC CHARGES
----------------------
   0 C :    0.173569
   1 C :   -0.215829
   2 C :   -0.215868
   3 C :   -0.030335
   4 O :   -0.322177
   5 H :    0.106250
   6 H :    0.112641
   7 H :    0.120822
   8 H :    0.111633
   9 H :    0.117831
  10 H :    0.101822
  11 H :    0.101377
  12 C :   -0.053294
  13 H :    0.098953
  14 C :    0.045077
  15 C :   -0.231664
  16 C :   -0.033862
  17 O :   -0.330806
  18 H :    0.110893
  19 O :   -0.329185
  20 H :    0.109151
  21 H :    0.127157
  22 H :    0.108364
  23 H :    0.097494
  24 H :    0.119986

  Mayer bond orders larger than 0.100000
B(  0-C ,  1-C ) :   0.9419 B(  0-C ,  4-O ) :   0.9015 B(  0-C ,  5-H ) :   0.9100
B(  0-C , 19-O ) :   0.8524 B(  1-C ,  2-C ) :   0.9578 B(  1-C ,  6-H ) :   0.9404
B(  1-C ,  7-H ) :   0.9378 B(  2-C ,  3-C ) :   0.9536 B(  2-C ,  8-H ) :   0.9460
B(  2-C ,  9-H ) :   0.9445 B(  3-C ,  4-O ) :   0.8444 B(  3-C , 10-H ) :   0.9358
B(  3-C , 11-H ) :   0.9399 B( 12-C , 13-H ) :   0.9112 B( 12-C , 14-C ) :   0.9287
B( 12-C , 17-O ) :   0.8705 B( 12-C , 18-H ) :   0.9256 B( 14-C , 15-C ) :   0.9347
B( 14-C , 19-O ) :   0.8499 B( 14-C , 20-H ) :   0.9330 B( 15-C , 16-C ) :   0.9498
B( 15-C , 21-H ) :   0.9368 B( 15-C , 22-H ) :   0.9383 B( 16-C , 17-O ) :   0.8369
B( 16-C , 23-H ) :   0.9344 B( 16-C , 24-H ) :   0.9221

FINAL SINGLE POINT ENERGY      -538.432880280839

DIPOLE MOMENT
-------------
                                X             Y             Z
Electronic contribution:      0.54609      -2.56696      -1.23541
Nuclear contribution   :     -1.11465       3.28602       1.08301
                        -----------------------------------------
Total Dipole Moment    :     -0.56856       0.71906      -0.15240
                        -----------------------------------------
Magnitude (a.u.)       :      0.92926
Magnitude (Debye)      :      2.36199

Rotational constants in cm-1:     0.072874     0.025171     0.023576
Rotational constants in MHz :  2184.708683   754.611829   706.779407

                             ****ORCA TERMINATED NORMALLY****
TOTAL RUN TIME: 0 days 0 hours 7 minutes 40 seconds 429 msec
