                         Program Version 4.2.0 -  RELEASE  -
|  1> # Test redundant internal optimization
|  2> #
|  3> ! RKS B3LYP  Opt TightSCF SmallPrint
|  4>
|  5> %basis
|  6>         Basis "6-31G"
|  7> end
|  8>
|  9> %geom
| 10> Constraints
| 11> { D 4  0  15  12  270.0   C } # D for Dihedral angle
| 12> { D 0  15  12  16  255.0   C } # D for Dihedral angle
| 13> { D 0  4  3  2   C } # D for Dihedral angle
| 14> { D 4  3  2  1   C } # D for Dihedral angle
| 15> { D 3  2  1  0   C } # D for Dihedral angle
| 16> { D 2  1  0  4   C } # D for Dihedral angle
| 17> { D 1  0  4  3   C } # D for Dihedral angle
| 18> { D 16  20  19  18   C } # D for Dihedral angle
| 19> { D 20  19  18  17   C } # D for Dihedral angle
| 20> { D 19  18  17  16   C } # D for Dihedral angle
| 21> { D 18  17  16  20   C } # D for Dihedral angle
| 22> { D 17  16  20  19   C } # D for Dihedral angle
| 23> { D 15  12  16  20   C } # D for Dihedral angle
| 24> end
| 25> end
| 26>
| 27>
| 28> #%pal
| 29> #nprocs 8
| 30> #end
| 31>
| 32> * xyz 0 1
| 33> C  -21.048   26.222   46.251
| 34> C  -20.361   27.558   45.944
| 35> C  -20.329   28.222   47.341
| 36> C  -20.110   27.022   48.296
| 37> O  -20.473   25.807   47.535
| 38> H  -20.833   25.428   45.533
| 39> H  -19.344   27.382   45.576
| 40> H  -20.898   28.157   45.201
| 41> H  -19.543   28.978   47.434
| 42> H  -21.289   28.710   47.548
| 43> H  -20.733   27.082   49.195
| 44> H  -19.064   26.913   48.597
| 45> C  -23.420   25.119   46.072
| 46> H  -22.760   24.242   46.089
| 47> H  -24.197   24.978   46.835
| 48> O  -22.586   26.394   46.375
| 49> C  -24.122   25.175   44.687
| 50> C  -24.996   26.428   44.556
| 51> C  -23.940   27.514   44.237
| 52> C  -22.902   26.753   43.374
| 53> O  -23.131   25.312   43.615
| 54> H  -24.651   24.236   44.516
| 55> H  -25.695   26.312   43.721
| 56> O  -25.811   26.741   45.840
| 57> H  -24.364   28.378   43.715
| 58> H  -23.480   27.876   45.165
| 59> H  -21.870   27.003   43.641
| 60> H  -23.043   26.927   42.303
| 61> H  -25.130   26.860   46.689
| 62> *
| 63>
| 64>                          ****END OF INPUT****
 Total Charge           Charge          ....    0
 Multiplicity           Mult            ....    1
 Number of Electrons    NEL             ....  102
FINAL SINGLE POINT ENERGY      -652.835168760380
FINAL SINGLE POINT ENERGY      -652.859323785919
FINAL SINGLE POINT ENERGY      -652.863886240657
FINAL SINGLE POINT ENERGY      -652.866338996427
FINAL SINGLE POINT ENERGY      -652.866512379357
FINAL SINGLE POINT ENERGY      -652.866545252051
FINAL SINGLE POINT ENERGY      -652.866546313077
                    ***********************HURRAY********************

CARTESIAN COORDINATES (ANGSTROEM)
---------------------------------
  C    -21.020058   26.170027   46.273055
  C    -20.389217   27.538146   46.011243
  C    -20.367468   28.157577   47.430322
  C    -20.093972   26.934277   48.334243
  O    -20.425229   25.742459   47.516254
  H    -20.812982   25.394986   45.532285
  H    -19.370410   27.395779   45.632683
  H    -20.954182   28.130991   45.289653
  H    -19.605187   28.934885   47.539585
  H    -21.344322   28.595156   47.657279
  H    -20.708054   26.923497   49.238180
  H    -19.040158   26.839925   48.612818
  C    -23.280070   25.184428   46.129588
  H    -22.660185   24.281061   46.165970
  H    -24.025170   25.114298   46.929970
  O    -22.452685   26.356948   46.408072
  C    -23.998883   25.248113   44.786032
  C    -24.978445   26.420589   44.598125
  C    -24.029152   27.553349   44.100293
  C    -22.999257   26.783783   43.246523
  O    -23.099334   25.353837   43.641926
  H    -24.521657   24.290114   44.670559
  H    -25.720867   26.165646   43.839593
  O    -25.748526   26.755449   45.776161
  H    -24.562857   28.318514   43.529166
  H    -23.552628   28.016291   44.967851
  H    -21.971961   27.124876   43.404416
  H    -23.225408   26.829932   42.176248
  H    -25.164676   27.174067   46.442907

 Multiplicity           Mult            ....    1
 Number of Electrons    NEL             ....  102
 Basis Dimension        Dim             ....  149

ORBITAL ENERGIES
----------------

  NO   OCC          E(Eh)            E(eV)
   0   2.0000     -19.149390      -521.0814
   1   2.0000     -19.141775      -520.8742
   2   2.0000     -19.140752      -520.8464
   3   2.0000     -19.140284      -520.8336
   4   2.0000     -10.280657      -279.7509
   5   2.0000     -10.238956      -278.6162
   6   2.0000     -10.230885      -278.3965
   7   2.0000     -10.230289      -278.3803
   8   2.0000     -10.228785      -278.3394
   9   2.0000     -10.226627      -278.2807
  10   2.0000     -10.189312      -277.2653
  11   2.0000     -10.188746      -277.2499
  12   2.0000     -10.184077      -277.1228
  13   2.0000      -1.055958       -28.7341
  14   2.0000      -1.029886       -28.0246
  15   2.0000      -1.012893       -27.5622
  16   2.0000      -0.995614       -27.0920
  17   2.0000      -0.790973       -21.5235
  18   2.0000      -0.774820       -21.0839
  19   2.0000      -0.768065       -20.9001
  20   2.0000      -0.732655       -19.9366
  21   2.0000      -0.679735       -18.4965
  22   2.0000      -0.605916       -16.4878
  23   2.0000      -0.602084       -16.3835
  24   2.0000      -0.597068       -16.2471
  25   2.0000      -0.573452       -15.6044
  26   2.0000      -0.527343       -14.3497
  27   2.0000      -0.509391       -13.8612
  28   2.0000      -0.501110       -13.6359
  29   2.0000      -0.490349       -13.3431
  30   2.0000      -0.465048       -12.6546
  31   2.0000      -0.460013       -12.5176
  32   2.0000      -0.447390       -12.1741
  33   2.0000      -0.434228       -11.8159
  34   2.0000      -0.423995       -11.5375
  35   2.0000      -0.415082       -11.2950
  36   2.0000      -0.407997       -11.1022
  37   2.0000      -0.396594       -10.7919
  38   2.0000      -0.385286       -10.4842
  39   2.0000      -0.363039        -9.8788
  40   2.0000      -0.360623        -9.8131
  41   2.0000      -0.356164        -9.6917
  42   2.0000      -0.348132        -9.4731
  43   2.0000      -0.331433        -9.0187
  44   2.0000      -0.324597        -8.8327
  45   2.0000      -0.310865        -8.4591
  46   2.0000      -0.306103        -8.3295
  47   2.0000      -0.277916        -7.5625
  48   2.0000      -0.264148        -7.1878
  49   2.0000      -0.255595        -6.9551
  50   2.0000      -0.239642        -6.5210
  51   0.0000       0.065480         1.7818
  52   0.0000       0.074061         2.0153
  53   0.0000       0.085912         2.3378
  54   0.0000       0.097415         2.6508
  55   0.0000       0.101478         2.7614

MULLIKEN ATOMIC CHARGES
-----------------------
   0 C :    0.284561
   1 C :   -0.267480
   2 C :   -0.301012
   3 C :   -0.000298
   4 O :   -0.507568
   5 H :    0.164998
   6 H :    0.149197
   7 H :    0.150690
   8 H :    0.142874
   9 H :    0.156703
  10 H :    0.148500
  11 H :    0.143281
  12 C :   -0.042907
  13 H :    0.158622
  14 H :    0.154381
  15 O :   -0.534591
  16 C :    0.101078
  17 C :    0.089919
  18 C :   -0.312501
  19 C :   -0.016582
  20 O :   -0.526623
  21 H :    0.147682
  22 H :    0.163194
  23 O :   -0.606966
  24 H :    0.145288
  25 H :    0.161439
  26 H :    0.139012
  27 H :    0.148086
  28 H :    0.367024
Sum of atomic charges:   -0.0000000

LOEWDIN ATOMIC CHARGES
----------------------
   0 C :    0.172922
   1 C :   -0.217753
   2 C :   -0.216458
   3 C :   -0.026716
   4 O :   -0.323680
   5 H :    0.109118
   6 H :    0.116267
   7 H :    0.117153
   8 H :    0.114157
   9 H :    0.116049
  10 H :    0.106242
  11 H :    0.103106
  12 C :   -0.048329
  13 H :    0.114082
  14 H :    0.113890
  15 O :   -0.341274
  16 C :    0.010943
  17 C :    0.038168
  18 C :   -0.242248
  19 C :   -0.028885
  20 O :   -0.327835
  21 H :    0.114084
  22 H :    0.116804
  23 O :   -0.410143
  24 H :    0.116007
  25 H :    0.117995
  26 H :    0.098156
  27 H :    0.103783
  28 H :    0.284394

  Mayer bond orders larger than 0.100000
B(  0-C ,  1-C ) :   0.9467 B(  0-C ,  4-O ) :   0.9143 B(  0-C ,  5-H ) :   0.9138
B(  0-C , 15-O ) :   0.8389 B(  1-C ,  2-C ) :   0.9541 B(  1-C ,  6-H ) :   0.9394
B(  1-C ,  7-H ) :   0.9328 B(  2-C ,  3-C ) :   0.9544 B(  2-C ,  8-H ) :   0.9451
B(  2-C ,  9-H ) :   0.9454 B(  3-C ,  4-O ) :   0.8384 B(  3-C , 10-H ) :   0.9354
B(  3-C , 11-H ) :   0.9400 B( 12-C , 13-H ) :   0.9240 B( 12-C , 14-H ) :   0.9190
B( 12-C , 15-O ) :   0.8463 B( 12-C , 16-C ) :   0.8979 B( 16-C , 17-C ) :   0.8865
B( 16-C , 20-O ) :   0.8693 B( 16-C , 21-H ) :   0.9242 B( 17-C , 18-C ) :   0.9290
B( 17-C , 22-H ) :   0.9360 B( 17-C , 23-O ) :   0.9046 B( 18-C , 19-C ) :   0.9455
B( 18-C , 24-H ) :   0.9409 B( 18-C , 25-H ) :   0.9268 B( 19-C , 20-O ) :   0.8389
B( 19-C , 26-H ) :   0.9267 B( 19-C , 27-H ) :   0.9369 B( 23-O , 28-H ) :   0.7919

FINAL SINGLE POINT ENERGY      -652.866544813112

DIPOLE MOMENT
-------------
                                X             Y             Z
Electronic contribution:     -2.67752      -4.58928      -0.07897
Nuclear contribution   :      3.25916       5.57678       0.05681
                        -----------------------------------------
Total Dipole Moment    :      0.58164       0.98750      -0.02216
                        -----------------------------------------
Magnitude (a.u.)       :      1.14628
Magnitude (Debye)      :      2.91360

Rotational constants in cm-1:     0.047979     0.015737     0.015164
Rotational constants in MHz :  1438.372879   471.781422   454.596780

                             ****ORCA TERMINATED NORMALLY****
TOTAL RUN TIME: 0 days 0 hours 54 minutes 28 seconds 435 msec
