                         Program Version 4.2.0 -  RELEASE  -
|  1> # Test redundant internal optimization
|  2> #
|  3> ! RKS B3LYP  Opt TightSCF SmallPrint
|  4>
|  5> %basis
|  6>         Basis "6-31G"
|  7> end
|  8>
|  9> %geom
| 10> Constraints
| 11> { D 4  0  15  12  315.0   C } # D for Dihedral angle
| 12> { D 0  15  12  16  270.0   C } # D for Dihedral angle
| 13> { D 0  4  3  2   C } # D for Dihedral angle
| 14> { D 4  3  2  1   C } # D for Dihedral angle
| 15> { D 3  2  1  0   C } # D for Dihedral angle
| 16> { D 2  1  0  4   C } # D for Dihedral angle
| 17> { D 1  0  4  3   C } # D for Dihedral angle
| 18> { D 16  20  19  18   C } # D for Dihedral angle
| 19> { D 20  19  18  17   C } # D for Dihedral angle
| 20> { D 19  18  17  16   C } # D for Dihedral angle
| 21> { D 18  17  16  20   C } # D for Dihedral angle
| 22> { D 17  16  20  19   C } # D for Dihedral angle
| 23> { D 15  12  16  20   C } # D for Dihedral angle
| 24> end
| 25> end
| 26>
| 27>
| 28> #%pal
| 29> #nprocs 8
| 30> #end
| 31>
| 32> * xyz 0 1
| 33> C  -21.048   26.222   46.251
| 34> C  -20.361   27.558   45.944
| 35> C  -20.329   28.222   47.341
| 36> C  -20.110   27.022   48.296
| 37> O  -20.473   25.807   47.535
| 38> H  -20.833   25.428   45.533
| 39> H  -19.344   27.382   45.576
| 40> H  -20.898   28.157   45.201
| 41> H  -19.543   28.978   47.434
| 42> H  -21.289   28.710   47.548
| 43> H  -20.733   27.082   49.195
| 44> H  -19.064   26.913   48.597
| 45> C  -23.319   25.255   47.135
| 46> H  -22.645   24.832   47.891
| 47> H  -24.208   25.645   47.648
| 48> O  -22.586   26.394   46.375
| 49> C  -23.781   24.106   46.196
| 50> C  -24.599   23.059   46.958
| 51> C  -25.982   23.747   47.051
| 52> C  -26.083   24.514   45.709
| 53> O  -24.706   24.617   45.179
| 54> H  -22.913   23.706   45.667
| 55> H  -24.666   22.134   46.374
| 56> O  -24.003   22.715   48.351
| 57> H  -26.802   23.035   47.187
| 58> H  -25.999   24.444   47.897
| 59> H  -26.496   25.522   45.832
| 60> H  -26.676   23.976   44.964
| 61> H  -23.928   23.625   48.955
| 62> *
| 63>
| 64>                          ****END OF INPUT****
 Total Charge           Charge          ....    0
 Multiplicity           Mult            ....    1
 Number of Electrons    NEL             ....  102
FINAL SINGLE POINT ENERGY      -652.831235799589
FINAL SINGLE POINT ENERGY      -652.855208774877
FINAL SINGLE POINT ENERGY      -652.859824892767
FINAL SINGLE POINT ENERGY      -652.860595433340
FINAL SINGLE POINT ENERGY      -652.860724438170
FINAL SINGLE POINT ENERGY      -652.860748052027
FINAL SINGLE POINT ENERGY      -652.860752114166
                    ***********************HURRAY********************

CARTESIAN COORDINATES (ANGSTROEM)
---------------------------------
  C    -21.082147   26.154910   46.275584
  C    -20.465488   27.513347   45.943131
  C    -20.403333   28.178343   47.335131
  C    -20.097438   26.997147   48.281649
  O    -20.448329   25.766130   47.519437
  H    -20.868081   25.348078   45.568144
  H    -19.462857   27.362754   45.527631
  H    -21.071272   28.070502   45.225668
  H    -19.641812   28.962337   47.393704
  H    -21.375061   28.621139   47.571773
  H    -20.682891   27.020545   49.204484
  H    -19.035764   26.913182   48.530893
  C    -23.237712   25.330075   47.155373
  H    -22.589494   24.927795   47.942538
  H    -24.078949   25.865023   47.607351
  O    -22.511923   26.350016   46.406332
  C    -23.733226   24.197375   46.254077
  C    -24.551276   23.127941   46.997786
  C    -25.967090   23.781091   47.044349
  C    -26.036188   24.533704   45.697040
  O    -24.639786   24.672239   45.211006
  H    -22.879445   23.757301   45.729644
  H    -24.576485   22.212507   46.402865
  O    -24.027263   22.706853   48.279093
  H    -26.759845   23.037630   47.161107
  H    -26.023780   24.472524   47.895840
  H    -26.482837   25.529025   45.785483
  H    -26.584400   23.969229   44.936329
  H    -24.102828   23.428256   48.936557

 Multiplicity           Mult            ....    1
 Number of Electrons    NEL             ....  102
 Basis Dimension        Dim             ....  149

ORBITAL ENERGIES
----------------

  NO   OCC          E(Eh)            E(eV)
   0   2.0000     -19.146934      -521.0146
   1   2.0000     -19.144071      -520.9367
   2   2.0000     -19.138906      -520.7961
   3   2.0000     -19.133362      -520.6453
   4   2.0000     -10.275169      -279.6016
   5   2.0000     -10.242599      -278.7153
   6   2.0000     -10.227699      -278.3098
   7   2.0000     -10.227312      -278.2993
   8   2.0000     -10.227118      -278.2940
   9   2.0000     -10.223201      -278.1874
  10   2.0000     -10.193117      -277.3688
  11   2.0000     -10.184886      -277.1448
  12   2.0000     -10.182829      -277.0889
  13   2.0000      -1.052694       -28.6453
  14   2.0000      -1.030664       -28.0458
  15   2.0000      -1.012343       -27.5473
  16   2.0000      -0.989469       -26.9248
  17   2.0000      -0.788559       -21.4578
  18   2.0000      -0.779054       -21.1991
  19   2.0000      -0.762593       -20.7512
  20   2.0000      -0.731130       -19.8951
  21   2.0000      -0.676497       -18.4084
  22   2.0000      -0.608228       -16.5507
  23   2.0000      -0.600453       -16.3392
  24   2.0000      -0.595573       -16.2064
  25   2.0000      -0.564172       -15.3519
  26   2.0000      -0.528256       -14.3746
  27   2.0000      -0.507569       -13.8116
  28   2.0000      -0.496799       -13.5186
  29   2.0000      -0.492831       -13.4106
  30   2.0000      -0.467750       -12.7281
  31   2.0000      -0.453325       -12.3356
  32   2.0000      -0.441404       -12.0112
  33   2.0000      -0.429763       -11.6945
  34   2.0000      -0.424663       -11.5557
  35   2.0000      -0.416219       -11.3259
  36   2.0000      -0.405003       -11.0207
  37   2.0000      -0.398611       -10.8468
  38   2.0000      -0.374500       -10.1907
  39   2.0000      -0.368624       -10.0308
  40   2.0000      -0.356578        -9.7030
  41   2.0000      -0.351814        -9.5733
  42   2.0000      -0.345644        -9.4054
  43   2.0000      -0.335251        -9.1226
  44   2.0000      -0.326768        -8.8918
  45   2.0000      -0.310540        -8.4502
  46   2.0000      -0.293551        -7.9879
  47   2.0000      -0.269496        -7.3334
  48   2.0000      -0.266210        -7.2440
  49   2.0000      -0.257970        -7.0197
  50   2.0000      -0.232278        -6.3206
  51   0.0000       0.054160         1.4738
  52   0.0000       0.081014         2.2045
  53   0.0000       0.091108         2.4792
  54   0.0000       0.092663         2.5215
  55   0.0000       0.109645         2.9836

MULLIKEN ATOMIC CHARGES
-----------------------
   0 C :    0.286262
   1 C :   -0.261071
   2 C :   -0.299818
   3 C :   -0.008554
   4 O :   -0.514261
   5 H :    0.151362
   6 H :    0.144297
   7 H :    0.164987
   8 H :    0.142260
   9 H :    0.160868
  10 H :    0.142297
  11 H :    0.146661
  12 C :   -0.037985
  13 H :    0.160707
  14 H :    0.134968
  15 O :   -0.511491
  16 C :    0.088485
  17 C :    0.083173
  18 C :   -0.321842
  19 C :   -0.014354
  20 O :   -0.505244
  21 H :    0.155493
  22 H :    0.168304
  23 O :   -0.596116
  24 H :    0.157910
  25 H :    0.131939
  26 H :    0.146611
  27 H :    0.149643
  28 H :    0.354511
Sum of atomic charges:   -0.0000000

LOEWDIN ATOMIC CHARGES
----------------------
   0 C :    0.173959
   1 C :   -0.213266
   2 C :   -0.216894
   3 C :   -0.029548
   4 O :   -0.327760
   5 H :    0.097795
   6 H :    0.113734
   7 H :    0.128387
   8 H :    0.114200
   9 H :    0.118510
  10 H :    0.102573
  11 H :    0.104809
  12 C :   -0.060651
  13 H :    0.112954
  14 H :    0.103525
  15 O :   -0.318673
  16 C :    0.011550
  17 C :    0.034291
  18 C :   -0.241989
  19 C :   -0.031587
  20 O :   -0.316968
  21 H :    0.113689
  22 H :    0.119560
  23 O :   -0.404872
  24 H :    0.122866
  25 H :    0.103604
  26 H :    0.103813
  27 H :    0.105678
  28 H :    0.276712

  Mayer bond orders larger than 0.100000
B(  0-C ,  1-C ) :   0.9484 B(  0-C ,  4-O ) :   0.8928 B(  0-C ,  5-H ) :   0.9183
B(  0-C , 15-O ) :   0.8618 B(  1-C ,  2-C ) :   0.9544 B(  1-C ,  6-H ) :   0.9396
B(  1-C ,  7-H ) :   0.9345 B(  2-C ,  3-C ) :   0.9561 B(  2-C ,  8-H ) :   0.9451
B(  2-C ,  9-H ) :   0.9445 B(  3-C ,  4-O ) :   0.8335 B(  3-C , 10-H ) :   0.9363
B(  3-C , 11-H ) :   0.9406 B( 12-C , 13-H ) :   0.8928 B( 12-C , 14-H ) :   0.9397
B( 12-C , 15-O ) :   0.8582 B( 12-C , 16-C ) :   0.8885 B( 16-C , 17-C ) :   0.8727
B( 16-C , 20-O ) :   0.8694 B( 16-C , 21-H ) :   0.9320 B( 17-C , 18-C ) :   0.9219
B( 17-C , 22-H ) :   0.9327 B( 17-C , 23-O ) :   0.8995 B( 18-C , 19-C ) :   0.9389
B( 18-C , 24-H ) :   0.9421 B( 18-C , 25-H ) :   0.9426 B( 19-C , 20-O ) :   0.8496
B( 19-C , 26-H ) :   0.9310 B( 19-C , 27-H ) :   0.9375 B( 23-O , 28-H ) :   0.7976

FINAL SINGLE POINT ENERGY      -652.860753008515

DIPOLE MOMENT
-------------
                                X             Y             Z
Electronic contribution:      0.01818      -3.43044      -1.55952
Nuclear contribution   :     -0.31341       4.15388       2.18086
                        -----------------------------------------
Total Dipole Moment    :     -0.29523       0.72345       0.62135
                        -----------------------------------------
Magnitude (a.u.)       :      0.99830
Magnitude (Debye)      :      2.53749

Rotational constants in cm-1:     0.056162     0.013111     0.011635
Rotational constants in MHz :  1683.687793   393.046444   348.815783

                             ****ORCA TERMINATED NORMALLY****
TOTAL RUN TIME: 0 days 0 hours 23 minutes 14 seconds 525 msec
