                         Program Version 4.2.0 -  RELEASE  -
|  1> # Test redundant internal optimization
|  2> #
|  3> ! RKS B3LYP  Opt TightSCF SmallPrint
|  4>
|  5> %basis
|  6>         Basis "6-31G"
|  7> end
|  8>
|  9> %geom
| 10> Constraints
| 11> { D 4  0  15  12  105.0   C } # D for Dihedral angle
| 12> { D 0  15  12  16  255.0   C } # D for Dihedral angle
| 13> { D 0  4  3  2   C } # D for Dihedral angle
| 14> { D 4  3  2  1   C } # D for Dihedral angle
| 15> { D 3  2  1  0   C } # D for Dihedral angle
| 16> { D 2  1  0  4   C } # D for Dihedral angle
| 17> { D 1  0  4  3   C } # D for Dihedral angle
| 18> { D 16  20  19  18   C } # D for Dihedral angle
| 19> { D 20  19  18  17   C } # D for Dihedral angle
| 20> { D 19  18  17  16   C } # D for Dihedral angle
| 21> { D 18  17  16  20   C } # D for Dihedral angle
| 22> { D 17  16  20  19   C } # D for Dihedral angle
| 23> { D 15  12  16  20   C } # D for Dihedral angle
| 24> end
| 25> end
| 26>
| 27>
| 28> #%pal
| 29> #nprocs 8
| 30> #end
| 31>
| 32> * xyz 0 1
| 33> C  -21.048   26.222   46.251
| 34> C  -20.361   27.558   45.944
| 35> C  -20.329   28.222   47.341
| 36> C  -20.110   27.022   48.296
| 37> O  -20.473   25.807   47.535
| 38> H  -20.833   25.428   45.533
| 39> H  -19.344   27.382   45.576
| 40> H  -20.898   28.157   45.201
| 41> H  -19.543   28.978   47.434
| 42> H  -21.289   28.710   47.548
| 43> H  -20.733   27.082   49.195
| 44> H  -19.064   26.913   48.597
| 45> C  -23.085   27.864   46.420
| 46> H  -22.281   28.530   46.080
| 47> H  -23.946   27.999   45.753
| 48> O  -22.586   26.394   46.375
| 49> C  -23.517   28.309   47.845
| 50> C  -24.579   27.366   48.424
| 51> C  -23.715   26.170   48.892
| 52> C  -22.408   26.848   49.374
| 53> O  -22.391   28.202   48.779
| 54> H  -23.811   29.359   47.818
| 55> H  -25.076   27.840   49.277
| 56> O  -25.662   26.958   47.389
| 57> H  -24.196   25.581   49.679
| 58> H  -23.513   25.499   48.048
| 59> H  -21.512   26.304   49.058
| 60> H  -22.380   26.974   50.461
| 61> H  -25.185   26.481   46.526
| 62> *
| 63>
| 64>                          ****END OF INPUT****
 Total Charge           Charge          ....    0
 Multiplicity           Mult            ....    1
 Number of Electrons    NEL             ....  102
FINAL SINGLE POINT ENERGY      -652.722953880878
FINAL SINGLE POINT ENERGY      -652.818340809934
FINAL SINGLE POINT ENERGY      -652.843433054138
FINAL SINGLE POINT ENERGY      -652.851205677871
FINAL SINGLE POINT ENERGY      -652.854604503981
FINAL SINGLE POINT ENERGY      -652.855684477730
FINAL SINGLE POINT ENERGY      -652.856258093410
FINAL SINGLE POINT ENERGY      -652.856447010528
FINAL SINGLE POINT ENERGY      -652.856531740558
FINAL SINGLE POINT ENERGY      -652.856550474389
FINAL SINGLE POINT ENERGY      -652.856552875802
                    ***********************HURRAY********************

CARTESIAN COORDINATES (ANGSTROEM)
---------------------------------
  C    -21.053558   26.438136   46.236854
  C    -20.176146   27.628125   45.824665
  C    -19.825554   28.261427   47.201275
  C    -19.706920   27.029885   48.125642
  O    -20.403816   25.916193   47.415398
  H    -20.985682   25.614121   45.521408
  H    -19.278460   27.228467   45.342397
  H    -20.657543   28.320205   45.128960
  H    -18.898198   28.841608   47.168342
  H    -20.630221   28.912387   47.552947
  H    -20.164654   27.193167   49.099879
  H    -18.672380   26.699616   48.258775
  C    -23.138453   27.911749   46.471108
  H    -22.457086   28.715555   46.177005
  H    -23.986971   27.914603   45.778597
  O    -22.496909   26.608062   46.319681
  C    -23.678445   28.195976   47.871907
  C    -24.796665   27.255411   48.353679
  C    -23.978581   26.113139   49.024706
  C    -22.779654   26.852411   49.641246
  O    -22.704269   28.185563   48.956224
  H    -24.055623   29.227694   47.830847
  H    -25.429346   27.771357   49.078984
  O    -25.698826   26.814601   47.311848
  H    -24.565178   25.563407   49.766454
  H    -23.638808   25.420964   48.247824
  H    -21.848793   26.310822   49.483977
  H    -22.913246   27.066917   50.706016
  H    -25.248014   26.147428   46.752355

 Multiplicity           Mult            ....    1
 Number of Electrons    NEL             ....  102
 Basis Dimension        Dim             ....  149

ORBITAL ENERGIES
----------------

  NO   OCC          E(Eh)            E(eV)
   0   2.0000     -19.150303      -521.1062
   1   2.0000     -19.145220      -520.9679
   2   2.0000     -19.142575      -520.8960
   3   2.0000     -19.139818      -520.8209
   4   2.0000     -10.281666      -279.7784
   5   2.0000     -10.236395      -278.5465
   6   2.0000     -10.233387      -278.4646
   7   2.0000     -10.230672      -278.3907
   8   2.0000     -10.223676      -278.2004
   9   2.0000     -10.221500      -278.1411
  10   2.0000     -10.194196      -277.3982
  11   2.0000     -10.186216      -277.1810
  12   2.0000     -10.178971      -276.9839
  13   2.0000      -1.049949       -28.5706
  14   2.0000      -1.027330       -27.9551
  15   2.0000      -1.010465       -27.4962
  16   2.0000      -0.997979       -27.1564
  17   2.0000      -0.787966       -21.4416
  18   2.0000      -0.775248       -21.0956
  19   2.0000      -0.768071       -20.9003
  20   2.0000      -0.734858       -19.9965
  21   2.0000      -0.682493       -18.5716
  22   2.0000      -0.604708       -16.4549
  23   2.0000      -0.603765       -16.4293
  24   2.0000      -0.597513       -16.2591
  25   2.0000      -0.560633       -15.2556
  26   2.0000      -0.527967       -14.3667
  27   2.0000      -0.507465       -13.8088
  28   2.0000      -0.498817       -13.5735
  29   2.0000      -0.495271       -13.4770
  30   2.0000      -0.461673       -12.5628
  31   2.0000      -0.460810       -12.5393
  32   2.0000      -0.444046       -12.0831
  33   2.0000      -0.433820       -11.8048
  34   2.0000      -0.420074       -11.4308
  35   2.0000      -0.417080       -11.3493
  36   2.0000      -0.404141       -10.9972
  37   2.0000      -0.394815       -10.7435
  38   2.0000      -0.386053       -10.5050
  39   2.0000      -0.365593        -9.9483
  40   2.0000      -0.359523        -9.7831
  41   2.0000      -0.352002        -9.5785
  42   2.0000      -0.348029        -9.4703
  43   2.0000      -0.325104        -8.8465
  44   2.0000      -0.320042        -8.7088
  45   2.0000      -0.310424        -8.4471
  46   2.0000      -0.297644        -8.0993
  47   2.0000      -0.279759        -7.6126
  48   2.0000      -0.263473        -7.1695
  49   2.0000      -0.260185        -7.0800
  50   2.0000      -0.239604        -6.5199
  51   0.0000       0.066162         1.8003
  52   0.0000       0.078768         2.1434
  53   0.0000       0.091932         2.5016
  54   0.0000       0.097475         2.6524
  55   0.0000       0.105464         2.8698

MULLIKEN ATOMIC CHARGES
-----------------------
   0 C :    0.320922
   1 C :   -0.304209
   2 C :   -0.314699
   3 C :   -0.011451
   4 O :   -0.507184
   5 H :    0.161350
   6 H :    0.158852
   7 H :    0.149124
   8 H :    0.141460
   9 H :    0.178995
  10 H :    0.153823
  11 H :    0.143332
  12 C :   -0.045453
  13 H :    0.140428
  14 H :    0.159424
  15 O :   -0.539902
  16 C :    0.105295
  17 C :    0.092323
  18 C :   -0.319563
  19 C :   -0.027778
  20 O :   -0.531127
  21 H :    0.143148
  22 H :    0.160340
  23 O :   -0.608002
  24 H :    0.145983
  25 H :    0.174113
  26 H :    0.168702
  27 H :    0.143323
  28 H :    0.368431
Sum of atomic charges:   -0.0000000

LOEWDIN ATOMIC CHARGES
----------------------
   0 C :    0.177432
   1 C :   -0.230605
   2 C :   -0.224186
   3 C :   -0.031688
   4 O :   -0.321135
   5 H :    0.106465
   6 H :    0.123770
   7 H :    0.116267
   8 H :    0.114281
   9 H :    0.122942
  10 H :    0.108315
  11 H :    0.101755
  12 C :   -0.051733
  13 H :    0.103354
  14 H :    0.116258
  15 O :   -0.334764
  16 C :    0.008915
  17 C :    0.037631
  18 C :   -0.240960
  19 C :   -0.032926
  20 O :   -0.329853
  21 H :    0.111056
  22 H :    0.115059
  23 O :   -0.410450
  24 H :    0.116992
  25 H :    0.125460
  26 H :    0.114941
  27 H :    0.101900
  28 H :    0.285507

  Mayer bond orders larger than 0.100000
B(  0-C ,  1-C ) :   0.9274 B(  0-C ,  4-O ) :   0.9078 B(  0-C ,  5-H ) :   0.9380
B(  0-C , 15-O ) :   0.8739 B(  1-C ,  2-C ) :   0.9536 B(  1-C ,  6-H ) :   0.9342
B(  1-C ,  7-H ) :   0.9306 B(  2-C ,  3-C ) :   0.9553 B(  2-C ,  8-H ) :   0.9445
B(  2-C ,  9-H ) :   0.9272 B(  3-C ,  4-O ) :   0.8312 B(  3-C , 10-H ) :   0.9201
B(  3-C , 11-H ) :   0.9410 B( 12-C , 13-H ) :   0.9167 B( 12-C , 14-H ) :   0.9152
B( 12-C , 15-O ) :   0.8534 B( 12-C , 16-C ) :   0.8932 B( 16-C , 17-C ) :   0.8865
B( 16-C , 20-O ) :   0.8739 B( 16-C , 21-H ) :   0.9227 B( 17-C , 18-C ) :   0.9325
B( 17-C , 22-H ) :   0.9372 B( 17-C , 23-O ) :   0.9015 B( 18-C , 19-C ) :   0.9469
B( 18-C , 24-H ) :   0.9408 B( 18-C , 25-H ) :   0.9260 B( 19-C , 20-O ) :   0.8262
B( 19-C , 26-H ) :   0.9094 B( 19-C , 27-H ) :   0.9386 B( 23-O , 28-H ) :   0.7913

FINAL SINGLE POINT ENERGY      -652.856552698854

DIPOLE MOMENT
-------------
                                X             Y             Z
Electronic contribution:     -3.30351      -1.83471      -0.65522
Nuclear contribution   :      4.04731       2.26195       0.41761
                        -----------------------------------------
Total Dipole Moment    :      0.74380       0.42724      -0.23761
                        -----------------------------------------
Magnitude (a.u.)       :      0.89007
Magnitude (Debye)      :      2.26238

Rotational constants in cm-1:     0.046663     0.019616     0.017579
Rotational constants in MHz :  1398.907584   588.063342   527.003819

                             ****ORCA TERMINATED NORMALLY****
TOTAL RUN TIME: 0 days 1 hours 9 minutes 13 seconds 954 msec
