                         Program Version 4.2.0 -  RELEASE  -
|  1> # Test redundant internal optimization
|  2> #
|  3> ! RKS B3LYP  Opt TightSCF SmallPrint
|  4>
|  5> %basis
|  6>         Basis "6-31G"
|  7> end
|  8>
|  9> %geom
| 10> Constraints
| 11> { D 4  0  15  12  105.0   C } # D for Dihedral angle
| 12> { D 0  15  12  16  135.0   C } # D for Dihedral angle
| 13> { D 0  4  3  2   C } # D for Dihedral angle
| 14> { D 4  3  2  1   C } # D for Dihedral angle
| 15> { D 3  2  1  0   C } # D for Dihedral angle
| 16> { D 2  1  0  4   C } # D for Dihedral angle
| 17> { D 1  0  4  3   C } # D for Dihedral angle
| 18> { D 16  20  19  18   C } # D for Dihedral angle
| 19> { D 20  19  18  17   C } # D for Dihedral angle
| 20> { D 19  18  17  16   C } # D for Dihedral angle
| 21> { D 18  17  16  20   C } # D for Dihedral angle
| 22> { D 17  16  20  19   C } # D for Dihedral angle
| 23> { D 15  12  16  20   C } # D for Dihedral angle
| 24> end
| 25> end
| 26>
| 27>
| 28> #%pal
| 29> #nprocs 8
| 30> #end
| 31>
| 32> * xyz 0 1
| 33> C  -21.048   26.222   46.251
| 34> C  -20.361   27.558   45.944
| 35> C  -20.329   28.222   47.341
| 36> C  -20.110   27.022   48.296
| 37> O  -20.473   25.807   47.535
| 38> H  -20.833   25.428   45.533
| 39> H  -19.344   27.382   45.576
| 40> H  -20.898   28.157   45.201
| 41> H  -19.543   28.978   47.434
| 42> H  -21.289   28.710   47.548
| 43> H  -20.733   27.082   49.195
| 44> H  -19.064   26.913   48.597
| 45> C  -23.085   27.864   46.420
| 46> H  -23.365   28.120   47.450
| 47> H  -22.289   28.550   46.102
| 48> O  -22.586   26.394   46.375
| 49> C  -24.315   28.110   45.503
| 50> C  -24.025   27.688   44.058
| 51> C  -24.198   26.153   44.139
| 52> C  -25.344   25.982   45.167
| 53> O  -25.436   27.257   45.910
| 54> H  -24.643   29.145   45.614
| 55> O  -25.078   28.309   43.101
| 56> H  -23.028   27.985   43.714
| 57> H  -24.435   25.700   43.171
| 58> H  -23.275   25.689   44.508
| 59> H  -25.155   25.167   45.874
| 60> H  -26.314   25.817   44.688
| 61> H  -26.085   28.024   43.426
| 62> *
| 63>
| 64>                          ****END OF INPUT****
 Total Charge           Charge          ....    0
 Multiplicity           Mult            ....    1
 Number of Electrons    NEL             ....  102
FINAL SINGLE POINT ENERGY      -652.814680065006
FINAL SINGLE POINT ENERGY      -652.840320768248
FINAL SINGLE POINT ENERGY      -652.851355645401
FINAL SINGLE POINT ENERGY      -652.853421013986
FINAL SINGLE POINT ENERGY      -652.853773219824
FINAL SINGLE POINT ENERGY      -652.853816185549
FINAL SINGLE POINT ENERGY      -652.853820496118
                    ***********************HURRAY********************

CARTESIAN COORDINATES (ANGSTROEM)
---------------------------------
  C    -21.190752   26.340480   46.405786
  C    -20.276946   27.496534   45.979844
  C    -20.055328   28.249733   47.323187
  C    -20.027572   27.092187   48.352512
  O    -20.651891   25.929806   47.679659
  H    -21.116628   25.458456   45.767853
  H    -19.334649   27.070872   45.621087
  H    -20.688804   28.124060   45.184549
  H    -19.123723   28.823624   47.325443
  H    -20.874657   28.943519   47.531254
  H    -20.585641   27.317027   49.265815
  H    -19.009492   26.794930   48.619615
  C    -23.216431   27.918391   46.470800
  H    -23.571069   28.131864   47.485964
  H    -22.499855   28.694640   46.179777
  O    -22.617512   26.591809   46.467873
  C    -24.409840   27.991278   45.515912
  C    -24.136537   27.703061   44.032037
  C    -24.216695   26.153177   43.988833
  C    -25.321518   25.835386   45.026595
  O    -25.462887   27.044185   45.873160
  H    -24.841626   28.994642   45.624507
  O    -25.147394   28.331790   43.195280
  H    -23.185053   28.098578   43.672735
  H    -24.464772   25.807584   42.981422
  H    -23.264540   25.722492   44.299884
  H    -25.057859   24.991411   45.668158
  H    -26.297394   25.648940   44.566214
  H    -26.033935   28.134545   43.565246

 Multiplicity           Mult            ....    1
 Number of Electrons    NEL             ....  102
 Basis Dimension        Dim             ....  149

ORBITAL ENERGIES
----------------

  NO   OCC          E(Eh)            E(eV)
   0   2.0000     -19.147214      -521.0222
   1   2.0000     -19.142371      -520.8904
   2   2.0000     -19.136828      -520.7396
   3   2.0000     -19.136711      -520.7364
   4   2.0000     -10.286231      -279.9026
   5   2.0000     -10.239258      -278.6244
   6   2.0000     -10.236983      -278.5625
   7   2.0000     -10.234562      -278.4966
   8   2.0000     -10.231432      -278.4114
   9   2.0000     -10.221207      -278.1332
  10   2.0000     -10.201001      -277.5834
  11   2.0000     -10.199122      -277.5322
  12   2.0000     -10.178067      -276.9593
  13   2.0000      -1.054868       -28.7044
  14   2.0000      -1.033264       -28.1165
  15   2.0000      -1.005166       -27.3520
  16   2.0000      -0.996183       -27.1075
  17   2.0000      -0.795542       -21.6478
  18   2.0000      -0.780990       -21.2518
  19   2.0000      -0.766948       -20.8697
  20   2.0000      -0.737750       -20.0752
  21   2.0000      -0.681347       -18.5404
  22   2.0000      -0.611227       -16.6323
  23   2.0000      -0.604979       -16.4623
  24   2.0000      -0.598187       -16.2775
  25   2.0000      -0.569257       -15.4903
  26   2.0000      -0.525302       -14.2942
  27   2.0000      -0.515532       -14.0283
  28   2.0000      -0.508355       -13.8331
  29   2.0000      -0.489657       -13.3242
  30   2.0000      -0.473511       -12.8849
  31   2.0000      -0.455723       -12.4008
  32   2.0000      -0.452347       -12.3090
  33   2.0000      -0.437649       -11.9090
  34   2.0000      -0.426935       -11.6175
  35   2.0000      -0.423103       -11.5132
  36   2.0000      -0.403680       -10.9847
  37   2.0000      -0.389362       -10.5951
  38   2.0000      -0.385953       -10.5023
  39   2.0000      -0.368655       -10.0316
  40   2.0000      -0.366658        -9.9773
  41   2.0000      -0.364593        -9.9211
  42   2.0000      -0.353981        -9.6323
  43   2.0000      -0.327803        -8.9200
  44   2.0000      -0.319902        -8.7050
  45   2.0000      -0.303854        -8.2683
  46   2.0000      -0.298598        -8.1253
  47   2.0000      -0.273436        -7.4406
  48   2.0000      -0.266133        -7.2419
  49   2.0000      -0.258629        -7.0376
  50   2.0000      -0.238299        -6.4844
  51   0.0000       0.062318         1.6958
  52   0.0000       0.073669         2.0046
  53   0.0000       0.086377         2.3505
  54   0.0000       0.095263         2.5922
  55   0.0000       0.106450         2.8967

MULLIKEN ATOMIC CHARGES
-----------------------
   0 C :    0.320475
   1 C :   -0.310138
   2 C :   -0.310024
   3 C :   -0.006444
   4 O :   -0.496608
   5 H :    0.158179
   6 H :    0.161776
   7 H :    0.150086
   8 H :    0.148612
   9 H :    0.152528
  10 H :    0.150189
  11 H :    0.147154
  12 C :    0.003404
  13 H :    0.156146
  14 H :    0.124797
  15 O :   -0.530132
  16 C :    0.072469
  17 C :    0.078027
  18 C :   -0.277776
  19 C :   -0.017319
  20 O :   -0.524675
  21 H :    0.150107
  22 O :   -0.606042
  23 H :    0.138258
  24 H :    0.147640
  25 H :    0.160327
  26 H :    0.160417
  27 H :    0.133927
  28 H :    0.364638
Sum of atomic charges:    0.0000000

LOEWDIN ATOMIC CHARGES
----------------------
   0 C :    0.178207
   1 C :   -0.234252
   2 C :   -0.222706
   3 C :   -0.030311
   4 O :   -0.314733
   5 H :    0.106915
   6 H :    0.126095
   7 H :    0.114865
   8 H :    0.117528
   9 H :    0.110364
  10 H :    0.106287
  11 H :    0.104845
  12 C :   -0.037149
  13 H :    0.111317
  14 H :    0.096887
  15 O :   -0.324618
  16 C :    0.011296
  17 C :    0.038492
  18 C :   -0.237715
  19 C :   -0.031514
  20 O :   -0.327979
  21 H :    0.113363
  22 O :   -0.417633
  23 H :    0.108926
  24 H :    0.118042
  25 H :    0.123172
  26 H :    0.113150
  27 H :    0.095747
  28 H :    0.283111

  Mayer bond orders larger than 0.100000
B(  0-C ,  1-C ) :   0.9289 B(  0-C ,  4-O ) :   0.9124 B(  0-C ,  5-H ) :   0.9326
B(  0-C , 15-O ) :   0.8744 B(  1-C ,  2-C ) :   0.9519 B(  1-C ,  6-H ) :   0.9331
B(  1-C ,  7-H ) :   0.9289 B(  2-C ,  3-C ) :   0.9471 B(  2-C ,  8-H ) :   0.9454
B(  2-C ,  9-H ) :   0.9393 B(  3-C ,  4-O ) :   0.8467 B(  3-C , 10-H ) :   0.9339
B(  3-C , 11-H ) :   0.9391 B( 12-C , 13-H ) :   0.9228 B( 12-C , 14-H ) :   0.8985
B( 12-C , 15-O ) :   0.8488 B( 12-C , 16-C ) :   0.8987 B( 16-C , 17-C ) :   0.9067
B( 16-C , 20-O ) :   0.8764 B( 16-C , 21-H ) :   0.9205 B( 17-C , 18-C ) :   0.9236
B( 17-C , 22-O ) :   0.8894 B( 17-C , 23-H ) :   0.9367 B( 18-C , 19-C ) :   0.9451
B( 18-C , 24-H ) :   0.9374 B( 18-C , 25-H ) :   0.9225 B( 19-C , 20-O ) :   0.8385
B( 19-C , 26-H ) :   0.9329 B( 19-C , 27-H ) :   0.9376 B( 22-O , 28-H ) :   0.7948

FINAL SINGLE POINT ENERGY      -652.853819424524

DIPOLE MOMENT
-------------
                                X             Y             Z
Electronic contribution:     -4.26718      -1.84758       0.28816
Nuclear contribution   :      5.29358       2.49686      -0.40161
                        -----------------------------------------
Total Dipole Moment    :      1.02640       0.64928      -0.11345
                        -----------------------------------------
Magnitude (a.u.)       :      1.21981
Magnitude (Debye)      :      3.10051

Rotational constants in cm-1:     0.057976     0.013841     0.013192
Rotational constants in MHz :  1738.069203   414.933088   395.473911

                             ****ORCA TERMINATED NORMALLY****
TOTAL RUN TIME: 0 days 0 hours 45 minutes 26 seconds 448 msec
