                         Program Version 4.2.0 -  RELEASE  -
|  1> # Test redundant internal optimization
|  2> #
|  3> ! RKS B3LYP  Opt TightSCF SmallPrint
|  4>
|  5> %basis
|  6>         Basis "6-31G"
|  7> end
|  8>
|  9> %geom
| 10> Constraints
| 11> { D 4  0  15  12  0.0   C } # D for Dihedral angle
| 12> { D 0  15  12  16  240.0   C } # D for Dihedral angle
| 13> { D 0  4  3  2   C } # D for Dihedral angle
| 14> { D 4  3  2  1   C } # D for Dihedral angle
| 15> { D 3  2  1  0   C } # D for Dihedral angle
| 16> { D 2  1  0  4   C } # D for Dihedral angle
| 17> { D 1  0  4  3   C } # D for Dihedral angle
| 18> { D 16  20  19  18   C } # D for Dihedral angle
| 19> { D 20  19  18  17   C } # D for Dihedral angle
| 20> { D 19  18  17  16   C } # D for Dihedral angle
| 21> { D 18  17  16  20   C } # D for Dihedral angle
| 22> { D 17  16  20  19   C } # D for Dihedral angle
| 23> { D 15  12  16  20   C } # D for Dihedral angle
| 24> end
| 25> end
| 26>
| 27>
| 28> #%pal
| 29> #nprocs 8
| 30> #end
| 31>
| 32> * xyz 0 1
| 33> C  -21.048   26.222   46.251
| 34> C  -20.361   27.558   45.944
| 35> C  -20.329   28.222   47.341
| 36> C  -20.110   27.022   48.296
| 37> O  -20.473   25.807   47.535
| 38> H  -20.833   25.428   45.533
| 39> H  -19.344   27.382   45.576
| 40> H  -20.898   28.157   45.201
| 41> H  -19.543   28.978   47.434
| 42> H  -21.289   28.710   47.548
| 43> H  -20.733   27.082   49.195
| 44> H  -19.064   26.913   48.597
| 45> C  -23.172   26.101   47.783
| 46> H  -22.357   25.822   48.464
| 47> H  -23.666   26.994   48.187
| 48> O  -22.586   26.394   46.375
| 49> C  -24.214   24.948   47.772
| 50> C  -25.342   25.227   46.772
| 51> C  -24.673   24.842   45.430
| 52> C  -23.765   23.649   45.820
| 53> O  -23.601   23.707   47.289
| 54> H  -24.552   24.762   48.793
| 55> H  -26.197   24.575   46.978
| 56> O  -25.832   26.701   46.799
| 57> H  -25.399   24.578   44.654
| 58> H  -24.072   25.679   45.056
| 59> H  -22.779   23.699   45.346
| 60> H  -24.222   22.683   45.585
| 61> H  -24.991   27.372   46.594
| 62> *
| 63>
| 64>                          ****END OF INPUT****
 Total Charge           Charge          ....    0
 Multiplicity           Mult            ....    1
 Number of Electrons    NEL             ....  102
FINAL SINGLE POINT ENERGY      -652.830892338660
FINAL SINGLE POINT ENERGY      -652.854021900556
FINAL SINGLE POINT ENERGY      -652.858805931947
FINAL SINGLE POINT ENERGY      -652.860456045016
FINAL SINGLE POINT ENERGY      -652.860594123905
FINAL SINGLE POINT ENERGY      -652.860622418874
FINAL SINGLE POINT ENERGY      -652.860623068704
                    ***********************HURRAY********************

CARTESIAN COORDINATES (ANGSTROEM)
---------------------------------
  C    -21.056236   26.255103   46.365711
  C    -20.425962   27.603016   46.015449
  C    -20.266931   28.251479   47.411272
  C    -19.937032   27.049757   48.321698
  O    -20.365574   25.839922   47.558426
  H    -20.897692   25.466195   45.627914
  H    -19.449887   27.433553   45.546115
  H    -21.051817   28.186160   45.336503
  H    -19.483018   29.014634   47.433657
  H    -21.207239   28.724573   47.713197
  H    -20.468194   27.067513   49.276846
  H    -18.865833   26.932252   48.505582
  C    -23.148093   26.126364   47.797709
  H    -22.388450   25.827391   48.523640
  H    -23.644033   27.043331   48.138634
  O    -22.506707   26.397783   46.514591
  C    -24.179483   25.002500   47.697489
  C    -25.340054   25.257385   46.720394
  C    -24.729075   24.785053   45.364832
  C    -23.841073   23.597126   45.792157
  O    -23.622805   23.732326   47.255516
  H    -24.557314   24.834363   48.714022
  H    -26.204512   24.650787   46.998799
  O    -25.826778   26.622047   46.712613
  H    -25.500120   24.498998   44.643627
  H    -24.124837   25.594745   44.948982
  H    -22.869576   23.590477   45.289605
  H    -24.329936   22.630539   45.634508
  H    -25.156740   27.198629   46.288512

 Multiplicity           Mult            ....    1
 Number of Electrons    NEL             ....  102
 Basis Dimension        Dim             ....  149

ORBITAL ENERGIES
----------------

  NO   OCC          E(Eh)            E(eV)
   0   2.0000     -19.155704      -521.2532
   1   2.0000     -19.143576      -520.9232
   2   2.0000     -19.135513      -520.7038
   3   2.0000     -19.129537      -520.5412
   4   2.0000     -10.284736      -279.8619
   5   2.0000     -10.236542      -278.5505
   6   2.0000     -10.231520      -278.4138
   7   2.0000     -10.224574      -278.2248
   8   2.0000     -10.223544      -278.1968
   9   2.0000     -10.218921      -278.0710
  10   2.0000     -10.195754      -277.4406
  11   2.0000     -10.190893      -277.3083
  12   2.0000     -10.175537      -276.8904
  13   2.0000      -1.059156       -28.8211
  14   2.0000      -1.023282       -27.8449
  15   2.0000      -1.005476       -27.3604
  16   2.0000      -0.993366       -27.0309
  17   2.0000      -0.795625       -21.6501
  18   2.0000      -0.770239       -20.9593
  19   2.0000      -0.763168       -20.7669
  20   2.0000      -0.734924       -19.9983
  21   2.0000      -0.674369       -18.3505
  22   2.0000      -0.608681       -16.5631
  23   2.0000      -0.599591       -16.3157
  24   2.0000      -0.597411       -16.2564
  25   2.0000      -0.559316       -15.2198
  26   2.0000      -0.528320       -14.3763
  27   2.0000      -0.509950       -13.8764
  28   2.0000      -0.496506       -13.5106
  29   2.0000      -0.488520       -13.2933
  30   2.0000      -0.471186       -12.8216
  31   2.0000      -0.461652       -12.5622
  32   2.0000      -0.437427       -11.9030
  33   2.0000      -0.430231       -11.7072
  34   2.0000      -0.423090       -11.5129
  35   2.0000      -0.414656       -11.2834
  36   2.0000      -0.399687       -10.8760
  37   2.0000      -0.389208       -10.5909
  38   2.0000      -0.377291       -10.2666
  39   2.0000      -0.373951       -10.1757
  40   2.0000      -0.364980        -9.9316
  41   2.0000      -0.356046        -9.6885
  42   2.0000      -0.346811        -9.4372
  43   2.0000      -0.333562        -9.0767
  44   2.0000      -0.321046        -8.7361
  45   2.0000      -0.307797        -8.3756
  46   2.0000      -0.300257        -8.1704
  47   2.0000      -0.271333        -7.3834
  48   2.0000      -0.262889        -7.1536
  49   2.0000      -0.255244        -6.9455
  50   2.0000      -0.230866        -6.2822
  51   0.0000       0.066766         1.8168
  52   0.0000       0.083085         2.2608
  53   0.0000       0.091371         2.4863
  54   0.0000       0.098376         2.6770
  55   0.0000       0.104016         2.8304

MULLIKEN ATOMIC CHARGES
-----------------------
   0 C :    0.309650
   1 C :   -0.258073
   2 C :   -0.308162
   3 C :   -0.020254
   4 O :   -0.502499
   5 H :    0.158967
   6 H :    0.146846
   7 H :    0.155672
   8 H :    0.150107
   9 H :    0.155122
  10 H :    0.147905
  11 H :    0.154856
  12 C :   -0.043381
  13 H :    0.178045
  14 H :    0.135944
  15 O :   -0.557707
  16 C :    0.104119
  17 C :    0.085671
  18 C :   -0.311630
  19 C :   -0.001117
  20 O :   -0.519676
  21 H :    0.142553
  22 H :    0.158944
  23 O :   -0.607684
  24 H :    0.142735
  25 H :    0.161149
  26 H :    0.139846
  27 H :    0.138547
  28 H :    0.363505
Sum of atomic charges:   -0.0000000

LOEWDIN ATOMIC CHARGES
----------------------
   0 C :    0.186207
   1 C :   -0.221433
   2 C :   -0.219474
   3 C :   -0.032406
   4 O :   -0.309275
   5 H :    0.105429
   6 H :    0.114940
   7 H :    0.123176
   8 H :    0.118666
   9 H :    0.114620
  10 H :    0.104229
  11 H :    0.109355
  12 C :   -0.055279
  13 H :    0.122515
  14 H :    0.100832
  15 O :   -0.355071
  16 C :    0.015391
  17 C :    0.036494
  18 C :   -0.243401
  19 C :   -0.024176
  20 O :   -0.321461
  21 H :    0.111548
  22 H :    0.114687
  23 O :   -0.412484
  24 H :    0.114165
  25 H :    0.120013
  26 H :    0.100522
  27 H :    0.099820
  28 H :    0.281850

  Mayer bond orders larger than 0.100000
B(  0-C ,  1-C ) :   0.9305 B(  0-C ,  4-O ) :   0.9227 B(  0-C ,  5-H ) :   0.9278
B(  0-C , 15-O ) :   0.8266 B(  1-C ,  2-C ) :   0.9534 B(  1-C ,  6-H ) :   0.9347
B(  1-C ,  7-H ) :   0.9367 B(  2-C ,  3-C ) :   0.9520 B(  2-C ,  8-H ) :   0.9446
B(  2-C ,  9-H ) :   0.9457 B(  3-C ,  4-O ) :   0.8278 B(  3-C , 10-H ) :   0.9325
B(  3-C , 11-H ) :   0.9404 B( 12-C , 13-H ) :   0.9060 B( 12-C , 14-H ) :   0.9143
B( 12-C , 15-O ) :   0.8370 B( 12-C , 16-C ) :   0.9004 B( 16-C , 17-C ) :   0.8876
B( 16-C , 20-O ) :   0.8798 B( 16-C , 21-H ) :   0.9259 B( 17-C , 18-C ) :   0.9333
B( 17-C , 22-H ) :   0.9370 B( 17-C , 23-O ) :   0.9009 B( 18-C , 19-C ) :   0.9445
B( 18-C , 24-H ) :   0.9411 B( 18-C , 25-H ) :   0.9277 B( 19-C , 20-O ) :   0.8412
B( 19-C , 26-H ) :   0.9317 B( 19-C , 27-H ) :   0.9386 B( 23-O , 28-H ) :   0.7931

FINAL SINGLE POINT ENERGY      -652.860621584832

DIPOLE MOMENT
-------------
                                X             Y             Z
Electronic contribution:     -2.31907      -3.17543       1.12185
Nuclear contribution   :      3.17673       4.16225      -1.49497
                        -----------------------------------------
Total Dipole Moment    :      0.85767       0.98682      -0.37312
                        -----------------------------------------
Magnitude (a.u.)       :      1.35964
Magnitude (Debye)      :      3.45593

Rotational constants in cm-1:     0.050282     0.015697     0.014685
Rotational constants in MHz :  1507.418461   470.569933   440.230705

                             ****ORCA TERMINATED NORMALLY****
TOTAL RUN TIME: 0 days 0 hours 24 minutes 46 seconds 912 msec
