                         Program Version 4.2.0 -  RELEASE  -
|  1> # Test redundant internal optimization
|  2> #
|  3> ! RKS B3LYP  Opt TightSCF SmallPrint
|  4>
|  5> %basis
|  6>         Basis "6-31G"
|  7> end
|  8>
|  9> %geom
| 10> Constraints
| 11> { D 4  0  15  12  240.0   C } # D for Dihedral angle
| 12> { D 0  15  12  16  45.0   C } # D for Dihedral angle
| 13> { D 0  4  3  2   C } # D for Dihedral angle
| 14> { D 4  3  2  1   C } # D for Dihedral angle
| 15> { D 3  2  1  0   C } # D for Dihedral angle
| 16> { D 2  1  0  4   C } # D for Dihedral angle
| 17> { D 1  0  4  3   C } # D for Dihedral angle
| 18> { D 16  20  19  18   C } # D for Dihedral angle
| 19> { D 20  19  18  17   C } # D for Dihedral angle
| 20> { D 19  18  17  16   C } # D for Dihedral angle
| 21> { D 18  17  16  20   C } # D for Dihedral angle
| 22> { D 17  16  20  19   C } # D for Dihedral angle
| 23> { D 15  12  16  20   C } # D for Dihedral angle
| 24> end
| 25> end
| 26>
| 27>
| 28> #%pal
| 29> #nprocs 8
| 30> #end
| 31>
| 32> * xyz 0 1
| 33> C  -21.048   26.222   46.251
| 34> C  -20.361   27.558   45.944
| 35> C  -20.329   28.222   47.341
| 36> C  -20.110   27.022   48.296
| 37> O  -20.473   25.807   47.535
| 38> H  -20.833   25.428   45.533
| 39> H  -19.344   27.382   45.576
| 40> H  -20.898   28.157   45.201
| 41> H  -19.543   28.978   47.434
| 42> H  -21.289   28.710   47.548
| 43> H  -20.733   27.082   49.195
| 44> H  -19.064   26.913   48.597
| 45> C  -23.430   25.483   45.442
| 46> H  -24.474   25.486   45.780
| 47> H  -23.402   25.858   44.411
| 48> O  -22.586   26.394   46.375
| 49> C  -22.928   24.012   45.424
| 50> C  -23.708   23.170   44.409
| 51> C  -23.033   23.579   43.078
| 52> C  -21.553   23.790   43.484
| 53> O  -21.540   23.951   44.954
| 54> H  -22.939   23.618   46.442
| 55> O  -23.491   21.658   44.691
| 56> H  -24.784   23.373   44.419
| 57> H  -23.147   22.823   42.294
| 58> H  -23.468   24.515   42.707
| 59> H  -21.114   24.681   43.022
| 60> H  -20.928   22.924   43.249
| 61> H  -22.419   21.433   44.686
| 62> *
| 63>
| 64>                          ****END OF INPUT****
 Total Charge           Charge          ....    0
 Multiplicity           Mult            ....    1
 Number of Electrons    NEL             ....  102
FINAL SINGLE POINT ENERGY      -652.824650065831
FINAL SINGLE POINT ENERGY      -652.846659719825
FINAL SINGLE POINT ENERGY      -652.855850101630
FINAL SINGLE POINT ENERGY      -652.857973241203
FINAL SINGLE POINT ENERGY      -652.858365027184
FINAL SINGLE POINT ENERGY      -652.858411304996
FINAL SINGLE POINT ENERGY      -652.858416315358
                    ***********************HURRAY********************

CARTESIAN COORDINATES (ANGSTROEM)
---------------------------------
  C    -20.842834   26.252987   46.229110
  C    -20.332694   27.679959   46.027166
  C    -20.499520   28.283108   47.443319
  C    -20.185276   27.084114   48.365457
  O    -20.320564   25.874226   47.519495
  H    -20.512281   25.501952   45.516840
  H    -19.275371   27.651068   45.737194
  H    -20.895552   28.218440   45.260873
  H    -19.834966   29.133628   47.621987
  H    -21.533442   28.612956   47.580337
  H    -20.873728   27.002738   49.210984
  H    -19.156119   27.094515   48.738278
  C    -23.153804   25.477632   45.462866
  H    -24.139701   25.546816   45.933762
  H    -23.226413   25.930966   44.460712
  O    -22.300429   26.304831   46.294052
  C    -22.788151   23.994220   45.325417
  C    -23.737602   23.209608   44.405842
  C    -23.132422   23.502478   43.005415
  C    -21.609655   23.562248   43.285911
  O    -21.456145   23.766543   44.749262
  H    -22.754124   23.547563   46.324763
  O    -23.713355   21.791079   44.716412
  H    -24.783415   23.507123   44.493290
  H    -23.404910   22.716650   42.296700
  H    -23.505234   24.458930   42.622920
  H    -21.112966   24.381737   42.757434
  H    -21.098532   22.627097   43.038514
  H    -22.789794   21.513787   44.893691

 Multiplicity           Mult            ....    1
 Number of Electrons    NEL             ....  102
 Basis Dimension        Dim             ....  149

ORBITAL ENERGIES
----------------

  NO   OCC          E(Eh)            E(eV)
   0   2.0000     -19.154019      -521.2073
   1   2.0000     -19.144029      -520.9355
   2   2.0000     -19.131437      -520.5929
   3   2.0000     -19.125619      -520.4345
   4   2.0000     -10.261064      -279.2177
   5   2.0000     -10.249933      -278.9149
   6   2.0000     -10.239887      -278.6415
   7   2.0000     -10.239281      -278.6250
   8   2.0000     -10.235439      -278.5204
   9   2.0000     -10.213723      -277.9295
  10   2.0000     -10.196623      -277.4642
  11   2.0000     -10.175411      -276.8870
  12   2.0000     -10.174771      -276.8696
  13   2.0000      -1.047084       -28.4926
  14   2.0000      -1.035975       -28.1903
  15   2.0000      -1.013254       -27.5720
  16   2.0000      -0.982019       -26.7221
  17   2.0000      -0.791756       -21.5448
  18   2.0000      -0.777603       -21.1596
  19   2.0000      -0.767357       -20.8808
  20   2.0000      -0.726228       -19.7617
  21   2.0000      -0.674473       -18.3534
  22   2.0000      -0.611311       -16.6346
  23   2.0000      -0.602810       -16.4033
  24   2.0000      -0.587177       -15.9779
  25   2.0000      -0.570513       -15.5245
  26   2.0000      -0.530811       -14.4441
  27   2.0000      -0.507790       -13.8177
  28   2.0000      -0.495541       -13.4844
  29   2.0000      -0.482917       -13.1408
  30   2.0000      -0.474759       -12.9189
  31   2.0000      -0.456343       -12.4177
  32   2.0000      -0.446193       -12.1415
  33   2.0000      -0.438875       -11.9424
  34   2.0000      -0.425046       -11.5661
  35   2.0000      -0.409233       -11.1358
  36   2.0000      -0.401103       -10.9146
  37   2.0000      -0.390922       -10.6375
  38   2.0000      -0.380498       -10.3539
  39   2.0000      -0.367408        -9.9977
  40   2.0000      -0.365410        -9.9433
  41   2.0000      -0.346544        -9.4299
  42   2.0000      -0.341374        -9.2893
  43   2.0000      -0.334626        -9.1056
  44   2.0000      -0.321724        -8.7545
  45   2.0000      -0.305930        -8.3248
  46   2.0000      -0.295128        -8.0308
  47   2.0000      -0.277813        -7.5597
  48   2.0000      -0.259840        -7.0706
  49   2.0000      -0.252353        -6.8669
  50   2.0000      -0.230176        -6.2634
  51   0.0000       0.058690         1.5970
  52   0.0000       0.081502         2.2178
  53   0.0000       0.087608         2.3839
  54   0.0000       0.096749         2.6327
  55   0.0000       0.105582         2.8730

MULLIKEN ATOMIC CHARGES
-----------------------
   0 C :    0.258726
   1 C :   -0.249184
   2 C :   -0.296677
   3 C :    0.000237
   4 O :   -0.503575
   5 H :    0.193244
   6 H :    0.138628
   7 H :    0.137876
   8 H :    0.134203
   9 H :    0.159711
  10 H :    0.145923
  11 H :    0.136362
  12 C :    0.010508
  13 H :    0.153592
  14 H :    0.119970
  15 O :   -0.535295
  16 C :    0.044588
  17 C :    0.081425
  18 C :   -0.296554
  19 C :   -0.030195
  20 O :   -0.520000
  21 H :    0.180611
  22 O :   -0.601311
  23 H :    0.156535
  24 H :    0.167899
  25 H :    0.144270
  26 H :    0.147962
  27 H :    0.152383
  28 H :    0.368135
Sum of atomic charges:   -0.0000000

LOEWDIN ATOMIC CHARGES
----------------------
   0 C :    0.166085
   1 C :   -0.220288
   2 C :   -0.216852
   3 C :   -0.028330
   4 O :   -0.315747
   5 H :    0.122917
   6 H :    0.109821
   7 H :    0.114132
   8 H :    0.110231
   9 H :    0.117964
  10 H :    0.104588
  11 H :    0.099276
  12 C :   -0.036198
  13 H :    0.118096
  14 H :    0.086471
  15 O :   -0.337377
  16 C :    0.002381
  17 C :    0.039114
  18 C :   -0.240667
  19 C :   -0.038702
  20 O :   -0.325399
  21 H :    0.124487
  22 O :   -0.412189
  23 H :    0.117824
  24 H :    0.128971
  25 H :    0.113168
  26 H :    0.104792
  27 H :    0.105935
  28 H :    0.285495

  Mayer bond orders larger than 0.100000
B(  0-C ,  1-C ) :   0.9395 B(  0-C ,  4-O ) :   0.9215 B(  0-C ,  5-H ) :   0.8908
B(  0-C , 15-O ) :   0.8153 B(  1-C ,  2-C ) :   0.9562 B(  1-C ,  6-H ) :   0.9393
B(  1-C ,  7-H ) :   0.9403 B(  2-C ,  3-C ) :   0.9551 B(  2-C ,  8-H ) :   0.9464
B(  2-C ,  9-H ) :   0.9439 B(  3-C ,  4-O ) :   0.8440 B(  3-C , 10-H ) :   0.9353
B(  3-C , 11-H ) :   0.9402 B( 12-C , 13-H ) :   0.9275 B( 12-C , 14-H ) :   0.9206
B( 12-C , 15-O ) :   0.8713 B( 12-C , 16-C ) :   0.8938 B( 16-C , 17-C ) :   0.8957
B( 16-C , 20-O ) :   0.8364 B( 16-C , 21-H ) :   0.9192 B( 17-C , 18-C ) :   0.9092
B( 17-C , 22-O ) :   0.8943 B( 17-C , 23-H ) :   0.9335 B( 18-C , 19-C ) :   0.9421
B( 18-C , 24-H ) :   0.9366 B( 18-C , 25-H ) :   0.9330 B( 19-C , 20-O ) :   0.8376
B( 19-C , 26-H ) :   0.9346 B( 19-C , 27-H ) :   0.9378 B( 22-O , 28-H ) :   0.7931

FINAL SINGLE POINT ENERGY      -652.858417242019

DIPOLE MOMENT
-------------
                                X             Y             Z
Electronic contribution:     -0.74872      -4.70459       1.87297
Nuclear contribution   :      0.74369       5.35924      -2.96453
                        -----------------------------------------
Total Dipole Moment    :     -0.00503       0.65465      -1.09155
                        -----------------------------------------
Magnitude (a.u.)       :      1.27282
Magnitude (Debye)      :      3.23526

Rotational constants in cm-1:     0.065711     0.012402     0.012152
Rotational constants in MHz :  1969.969212   371.788551   364.300129

                             ****ORCA TERMINATED NORMALLY****
TOTAL RUN TIME: 0 days 0 hours 32 minutes 47 seconds 339 msec
