                         Program Version 4.2.0 -  RELEASE  -
|  1> # Test redundant internal optimization
|  2> #
|  3> ! RKS B3LYP  Opt TightSCF SmallPrint
|  4>
|  5> %basis
|  6>         Basis "6-31G"
|  7> end
|  8>
|  9> %geom
| 10> Constraints
| 11> { D 4  0  15  12  330.0   C } # D for Dihedral angle
| 12> { D 0  15  12  16  300.0   C } # D for Dihedral angle
| 13> { D 0  4  3  2   C } # D for Dihedral angle
| 14> { D 4  3  2  1   C } # D for Dihedral angle
| 15> { D 3  2  1  0   C } # D for Dihedral angle
| 16> { D 2  1  0  4   C } # D for Dihedral angle
| 17> { D 1  0  4  3   C } # D for Dihedral angle
| 18> { D 16  20  19  18   C } # D for Dihedral angle
| 19> { D 20  19  18  17   C } # D for Dihedral angle
| 20> { D 19  18  17  16   C } # D for Dihedral angle
| 21> { D 18  17  16  20   C } # D for Dihedral angle
| 22> { D 17  16  20  19   C } # D for Dihedral angle
| 23> { D 15  12  16  20   C } # D for Dihedral angle
| 24> end
| 25> end
| 26>
| 27>
| 28> #%pal
| 29> #nprocs 8
| 30> #end
| 31>
| 32> * xyz 0 1
| 33> C  -21.048   26.222   46.251
| 34> C  -20.361   27.558   45.944
| 35> C  -20.329   28.222   47.341
| 36> C  -20.110   27.022   48.296
| 37> O  -20.473   25.807   47.535
| 38> H  -20.833   25.428   45.533
| 39> H  -19.344   27.382   45.576
| 40> H  -20.898   28.157   45.201
| 41> H  -19.543   28.978   47.434
| 42> H  -21.289   28.710   47.548
| 43> H  -20.733   27.082   49.195
| 44> H  -19.064   26.913   48.597
| 45> C  -23.271   25.476   47.424
| 46> H  -22.856   25.689   48.417
| 47> H  -24.351   25.667   47.455
| 48> O  -22.586   26.394   46.375
| 49> C  -23.067   23.965   47.124
| 50> C  -23.850   23.091   48.109
| 51> C  -25.283   23.171   47.530
| 52> C  -25.041   23.225   46.001
| 53> O  -23.629   23.623   45.813
| 54> H  -21.997   23.750   47.080
| 55> H  -23.478   22.061   48.078
| 56> O  -23.765   23.598   49.575
| 57> H  -25.908   22.321   47.823
| 58> H  -25.778   24.086   47.875
| 59> H  -25.688   23.954   45.499
| 60> H  -25.168   22.250   45.523
| 61> H  -24.134   24.627   49.632
| 62> *
| 63>
| 64>                          ****END OF INPUT****
 Total Charge           Charge          ....    0
 Multiplicity           Mult            ....    1
 Number of Electrons    NEL             ....  102
FINAL SINGLE POINT ENERGY      -652.830156037570
FINAL SINGLE POINT ENERGY      -652.853646557522
FINAL SINGLE POINT ENERGY      -652.858392652894
FINAL SINGLE POINT ENERGY      -652.859240915495
FINAL SINGLE POINT ENERGY      -652.859384707646
FINAL SINGLE POINT ENERGY      -652.859406802928
FINAL SINGLE POINT ENERGY      -652.859409510454
                    ***********************HURRAY********************

CARTESIAN COORDINATES (ANGSTROEM)
---------------------------------
  C    -21.057154   26.186608   46.273486
  C    -20.444519   27.552300   45.963050
  C    -20.375647   28.192417   47.367125
  C    -20.062382   26.993250   48.289654
  O    -20.416010   25.777071   47.505493
  H    -20.848400   25.397567   45.546622
  H    -19.443654   27.410787   45.539704
  H    -21.053790   28.122569   45.258827
  H    -19.615371   28.976608   47.436508
  H    -21.346337   28.630583   47.618148
  H    -20.643125   26.996088   49.216179
  H    -18.999348   26.907379   48.532130
  C    -23.189651   25.529992   47.374105
  H    -22.821218   25.749369   48.384002
  H    -24.229481   25.858839   47.286301
  O    -22.492778   26.355840   46.399547
  C    -23.061284   24.023612   47.130551
  C    -23.859327   23.176778   48.137301
  C    -25.294237   23.216832   47.525492
  C    -25.012706   23.213022   46.006368
  O    -23.596224   23.621158   45.831816
  H    -22.003480   23.751356   47.127921
  H    -23.473699   22.155099   48.135468
  O    -23.776599   23.591122   49.522002
  H    -25.904931   22.370021   47.849292
  H    -25.801035   24.139105   47.840453
  H    -25.654153   23.904469   45.451056
  H    -25.113276   22.214204   45.570926
  H    -24.285186   24.414958   49.664472

 Multiplicity           Mult            ....    1
 Number of Electrons    NEL             ....  102
 Basis Dimension        Dim             ....  149

ORBITAL ENERGIES
----------------

  NO   OCC          E(Eh)            E(eV)
   0   2.0000     -19.146712      -521.0085
   1   2.0000     -19.144366      -520.9447
   2   2.0000     -19.135805      -520.7117
   3   2.0000     -19.133634      -520.6527
   4   2.0000     -10.272849      -279.5384
   5   2.0000     -10.241628      -278.6889
   6   2.0000     -10.227597      -278.3071
   7   2.0000     -10.227494      -278.3043
   8   2.0000     -10.225199      -278.2418
   9   2.0000     -10.223493      -278.1954
  10   2.0000     -10.192863      -277.3619
  11   2.0000     -10.185690      -277.1667
  12   2.0000     -10.182256      -277.0733
  13   2.0000      -1.051856       -28.6224
  14   2.0000      -1.030144       -28.0316
  15   2.0000      -1.012009       -27.5382
  16   2.0000      -0.988074       -26.8869
  17   2.0000      -0.788256       -21.4495
  18   2.0000      -0.778638       -21.1878
  19   2.0000      -0.761338       -20.7171
  20   2.0000      -0.731835       -19.9143
  21   2.0000      -0.675911       -18.3925
  22   2.0000      -0.608404       -16.5555
  23   2.0000      -0.599901       -16.3241
  24   2.0000      -0.597956       -16.2712
  25   2.0000      -0.559837       -15.2339
  26   2.0000      -0.525241       -14.2925
  27   2.0000      -0.508866       -13.8470
  28   2.0000      -0.497891       -13.5483
  29   2.0000      -0.489064       -13.3081
  30   2.0000      -0.466074       -12.6825
  31   2.0000      -0.455712       -12.4006
  32   2.0000      -0.437115       -11.8945
  33   2.0000      -0.431424       -11.7397
  34   2.0000      -0.424010       -11.5379
  35   2.0000      -0.413790       -11.2598
  36   2.0000      -0.405351       -11.0302
  37   2.0000      -0.397327       -10.8118
  38   2.0000      -0.377369       -10.2687
  39   2.0000      -0.367357        -9.9963
  40   2.0000      -0.356856        -9.7105
  41   2.0000      -0.353953        -9.6316
  42   2.0000      -0.346299        -9.4233
  43   2.0000      -0.328672        -8.9436
  44   2.0000      -0.327056        -8.8996
  45   2.0000      -0.311394        -8.4735
  46   2.0000      -0.297945        -8.1075
  47   2.0000      -0.268136        -7.2963
  48   2.0000      -0.262679        -7.1479
  49   2.0000      -0.255962        -6.9651
  50   2.0000      -0.230587        -6.2746
  51   0.0000       0.053818         1.4645
  52   0.0000       0.077789         2.1168
  53   0.0000       0.087728         2.3872
  54   0.0000       0.093230         2.5369
  55   0.0000       0.106677         2.9028

MULLIKEN ATOMIC CHARGES
-----------------------
   0 C :    0.288569
   1 C :   -0.258434
   2 C :   -0.301166
   3 C :   -0.011468
   4 O :   -0.518621
   5 H :    0.163428
   6 H :    0.144074
   7 H :    0.162045
   8 H :    0.143290
   9 H :    0.156853
  10 H :    0.144319
  11 H :    0.148128
  12 C :   -0.007866
  13 H :    0.134911
  14 H :    0.138913
  15 O :   -0.525040
  16 C :    0.070355
  17 C :    0.085071
  18 C :   -0.322618
  19 C :   -0.008336
  20 O :   -0.512713
  21 H :    0.183017
  22 H :    0.165942
  23 O :   -0.598207
  24 H :    0.157433
  25 H :    0.130334
  26 H :    0.146532
  27 H :    0.146981
  28 H :    0.354273
Sum of atomic charges:    0.0000000

LOEWDIN ATOMIC CHARGES
----------------------
   0 C :    0.175167
   1 C :   -0.213651
   2 C :   -0.217657
   3 C :   -0.030103
   4 O :   -0.327670
   5 H :    0.104969
   6 H :    0.113471
   7 H :    0.126855
   8 H :    0.114852
   9 H :    0.116370
  10 H :    0.102329
  11 H :    0.105608
  12 C :   -0.049969
  13 H :    0.099364
  14 H :    0.106085
  15 O :   -0.324595
  16 C :    0.005204
  17 C :    0.037064
  18 C :   -0.241472
  19 C :   -0.029710
  20 O :   -0.320783
  21 H :    0.125373
  22 H :    0.119008
  23 O :   -0.406124
  24 H :    0.122353
  25 H :    0.102469
  26 H :    0.103808
  27 H :    0.105026
  28 H :    0.276357

  Mayer bond orders larger than 0.100000
B(  0-C ,  1-C ) :   0.9450 B(  0-C ,  4-O ) :   0.8883 B(  0-C ,  5-H ) :   0.9199
B(  0-C , 15-O ) :   0.8502 B(  1-C ,  2-C ) :   0.9526 B(  1-C ,  6-H ) :   0.9384
B(  1-C ,  7-H ) :   0.9357 B(  2-C ,  3-C ) :   0.9547 B(  2-C ,  8-H ) :   0.9450
B(  2-C ,  9-H ) :   0.9453 B(  3-C ,  4-O ) :   0.8321 B(  3-C , 10-H ) :   0.9339
B(  3-C , 11-H ) :   0.9407 B( 12-C , 13-H ) :   0.9021 B( 12-C , 14-H ) :   0.9397
B( 12-C , 15-O ) :   0.8580 B( 12-C , 16-C ) :   0.8862 B( 16-C , 17-C ) :   0.8717
B( 16-C , 20-O ) :   0.8578 B( 16-C , 21-H ) :   0.9190 B( 17-C , 18-C ) :   0.9214
B( 17-C , 22-H ) :   0.9336 B( 17-C , 23-O ) :   0.8991 B( 18-C , 19-C ) :   0.9389
B( 18-C , 24-H ) :   0.9424 B( 18-C , 25-H ) :   0.9416 B( 19-C , 20-O ) :   0.8509
B( 19-C , 26-H ) :   0.9311 B( 19-C , 27-H ) :   0.9381 B( 23-O , 28-H ) :   0.7983

FINAL SINGLE POINT ENERGY      -652.859409777655

DIPOLE MOMENT
-------------
                                X             Y             Z
Electronic contribution:      0.34260      -3.13764      -0.87333
Nuclear contribution   :     -0.84129       3.86402       1.20249
                        -----------------------------------------
Total Dipole Moment    :     -0.49869       0.72638       0.32915
                        -----------------------------------------
Magnitude (a.u.)       :      0.94057
Magnitude (Debye)      :      2.39073

Rotational constants in cm-1:     0.055361     0.014348     0.012611
Rotational constants in MHz :  1659.673865   430.150348   378.071683

                             ****ORCA TERMINATED NORMALLY****
TOTAL RUN TIME: 0 days 0 hours 20 minutes 44 seconds 92 msec
