                         Program Version 4.2.0 -  RELEASE  -
|  1> # Test redundant internal optimization
|  2> #
|  3> ! RKS B3LYP  Opt TightSCF SmallPrint
|  4>
|  5> %basis
|  6>         Basis "6-31G"
|  7> end
|  8>
|  9> %geom
| 10> Constraints
| 11> { D 4  0  15  12  90.0   C } # D for Dihedral angle
| 12> { D 0  15  12  16  105.0   C } # D for Dihedral angle
| 13> { D 0  4  3  2   C } # D for Dihedral angle
| 14> { D 4  3  2  1   C } # D for Dihedral angle
| 15> { D 3  2  1  0   C } # D for Dihedral angle
| 16> { D 2  1  0  4   C } # D for Dihedral angle
| 17> { D 1  0  4  3   C } # D for Dihedral angle
| 18> { D 16  20  19  18   C } # D for Dihedral angle
| 19> { D 20  19  18  17   C } # D for Dihedral angle
| 20> { D 19  18  17  16   C } # D for Dihedral angle
| 21> { D 18  17  16  20   C } # D for Dihedral angle
| 22> { D 17  16  20  19   C } # D for Dihedral angle
| 23> { D 15  12  16  20   C } # D for Dihedral angle
| 24> end
| 25> end
| 26>
| 27>
| 28> #%pal
| 29> #nprocs 8
| 30> #end
| 31>
| 32> * xyz 0 1
| 33> C  -21.048   26.222   46.251
| 34> C  -20.361   27.558   45.944
| 35> C  -20.329   28.222   47.341
| 36> C  -20.110   27.022   48.296
| 37> O  -20.473   25.807   47.535
| 38> H  -20.833   25.428   45.533
| 39> H  -19.344   27.382   45.576
| 40> H  -20.898   28.157   45.201
| 41> H  -19.543   28.978   47.434
| 42> H  -21.289   28.710   47.548
| 43> H  -20.733   27.082   49.195
| 44> H  -19.064   26.913   48.597
| 45> C  -23.061   27.816   46.783
| 46> H  -23.826   27.731   47.565
| 47> H  -22.223   28.400   47.185
| 48> O  -22.586   26.394   46.375
| 49> C  -23.664   28.612   45.593
| 50> C  -24.947   27.952   45.076
| 51> C  -25.987   28.425   46.120
| 52> C  -25.504   29.854   46.474
| 53> O  -24.095   29.943   46.034
| 54> H  -22.894   28.760   44.834
| 55> H  -25.195   28.340   44.081
| 56> O  -24.844   26.405   44.985
| 57> H  -27.011   28.414   45.734
| 58> H  -25.954   27.775   47.003
| 59> H  -25.558   30.060   47.548
| 60> H  -26.060   30.627   45.937
| 61> H  -24.597   25.994   45.971
| 62> *
| 63>
| 64>                          ****END OF INPUT****
 Total Charge           Charge          ....    0
 Multiplicity           Mult            ....    1
 Number of Electrons    NEL             ....  102
FINAL SINGLE POINT ENERGY      -652.783911602105
FINAL SINGLE POINT ENERGY      -652.827888322386
FINAL SINGLE POINT ENERGY      -652.848677558121
FINAL SINGLE POINT ENERGY      -652.854342293321
FINAL SINGLE POINT ENERGY      -652.856191794032
FINAL SINGLE POINT ENERGY      -652.857288877042
FINAL SINGLE POINT ENERGY      -652.857751371240
FINAL SINGLE POINT ENERGY      -652.857869006148
FINAL SINGLE POINT ENERGY      -652.857891532201
FINAL SINGLE POINT ENERGY      -652.857886032104
                    ***********************HURRAY********************

CARTESIAN COORDINATES (ANGSTROEM)
---------------------------------
  C    -21.235307   26.366340   46.433655
  C    -20.271477   27.461836   45.957303
  C    -19.880340   28.159445   47.295665
  C    -19.858898   26.973460   48.292075
  O    -20.627897   25.881279   47.645386
  H    -21.271388   25.506275   45.763691
  H    -19.399262   26.976770   45.508388
  H    -20.709361   28.140934   45.221395
  H    -18.903545   28.648990   47.230291
  H    -20.605734   28.923554   47.582292
  H    -20.317796   27.209303   49.256458
  H    -18.849151   26.589551   48.460917
  C    -23.209582   27.979318   46.957023
  H    -23.986600   27.756275   47.693776
  H    -22.475412   28.633573   47.428354
  O    -22.646183   26.679566   46.569300
  C    -23.797451   28.677044   45.723663
  C    -24.977663   27.939845   45.068318
  C    -26.156411   28.335282   46.005209
  C    -25.809891   29.781363   46.414850
  O    -24.354743   29.968093   46.122922
  H    -22.999665   28.890036   45.005325
  H    -25.148655   28.364690   44.073153
  O    -24.815513   26.519611   44.895347
  H    -27.120071   28.258687   45.494757
  H    -26.178525   27.654306   46.863010
  H    -25.981703   29.986518   47.475727
  H    -26.342946   30.528001   45.819910
  H    -24.099831   26.193057   45.490841

 Multiplicity           Mult            ....    1
 Number of Electrons    NEL             ....  102
 Basis Dimension        Dim             ....  149

ORBITAL ENERGIES
----------------

  NO   OCC          E(Eh)            E(eV)
   0   2.0000     -19.163175      -521.4565
   1   2.0000     -19.149565      -521.0861
   2   2.0000     -19.143208      -520.9132
   3   2.0000     -19.114658      -520.1363
   4   2.0000     -10.292327      -280.0685
   5   2.0000     -10.241213      -278.6776
   6   2.0000     -10.236631      -278.5529
   7   2.0000     -10.236282      -278.5434
   8   2.0000     -10.232225      -278.4330
   9   2.0000     -10.228706      -278.3372
  10   2.0000     -10.202787      -277.6320
  11   2.0000     -10.201800      -277.6051
  12   2.0000     -10.180820      -277.0342
  13   2.0000      -1.061952       -28.8972
  14   2.0000      -1.027664       -27.9642
  15   2.0000      -1.008855       -27.4523
  16   2.0000      -0.993621       -27.0378
  17   2.0000      -0.797820       -21.7098
  18   2.0000      -0.779753       -21.2181
  19   2.0000      -0.770371       -20.9628
  20   2.0000      -0.740334       -20.1455
  21   2.0000      -0.686515       -18.6810
  22   2.0000      -0.614375       -16.7180
  23   2.0000      -0.604036       -16.4366
  24   2.0000      -0.598221       -16.2784
  25   2.0000      -0.577111       -15.7040
  26   2.0000      -0.538911       -14.6645
  27   2.0000      -0.511465       -13.9177
  28   2.0000      -0.508955       -13.8494
  29   2.0000      -0.489930       -13.3317
  30   2.0000      -0.475668       -12.9436
  31   2.0000      -0.462336       -12.5808
  32   2.0000      -0.443934       -12.0801
  33   2.0000      -0.439669       -11.9640
  34   2.0000      -0.427265       -11.6265
  35   2.0000      -0.423343       -11.5198
  36   2.0000      -0.412838       -11.2339
  37   2.0000      -0.394477       -10.7343
  38   2.0000      -0.391271       -10.6470
  39   2.0000      -0.374786       -10.1984
  40   2.0000      -0.367376        -9.9968
  41   2.0000      -0.358569        -9.7572
  42   2.0000      -0.349970        -9.5232
  43   2.0000      -0.340236        -9.2583
  44   2.0000      -0.324564        -8.8318
  45   2.0000      -0.315344        -8.5809
  46   2.0000      -0.288071        -7.8388
  47   2.0000      -0.284092        -7.7305
  48   2.0000      -0.268649        -7.3103
  49   2.0000      -0.249481        -6.7887
  50   2.0000      -0.241110        -6.5609
  51   0.0000       0.052943         1.4406
  52   0.0000       0.067019         1.8237
  53   0.0000       0.088364         2.4045
  54   0.0000       0.092062         2.5051
  55   0.0000       0.101836         2.7711

MULLIKEN ATOMIC CHARGES
-----------------------
   0 C :    0.318351
   1 C :   -0.295405
   2 C :   -0.318435
   3 C :   -0.010414
   4 O :   -0.495321
   5 H :    0.171182
   6 H :    0.165047
   7 H :    0.155486
   8 H :    0.150783
   9 H :    0.158360
  10 H :    0.150140
  11 H :    0.152378
  12 C :   -0.037604
  13 H :    0.164701
  14 H :    0.154444
  15 O :   -0.559843
  16 C :    0.051613
  17 C :    0.120602
  18 C :   -0.304363
  19 C :   -0.019497
  20 O :   -0.522143
  21 H :    0.152881
  22 H :    0.148389
  23 O :   -0.639068
  24 H :    0.151414
  25 H :    0.149171
  26 H :    0.140799
  27 H :    0.151012
  28 H :    0.395340
Sum of atomic charges:   -0.0000000

LOEWDIN ATOMIC CHARGES
----------------------
   0 C :    0.179656
   1 C :   -0.229242
   2 C :   -0.222853
   3 C :   -0.031947
   4 O :   -0.312985
   5 H :    0.115340
   6 H :    0.127466
   7 H :    0.119396
   8 H :    0.118754
   9 H :    0.111398
  10 H :    0.106305
  11 H :    0.107542
  12 C :   -0.049089
  13 H :    0.115166
  14 H :    0.110287
  15 O :   -0.332170
  16 C :    0.008917
  17 C :    0.041770
  18 C :   -0.238071
  19 C :   -0.031911
  20 O :   -0.326979
  21 H :    0.108097
  22 H :    0.106252
  23 O :   -0.432700
  24 H :    0.121704
  25 H :    0.112869
  26 H :    0.101786
  27 H :    0.106855
  28 H :    0.288388

  Mayer bond orders larger than 0.100000
B(  0-C ,  1-C ) :   0.9271 B(  0-C ,  4-O ) :   0.9251 B(  0-C ,  5-H ) :   0.9341
B(  0-C , 15-O ) :   0.8468 B(  1-C ,  2-C ) :   0.9530 B(  1-C ,  6-H ) :   0.9333
B(  1-C ,  7-H ) :   0.9300 B(  2-C ,  3-C ) :   0.9461 B(  2-C ,  8-H ) :   0.9437
B(  2-C ,  9-H ) :   0.9338 B(  3-C ,  4-O ) :   0.8416 B(  3-C , 10-H ) :   0.9342
B(  3-C , 11-H ) :   0.9386 B( 12-C , 13-H ) :   0.9333 B( 12-C , 14-H ) :   0.9110
B( 12-C , 15-O ) :   0.7862 B( 12-C , 16-C ) :   0.8905 B( 16-C , 17-C ) :   0.9131
B( 16-C , 20-O ) :   0.8536 B( 16-C , 21-H ) :   0.9272 B( 17-C , 18-C ) :   0.9009
B( 17-C , 22-H ) :   0.9309 B( 17-C , 23-O ) :   0.9362 B( 18-C , 19-C ) :   0.9407
B( 18-C , 24-H ) :   0.9447 B( 18-C , 25-H ) :   0.9423 B( 19-C , 20-O ) :   0.8304
B( 19-C , 26-H ) :   0.9347 B( 19-C , 27-H ) :   0.9382 B( 23-O , 28-H ) :   0.7239

FINAL SINGLE POINT ENERGY      -652.857884032908

DIPOLE MOMENT
-------------
                                X             Y             Z
Electronic contribution:     -1.10718      -3.31833      -1.20353
Nuclear contribution   :      1.92453       4.27397       1.62573
                        -----------------------------------------
Total Dipole Moment    :      0.81736       0.95564       0.42220
                        -----------------------------------------
Magnitude (a.u.)       :      1.32649
Magnitude (Debye)      :      3.37166

Rotational constants in cm-1:     0.054409     0.014178     0.012731
Rotational constants in MHz :  1631.132087   425.046485   381.662420

                             ****ORCA TERMINATED NORMALLY****
TOTAL RUN TIME: 0 days 0 hours 33 minutes 12 seconds 449 msec
