                         Program Version 4.2.0 -  RELEASE  -
|  1> # Test redundant internal optimization
|  2> #
|  3> ! RKS B3LYP  Opt TightSCF SmallPrint
|  4>
|  5> %basis
|  6>         Basis "6-31G"
|  7> end
|  8>
|  9> %geom
| 10> Constraints
| 11> { D 4  0  15  12  210.0   C } # D for Dihedral angle
| 12> { D 0  15  12  16  105.0   C } # D for Dihedral angle
| 13> { D 0  4  3  2   C } # D for Dihedral angle
| 14> { D 4  3  2  1   C } # D for Dihedral angle
| 15> { D 3  2  1  0   C } # D for Dihedral angle
| 16> { D 2  1  0  4   C } # D for Dihedral angle
| 17> { D 1  0  4  3   C } # D for Dihedral angle
| 18> { D 16  20  19  18   C } # D for Dihedral angle
| 19> { D 20  19  18  17   C } # D for Dihedral angle
| 20> { D 19  18  17  16   C } # D for Dihedral angle
| 21> { D 18  17  16  20   C } # D for Dihedral angle
| 22> { D 17  16  20  19   C } # D for Dihedral angle
| 23> { D 15  12  16  20   C } # D for Dihedral angle
| 24> end
| 25> end
| 26>
| 27>
| 28> #%pal
| 29> #nprocs 8
| 30> #end
| 31>
| 32> * xyz 0 1
| 33> C  -21.048   26.222   46.251
| 34> C  -20.361   27.558   45.944
| 35> C  -20.329   28.222   47.341
| 36> C  -20.110   27.022   48.296
| 37> O  -20.473   25.807   47.535
| 38> H  -20.833   25.428   45.533
| 39> H  -19.344   27.382   45.576
| 40> H  -20.898   28.157   45.201
| 41> H  -19.543   28.978   47.434
| 42> H  -21.289   28.710   47.548
| 43> H  -20.733   27.082   49.195
| 44> H  -19.064   26.913   48.597
| 45> C  -23.389   26.110   45.076
| 46> H  -24.131   26.905   44.928
| 47> H  -22.720   26.099   44.206
| 48> O  -22.586   26.394   46.375
| 49> C  -24.135   24.748   45.117
| 50> C  -24.820   24.448   43.779
| 51> C  -23.632   23.948   42.923
| 52> C  -22.756   23.186   43.949
| 53> O  -23.181   23.646   45.288
| 54> H  -24.803   24.731   45.980
| 55> O  -25.877   23.325   43.960
| 56> H  -25.317   25.323   43.345
| 57> H  -23.947   23.312   42.090
| 58> H  -23.084   24.800   42.505
| 59> H  -21.687   23.392   43.822
| 60> H  -22.916   22.105   43.913
| 61> H  -25.400   22.438   44.394
| 62> *
| 63>
| 64>                          ****END OF INPUT****
 Total Charge           Charge          ....    0
 Multiplicity           Mult            ....    1
 Number of Electrons    NEL             ....  102
FINAL SINGLE POINT ENERGY      -652.831395875187
FINAL SINGLE POINT ENERGY      -652.854333370944
FINAL SINGLE POINT ENERGY      -652.858038922192
FINAL SINGLE POINT ENERGY      -652.858729787878
FINAL SINGLE POINT ENERGY      -652.858822525084
FINAL SINGLE POINT ENERGY      -652.858832411211
                    ***********************HURRAY********************

CARTESIAN COORDINATES (ANGSTROEM)
---------------------------------
  C    -21.046639   26.220724   46.159263
  C    -20.378322   27.577796   45.951033
  C    -20.441995   28.188491   47.371709
  C    -20.250450   26.958022   48.282967
  O    -20.547488   25.777840   47.428979
  H    -20.805148   25.447037   45.426685
  H    -19.338031   27.428232   45.636737
  H    -20.884051   28.189563   45.198525
  H    -19.679077   28.955207   47.535810
  H    -21.426896   28.636588   47.533879
  H    -20.927168   26.946271   49.140678
  H    -19.219659   26.841067   48.630754
  C    -23.253928   26.151298   45.037478
  H    -23.995463   26.956418   44.968969
  H    -22.601300   26.214836   44.153625
  O    -22.493703   26.373168   46.253246
  C    -23.967189   24.801435   45.094872
  C    -24.778295   24.440427   43.841771
  C    -23.677951   23.873170   42.907730
  C    -22.719738   23.153048   43.888673
  O    -23.014168   23.693975   45.239322
  H    -24.591320   24.781138   45.993199
  O    -25.793323   23.446345   44.146077
  H    -25.320473   25.281437   43.406313
  H    -24.112757   23.200458   42.163909
  H    -23.171670   24.687963   42.378546
  H    -21.664251   23.325878   43.655283
  H    -22.893637   22.073068   43.929549
  H    -25.411909   22.770100   44.745420

 Multiplicity           Mult            ....    1
 Number of Electrons    NEL             ....  102
 Basis Dimension        Dim             ....  149

ORBITAL ENERGIES
----------------

  NO   OCC          E(Eh)            E(eV)
   0   2.0000     -19.144165      -520.9392
   1   2.0000     -19.139592      -520.8148
   2   2.0000     -19.136014      -520.7174
   3   2.0000     -19.134429      -520.6743
   4   2.0000     -10.274249      -279.5765
   5   2.0000     -10.245039      -278.7817
   6   2.0000     -10.235890      -278.5327
   7   2.0000     -10.233262      -278.4612
   8   2.0000     -10.233175      -278.4589
   9   2.0000     -10.220090      -278.1028
  10   2.0000     -10.192608      -277.3550
  11   2.0000     -10.183176      -277.0983
  12   2.0000     -10.182661      -277.0843
  13   2.0000      -1.049063       -28.5465
  14   2.0000      -1.036718       -28.2105
  15   2.0000      -1.007749       -27.4222
  16   2.0000      -0.989753       -26.9325
  17   2.0000      -0.787570       -21.4309
  18   2.0000      -0.781763       -21.2729
  19   2.0000      -0.767806       -20.8931
  20   2.0000      -0.728883       -19.8339
  21   2.0000      -0.676161       -18.3993
  22   2.0000      -0.606023       -16.4907
  23   2.0000      -0.598555       -16.2875
  24   2.0000      -0.591987       -16.1088
  25   2.0000      -0.581357       -15.8195
  26   2.0000      -0.527384       -14.3509
  27   2.0000      -0.507552       -13.8112
  28   2.0000      -0.498383       -13.5617
  29   2.0000      -0.487287       -13.2598
  30   2.0000      -0.475169       -12.9300
  31   2.0000      -0.457942       -12.4612
  32   2.0000      -0.450873       -12.2689
  33   2.0000      -0.445231       -12.1153
  34   2.0000      -0.422774       -11.5043
  35   2.0000      -0.411040       -11.1850
  36   2.0000      -0.396805       -10.7976
  37   2.0000      -0.394388       -10.7319
  38   2.0000      -0.375251       -10.2111
  39   2.0000      -0.369624       -10.0580
  40   2.0000      -0.363968        -9.9041
  41   2.0000      -0.353446        -9.6178
  42   2.0000      -0.349172        -9.5014
  43   2.0000      -0.334596        -9.1048
  44   2.0000      -0.308789        -8.4026
  45   2.0000      -0.307883        -8.3779
  46   2.0000      -0.302932        -8.2432
  47   2.0000      -0.272991        -7.4285
  48   2.0000      -0.265368        -7.2210
  49   2.0000      -0.251648        -6.8477
  50   2.0000      -0.235002        -6.3947
  51   0.0000       0.057934         1.5765
  52   0.0000       0.082555         2.2464
  53   0.0000       0.085986         2.3398
  54   0.0000       0.100259         2.7282
  55   0.0000       0.106084         2.8867

MULLIKEN ATOMIC CHARGES
-----------------------
   0 C :    0.298519
   1 C :   -0.262158
   2 C :   -0.299653
   3 C :   -0.000833
   4 O :   -0.497843
   5 H :    0.146542
   6 H :    0.140992
   7 H :    0.138925
   8 H :    0.139787
   9 H :    0.160722
  10 H :    0.153916
  11 H :    0.139273
  12 C :   -0.027017
  13 H :    0.147032
  14 H :    0.118639
  15 O :   -0.503307
  16 C :    0.073082
  17 C :    0.078622
  18 C :   -0.291285
  19 C :   -0.038543
  20 O :   -0.507607
  21 H :    0.175288
  22 O :   -0.600752
  23 H :    0.149857
  24 H :    0.164424
  25 H :    0.138658
  26 H :    0.145411
  27 H :    0.152457
  28 H :    0.366853
Sum of atomic charges:   -0.0000000

LOEWDIN ATOMIC CHARGES
----------------------
   0 C :    0.181760
   1 C :   -0.229324
   2 C :   -0.217159
   3 C :   -0.025626
   4 O :   -0.300919
   5 H :    0.101217
   6 H :    0.111498
   7 H :    0.112802
   8 H :    0.113147
   9 H :    0.118570
  10 H :    0.109148
  11 H :    0.101082
  12 C :   -0.043304
  13 H :    0.110201
  14 H :    0.090422
  15 O :   -0.328746
  16 C :    0.009482
  17 C :    0.034699
  18 C :   -0.240564
  19 C :   -0.041682
  20 O :   -0.321638
  21 H :    0.123399
  22 O :   -0.413268
  23 H :    0.114517
  24 H :    0.127460
  25 H :    0.110307
  26 H :    0.102454
  27 H :    0.105300
  28 H :    0.284766

  Mayer bond orders larger than 0.100000
B(  0-C ,  1-C ) :   0.9301 B(  0-C ,  4-O ) :   0.9390 B(  0-C ,  5-H ) :   0.9174
B(  0-C , 15-O ) :   0.8226 B(  1-C ,  2-C ) :   0.9542 B(  1-C ,  6-H ) :   0.9347
B(  1-C ,  7-H ) :   0.9386 B(  2-C ,  3-C ) :   0.9552 B(  2-C ,  8-H ) :   0.9453
B(  2-C ,  9-H ) :   0.9437 B(  3-C ,  4-O ) :   0.8391 B(  3-C , 10-H ) :   0.9343
B(  3-C , 11-H ) :   0.9397 B( 12-C , 13-H ) :   0.9255 B( 12-C , 14-H ) :   0.9220
B( 12-C , 15-O ) :   0.8674 B( 12-C , 16-C ) :   0.8863 B( 16-C , 17-C ) :   0.8937
B( 16-C , 20-O ) :   0.8641 B( 16-C , 21-H ) :   0.9235 B( 17-C , 18-C ) :   0.9084
B( 17-C , 22-O ) :   0.8936 B( 17-C , 23-H ) :   0.9341 B( 18-C , 19-C ) :   0.9400
B( 18-C , 24-H ) :   0.9372 B( 18-C , 25-H ) :   0.9352 B( 19-C , 20-O ) :   0.8519
B( 19-C , 26-H ) :   0.9331 B( 19-C , 27-H ) :   0.9369 B( 22-O , 28-H ) :   0.7931

FINAL SINGLE POINT ENERGY      -652.858834756541

DIPOLE MOMENT
-------------
                                X             Y             Z
Electronic contribution:     -3.18450      -3.99980       2.37906
Nuclear contribution   :      3.82455       4.83958      -3.42723
                        -----------------------------------------
Total Dipole Moment    :      0.64005       0.83978      -1.04817
                        -----------------------------------------
Magnitude (a.u.)       :      1.48780
Magnitude (Debye)      :      3.78170

Rotational constants in cm-1:     0.068740     0.011858     0.011613
Rotational constants in MHz :  2060.764855   355.497709   348.143846

                             ****ORCA TERMINATED NORMALLY****
TOTAL RUN TIME: 0 days 0 hours 25 minutes 5 seconds 480 msec
