                         Program Version 4.2.0 -  RELEASE  -
|  1> # Test redundant internal optimization
|  2> #
|  3> ! RKS B3LYP  Opt TightSCF SmallPrint
|  4>
|  5> %basis
|  6>         Basis "6-31G"
|  7> end
|  8>
|  9> %geom
| 10> Constraints
| 11> { D 4  0  15  12  255.0   C } # D for Dihedral angle
| 12> { D 0  15  12  16  165.0   C } # D for Dihedral angle
| 13> { D 0  4  3  2   C } # D for Dihedral angle
| 14> { D 4  3  2  1   C } # D for Dihedral angle
| 15> { D 3  2  1  0   C } # D for Dihedral angle
| 16> { D 2  1  0  4   C } # D for Dihedral angle
| 17> { D 1  0  4  3   C } # D for Dihedral angle
| 18> { D 16  20  19  18   C } # D for Dihedral angle
| 19> { D 20  19  18  17   C } # D for Dihedral angle
| 20> { D 19  18  17  16   C } # D for Dihedral angle
| 21> { D 18  17  16  20   C } # D for Dihedral angle
| 22> { D 17  16  20  19   C } # D for Dihedral angle
| 23> { D 15  12  16  20   C } # D for Dihedral angle
| 24> end
| 25> end
| 26>
| 27>
| 28> #%pal
| 29> #nprocs 8
| 30> #end
| 31>
| 32> * xyz 0 1
| 33> C  -21.048   26.222   46.251
| 34> C  -20.361   27.558   45.944
| 35> C  -20.329   28.222   47.341
| 36> C  -20.110   27.022   48.296
| 37> O  -20.473   25.807   47.535
| 38> H  -20.833   25.428   45.533
| 39> H  -19.344   27.382   45.576
| 40> H  -20.898   28.157   45.201
| 41> H  -19.543   28.978   47.434
| 42> H  -21.289   28.710   47.548
| 43> H  -20.733   27.082   49.195
| 44> H  -19.064   26.913   48.597
| 45> C  -23.431   25.260   45.734
| 46> H  -23.410   25.365   44.642
| 47> H  -23.014   24.277   45.991
| 48> O  -22.586   26.394   46.375
| 49> C  -24.914   25.280   46.197
| 50> C  -25.627   26.553   45.728
| 51> C  -25.933   26.214   44.249
| 52> C  -26.227   24.693   44.291
| 53> O  -25.664   24.191   45.563
| 54> H  -24.954   25.110   47.275
| 55> O  -26.942   26.753   46.528
| 56> H  -25.016   27.455   45.839
| 57> H  -26.771   26.790   43.846
| 58> H  -25.054   26.421   43.626
| 59> H  -25.767   24.154   43.457
| 60> H  -27.299   24.476   44.305
| 61> H  -27.573   25.861   46.431
| 62> *
| 63>
| 64>                          ****END OF INPUT****
 Total Charge           Charge          ....    0
 Multiplicity           Mult            ....    1
 Number of Electrons    NEL             ....  102
FINAL SINGLE POINT ENERGY      -652.837923047744
FINAL SINGLE POINT ENERGY      -652.861437430341
FINAL SINGLE POINT ENERGY      -652.865114240856
FINAL SINGLE POINT ENERGY      -652.865801324671
FINAL SINGLE POINT ENERGY      -652.865891799708
FINAL SINGLE POINT ENERGY      -652.865901495675
                    ***********************HURRAY********************

CARTESIAN COORDINATES (ANGSTROEM)
---------------------------------
  C    -21.094225   26.131121   46.204735
  C    -20.509183   27.515477   45.925414
  C    -20.600922   28.186857   47.316415
  C    -20.330073   27.014473   48.285108
  O    -20.558630   25.776751   47.497231
  H    -20.799574   25.339853   45.510016
  H    -19.464354   27.411970   45.609874
  H    -21.063232   28.048896   45.150172
  H    -19.883471   29.003679   47.438528
  H    -21.608948   28.584728   47.466137
  H    -20.999048   27.008761   49.149243
  H    -19.292386   26.978109   48.630025
  C    -23.304882   25.166297   45.658895
  H    -23.251146   25.217782   44.561299
  H    -22.918472   24.191096   45.979756
  O    -22.537285   26.251605   46.252475
  C    -24.741954   25.314516   46.150628
  C    -25.447081   26.608912   45.722498
  C    -25.873255   26.267849   44.271360
  C    -26.212901   24.758331   44.347999
  O    -25.571358   24.244726   45.585023
  H    -24.761677   25.201692   47.237939
  O    -26.596974   26.875854   46.572024
  H    -24.808271   27.487118   45.799926
  H    -26.724368   26.881295   43.965166
  H    -25.046823   26.456373   43.577354
  H    -25.836071   24.191655   43.491052
  H    -27.287541   24.573890   44.443117
  H    -27.082894   26.038334   46.728591

 Multiplicity           Mult            ....    1
 Number of Electrons    NEL             ....  102
 Basis Dimension        Dim             ....  149

ORBITAL ENERGIES
----------------

  NO   OCC          E(Eh)            E(eV)
   0   2.0000     -19.146116      -520.9923
   1   2.0000     -19.144770      -520.9557
   2   2.0000     -19.138337      -520.7806
   3   2.0000     -19.134116      -520.6658
   4   2.0000     -10.280960      -279.7591
   5   2.0000     -10.235258      -278.5155
   6   2.0000     -10.233040      -278.4552
   7   2.0000     -10.232542      -278.4416
   8   2.0000     -10.231876      -278.4235
   9   2.0000     -10.223832      -278.2046
  10   2.0000     -10.187876      -277.2262
  11   2.0000     -10.186049      -277.1765
  12   2.0000     -10.184953      -277.1466
  13   2.0000      -1.053984       -28.6804
  14   2.0000      -1.035491       -28.1772
  15   2.0000      -1.003641       -27.3104
  16   2.0000      -0.996336       -27.1117
  17   2.0000      -0.789619       -21.4866
  18   2.0000      -0.778331       -21.1795
  19   2.0000      -0.767584       -20.8870
  20   2.0000      -0.729114       -19.8402
  21   2.0000      -0.674316       -18.3491
  22   2.0000      -0.604007       -16.4359
  23   2.0000      -0.598155       -16.2766
  24   2.0000      -0.589410       -16.0387
  25   2.0000      -0.585451       -15.9309
  26   2.0000      -0.521322       -14.1859
  27   2.0000      -0.520536       -14.1645
  28   2.0000      -0.496905       -13.5215
  29   2.0000      -0.487205       -13.2575
  30   2.0000      -0.469161       -12.7665
  31   2.0000      -0.455975       -12.4077
  32   2.0000      -0.451901       -12.2968
  33   2.0000      -0.439096       -11.9484
  34   2.0000      -0.426689       -11.6108
  35   2.0000      -0.413025       -11.2390
  36   2.0000      -0.400755       -10.9051
  37   2.0000      -0.391917       -10.6646
  38   2.0000      -0.374322       -10.1858
  39   2.0000      -0.366345        -9.9688
  40   2.0000      -0.359933        -9.7943
  41   2.0000      -0.355750        -9.6805
  42   2.0000      -0.349843        -9.5197
  43   2.0000      -0.330720        -8.9993
  44   2.0000      -0.320824        -8.7301
  45   2.0000      -0.309132        -8.4119
  46   2.0000      -0.303213        -8.2508
  47   2.0000      -0.274719        -7.4755
  48   2.0000      -0.264440        -7.1958
  49   2.0000      -0.249133        -6.7792
  50   2.0000      -0.247102        -6.7240
  51   0.0000       0.063961         1.7405
  52   0.0000       0.077043         2.0964
  53   0.0000       0.095657         2.6030
  54   0.0000       0.099293         2.7019
  55   0.0000       0.105029         2.8580

MULLIKEN ATOMIC CHARGES
-----------------------
   0 C :    0.287049
   1 C :   -0.253549
   2 C :   -0.300270
   3 C :   -0.001585
   4 O :   -0.504132
   5 H :    0.142092
   6 H :    0.144159
   7 H :    0.146788
   8 H :    0.141340
   9 H :    0.164594
  10 H :    0.152325
  11 H :    0.141383
  12 C :   -0.005442
  13 H :    0.127305
  14 H :    0.157245
  15 O :   -0.528600
  16 C :    0.052205
  17 C :    0.093864
  18 C :   -0.306847
  19 C :   -0.030095
  20 O :   -0.526771
  21 H :    0.172324
  22 O :   -0.604369
  23 H :    0.173145
  24 H :    0.164007
  25 H :    0.146102
  26 H :    0.145302
  27 H :    0.147563
  28 H :    0.362868
Sum of atomic charges:   -0.0000000

LOEWDIN ATOMIC CHARGES
----------------------
   0 C :    0.175707
   1 C :   -0.218236
   2 C :   -0.216147
   3 C :   -0.026671
   4 O :   -0.321239
   5 H :    0.100019
   6 H :    0.113149
   7 H :    0.118886
   8 H :    0.113905
   9 H :    0.120120
  10 H :    0.108157
  11 H :    0.102221
  12 C :   -0.038474
  13 H :    0.090048
  14 H :    0.110583
  15 O :   -0.337189
  16 C :    0.017577
  17 C :    0.038739
  18 C :   -0.243611
  19 C :   -0.038577
  20 O :   -0.330287
  21 H :    0.121593
  22 O :   -0.415065
  23 H :    0.125815
  24 H :    0.127331
  25 H :    0.113481
  26 H :    0.103485
  27 H :    0.103044
  28 H :    0.281638

  Mayer bond orders larger than 0.100000
B(  0-C ,  1-C ) :   0.9460 B(  0-C ,  4-O ) :   0.9267 B(  0-C ,  5-H ) :   0.9208
B(  0-C , 15-O ) :   0.8412 B(  1-C ,  2-C ) :   0.9575 B(  1-C ,  6-H ) :   0.9383
B(  1-C ,  7-H ) :   0.9383 B(  2-C ,  3-C ) :   0.9541 B(  2-C ,  8-H ) :   0.9452
B(  2-C ,  9-H ) :   0.9435 B(  3-C ,  4-O ) :   0.8367 B(  3-C , 10-H ) :   0.9348
B(  3-C , 11-H ) :   0.9400 B( 12-C , 13-H ) :   0.9202 B( 12-C , 14-H ) :   0.9157
B( 12-C , 15-O ) :   0.8236 B( 12-C , 16-C ) :   0.9088 B( 16-C , 17-C ) :   0.9126
B( 16-C , 20-O ) :   0.8433 B( 16-C , 21-H ) :   0.9239 B( 17-C , 18-C ) :   0.9117
B( 17-C , 22-O ) :   0.8897 B( 17-C , 23-H ) :   0.9247 B( 18-C , 19-C ) :   0.9418
B( 18-C , 24-H ) :   0.9371 B( 18-C , 25-H ) :   0.9349 B( 19-C , 20-O ) :   0.8447
B( 19-C , 26-H ) :   0.9355 B( 19-C , 27-H ) :   0.9381 B( 22-O , 28-H ) :   0.7955

FINAL SINGLE POINT ENERGY      -652.865903940771

DIPOLE MOMENT
-------------
                                X             Y             Z
Electronic contribution:     -2.31270      -3.48856       2.38558
Nuclear contribution   :      2.77965       3.89977      -3.38376
                        -----------------------------------------
Total Dipole Moment    :      0.46694       0.41121      -0.99818
                        -----------------------------------------
Magnitude (a.u.)       :      1.17622
Magnitude (Debye)      :      2.98971

Rotational constants in cm-1:     0.057567     0.011981     0.011469
Rotational constants in MHz :  1725.824177   359.186671   343.831750

                             ****ORCA TERMINATED NORMALLY****
TOTAL RUN TIME: 0 days 0 hours 22 minutes 16 seconds 838 msec
