                         Program Version 4.2.0 -  RELEASE  -
|  1> # Test redundant internal optimization
|  2> #
|  3> ! RKS B3LYP  Opt TightSCF SmallPrint
|  4>
|  5> %basis
|  6>         Basis "6-31G"
|  7> end
|  8>
|  9> %geom
| 10> Constraints
| 11> { D 4  0  15  12  75.0   C } # D for Dihedral angle
| 12> { D 0  15  12  16  180.0   C } # D for Dihedral angle
| 13> { D 0  4  3  2   C } # D for Dihedral angle
| 14> { D 4  3  2  1   C } # D for Dihedral angle
| 15> { D 3  2  1  0   C } # D for Dihedral angle
| 16> { D 2  1  0  4   C } # D for Dihedral angle
| 17> { D 1  0  4  3   C } # D for Dihedral angle
| 18> { D 16  20  19  18   C } # D for Dihedral angle
| 19> { D 20  19  18  17   C } # D for Dihedral angle
| 20> { D 19  18  17  16   C } # D for Dihedral angle
| 21> { D 18  17  16  20   C } # D for Dihedral angle
| 22> { D 17  16  20  19   C } # D for Dihedral angle
| 23> { D 15  12  16  20   C } # D for Dihedral angle
| 24> end
| 25> end
| 26>
| 27>
| 28> #%pal
| 29> #nprocs 8
| 30> #end
| 31>
| 32> * xyz 0 1
| 33> C  -21.048   26.222   46.251
| 34> C  -20.361   27.558   45.944
| 35> C  -20.329   28.222   47.341
| 36> C  -20.110   27.022   48.296
| 37> O  -20.473   25.807   47.535
| 38> H  -20.833   25.428   45.533
| 39> H  -19.344   27.382   45.576
| 40> H  -20.898   28.157   45.201
| 41> H  -19.543   28.978   47.434
| 42> H  -21.289   28.710   47.548
| 43> H  -20.733   27.082   49.195
| 44> H  -19.064   26.913   48.597
| 45> C  -23.049   27.675   47.122
| 46> H  -22.643   27.666   48.141
| 47> H  -22.677   28.573   46.612
| 48> O  -22.586   26.394   46.375
| 49> C  -24.596   27.790   47.213
| 50> C  -25.189   26.659   48.061
| 51> C  -24.912   27.165   49.497
| 52> C  -25.080   28.700   49.367
| 53> O  -24.977   29.014   47.927
| 54> H  -25.009   27.865   46.206
| 55> H  -26.268   26.580   47.880
| 56> O  -24.542   25.277   47.773
| 57> H  -25.591   26.732   50.238
| 58> H  -23.887   26.912   49.793
| 59> H  -24.308   29.254   49.912
| 60> H  -26.063   29.042   49.703
| 61> H  -23.462   25.333   47.948
| 62> *
| 63>
| 64>                          ****END OF INPUT****
 Total Charge           Charge          ....    0
 Multiplicity           Mult            ....    1
 Number of Electrons    NEL             ....  102
FINAL SINGLE POINT ENERGY      -652.811811354186
FINAL SINGLE POINT ENERGY      -652.840584769000
FINAL SINGLE POINT ENERGY      -652.855638520010
FINAL SINGLE POINT ENERGY      -652.859485195168
FINAL SINGLE POINT ENERGY      -652.861175347891
FINAL SINGLE POINT ENERGY      -652.862151330763
FINAL SINGLE POINT ENERGY      -652.862545363416
FINAL SINGLE POINT ENERGY      -652.862653606242
FINAL SINGLE POINT ENERGY      -652.862673437388
FINAL SINGLE POINT ENERGY      -652.862676176768
                    ***********************HURRAY********************

CARTESIAN COORDINATES (ANGSTROEM)
---------------------------------
  C    -21.169250   26.345131   46.432036
  C    -20.303569   27.495607   45.902812
  C    -19.923311   28.245232   47.212449
  C    -19.783390   27.088601   48.233742
  O    -20.491524   25.927759   47.634412
  H    -21.185158   25.472895   45.777965
  H    -19.414941   27.069558   45.426863
  H    -20.823191   28.124131   45.174418
  H    -18.989934   28.807122   47.108695
  H    -20.702330   28.951769   47.506160
  H    -20.229660   27.311757   49.207132
  H    -18.743894   26.782127   48.379339
  C    -23.076373   27.813834   47.277523
  H    -22.689149   27.864084   48.302434
  H    -22.769430   28.712621   46.732980
  O    -22.584356   26.604493   46.609634
  C    -24.607674   27.739073   47.277207
  C    -25.214130   26.571731   48.075729
  C    -25.106144   27.099194   49.537532
  C    -25.349792   28.613587   49.381767
  O    -25.124957   28.934793   47.939593
  H    -24.967870   27.761003   46.245262
  H    -26.271781   26.483148   47.802754
  O    -24.616076   25.279788   47.876213
  H    -25.832701   26.616363   50.195848
  H    -24.104982   26.875922   49.921790
  H    -24.675765   29.228843   49.985908
  H    -26.381374   28.899629   49.604721
  H    -23.731294   25.392204   47.456083

 Multiplicity           Mult            ....    1
 Number of Electrons    NEL             ....  102
 Basis Dimension        Dim             ....  149

ORBITAL ENERGIES
----------------

  NO   OCC          E(Eh)            E(eV)
   0   2.0000     -19.167675      -521.5790
   1   2.0000     -19.153596      -521.1958
   2   2.0000     -19.141154      -520.8573
   3   2.0000     -19.109850      -520.0055
   4   2.0000     -10.292733      -280.0795
   5   2.0000     -10.242021      -278.6996
   6   2.0000     -10.239281      -278.6250
   7   2.0000     -10.234919      -278.5063
   8   2.0000     -10.228831      -278.3406
   9   2.0000     -10.226735      -278.2836
  10   2.0000     -10.202635      -277.6278
  11   2.0000     -10.202229      -277.6168
  12   2.0000     -10.177989      -276.9572
  13   2.0000      -1.067364       -29.0445
  14   2.0000      -1.026401       -27.9298
  15   2.0000      -1.011009       -27.5109
  16   2.0000      -0.990758       -26.9599
  17   2.0000      -0.799529       -21.7563
  18   2.0000      -0.780593       -21.2410
  19   2.0000      -0.768056       -20.8999
  20   2.0000      -0.738749       -20.1024
  21   2.0000      -0.684594       -18.6287
  22   2.0000      -0.615046       -16.7363
  23   2.0000      -0.602477       -16.3942
  24   2.0000      -0.596176       -16.2228
  25   2.0000      -0.578816       -15.7504
  26   2.0000      -0.528030       -14.3684
  27   2.0000      -0.519085       -14.1250
  28   2.0000      -0.513418       -13.9708
  29   2.0000      -0.486519       -13.2388
  30   2.0000      -0.476345       -12.9620
  31   2.0000      -0.465507       -12.6671
  32   2.0000      -0.442313       -12.0359
  33   2.0000      -0.432840       -11.7782
  34   2.0000      -0.430395       -11.7116
  35   2.0000      -0.424604       -11.5541
  36   2.0000      -0.412868       -11.2347
  37   2.0000      -0.393174       -10.6988
  38   2.0000      -0.388125       -10.5614
  39   2.0000      -0.371783       -10.1167
  40   2.0000      -0.367209        -9.9923
  41   2.0000      -0.362835        -9.8733
  42   2.0000      -0.347784        -9.4637
  43   2.0000      -0.340028        -9.2526
  44   2.0000      -0.324613        -8.8332
  45   2.0000      -0.320164        -8.7121
  46   2.0000      -0.296738        -8.0746
  47   2.0000      -0.275580        -7.4989
  48   2.0000      -0.267439        -7.2774
  49   2.0000      -0.250376        -6.8131
  50   2.0000      -0.239512        -6.5175
  51   0.0000       0.055033         1.4975
  52   0.0000       0.067319         1.8318
  53   0.0000       0.087435         2.3792
  54   0.0000       0.094705         2.5770
  55   0.0000       0.102369         2.7856

MULLIKEN ATOMIC CHARGES
-----------------------
   0 C :    0.307752
   1 C :   -0.283960
   2 C :   -0.317301
   3 C :   -0.013437
   4 O :   -0.500708
   5 H :    0.173958
   6 H :    0.162613
   7 H :    0.155234
   8 H :    0.151016
   9 H :    0.154295
  10 H :    0.148191
  11 H :    0.153560
  12 C :   -0.020545
  13 H :    0.145086
  14 H :    0.156054
  15 O :   -0.554362
  16 C :    0.052993
  17 C :    0.121500
  18 C :   -0.304895
  19 C :   -0.018327
  20 O :   -0.523622
  21 H :    0.161530
  22 H :    0.147335
  23 O :   -0.635976
  24 H :    0.154215
  25 H :    0.144466
  26 H :    0.139981
  27 H :    0.147491
  28 H :    0.395864
Sum of atomic charges:   -0.0000000

LOEWDIN ATOMIC CHARGES
----------------------
   0 C :    0.174734
   1 C :   -0.226519
   2 C :   -0.224406
   3 C :   -0.032459
   4 O :   -0.317629
   5 H :    0.117166
   6 H :    0.125977
   7 H :    0.121251
   8 H :    0.118863
   9 H :    0.112871
  10 H :    0.104160
  11 H :    0.107940
  12 C :   -0.048337
  13 H :    0.099444
  14 H :    0.107657
  15 O :   -0.326026
  16 C :    0.020558
  17 C :    0.042749
  18 C :   -0.238284
  19 C :   -0.032460
  20 O :   -0.325668
  21 H :    0.116691
  22 H :    0.105745
  23 O :   -0.431483
  24 H :    0.122568
  25 H :    0.110604
  26 H :    0.100424
  27 H :    0.105831
  28 H :    0.288040

  Mayer bond orders larger than 0.100000
B(  0-C ,  1-C ) :   0.9282 B(  0-C ,  4-O ) :   0.9184 B(  0-C ,  5-H ) :   0.9339
B(  0-C , 15-O ) :   0.8487 B(  1-C ,  2-C ) :   0.9534 B(  1-C ,  6-H ) :   0.9344
B(  1-C ,  7-H ) :   0.9344 B(  2-C ,  3-C ) :   0.9477 B(  2-C ,  8-H ) :   0.9446
B(  2-C ,  9-H ) :   0.9386 B(  3-C ,  4-O ) :   0.8388 B(  3-C , 10-H ) :   0.9332
B(  3-C , 11-H ) :   0.9383 B( 12-C , 13-H ) :   0.9148 B( 12-C , 14-H ) :   0.9164
B( 12-C , 15-O ) :   0.7918 B( 12-C , 16-C ) :   0.9049 B( 16-C , 17-C ) :   0.9133
B( 16-C , 20-O ) :   0.8563 B( 16-C , 21-H ) :   0.9288 B( 17-C , 18-C ) :   0.8978
B( 17-C , 22-H ) :   0.9302 B( 17-C , 23-O ) :   0.9439 B( 18-C , 19-C ) :   0.9384
B( 18-C , 24-H ) :   0.9441 B( 18-C , 25-H ) :   0.9440 B( 19-C , 20-O ) :   0.8305
B( 19-C , 26-H ) :   0.9346 B( 19-C , 27-H ) :   0.9394 B( 23-O , 28-H ) :   0.7230

FINAL SINGLE POINT ENERGY      -652.862676933728

DIPOLE MOMENT
-------------
                                X             Y             Z
Electronic contribution:     -2.97034      -3.68393      -2.29167
Nuclear contribution   :      4.22458       4.89117       2.30380
                        -----------------------------------------
Total Dipole Moment    :      1.25424       1.20725       0.01213
                        -----------------------------------------
Magnitude (a.u.)       :      1.74089
Magnitude (Debye)      :      4.42500

Rotational constants in cm-1:     0.047800     0.015192     0.014138
Rotational constants in MHz :  1433.000889   455.442226   423.844182

                             ****ORCA TERMINATED NORMALLY****
TOTAL RUN TIME: 0 days 1 hours 51 minutes 20 seconds 709 msec
