                         Program Version 4.2.0 -  RELEASE  -
|  1> # Test redundant internal optimization
|  2> #
|  3> ! RKS B3LYP  Opt TightSCF SmallPrint
|  4>
|  5> %basis
|  6>         Basis "6-31G"
|  7> end
|  8>
|  9> %geom
| 10> Constraints
| 11> { D 4  0  15  12  210.0   C } # D for Dihedral angle
| 12> { D 0  15  12  16  315.0   C } # D for Dihedral angle
| 13> { D 0  4  3  2   C } # D for Dihedral angle
| 14> { D 4  3  2  1   C } # D for Dihedral angle
| 15> { D 3  2  1  0   C } # D for Dihedral angle
| 16> { D 2  1  0  4   C } # D for Dihedral angle
| 17> { D 1  0  4  3   C } # D for Dihedral angle
| 18> { D 16  20  19  18   C } # D for Dihedral angle
| 19> { D 20  19  18  17   C } # D for Dihedral angle
| 20> { D 19  18  17  16   C } # D for Dihedral angle
| 21> { D 18  17  16  20   C } # D for Dihedral angle
| 22> { D 17  16  20  19   C } # D for Dihedral angle
| 23> { D 15  12  16  20   C } # D for Dihedral angle
| 24> end
| 25> end
| 26>
| 27>
| 28> #%pal
| 29> #nprocs 8
| 30> #end
| 31>
| 32> * xyz 0 1
| 33> C  -21.048   26.222   46.251
| 34> C  -20.361   27.558   45.944
| 35> C  -20.329   28.222   47.341
| 36> C  -20.110   27.022   48.296
| 37> O  -20.473   25.807   47.535
| 38> H  -20.833   25.428   45.533
| 39> H  -19.344   27.382   45.576
| 40> H  -20.898   28.157   45.201
| 41> H  -19.543   28.978   47.434
| 42> H  -21.289   28.710   47.548
| 43> H  -20.733   27.082   49.195
| 44> H  -19.064   26.913   48.597
| 45> C  -23.389   26.110   45.076
| 46> H  -23.442   25.027   44.912
| 47> H  -24.414   26.494   45.167
| 48> O  -22.586   26.394   46.375
| 49> C  -22.749   26.763   43.820
| 50> C  -21.374   26.158   43.517
| 51> C  -21.761   24.832   42.821
| 52> C  -23.038   25.211   42.029
| 53> O  -23.546   26.464   42.625
| 54> H  -22.750   27.848   43.941
| 55> O  -20.589   27.080   42.545
| 56> H  -20.764   26.005   44.414
| 57> H  -20.967   24.445   42.174
| 58> H  -21.984   24.065   43.572
| 59> H  -23.814   24.442   42.094
| 60> H  -22.830   25.415   40.975
| 61> H  -21.181   27.247   41.637
| 62> *
| 63>
| 64>                          ****END OF INPUT****
 Total Charge           Charge          ....    0
 Multiplicity           Mult            ....    1
 Number of Electrons    NEL             ....  102
FINAL SINGLE POINT ENERGY      -652.797185946332
FINAL SINGLE POINT ENERGY      -652.831920482731
FINAL SINGLE POINT ENERGY      -652.849319259037
FINAL SINGLE POINT ENERGY      -652.851791410230
FINAL SINGLE POINT ENERGY      -652.852216415853
FINAL SINGLE POINT ENERGY      -652.852279712996
                    ***********************HURRAY********************

CARTESIAN COORDINATES (ANGSTROEM)
---------------------------------
  C    -20.920803   26.232467   46.345272
  C    -20.164763   27.545163   46.144482
  C    -20.361537   28.241217   47.513512
  C    -20.338772   27.059099   48.505866
  O    -20.593732   25.843433   47.690357
  H    -20.618628   25.397192   45.706653
  H    -19.103760   27.330777   45.965479
  H    -20.542655   28.138047   45.308419
  H    -19.583062   28.980287   47.723933
  H    -21.333729   28.741782   47.534049
  H    -21.109814   27.129158   49.277431
  H    -19.362169   26.918627   48.979314
  C    -23.134272   26.214282   45.075044
  H    -23.317317   25.133393   44.971640
  H    -24.093777   26.692608   45.276881
  O    -22.354990   26.437605   46.285953
  C    -22.633485   26.737854   43.709459
  C    -21.324980   26.183196   43.120816
  C    -21.780137   24.795787   42.583431
  C    -23.224324   25.075441   42.093049
  O    -23.658568   26.334034   42.739852
  H    -22.607700   27.832154   43.709993
  O    -20.854969   27.051891   42.051712
  H    -20.490292   26.122110   43.811557
  H    -21.116936   24.452553   41.785688
  H    -21.767583   24.052679   43.388633
  H    -23.925445   24.278905   42.359621
  H    -23.273695   25.235661   41.011192
  H    -21.611105   27.293596   41.475711

 Multiplicity           Mult            ....    1
 Number of Electrons    NEL             ....  102
 Basis Dimension        Dim             ....  149

ORBITAL ENERGIES
----------------

  NO   OCC          E(Eh)            E(eV)
   0   2.0000     -19.153838      -521.2024
   1   2.0000     -19.145937      -520.9874
   2   2.0000     -19.139647      -520.8163
   3   2.0000     -19.138801      -520.7933
   4   2.0000     -10.281940      -279.7858
   5   2.0000     -10.249913      -278.9143
   6   2.0000     -10.243231      -278.7325
   7   2.0000     -10.239470      -278.6301
   8   2.0000     -10.234318      -278.4899
   9   2.0000     -10.223452      -278.1943
  10   2.0000     -10.197444      -277.4865
  11   2.0000     -10.186185      -277.1802
  12   2.0000     -10.185141      -277.1518
  13   2.0000      -1.052402       -28.6373
  14   2.0000      -1.045893       -28.4602
  15   2.0000      -1.014602       -27.6087
  16   2.0000      -0.991884       -26.9905
  17   2.0000      -0.786372       -21.3983
  18   2.0000      -0.785921       -21.3860
  19   2.0000      -0.771813       -21.0021
  20   2.0000      -0.738232       -20.0883
  21   2.0000      -0.679331       -18.4855
  22   2.0000      -0.613282       -16.6883
  23   2.0000      -0.605753       -16.4834
  24   2.0000      -0.597474       -16.2581
  25   2.0000      -0.582645       -15.8546
  26   2.0000      -0.529731       -14.4147
  27   2.0000      -0.518151       -14.0996
  28   2.0000      -0.503587       -13.7033
  29   2.0000      -0.484267       -13.1776
  30   2.0000      -0.479603       -13.0507
  31   2.0000      -0.461710       -12.5638
  32   2.0000      -0.447091       -12.1660
  33   2.0000      -0.441203       -12.0057
  34   2.0000      -0.428707       -11.6657
  35   2.0000      -0.421950       -11.4818
  36   2.0000      -0.402216       -10.9448
  37   2.0000      -0.401180       -10.9167
  38   2.0000      -0.379509       -10.3270
  39   2.0000      -0.377376       -10.2689
  40   2.0000      -0.362198        -9.8559
  41   2.0000      -0.357783        -9.7358
  42   2.0000      -0.352783        -9.5997
  43   2.0000      -0.339310        -9.2331
  44   2.0000      -0.317051        -8.6274
  45   2.0000      -0.313256        -8.5241
  46   2.0000      -0.304593        -8.2884
  47   2.0000      -0.279408        -7.6031
  48   2.0000      -0.266004        -7.2383
  49   2.0000      -0.255676        -6.9573
  50   2.0000      -0.242714        -6.6046
  51   0.0000       0.058493         1.5917
  52   0.0000       0.067965         1.8494
  53   0.0000       0.082577         2.2470
  54   0.0000       0.093717         2.5502
  55   0.0000       0.096956         2.6383

MULLIKEN ATOMIC CHARGES
-----------------------
   0 C :    0.291433
   1 C :   -0.268610
   2 C :   -0.301240
   3 C :   -0.002511
   4 O :   -0.505588
   5 H :    0.137745
   6 H :    0.146294
   7 H :    0.155301
   8 H :    0.142802
   9 H :    0.162914
  10 H :    0.154680
  11 H :    0.141419
  12 C :    0.002368
  13 H :    0.128676
  14 H :    0.172615
  15 O :   -0.517232
  16 C :    0.029974
  17 C :    0.074039
  18 C :   -0.303567
  19 C :   -0.034847
  20 O :   -0.520954
  21 H :    0.164205
  22 O :   -0.602237
  23 H :    0.161204
  24 H :    0.167413
  25 H :    0.152293
  26 H :    0.153899
  27 H :    0.151302
  28 H :    0.366210
Sum of atomic charges:   -0.0000000

LOEWDIN ATOMIC CHARGES
----------------------
   0 C :    0.175807
   1 C :   -0.230490
   2 C :   -0.215802
   3 C :   -0.025416
   4 O :   -0.306686
   5 H :    0.092781
   6 H :    0.114728
   7 H :    0.118454
   8 H :    0.114854
   9 H :    0.119459
  10 H :    0.109298
  11 H :    0.101959
  12 C :   -0.039419
  13 H :    0.093557
  14 H :    0.127487
  15 O :   -0.335085
  16 C :    0.000873
  17 C :    0.029106
  18 C :   -0.242398
  19 C :   -0.039779
  20 O :   -0.324299
  21 H :    0.114200
  22 O :   -0.413226
  23 H :    0.118683
  24 H :    0.128971
  25 H :    0.116436
  26 H :    0.107645
  27 H :    0.104419
  28 H :    0.283883

  Mayer bond orders larger than 0.100000
B(  0-C ,  1-C ) :   0.9264 B(  0-C ,  4-O ) :   0.9280 B(  0-C ,  5-H ) :   0.9132
B(  0-C , 15-O ) :   0.8315 B(  1-C ,  2-C ) :   0.9506 B(  1-C ,  6-H ) :   0.9329
B(  1-C ,  7-H ) :   0.9323 B(  2-C ,  3-C ) :   0.9541 B(  2-C ,  8-H ) :   0.9446
B(  2-C ,  9-H ) :   0.9434 B(  3-C ,  4-O ) :   0.8354 B(  3-C , 10-H ) :   0.9347
B(  3-C , 11-H ) :   0.9396 B( 12-C , 13-H ) :   0.9220 B( 12-C , 14-H ) :   0.9305
B( 12-C , 15-O ) :   0.8562 B( 12-C , 16-C ) :   0.8771 B( 16-C , 17-C ) :   0.9052
B( 16-C , 20-O ) :   0.8260 B( 16-C , 21-H ) :   0.9222 B( 17-C , 18-C ) :   0.9129
B( 17-C , 22-O ) :   0.8879 B( 17-C , 23-H ) :   0.9172 B( 18-C , 19-C ) :   0.9420
B( 18-C , 24-H ) :   0.9363 B( 18-C , 25-H ) :   0.9319 B( 19-C , 20-O ) :   0.8387
B( 19-C , 26-H ) :   0.9339 B( 19-C , 27-H ) :   0.9370 B( 22-O , 28-H ) :   0.7927

FINAL SINGLE POINT ENERGY      -652.852283652454

DIPOLE MOMENT
-------------
                                X             Y             Z
Electronic contribution:     -2.13671      -0.54626      -0.50661
Nuclear contribution   :      2.34189       0.58932       0.00309
                        -----------------------------------------
Total Dipole Moment    :      0.20517       0.04306      -0.50353
                        -----------------------------------------
Magnitude (a.u.)       :      0.54543
Magnitude (Debye)      :      1.38636

Rotational constants in cm-1:     0.056434     0.013897     0.012990
Rotational constants in MHz :  1691.841045   416.624517   389.420743

                             ****ORCA TERMINATED NORMALLY****
TOTAL RUN TIME: 0 days 0 hours 35 minutes 46 seconds 218 msec
