                         Program Version 4.2.0 -  RELEASE  -
|  1> # Test redundant internal optimization
|  2> #
|  3> ! RKS B3LYP  Opt TightSCF SmallPrint
|  4>
|  5> %basis
|  6>         Basis "6-31G"
|  7> end
|  8>
|  9> %geom
| 10> Constraints
| 11> { D 4  0  15  12  315.0   C } # D for Dihedral angle
| 12> { D 0  15  12  16  135.0   C } # D for Dihedral angle
| 13> { D 0  4  3  2   C } # D for Dihedral angle
| 14> { D 4  3  2  1   C } # D for Dihedral angle
| 15> { D 3  2  1  0   C } # D for Dihedral angle
| 16> { D 2  1  0  4   C } # D for Dihedral angle
| 17> { D 1  0  4  3   C } # D for Dihedral angle
| 18> { D 16  20  19  18   C } # D for Dihedral angle
| 19> { D 20  19  18  17   C } # D for Dihedral angle
| 20> { D 19  18  17  16   C } # D for Dihedral angle
| 21> { D 18  17  16  20   C } # D for Dihedral angle
| 22> { D 17  16  20  19   C } # D for Dihedral angle
| 23> { D 15  12  16  20   C } # D for Dihedral angle
| 24> end
| 25> end
| 26>
| 27>
| 28> #%pal
| 29> #nprocs 8
| 30> #end
| 31>
| 32> * xyz 0 1
| 33> C  -21.048   26.222   46.251
| 34> C  -20.361   27.558   45.944
| 35> C  -20.329   28.222   47.341
| 36> C  -20.110   27.022   48.296
| 37> O  -20.473   25.807   47.535
| 38> H  -20.833   25.428   45.533
| 39> H  -19.344   27.382   45.576
| 40> H  -20.898   28.157   45.201
| 41> H  -19.543   28.978   47.434
| 42> H  -21.289   28.710   47.548
| 43> H  -20.733   27.082   49.195
| 44> H  -19.064   26.913   48.597
| 45> C  -23.319   25.255   47.135
| 46> H  -23.841   24.615   46.412
| 47> H  -22.599   24.634   47.684
| 48> O  -22.586   26.394   46.375
| 49> C  -24.360   25.788   48.157
| 50> C  -23.718   26.764   49.149
| 51> C  -23.648   28.063   48.310
| 52> C  -24.935   27.995   47.450
| 53> O  -25.385   26.586   47.477
| 54> H  -24.870   24.942   48.622
| 55> H  -24.370   26.901   50.018
| 56> O  -22.324   26.297   49.651
| 57> H  -23.606   28.966   48.927
| 58> H  -22.756   28.051   47.672
| 59> H  -24.762   28.297   46.412
| 60> H  -25.746   28.600   47.864
| 61> H  -21.654   26.154   48.796
| 62> *
| 63>
| 64>                          ****END OF INPUT****
 Total Charge           Charge          ....    0
 Multiplicity           Mult            ....    1
 Number of Electrons    NEL             ....  102
FINAL SINGLE POINT ENERGY      -652.810863031799
FINAL SINGLE POINT ENERGY      -652.840931497586
FINAL SINGLE POINT ENERGY      -652.858433164551
FINAL SINGLE POINT ENERGY      -652.862344041591
FINAL SINGLE POINT ENERGY      -652.863270147687
FINAL SINGLE POINT ENERGY      -652.863465213113
FINAL SINGLE POINT ENERGY      -652.863532069025
FINAL SINGLE POINT ENERGY      -652.863537993170
                    ***********************HURRAY********************

CARTESIAN COORDINATES (ANGSTROEM)
---------------------------------
  C    -21.050385   26.202009   46.311419
  C    -20.317914   27.470499   45.858748
  C    -20.153427   28.225940   47.198243
  C    -19.930254   27.103288   48.232765
  O    -20.420965   25.840153   47.571563
  H    -20.836399   25.341988   45.663216
  H    -19.348722   27.180608   45.442006
  H    -20.882583   28.029625   45.109824
  H    -19.312711   28.927303   47.178536
  H    -21.056255   28.799229   47.424729
  H    -20.476478   27.259146   49.164117
  H    -18.873471   26.931486   48.450585
  C    -23.218862   25.309379   47.083838
  H    -23.713239   24.689960   46.325637
  H    -22.515863   24.675836   47.636835
  O    -22.483865   26.358908   46.356988
  C    -24.300402   25.822950   48.029994
  C    -23.843834   26.734476   49.178098
  C    -23.838787   28.130582   48.493205
  C    -25.033842   28.041266   47.521292
  O    -25.335439   26.593389   47.355715
  H    -24.795768   24.924606   48.420061
  H    -24.590100   26.712614   49.976765
  O    -22.607039   26.331125   49.811330
  H    -23.937255   28.944639   49.216844
  H    -22.907798   28.248045   47.940247
  H    -24.811578   28.465084   46.538419
  H    -25.939968   28.507515   47.920351
  H    -21.970798   25.981351   49.150630

 Multiplicity           Mult            ....    1
 Number of Electrons    NEL             ....  102
 Basis Dimension        Dim             ....  149

ORBITAL ENERGIES
----------------

  NO   OCC          E(Eh)            E(eV)
   0   2.0000     -19.164552      -521.4940
   1   2.0000     -19.154592      -521.2230
   2   2.0000     -19.135623      -520.7068
   3   2.0000     -19.132480      -520.6213
   4   2.0000     -10.288909      -279.9754
   5   2.0000     -10.236184      -278.5407
   6   2.0000     -10.235186      -278.5136
   7   2.0000     -10.232787      -278.4483
   8   2.0000     -10.232615      -278.4436
   9   2.0000     -10.219937      -278.0986
  10   2.0000     -10.197538      -277.4891
  11   2.0000     -10.196847      -277.4703
  12   2.0000     -10.176215      -276.9089
  13   2.0000      -1.064204       -28.9585
  14   2.0000      -1.024636       -27.8818
  15   2.0000      -1.008974       -27.4556
  16   2.0000      -1.001275       -27.2461
  17   2.0000      -0.800496       -21.7826
  18   2.0000      -0.773443       -21.0465
  19   2.0000      -0.767096       -20.8738
  20   2.0000      -0.739432       -20.1210
  21   2.0000      -0.680163       -18.5082
  22   2.0000      -0.611988       -16.6531
  23   2.0000      -0.601140       -16.3579
  24   2.0000      -0.596597       -16.2342
  25   2.0000      -0.574041       -15.6204
  26   2.0000      -0.523079       -14.2337
  27   2.0000      -0.516298       -14.0492
  28   2.0000      -0.512097       -13.9349
  29   2.0000      -0.490539       -13.3482
  30   2.0000      -0.475372       -12.9355
  31   2.0000      -0.463295       -12.6069
  32   2.0000      -0.437381       -11.9017
  33   2.0000      -0.433942       -11.8082
  34   2.0000      -0.419892       -11.4258
  35   2.0000      -0.416492       -11.3333
  36   2.0000      -0.407464       -11.0877
  37   2.0000      -0.396415       -10.7870
  38   2.0000      -0.380042       -10.3415
  39   2.0000      -0.373443       -10.1619
  40   2.0000      -0.367845       -10.0096
  41   2.0000      -0.358496        -9.7552
  42   2.0000      -0.350647        -9.5416
  43   2.0000      -0.344169        -9.3653
  44   2.0000      -0.330354        -8.9894
  45   2.0000      -0.312770        -8.5109
  46   2.0000      -0.297407        -8.0929
  47   2.0000      -0.278105        -7.5676
  48   2.0000      -0.268113        -7.2957
  49   2.0000      -0.259750        -7.0682
  50   2.0000      -0.237861        -6.4725
  51   0.0000       0.067860         1.8466
  52   0.0000       0.082081         2.2335
  53   0.0000       0.089364         2.4317
  54   0.0000       0.097035         2.6405
  55   0.0000       0.097638         2.6569

MULLIKEN ATOMIC CHARGES
-----------------------
   0 C :    0.291353
   1 C :   -0.266186
   2 C :   -0.306298
   3 C :   -0.053381
   4 O :   -0.523097
   5 H :    0.150833
   6 H :    0.154707
   7 H :    0.165022
   8 H :    0.149252
   9 H :    0.164487
  10 H :    0.169479
  11 H :    0.155525
  12 C :   -0.040293
  13 H :    0.161926
  14 H :    0.157259
  15 O :   -0.523880
  16 C :    0.078516
  17 C :    0.086892
  18 C :   -0.311388
  19 C :   -0.005293
  20 O :   -0.518798
  21 H :    0.150539
  22 H :    0.160500
  23 O :   -0.631874
  24 H :    0.140465
  25 H :    0.165660
  26 H :    0.149621
  27 H :    0.140101
  28 H :    0.388351
Sum of atomic charges:   -0.0000000

LOEWDIN ATOMIC CHARGES
----------------------
   0 C :    0.171030
   1 C :   -0.210811
   2 C :   -0.217546
   3 C :   -0.043921
   4 O :   -0.337023
   5 H :    0.093612
   6 H :    0.120351
   7 H :    0.129169
   8 H :    0.118411
   9 H :    0.116296
  10 H :    0.114227
  11 H :    0.110016
  12 C :   -0.055244
  13 H :    0.115727
  14 H :    0.112561
  15 O :   -0.331381
  16 C :    0.015035
  17 C :    0.039054
  18 C :   -0.241859
  19 C :   -0.024672
  20 O :   -0.322629
  21 H :    0.116024
  22 H :    0.114129
  23 O :   -0.420300
  24 H :    0.114524
  25 H :    0.116039
  26 H :    0.106946
  27 H :    0.100471
  28 H :    0.281764

  Mayer bond orders larger than 0.100000
B(  0-C ,  1-C ) :   0.9407 B(  0-C ,  4-O ) :   0.8761 B(  0-C ,  5-H ) :   0.9229
B(  0-C , 15-O ) :   0.8763 B(  1-C ,  2-C ) :   0.9563 B(  1-C ,  6-H ) :   0.9381
B(  1-C ,  7-H ) :   0.9352 B(  2-C ,  3-C ) :   0.9549 B(  2-C ,  8-H ) :   0.9433
B(  2-C ,  9-H ) :   0.9316 B(  3-C ,  4-O ) :   0.8144 B(  3-C , 10-H ) :   0.9101
B(  3-C , 11-H ) :   0.9406 B( 12-C , 13-H ) :   0.9258 B( 12-C , 14-H ) :   0.8973
B( 12-C , 15-O ) :   0.8264 B( 12-C , 16-C ) :   0.9113 B( 16-C , 17-C ) :   0.9031
B( 16-C , 20-O ) :   0.8796 B( 16-C , 21-H ) :   0.9210 B( 17-C , 18-C ) :   0.9165
B( 17-C , 22-H ) :   0.9340 B( 17-C , 23-O ) :   0.9077 B( 18-C , 19-C ) :   0.9425
B( 18-C , 24-H ) :   0.9441 B( 18-C , 25-H ) :   0.9145 B( 19-C , 20-O ) :   0.8340
B( 19-C , 26-H ) :   0.9324 B( 19-C , 27-H ) :   0.9381 B( 23-O , 28-H ) :   0.7314

FINAL SINGLE POINT ENERGY      -652.863538046775

DIPOLE MOMENT
-------------
                                X             Y             Z
Electronic contribution:     -2.84430      -4.36048       0.02188
Nuclear contribution   :      3.74816       4.99146      -0.44255
                        -----------------------------------------
Total Dipole Moment    :      0.90386       0.63098      -0.42067
                        -----------------------------------------
Magnitude (a.u.)       :      1.17986
Magnitude (Debye)      :      2.99895

Rotational constants in cm-1:     0.043229     0.019424     0.018465
Rotational constants in MHz :  1295.985305   582.320373   553.564399

                             ****ORCA TERMINATED NORMALLY****
TOTAL RUN TIME: 0 days 0 hours 21 minutes 41 seconds 464 msec
