                         Program Version 4.2.0 -  RELEASE  -
|  1> # Test redundant internal optimization
|  2> #
|  3> ! RKS B3LYP  Opt TightSCF SmallPrint
|  4>
|  5> %basis
|  6>         Basis "6-31G"
|  7> end
|  8>
|  9> %geom
| 10> Constraints
| 11> { D 4  0  15  12  225.0   C } # D for Dihedral angle
| 12> { D 0  15  12  16  180.0   C } # D for Dihedral angle
| 13> { D 0  4  3  2   C } # D for Dihedral angle
| 14> { D 4  3  2  1   C } # D for Dihedral angle
| 15> { D 3  2  1  0   C } # D for Dihedral angle
| 16> { D 2  1  0  4   C } # D for Dihedral angle
| 17> { D 1  0  4  3   C } # D for Dihedral angle
| 18> { D 16  20  19  18   C } # D for Dihedral angle
| 19> { D 20  19  18  17   C } # D for Dihedral angle
| 20> { D 19  18  17  16   C } # D for Dihedral angle
| 21> { D 18  17  16  20   C } # D for Dihedral angle
| 22> { D 17  16  20  19   C } # D for Dihedral angle
| 23> { D 15  12  16  20   C } # D for Dihedral angle
| 24> end
| 25> end
| 26>
| 27>
| 28> #%pal
| 29> #nprocs 8
| 30> #end
| 31>
| 32> * xyz 0 1
| 33> C  -21.048   26.222   46.251
| 34> C  -20.361   27.558   45.944
| 35> C  -20.329   28.222   47.341
| 36> C  -20.110   27.022   48.296
| 37> O  -20.473   25.807   47.535
| 38> H  -20.833   25.428   45.533
| 39> H  -19.344   27.382   45.576
| 40> H  -20.898   28.157   45.201
| 41> H  -19.543   28.978   47.434
| 42> H  -21.289   28.710   47.548
| 43> H  -20.733   27.082   49.195
| 44> H  -19.064   26.913   48.597
| 45> C  -23.415   25.773   45.218
| 46> H  -23.115   26.235   44.269
| 47> H  -23.229   24.693   45.148
| 48> O  -22.586   26.394   46.375
| 49> C  -24.945   25.977   45.398
| 50> C  -25.424   25.434   46.750
| 51> C  -25.003   26.572   47.711
| 52> C  -25.210   27.848   46.858
| 53> O  -25.269   27.407   45.448
| 54> H  -25.466   25.561   44.535
| 55> O  -26.968   25.269   46.741
| 56> H  -24.974   24.470   47.011
| 57> H  -25.590   26.587   48.635
| 58> H  -23.947   26.460   47.988
| 59> H  -24.394   28.569   46.975
| 60> H  -26.158   28.348   47.079
| 61> H  -27.439   26.223   46.482
| 62> *
| 63>
| 64>                          ****END OF INPUT****
 Total Charge           Charge          ....    0
 Multiplicity           Mult            ....    1
 Number of Electrons    NEL             ....  102
FINAL SINGLE POINT ENERGY      -652.836425949483
FINAL SINGLE POINT ENERGY      -652.858976624213
FINAL SINGLE POINT ENERGY      -652.862728608611
FINAL SINGLE POINT ENERGY      -652.863670870971
FINAL SINGLE POINT ENERGY      -652.863789817016
FINAL SINGLE POINT ENERGY      -652.863803260626
                    ***********************HURRAY********************

CARTESIAN COORDINATES (ANGSTROEM)
---------------------------------
  C    -21.090174   26.194767   46.196313
  C    -20.413211   27.530345   45.894836
  C    -20.412275   28.208144   47.284784
  C    -20.200052   27.021861   48.249852
  O    -20.545507   25.803395   47.469287
  H    -20.872676   25.386157   45.491548
  H    -19.389359   27.350172   45.546252
  H    -20.947839   28.107093   45.135844
  H    -19.632576   28.969572   47.381525
  H    -21.381959   28.683130   47.462423
  H    -20.840715   27.063727   49.134026
  H    -19.157992   26.907403   48.562107
  C    -23.323189   25.781921   45.247131
  H    -23.051187   26.237650   44.284607
  H    -23.137438   24.698248   45.185945
  O    -22.528990   26.370164   46.314057
  C    -24.808650   26.034407   45.486664
  C    -25.405630   25.476430   46.787182
  C    -25.050820   26.594455   47.802877
  C    -25.170691   27.885687   46.956936
  O    -25.117430   27.463867   45.536536
  H    -25.350087   25.625828   44.625065
  O    -26.842361   25.285645   46.646477
  H    -25.012606   24.498976   47.067376
  H    -25.737153   26.576265   48.654089
  H    -24.026333   26.454012   48.149234
  H    -24.349903   28.583007   47.144951
  H    -26.123610   28.406601   47.100745
  H    -27.236586   26.102069   46.273330

 Multiplicity           Mult            ....    1
 Number of Electrons    NEL             ....  102
 Basis Dimension        Dim             ....  149

ORBITAL ENERGIES
----------------

  NO   OCC          E(Eh)            E(eV)
   0   2.0000     -19.147335      -521.0255
   1   2.0000     -19.143579      -520.9233
   2   2.0000     -19.137330      -520.7532
   3   2.0000     -19.132615      -520.6249
   4   2.0000     -10.283875      -279.8385
   5   2.0000     -10.236834      -278.5584
   6   2.0000     -10.234390      -278.4919
   7   2.0000     -10.234169      -278.4859
   8   2.0000     -10.228310      -278.3265
   9   2.0000     -10.222020      -278.1553
  10   2.0000     -10.189137      -277.2605
  11   2.0000     -10.188394      -277.2403
  12   2.0000     -10.172977      -276.8208
  13   2.0000      -1.057426       -28.7740
  14   2.0000      -1.031272       -28.0623
  15   2.0000      -1.003538       -27.3077
  16   2.0000      -0.995619       -27.0922
  17   2.0000      -0.790671       -21.5152
  18   2.0000      -0.776254       -21.1229
  19   2.0000      -0.762899       -20.7595
  20   2.0000      -0.733239       -19.9525
  21   2.0000      -0.674465       -18.3531
  22   2.0000      -0.602488       -16.3945
  23   2.0000      -0.597534       -16.2597
  24   2.0000      -0.594211       -16.1693
  25   2.0000      -0.580429       -15.7943
  26   2.0000      -0.527470       -14.3532
  27   2.0000      -0.503367       -13.6973
  28   2.0000      -0.498999       -13.5785
  29   2.0000      -0.485425       -13.2091
  30   2.0000      -0.476826       -12.9751
  31   2.0000      -0.457300       -12.4438
  32   2.0000      -0.446847       -12.1593
  33   2.0000      -0.442236       -12.0339
  34   2.0000      -0.421033       -11.4569
  35   2.0000      -0.411483       -11.1970
  36   2.0000      -0.404382       -11.0038
  37   2.0000      -0.385829       -10.4989
  38   2.0000      -0.373824       -10.1723
  39   2.0000      -0.369022       -10.0416
  40   2.0000      -0.359636        -9.7862
  41   2.0000      -0.356715        -9.7067
  42   2.0000      -0.352551        -9.5934
  43   2.0000      -0.326736        -8.8909
  44   2.0000      -0.318162        -8.6576
  45   2.0000      -0.312306        -8.4983
  46   2.0000      -0.300362        -8.1733
  47   2.0000      -0.269046        -7.3211
  48   2.0000      -0.264949        -7.2096
  49   2.0000      -0.251941        -6.8557
  50   2.0000      -0.242266        -6.5924
  51   0.0000       0.063842         1.7372
  52   0.0000       0.083056         2.2601
  53   0.0000       0.089111         2.4248
  54   0.0000       0.100453         2.7335
  55   0.0000       0.106786         2.9058

MULLIKEN ATOMIC CHARGES
-----------------------
   0 C :    0.291863
   1 C :   -0.255218
   2 C :   -0.304706
   3 C :   -0.003060
   4 O :   -0.503646
   5 H :    0.142221
   6 H :    0.144062
   7 H :    0.153263
   8 H :    0.144275
   9 H :    0.161925
  10 H :    0.150254
  11 H :    0.143700
  12 C :    0.002912
  13 H :    0.139476
  14 H :    0.133189
  15 O :   -0.522267
  16 C :    0.061923
  17 C :    0.080368
  18 C :   -0.289013
  19 C :   -0.023043
  20 O :   -0.527961
  21 H :    0.156310
  22 O :   -0.603426
  23 H :    0.153131
  24 H :    0.147035
  25 H :    0.181093
  26 H :    0.149336
  27 H :    0.134461
  28 H :    0.361544
Sum of atomic charges:   -0.0000000

LOEWDIN ATOMIC CHARGES
----------------------
   0 C :    0.178083
   1 C :   -0.222894
   2 C :   -0.216969
   3 C :   -0.026688
   4 O :   -0.312062
   5 H :    0.099634
   6 H :    0.113420
   7 H :    0.121239
   8 H :    0.115525
   9 H :    0.117550
  10 H :    0.106902
  11 H :    0.103437
  12 C :   -0.037305
  13 H :    0.099493
  14 H :    0.097485
  15 O :   -0.335332
  16 C :    0.015442
  17 C :    0.040910
  18 C :   -0.242301
  19 C :   -0.034007
  20 O :   -0.331206
  21 H :    0.116334
  22 O :   -0.417336
  23 H :    0.117235
  24 H :    0.117985
  25 H :    0.133486
  26 H :    0.105257
  27 H :    0.095567
  28 H :    0.281117

  Mayer bond orders larger than 0.100000
B(  0-C ,  1-C ) :   0.9381 B(  0-C ,  4-O ) :   0.9330 B(  0-C ,  5-H ) :   0.9191
B(  0-C , 15-O ) :   0.8287 B(  1-C ,  2-C ) :   0.9550 B(  1-C ,  6-H ) :   0.9351
B(  1-C ,  7-H ) :   0.9366 B(  2-C ,  3-C ) :   0.9545 B(  2-C ,  8-H ) :   0.9448
B(  2-C ,  9-H ) :   0.9426 B(  3-C ,  4-O ) :   0.8369 B(  3-C , 10-H ) :   0.9346
B(  3-C , 11-H ) :   0.9395 B( 12-C , 13-H ) :   0.9160 B( 12-C , 14-H ) :   0.9074
B( 12-C , 15-O ) :   0.8422 B( 12-C , 16-C ) :   0.9130 B( 16-C , 17-C ) :   0.9088
B( 16-C , 20-O ) :   0.8734 B( 16-C , 21-H ) :   0.9222 B( 17-C , 18-C ) :   0.9249
B( 17-C , 22-O ) :   0.8899 B( 17-C , 23-H ) :   0.9356 B( 18-C , 19-C ) :   0.9467
B( 18-C , 24-H ) :   0.9370 B( 18-C , 25-H ) :   0.9167 B( 19-C , 20-O ) :   0.8381
B( 19-C , 26-H ) :   0.9331 B( 19-C , 27-H ) :   0.9370 B( 22-O , 28-H ) :   0.7967

FINAL SINGLE POINT ENERGY      -652.863802874092

DIPOLE MOMENT
-------------
                                X             Y             Z
Electronic contribution:     -3.37757      -3.33356      -1.60751
Nuclear contribution   :      4.26202       4.06562       1.43307
                        -----------------------------------------
Total Dipole Moment    :      0.88445       0.73206      -0.17444
                        -----------------------------------------
Magnitude (a.u.)       :      1.16129
Magnitude (Debye)      :      2.95176

Rotational constants in cm-1:     0.054201     0.014037     0.013839
Rotational constants in MHz :  1624.919610   420.808174   414.875409

                             ****ORCA TERMINATED NORMALLY****
TOTAL RUN TIME: 0 days 0 hours 37 minutes 56 seconds 442 msec
