                         Program Version 4.2.0 -  RELEASE  -
|  1> # Test redundant internal optimization
|  2> #
|  3> ! RKS B3LYP  Opt TightSCF SmallPrint
|  4>
|  5> %basis
|  6>         Basis "6-31G"
|  7> end
|  8>
|  9> %geom
| 10> Constraints
| 11> { D 4  0  15  12  135.0   C } # D for Dihedral angle
| 12> { D 0  15  12  16  210.0   C } # D for Dihedral angle
| 13> { D 0  4  3  2   C } # D for Dihedral angle
| 14> { D 4  3  2  1   C } # D for Dihedral angle
| 15> { D 3  2  1  0   C } # D for Dihedral angle
| 16> { D 2  1  0  4   C } # D for Dihedral angle
| 17> { D 1  0  4  3   C } # D for Dihedral angle
| 18> { D 16  20  19  18   C } # D for Dihedral angle
| 19> { D 20  19  18  17   C } # D for Dihedral angle
| 20> { D 19  18  17  16   C } # D for Dihedral angle
| 21> { D 18  17  16  20   C } # D for Dihedral angle
| 22> { D 17  16  20  19   C } # D for Dihedral angle
| 23> { D 15  12  16  20   C } # D for Dihedral angle
| 24> end
| 25> end
| 26>
| 27>
| 28> #%pal
| 29> #nprocs 8
| 30> #end
| 31>
| 32> * xyz 0 1
| 33> C  -21.048   26.222   46.251
| 34> C  -20.361   27.558   45.944
| 35> C  -20.329   28.222   47.341
| 36> C  -20.110   27.022   48.296
| 37> O  -20.473   25.807   47.535
| 38> H  -20.833   25.428   45.533
| 39> H  -19.344   27.382   45.576
| 40> H  -20.898   28.157   45.201
| 41> H  -19.543   28.978   47.434
| 42> H  -21.289   28.710   47.548
| 43> H  -20.733   27.082   49.195
| 44> H  -19.064   26.913   48.597
| 45> C  -23.162   27.680   45.721
| 46> H  -22.403   28.471   45.749
| 47> H  -23.423   27.492   44.671
| 48> O  -22.586   26.394   46.375
| 49> C  -24.437   28.200   46.439
| 50> C  -24.125   28.648   47.871
| 51> C  -23.502   30.045   47.634
| 52> C  -24.300   30.584   46.420
| 53> O  -24.937   29.412   45.782
| 54> H  -25.224   27.447   46.362
| 55> H  -25.053   28.732   48.450
| 56> O  -23.168   27.680   48.619
| 57> H  -23.580   30.698   48.509
| 58> H  -22.439   29.945   47.385
| 59> H  -23.660   31.087   45.688
| 60> H  -25.101   31.266   46.717
| 61> H  -22.232   27.582   48.058
| 62> *
| 63>
| 64>                          ****END OF INPUT****
 Total Charge           Charge          ....    0
 Multiplicity           Mult            ....    1
 Number of Electrons    NEL             ....  102
FINAL SINGLE POINT ENERGY      -652.797762517050
FINAL SINGLE POINT ENERGY      -652.831024510733
FINAL SINGLE POINT ENERGY      -652.844882939877
FINAL SINGLE POINT ENERGY      -652.849753492974
FINAL SINGLE POINT ENERGY      -652.852875613886
FINAL SINGLE POINT ENERGY      -652.855325403378
FINAL SINGLE POINT ENERGY      -652.857270036420
FINAL SINGLE POINT ENERGY      -652.858662977591
FINAL SINGLE POINT ENERGY      -652.859501098257
FINAL SINGLE POINT ENERGY      -652.859748910561
FINAL SINGLE POINT ENERGY      -652.859785034049
FINAL SINGLE POINT ENERGY      -652.859792499189
FINAL SINGLE POINT ENERGY      -652.859795791335
                    ***********************HURRAY********************

CARTESIAN COORDINATES (ANGSTROEM)
---------------------------------
  C    -21.103223   26.297727   46.284285
  C    -20.117864   27.399928   45.891008
  C    -19.998206   28.209163   47.209113
  C    -20.103771   27.118382   48.295409
  O    -20.707898   25.932981   47.612946
  H    -21.020263   25.390995   45.681591
  H    -19.165344   26.919053   45.644431
  H    -20.421451   28.000192   45.029693
  H    -19.060258   28.768846   47.269558
  H    -20.826647   28.915613   47.305794
  H    -20.750924   27.408459   49.123864
  H    -19.129963   26.791184   48.668419
  C    -23.116741   27.797250   45.632703
  H    -22.403192   28.628164   45.590859
  H    -23.414940   27.542874   44.610306
  O    -22.534558   26.628761   46.297201
  C    -24.353967   28.210203   46.443730
  C    -24.110164   28.641048   47.899388
  C    -23.646786   30.117352   47.720428
  C    -24.487227   30.599347   46.518381
  O    -24.980386   29.375850   45.826891
  H    -25.087693   27.399812   46.389359
  H    -25.073222   28.624207   48.425539
  O    -23.154175   27.860198   48.647182
  H    -23.815283   30.712782   48.622060
  H    -22.574625   30.130488   47.503666
  H    -23.915296   31.202181   45.805343
  H    -25.373345   31.163103   46.824037
  H    -22.909587   27.057857   48.127817

 Multiplicity           Mult            ....    1
 Number of Electrons    NEL             ....  102
 Basis Dimension        Dim             ....  149

ORBITAL ENERGIES
----------------

  NO   OCC          E(Eh)            E(eV)
   0   2.0000     -19.156364      -521.2712
   1   2.0000     -19.149255      -521.0777
   2   2.0000     -19.144009      -520.9350
   3   2.0000     -19.121440      -520.3208
   4   2.0000     -10.290328      -280.0141
   5   2.0000     -10.240467      -278.6573
   6   2.0000     -10.236514      -278.5497
   7   2.0000     -10.235599      -278.5248
   8   2.0000     -10.230816      -278.3947
   9   2.0000     -10.225993      -278.2634
  10   2.0000     -10.200660      -277.5741
  11   2.0000     -10.194666      -277.4110
  12   2.0000     -10.185740      -277.1681
  13   2.0000      -1.060611       -28.8607
  14   2.0000      -1.029331       -28.0095
  15   2.0000      -1.004744       -27.3405
  16   2.0000      -0.996382       -27.1129
  17   2.0000      -0.796103       -21.6631
  18   2.0000      -0.777198       -21.1486
  19   2.0000      -0.772282       -21.0149
  20   2.0000      -0.737003       -20.0549
  21   2.0000      -0.683815       -18.6076
  22   2.0000      -0.609076       -16.5738
  23   2.0000      -0.601243       -16.3607
  24   2.0000      -0.595684       -16.2094
  25   2.0000      -0.578491       -15.7415
  26   2.0000      -0.531578       -14.4650
  27   2.0000      -0.511947       -13.9308
  28   2.0000      -0.508396       -13.8342
  29   2.0000      -0.495424       -13.4812
  30   2.0000      -0.473988       -12.8979
  31   2.0000      -0.456256       -12.4154
  32   2.0000      -0.448083       -12.1930
  33   2.0000      -0.440034       -11.9739
  34   2.0000      -0.431643       -11.7456
  35   2.0000      -0.417674       -11.3655
  36   2.0000      -0.411309       -11.1923
  37   2.0000      -0.389736       -10.6052
  38   2.0000      -0.384206       -10.4548
  39   2.0000      -0.372883       -10.1467
  40   2.0000      -0.367428        -9.9982
  41   2.0000      -0.362685        -9.8692
  42   2.0000      -0.349598        -9.5131
  43   2.0000      -0.340656        -9.2697
  44   2.0000      -0.324216        -8.8224
  45   2.0000      -0.307871        -8.3776
  46   2.0000      -0.294312        -8.0086
  47   2.0000      -0.277721        -7.5572
  48   2.0000      -0.264440        -7.1958
  49   2.0000      -0.251616        -6.8468
  50   2.0000      -0.246027        -6.6947
  51   0.0000       0.058676         1.5967
  52   0.0000       0.065926         1.7939
  53   0.0000       0.089969         2.4482
  54   0.0000       0.093303         2.5389
  55   0.0000       0.106558         2.8996

MULLIKEN ATOMIC CHARGES
-----------------------
   0 C :    0.326392
   1 C :   -0.301827
   2 C :   -0.319433
   3 C :   -0.025402
   4 O :   -0.504623
   5 H :    0.162029
   6 H :    0.160502
   7 H :    0.147924
   8 H :    0.145788
   9 H :    0.169142
  10 H :    0.185983
  11 H :    0.144755
  12 C :   -0.004318
  13 H :    0.132249
  14 H :    0.156856
  15 O :   -0.565482
  16 C :    0.050140
  17 C :    0.119516
  18 C :   -0.310810
  19 C :   -0.022525
  20 O :   -0.520013
  21 H :    0.166740
  22 H :    0.146291
  23 O :   -0.647696
  24 H :    0.154299
  25 H :    0.152640
  26 H :    0.141508
  27 H :    0.152894
  28 H :    0.406482
Sum of atomic charges:   -0.0000000

LOEWDIN ATOMIC CHARGES
----------------------
   0 C :    0.184422
   1 C :   -0.231309
   2 C :   -0.221631
   3 C :   -0.034290
   4 O :   -0.310336
   5 H :    0.107387
   6 H :    0.125011
   7 H :    0.116004
   8 H :    0.117363
   9 H :    0.112922
  10 H :    0.123564
  11 H :    0.104515
  12 C :   -0.039516
  13 H :    0.096089
  14 H :    0.109832
  15 O :   -0.347568
  16 C :    0.017318
  17 C :    0.041837
  18 C :   -0.233364
  19 C :   -0.032817
  20 O :   -0.321477
  21 H :    0.116846
  22 H :    0.102532
  23 O :   -0.436063
  24 H :    0.122366
  25 H :    0.109142
  26 H :    0.101168
  27 H :    0.107250
  28 H :    0.292805

  Mayer bond orders larger than 0.100000
B(  0-C ,  1-C ) :   0.9329 B(  0-C ,  4-O ) :   0.9357 B(  0-C ,  5-H ) :   0.9291
B(  0-C , 15-O ) :   0.8102 B(  1-C ,  2-C ) :   0.9485 B(  1-C ,  6-H ) :   0.9321
B(  1-C ,  7-H ) :   0.9296 B(  2-C ,  3-C ) :   0.9524 B(  2-C ,  8-H ) :   0.9456
B(  2-C ,  9-H ) :   0.9213 B(  3-C ,  4-O ) :   0.8194 B(  3-C , 10-H ) :   0.9184
B(  3-C , 11-H ) :   0.9389 B( 12-C , 13-H ) :   0.9133 B( 12-C , 14-H ) :   0.9257
B( 12-C , 15-O ) :   0.7977 B( 12-C , 16-C ) :   0.9026 B( 16-C , 17-C ) :   0.9124
B( 16-C , 20-O ) :   0.8573 B( 16-C , 21-H ) :   0.9274 B( 17-C , 18-C ) :   0.9142
B( 17-C , 22-H ) :   0.9233 B( 17-C , 23-O ) :   0.9185 B( 18-C , 19-C ) :   0.9395
B( 18-C , 24-H ) :   0.9435 B( 18-C , 25-H ) :   0.9326 B( 19-C , 20-O ) :   0.8359
B( 19-C , 26-H ) :   0.9340 B( 19-C , 27-H ) :   0.9374 B( 23-O , 28-H ) :   0.7104

FINAL SINGLE POINT ENERGY      -652.859795854593

DIPOLE MOMENT
-------------
                                X             Y             Z
Electronic contribution:     -3.70940      -5.22856      -0.04568
Nuclear contribution   :      4.67460       6.19678      -0.60463
                        -----------------------------------------
Total Dipole Moment    :      0.96521       0.96822      -0.65031
                        -----------------------------------------
Magnitude (a.u.)       :      1.51393
Magnitude (Debye)      :      3.84810

Rotational constants in cm-1:     0.048595     0.017477     0.016469
Rotational constants in MHz :  1456.846646   523.934648   493.734373

                             ****ORCA TERMINATED NORMALLY****
TOTAL RUN TIME: 0 days 0 hours 32 minutes 7 seconds 314 msec
