                         Program Version 4.2.0 -  RELEASE  -
|  1> # Test redundant internal optimization
|  2> #
|  3> ! RKS B3LYP  Opt TightSCF SmallPrint
|  4>
|  5> %basis
|  6>         Basis "6-31G"
|  7> end
|  8>
|  9> %geom
| 10> Constraints
| 11> { D 4  0  15  12  90.0   C } # D for Dihedral angle
| 12> { D 0  15  12  16  105.0   C } # D for Dihedral angle
| 13> { D 0  4  3  2   C } # D for Dihedral angle
| 14> { D 4  3  2  1   C } # D for Dihedral angle
| 15> { D 3  2  1  0   C } # D for Dihedral angle
| 16> { D 2  1  0  4   C } # D for Dihedral angle
| 17> { D 1  0  4  3   C } # D for Dihedral angle
| 18> { D 16  20  19  18   C } # D for Dihedral angle
| 19> { D 20  19  18  17   C } # D for Dihedral angle
| 20> { D 19  18  17  16   C } # D for Dihedral angle
| 21> { D 18  17  16  20   C } # D for Dihedral angle
| 22> { D 17  16  20  19   C } # D for Dihedral angle
| 23> { D 15  12  16  20   C } # D for Dihedral angle
| 24> end
| 25> end
| 26>
| 27>
| 28> #%pal
| 29> #nprocs 8
| 30> #end
| 31>
| 32> * xyz 0 1
| 33> C  -21.048   26.222   46.251
| 34> C  -20.361   27.558   45.944
| 35> C  -20.329   28.222   47.341
| 36> C  -20.110   27.022   48.296
| 37> O  -20.473   25.807   47.535
| 38> H  -20.833   25.428   45.533
| 39> H  -19.344   27.382   45.576
| 40> H  -20.898   28.157   45.201
| 41> H  -19.543   28.978   47.434
| 42> H  -21.289   28.710   47.548
| 43> H  -20.733   27.082   49.195
| 44> H  -19.064   26.913   48.597
| 45> C  -23.061   27.816   46.783
| 46> H  -23.826   27.731   47.565
| 47> H  -22.223   28.400   47.185
| 48> O  -22.586   26.394   46.375
| 49> C  -23.664   28.612   45.593
| 50> C  -24.015   30.046   46.004
| 51> C  -22.629   30.732   45.961
| 52> C  -21.925   30.028   44.774
| 53> O  -22.669   28.774   44.528
| 54> H  -24.497   28.047   45.170
| 55> H  -24.691   30.495   45.268
| 56> O  -24.686   30.134   47.402
| 57> H  -22.695   31.816   45.822
| 58> H  -22.087   30.547   46.896
| 59> H  -20.878   29.786   44.991
| 60> H  -21.969   30.616   43.853
| 61> H  -24.027   29.692   48.157
| 62> *
| 63>
| 64>                          ****END OF INPUT****
 Total Charge           Charge          ....    0
 Multiplicity           Mult            ....    1
 Number of Electrons    NEL             ....  102
FINAL SINGLE POINT ENERGY      -652.770282813114
FINAL SINGLE POINT ENERGY      -652.820899545538
FINAL SINGLE POINT ENERGY      -652.842792831158
FINAL SINGLE POINT ENERGY      -652.847845575174
FINAL SINGLE POINT ENERGY      -652.848588837820
FINAL SINGLE POINT ENERGY      -652.848826490626
FINAL SINGLE POINT ENERGY      -652.848860877159
FINAL SINGLE POINT ENERGY      -652.848865537018
FINAL SINGLE POINT ENERGY      -652.848864904634
                    ***********************HURRAY********************

CARTESIAN COORDINATES (ANGSTROEM)
---------------------------------
  C    -21.144046   26.274187   46.390317
  C    -20.113025   27.338130   45.987056
  C    -19.778301   28.001963   47.354099
  C    -19.860314   26.803461   48.335527
  O    -20.625684   25.748057   47.636966
  H    -21.159045   25.422259   45.709317
  H    -19.231351   26.825124   45.589674
  H    -20.505582   28.019235   45.231383
  H    -18.784160   28.461130   47.359991
  H    -20.498580   28.784437   47.609798
  H    -20.362581   27.050447   49.276395
  H    -18.873595   26.387662   48.560268
  C    -23.107691   27.894239   46.824153
  H    -23.964099   27.668915   47.468976
  H    -22.398692   28.499576   47.401759
  O    -22.543744   26.611488   46.447781
  C    -23.618521   28.652857   45.596127
  C    -24.236256   30.029970   45.899389
  C    -22.975789   30.946605   45.915513
  C    -22.079571   30.318826   44.826754
  O    -22.586598   28.936325   44.599413
  H    -24.329305   27.994868   45.086798
  H    -24.905079   30.315123   45.084879
  O    -25.059727   30.096666   47.087067
  H    -23.221985   31.992096   45.712622
  H    -22.501245   30.897418   46.904748
  H    -21.025052   30.269739   45.116900
  H    -22.157148   30.844493   43.870499
  H    -24.506234   30.061702   47.893829

 Multiplicity           Mult            ....    1
 Number of Electrons    NEL             ....  102
 Basis Dimension        Dim             ....  149

ORBITAL ENERGIES
----------------

  NO   OCC          E(Eh)            E(eV)
   0   2.0000     -19.155710      -521.2534
   1   2.0000     -19.149555      -521.0859
   2   2.0000     -19.137686      -520.7629
   3   2.0000     -19.134178      -520.6674
   4   2.0000     -10.273217      -279.5484
   5   2.0000     -10.251684      -278.9625
   6   2.0000     -10.240224      -278.6507
   7   2.0000     -10.235284      -278.5162
   8   2.0000     -10.234391      -278.4919
   9   2.0000     -10.226070      -278.2655
  10   2.0000     -10.203304      -277.6460
  11   2.0000     -10.193146      -277.3696
  12   2.0000     -10.183033      -277.0944
  13   2.0000      -1.046692       -28.4819
  14   2.0000      -1.038890       -28.2696
  15   2.0000      -1.023307       -27.8456
  16   2.0000      -0.990877       -26.9631
  17   2.0000      -0.790645       -21.5145
  18   2.0000      -0.784901       -21.3582
  19   2.0000      -0.775746       -21.1091
  20   2.0000      -0.732990       -19.9457
  21   2.0000      -0.688012       -18.7218
  22   2.0000      -0.619339       -16.8531
  23   2.0000      -0.602504       -16.3950
  24   2.0000      -0.601359       -16.3638
  25   2.0000      -0.570841       -15.5334
  26   2.0000      -0.530532       -14.4365
  27   2.0000      -0.515953       -14.0398
  28   2.0000      -0.505636       -13.7590
  29   2.0000      -0.488879       -13.3031
  30   2.0000      -0.468031       -12.7358
  31   2.0000      -0.461814       -12.5666
  32   2.0000      -0.451899       -12.2968
  33   2.0000      -0.439217       -11.9517
  34   2.0000      -0.432278       -11.7629
  35   2.0000      -0.422131       -11.4868
  36   2.0000      -0.412865       -11.2346
  37   2.0000      -0.404373       -11.0036
  38   2.0000      -0.386546       -10.5184
  39   2.0000      -0.377872       -10.2824
  40   2.0000      -0.362050        -9.8519
  41   2.0000      -0.356971        -9.7137
  42   2.0000      -0.345271        -9.3953
  43   2.0000      -0.338933        -9.2228
  44   2.0000      -0.322192        -8.7673
  45   2.0000      -0.309996        -8.4354
  46   2.0000      -0.290246        -7.8980
  47   2.0000      -0.277152        -7.5417
  48   2.0000      -0.271819        -7.3966
  49   2.0000      -0.255358        -6.9487
  50   2.0000      -0.239423        -6.5150
  51   0.0000       0.040870         1.1121
  52   0.0000       0.054303         1.4777
  53   0.0000       0.081585         2.2200
  54   0.0000       0.087898         2.3918
  55   0.0000       0.096774         2.6333

MULLIKEN ATOMIC CHARGES
-----------------------
   0 C :    0.311795
   1 C :   -0.305866
   2 C :   -0.315141
   3 C :   -0.005434
   4 O :   -0.500279
   5 H :    0.167552
   6 H :    0.152494
   7 H :    0.186825
   8 H :    0.141849
   9 H :    0.134110
  10 H :    0.139218
  11 H :    0.145852
  12 C :   -0.025251
  13 H :    0.163369
  14 H :    0.108790
  15 O :   -0.519912
  16 C :    0.094490
  17 C :    0.082569
  18 C :   -0.318893
  19 C :   -0.023283
  20 O :   -0.508551
  21 H :    0.170813
  22 H :    0.171106
  23 O :   -0.595924
  24 H :    0.162612
  25 H :    0.130772
  26 H :    0.141085
  27 H :    0.156865
  28 H :    0.356368
Sum of atomic charges:   -0.0000000

LOEWDIN ATOMIC CHARGES
----------------------
   0 C :    0.181507
   1 C :   -0.236407
   2 C :   -0.224459
   3 C :   -0.033694
   4 O :   -0.321552
   5 H :    0.113996
   6 H :    0.121460
   7 H :    0.133977
   8 H :    0.113764
   9 H :    0.098698
  10 H :    0.100006
  11 H :    0.103845
  12 C :   -0.049061
  13 H :    0.118716
  14 H :    0.085246
  15 O :   -0.313870
  16 C :    0.011279
  17 C :    0.035389
  18 C :   -0.240690
  19 C :   -0.034458
  20 O :   -0.317871
  21 H :    0.122115
  22 H :    0.121409
  23 O :   -0.404076
  24 H :    0.125108
  25 H :    0.102546
  26 H :    0.099621
  27 H :    0.109198
  28 H :    0.278260

  Mayer bond orders larger than 0.100000
B(  0-C ,  1-C ) :   0.9231 B(  0-C ,  4-O ) :   0.8994 B(  0-C ,  5-H ) :   0.9354
B(  0-C , 15-O ) :   0.8946 B(  1-C ,  2-C ) :   0.9551 B(  1-C ,  6-H ) :   0.9345
B(  1-C ,  7-H ) :   0.9061 B(  2-C ,  3-C ) :   0.9456 B(  2-C ,  8-H ) :   0.9453
B(  2-C ,  9-H ) :   0.9375 B(  3-C ,  4-O ) :   0.8553 B(  3-C , 10-H ) :   0.9348
B(  3-C , 11-H ) :   0.9386 B( 12-C , 13-H ) :   0.9177 B( 12-C , 14-H ) :   0.9100
B( 12-C , 15-O ) :   0.8544 B( 12-C , 16-C ) :   0.8963 B( 16-C , 17-C ) :   0.8672
B( 16-C , 20-O ) :   0.8598 B( 16-C , 21-H ) :   0.9280 B( 17-C , 18-C ) :   0.9212
B( 17-C , 22-H ) :   0.9318 B( 17-C , 23-O ) :   0.9027 B( 18-C , 19-C ) :   0.9413
B( 18-C , 24-H ) :   0.9407 B( 18-C , 25-H ) :   0.9410 B( 19-C , 20-O ) :   0.8434
B( 19-C , 26-H ) :   0.9260 B( 19-C , 27-H ) :   0.9375 B( 23-O , 28-H ) :   0.7979

FINAL SINGLE POINT ENERGY      -652.848863274872

DIPOLE MOMENT
-------------
                                X             Y             Z
Electronic contribution:     -4.61407      -4.80131      -1.21527
Nuclear contribution   :      5.58693       6.52824       1.50340
                        -----------------------------------------
Total Dipole Moment    :      0.97285       1.72693       0.28813
                        -----------------------------------------
Magnitude (a.u.)       :      2.00294
Magnitude (Debye)      :      5.09107

Rotational constants in cm-1:     0.046910     0.015890     0.014835
Rotational constants in MHz :  1406.318861   476.357522   444.734005

                             ****ORCA TERMINATED NORMALLY****
TOTAL RUN TIME: 0 days 0 hours 59 minutes 0 seconds 379 msec
