                         Program Version 4.2.0 -  RELEASE  -
|  1> # Test redundant internal optimization
|  2> #
|  3> ! RKS B3LYP  Opt TightSCF SmallPrint
|  4>
|  5> %basis
|  6>         Basis "6-31G"
|  7> end
|  8>
|  9> %geom
| 10> Constraints
| 11> { D 4  0  15  12  300.0   C } # D for Dihedral angle
| 12> { D 0  15  12  16  330.0   C } # D for Dihedral angle
| 13> { D 0  4  3  2   C } # D for Dihedral angle
| 14> { D 4  3  2  1   C } # D for Dihedral angle
| 15> { D 3  2  1  0   C } # D for Dihedral angle
| 16> { D 2  1  0  4   C } # D for Dihedral angle
| 17> { D 1  0  4  3   C } # D for Dihedral angle
| 18> { D 16  20  19  18   C } # D for Dihedral angle
| 19> { D 20  19  18  17   C } # D for Dihedral angle
| 20> { D 19  18  17  16   C } # D for Dihedral angle
| 21> { D 18  17  16  20   C } # D for Dihedral angle
| 22> { D 17  16  20  19   C } # D for Dihedral angle
| 23> { D 15  12  16  20   C } # D for Dihedral angle
| 24> end
| 25> end
| 26>
| 27>
| 28> #%pal
| 29> #nprocs 8
| 30> #end
| 31>
| 32> * xyz 0 1
| 33> C  -21.048   26.222   46.251
| 34> C  -20.361   27.558   45.944
| 35> C  -20.329   28.222   47.341
| 36> C  -20.110   27.022   48.296
| 37> O  -20.473   25.807   47.535
| 38> H  -20.833   25.428   45.533
| 39> H  -19.344   27.382   45.576
| 40> H  -20.898   28.157   45.201
| 41> H  -19.543   28.978   47.434
| 42> H  -21.289   28.710   47.548
| 43> H  -20.733   27.082   49.195
| 44> H  -19.064   26.913   48.597
| 45> C  -23.362   25.116   46.798
| 46> H  -23.440   25.086   47.892
| 47> H  -24.377   25.128   46.381
| 48> O  -22.586   26.394   46.375
| 49> C  -22.670   23.809   46.321
| 50> C  -23.519   22.577   46.654
| 51> C  -24.577   22.611   45.525
| 52> C  -23.779   23.150   44.312
| 53> O  -22.563   23.789   44.859
| 54> H  -21.653   23.777   46.717
| 55> H  -22.909   21.669   46.585
| 56> O  -24.150   22.636   48.072
| 57> H  -25.022   21.630   45.330
| 58> H  -25.388   23.300   45.790
| 59> H  -24.344   23.889   43.733
| 60> H  -23.449   22.351   43.641
| 61> H  -24.766   23.536   48.165
| 62> *
| 63>
| 64>                          ****END OF INPUT****
 Total Charge           Charge          ....    0
 Multiplicity           Mult            ....    1
 Number of Electrons    NEL             ....  102
FINAL SINGLE POINT ENERGY      -652.831728196395
FINAL SINGLE POINT ENERGY      -652.855716756883
FINAL SINGLE POINT ENERGY      -652.860585335636
FINAL SINGLE POINT ENERGY      -652.861448738170
FINAL SINGLE POINT ENERGY      -652.861607102727
FINAL SINGLE POINT ENERGY      -652.861638222455
FINAL SINGLE POINT ENERGY      -652.861642587531
                    ***********************HURRAY********************

CARTESIAN COORDINATES (ANGSTROEM)
---------------------------------
  C    -21.006678   26.193964   46.225224
  C    -20.430726   27.586733   45.963938
  C    -20.420815   28.195726   47.384825
  C    -20.092957   26.982137   48.285130
  O    -20.383530   25.776966   47.467452
  H    -20.767370   25.431143   45.482738
  H    -19.414159   27.486120   45.567335
  H    -21.037242   28.153258   45.254666
  H    -19.688387   29.001587   47.494535
  H    -21.412578   28.592786   47.619044
  H    -20.697224   26.947774   49.195609
  H    -19.033919   26.928541   48.555154
  C    -23.221465   25.185577   46.744462
  H    -23.313227   25.178080   47.838652
  H    -24.207477   25.368901   46.304545
  O    -22.434019   26.351163   46.351277
  C    -22.661715   23.828492   46.313847
  C    -23.572633   22.648939   46.701615
  C    -24.620790   22.658827   45.544872
  C    -23.773900   23.092573   44.326280
  O    -22.537196   23.713646   44.862959
  H    -21.657473   23.704749   46.724891
  H    -22.990176   21.725477   46.677145
  O    -24.130948   22.687594   48.035128
  H    -25.093060   21.682417   45.409111
  H    -25.408785   23.389177   45.768161
  H    -24.286988   23.817310   43.685995
  H    -23.462907   22.240409   43.714409
  H    -24.820657   23.378933   48.102001

 Multiplicity           Mult            ....    1
 Number of Electrons    NEL             ....  102
 Basis Dimension        Dim             ....  149

ORBITAL ENERGIES
----------------

  NO   OCC          E(Eh)            E(eV)
   0   2.0000     -19.149656      -521.0886
   1   2.0000     -19.139929      -520.8239
   2   2.0000     -19.136579      -520.7328
   3   2.0000     -19.134853      -520.6858
   4   2.0000     -10.267267      -279.3865
   5   2.0000     -10.245706      -278.7998
   6   2.0000     -10.232492      -278.4403
   7   2.0000     -10.228881      -278.3420
   8   2.0000     -10.226681      -278.2821
   9   2.0000     -10.220498      -278.1139
  10   2.0000     -10.196007      -277.4474
  11   2.0000     -10.179416      -276.9960
  12   2.0000     -10.177807      -276.9522
  13   2.0000      -1.047766       -28.5112
  14   2.0000      -1.033642       -28.1268
  15   2.0000      -1.016863       -27.6702
  16   2.0000      -0.985529       -26.8176
  17   2.0000      -0.785316       -21.3695
  18   2.0000      -0.780501       -21.2385
  19   2.0000      -0.761985       -20.7347
  20   2.0000      -0.729509       -19.8509
  21   2.0000      -0.677183       -18.4271
  22   2.0000      -0.612656       -16.6712
  23   2.0000      -0.600929       -16.3521
  24   2.0000      -0.592409       -16.1203
  25   2.0000      -0.557915       -15.1816
  26   2.0000      -0.530756       -14.4426
  27   2.0000      -0.508619       -13.8402
  28   2.0000      -0.496317       -13.5055
  29   2.0000      -0.480720       -13.0811
  30   2.0000      -0.466864       -12.7040
  31   2.0000      -0.454359       -12.3637
  32   2.0000      -0.438637       -11.9359
  33   2.0000      -0.431955       -11.7541
  34   2.0000      -0.428050       -11.6478
  35   2.0000      -0.414715       -11.2850
  36   2.0000      -0.402445       -10.9511
  37   2.0000      -0.398318       -10.8388
  38   2.0000      -0.381604       -10.3840
  39   2.0000      -0.366086        -9.9617
  40   2.0000      -0.355831        -9.6826
  41   2.0000      -0.350395        -9.5347
  42   2.0000      -0.340816        -9.2741
  43   2.0000      -0.330085        -8.9821
  44   2.0000      -0.324118        -8.8197
  45   2.0000      -0.314925        -8.5696
  46   2.0000      -0.293448        -7.9851
  47   2.0000      -0.271989        -7.4012
  48   2.0000      -0.266078        -7.2403
  49   2.0000      -0.245256        -6.6738
  50   2.0000      -0.238420        -6.4877
  51   0.0000       0.051817         1.4100
  52   0.0000       0.078380         2.1328
  53   0.0000       0.092131         2.5070
  54   0.0000       0.094018         2.5584
  55   0.0000       0.104376         2.8402

MULLIKEN ATOMIC CHARGES
-----------------------
   0 C :    0.274502
   1 C :   -0.259978
   2 C :   -0.298433
   3 C :   -0.002444
   4 O :   -0.522053
   5 H :    0.177830
   6 H :    0.144081
   7 H :    0.158035
   8 H :    0.138303
   9 H :    0.159630
  10 H :    0.143300
  11 H :    0.141847
  12 C :    0.012596
  13 H :    0.138957
  14 H :    0.133814
  15 O :   -0.531355
  16 C :    0.045477
  17 C :    0.085810
  18 C :   -0.320008
  19 C :   -0.013414
  20 O :   -0.520103
  21 H :    0.193732
  22 H :    0.168231
  23 O :   -0.595972
  24 H :    0.156763
  25 H :    0.134811
  26 H :    0.147684
  27 H :    0.152489
  28 H :    0.355867
Sum of atomic charges:    0.0000000

LOEWDIN ATOMIC CHARGES
----------------------
   0 C :    0.166620
   1 C :   -0.211803
   2 C :   -0.216478
   3 C :   -0.028135
   4 O :   -0.336919
   5 H :    0.111633
   6 H :    0.113441
   7 H :    0.124944
   8 H :    0.111866
   9 H :    0.117819
  10 H :    0.103075
  11 H :    0.102128
  12 C :   -0.048135
  13 H :    0.102765
  14 H :    0.103473
  15 O :   -0.322122
  16 C :   -0.000411
  17 C :    0.039652
  18 C :   -0.240626
  19 C :   -0.030145
  20 O :   -0.325326
  21 H :    0.130183
  22 H :    0.119771
  23 O :   -0.403737
  24 H :    0.122550
  25 H :    0.104512
  26 H :    0.104386
  27 H :    0.107161
  28 H :    0.277857

  Mayer bond orders larger than 0.100000
B(  0-C ,  1-C ) :   0.9472 B(  0-C ,  4-O ) :   0.8808 B(  0-C ,  5-H ) :   0.9053
B(  0-C , 15-O ) :   0.8594 B(  1-C ,  2-C ) :   0.9546 B(  1-C ,  6-H ) :   0.9412
B(  1-C ,  7-H ) :   0.9368 B(  2-C ,  3-C ) :   0.9558 B(  2-C ,  8-H ) :   0.9456
B(  2-C ,  9-H ) :   0.9447 B(  3-C ,  4-O ) :   0.8367 B(  3-C , 10-H ) :   0.9362
B(  3-C , 11-H ) :   0.9408 B( 12-C , 13-H ) :   0.9056 B( 12-C , 14-H ) :   0.9358
B( 12-C , 15-O ) :   0.8479 B( 12-C , 16-C ) :   0.9015 B( 16-C , 17-C ) :   0.8675
B( 16-C , 20-O ) :   0.8409 B( 16-C , 21-H ) :   0.9103 B( 17-C , 18-C ) :   0.9191
B( 17-C , 22-H ) :   0.9342 B( 17-C , 23-O ) :   0.9046 B( 18-C , 19-C ) :   0.9410
B( 18-C , 24-H ) :   0.9421 B( 18-C , 25-H ) :   0.9414 B( 19-C , 20-O ) :   0.8414
B( 19-C , 26-H ) :   0.9316 B( 19-C , 27-H ) :   0.9375 B( 23-O , 28-H ) :   0.7976

FINAL SINGLE POINT ENERGY      -652.861643930016

DIPOLE MOMENT
-------------
                                X             Y             Z
Electronic contribution:      0.23470      -2.78873       0.21794
Nuclear contribution   :     -0.92370       3.13701      -0.45615
                        -----------------------------------------
Total Dipole Moment    :     -0.68900       0.34828      -0.23822
                        -----------------------------------------
Magnitude (a.u.)       :      0.80794
Magnitude (Debye)      :      2.05362

Rotational constants in cm-1:     0.056981     0.013965     0.012503
Rotational constants in MHz :  1708.262316   418.664076   374.829003

                             ****ORCA TERMINATED NORMALLY****
TOTAL RUN TIME: 0 days 2 hours 16 minutes 33 seconds 373 msec
