                         Program Version 4.2.0 -  RELEASE  -
|  1> # Test redundant internal optimization
|  2> #
|  3> ! RKS B3LYP  Opt TightSCF SmallPrint
|  4>
|  5> %basis
|  6>         Basis "6-31G"
|  7> end
|  8>
|  9> %geom
| 10> Constraints
| 11> { D 4  0  15  12  240.0   C } # D for Dihedral angle
| 12> { D 0  15  12  16  240.0   C } # D for Dihedral angle
| 13> { D 0  4  3  2   C } # D for Dihedral angle
| 14> { D 4  3  2  1   C } # D for Dihedral angle
| 15> { D 3  2  1  0   C } # D for Dihedral angle
| 16> { D 2  1  0  4   C } # D for Dihedral angle
| 17> { D 1  0  4  3   C } # D for Dihedral angle
| 18> { D 16  20  19  18   C } # D for Dihedral angle
| 19> { D 20  19  18  17   C } # D for Dihedral angle
| 20> { D 19  18  17  16   C } # D for Dihedral angle
| 21> { D 18  17  16  20   C } # D for Dihedral angle
| 22> { D 17  16  20  19   C } # D for Dihedral angle
| 23> { D 15  12  16  20   C } # D for Dihedral angle
| 24> end
| 25> end
| 26>
| 27>
| 28> #%pal
| 29> #nprocs 8
| 30> #end
| 31>
| 32> * xyz 0 1
| 33> C  -21.048   26.222   46.251
| 34> C  -20.361   27.558   45.944
| 35> C  -20.329   28.222   47.341
| 36> C  -20.110   27.022   48.296
| 37> O  -20.473   25.807   47.535
| 38> H  -20.833   25.428   45.533
| 39> H  -19.344   27.382   45.576
| 40> H  -20.898   28.157   45.201
| 41> H  -19.543   28.978   47.434
| 42> H  -21.289   28.710   47.548
| 43> H  -20.733   27.082   49.195
| 44> H  -19.064   26.913   48.597
| 45> C  -23.430   25.483   45.442
| 46> H  -22.757   24.852   44.848
| 47> H  -24.082   24.827   46.033
| 48> O  -22.586   26.394   46.375
| 49> C  -24.330   26.291   44.467
| 50> C  -23.489   27.112   43.484
| 51> C  -23.073   26.036   42.452
| 52> C  -24.313   25.109   42.393
| 53> O  -25.103   25.383   43.612
| 54> H  -25.049   26.875   45.045
| 55> H  -24.109   27.882   43.010
| 56> O  -22.272   27.807   44.153
| 57> H  -22.822   26.460   41.475
| 58> H  -22.197   25.486   42.815
| 59> H  -24.043   24.048   42.372
| 60> H  -24.956   25.326   41.536
| 61> H  -21.637   27.054   44.634
| 62> *
| 63>
| 64>                          ****END OF INPUT****
 Total Charge           Charge          ....    0
 Multiplicity           Mult            ....    1
 Number of Electrons    NEL             ....  102
FINAL SINGLE POINT ENERGY      -652.798516329585
FINAL SINGLE POINT ENERGY      -652.833171968912
FINAL SINGLE POINT ENERGY      -652.847496420888
FINAL SINGLE POINT ENERGY      -652.849924976346
FINAL SINGLE POINT ENERGY      -652.850404102450
FINAL SINGLE POINT ENERGY      -652.850542281684
FINAL SINGLE POINT ENERGY      -652.850650832585
FINAL SINGLE POINT ENERGY      -652.850662071577
FINAL SINGLE POINT ENERGY      -652.850653432917
                    ***********************HURRAY********************

CARTESIAN COORDINATES (ANGSTROEM)
---------------------------------
  C    -20.979916   26.155073   46.279664
  C    -20.287392   27.499649   46.041022
  C    -20.354942   28.156029   47.448506
  C    -20.189771   26.940463   48.387870
  O    -20.494600   25.745789   47.570193
  H    -20.733776   25.355641   45.571694
  H    -19.246604   27.328159   45.741152
  H    -20.784066   28.126381   45.303575
  H    -19.578999   28.912176   47.597061
  H    -21.334531   28.623070   47.582783
  H    -20.872321   26.962445   49.241174
  H    -19.163577   26.821173   48.748964
  C    -23.306460   25.576756   45.486665
  H    -22.716465   24.833720   44.926391
  H    -23.983473   25.020741   46.142481
  O    -22.413394   26.354525   46.335091
  C    -24.197669   26.356040   44.495320
  C    -23.554137   27.168236   43.353690
  C    -23.152020   26.041749   42.340681
  C    -24.301040   25.023684   42.511615
  O    -24.966376   25.327540   43.798737
  H    -24.909635   26.969075   45.053580
  H    -24.334020   27.795908   42.913956
  O    -22.487053   28.081575   43.662416
  H    -23.061693   26.420406   41.319967
  H    -22.183954   25.614669   42.635132
  H    -23.955666   23.985232   42.527196
  H    -25.060473   25.126814   41.730159
  H    -21.668976   27.583282   43.850265

 Multiplicity           Mult            ....    1
 Number of Electrons    NEL             ....  102
 Basis Dimension        Dim             ....  149

ORBITAL ENERGIES
----------------

  NO   OCC          E(Eh)            E(eV)
   0   2.0000     -19.150331      -521.1070
   1   2.0000     -19.146791      -521.0107
   2   2.0000     -19.140969      -520.8522
   3   2.0000     -19.139031      -520.7995
   4   2.0000     -10.285392      -279.8798
   5   2.0000     -10.247214      -278.8409
   6   2.0000     -10.236065      -278.5375
   7   2.0000     -10.234986      -278.5081
   8   2.0000     -10.232735      -278.4469
   9   2.0000     -10.223606      -278.1985
  10   2.0000     -10.198559      -277.5169
  11   2.0000     -10.187738      -277.2224
  12   2.0000     -10.185186      -277.1530
  13   2.0000      -1.053353       -28.6632
  14   2.0000      -1.039028       -28.2734
  15   2.0000      -1.023788       -27.8587
  16   2.0000      -0.994266       -27.0554
  17   2.0000      -0.788208       -21.4482
  18   2.0000      -0.782445       -21.2914
  19   2.0000      -0.768159       -20.9027
  20   2.0000      -0.733381       -19.9563
  21   2.0000      -0.682720       -18.5778
  22   2.0000      -0.615671       -16.7533
  23   2.0000      -0.599870       -16.3233
  24   2.0000      -0.593785       -16.1577
  25   2.0000      -0.584367       -15.9014
  26   2.0000      -0.530955       -14.4480
  27   2.0000      -0.521442       -14.1892
  28   2.0000      -0.498483       -13.5644
  29   2.0000      -0.491804       -13.3827
  30   2.0000      -0.468255       -12.7419
  31   2.0000      -0.457262       -12.4427
  32   2.0000      -0.446499       -12.1499
  33   2.0000      -0.437817       -11.9136
  34   2.0000      -0.430907       -11.7256
  35   2.0000      -0.417690       -11.3659
  36   2.0000      -0.415878       -11.3166
  37   2.0000      -0.404700       -11.0124
  38   2.0000      -0.377691       -10.2775
  39   2.0000      -0.374940       -10.2026
  40   2.0000      -0.358563        -9.7570
  41   2.0000      -0.357181        -9.7194
  42   2.0000      -0.350170        -9.5286
  43   2.0000      -0.334591        -9.1047
  44   2.0000      -0.319946        -8.7062
  45   2.0000      -0.314833        -8.5670
  46   2.0000      -0.303299        -8.2532
  47   2.0000      -0.272569        -7.4170
  48   2.0000      -0.267813        -7.2876
  49   2.0000      -0.259643        -7.0653
  50   2.0000      -0.236909        -6.4466
  51   0.0000       0.046725         1.2715
  52   0.0000       0.070038         1.9058
  53   0.0000       0.080783         2.1982
  54   0.0000       0.091469         2.4890
  55   0.0000       0.099989         2.7208

MULLIKEN ATOMIC CHARGES
-----------------------
   0 C :    0.283542
   1 C :   -0.284528
   2 C :   -0.299997
   3 C :    0.000587
   4 O :   -0.500179
   5 H :    0.133846
   6 H :    0.142728
   7 H :    0.158564
   8 H :    0.142442
   9 H :    0.171262
  10 H :    0.153678
  11 H :    0.139609
  12 C :   -0.002965
  13 H :    0.114054
  14 H :    0.170205
  15 O :   -0.522615
  16 C :    0.078023
  17 C :    0.094562
  18 C :   -0.321441
  19 C :   -0.012116
  20 O :   -0.518445
  21 H :    0.162697
  22 H :    0.166631
  23 O :   -0.595558
  24 H :    0.158656
  25 H :    0.128761
  26 H :    0.145092
  27 H :    0.153850
  28 H :    0.359055
Sum of atomic charges:   -0.0000000

LOEWDIN ATOMIC CHARGES
----------------------
   0 C :    0.174324
   1 C :   -0.234266
   2 C :   -0.213312
   3 C :   -0.026325
   4 O :   -0.313352
   5 H :    0.093361
   6 H :    0.112125
   7 H :    0.122368
   8 H :    0.114693
   9 H :    0.123614
  10 H :    0.108802
  11 H :    0.101191
  12 C :   -0.038448
  13 H :    0.088422
  14 H :    0.119164
  15 O :   -0.336934
  16 C :    0.016535
  17 C :    0.035895
  18 C :   -0.240859
  19 C :   -0.031713
  20 O :   -0.318327
  21 H :    0.116999
  22 H :    0.118258
  23 O :   -0.400383
  24 H :    0.123822
  25 H :    0.100986
  26 H :    0.102951
  27 H :    0.107839
  28 H :    0.272570

  Mayer bond orders larger than 0.100000
B(  0-C ,  1-C ) :   0.9372 B(  0-C ,  4-O ) :   0.9362 B(  0-C ,  5-H ) :   0.9160
B(  0-C , 15-O ) :   0.8481 B(  1-C ,  2-C ) :   0.9545 B(  1-C ,  6-H ) :   0.9351
B(  1-C ,  7-H ) :   0.9101 B(  2-C ,  3-C ) :   0.9549 B(  2-C ,  8-H ) :   0.9447
B(  2-C ,  9-H ) :   0.9419 B(  3-C ,  4-O ) :   0.8347 B(  3-C , 10-H ) :   0.9346
B(  3-C , 11-H ) :   0.9399 B( 12-C , 13-H ) :   0.9244 B( 12-C , 14-H ) :   0.9280
B( 12-C , 15-O ) :   0.8357 B( 12-C , 16-C ) :   0.8932 B( 16-C , 17-C ) :   0.8799
B( 16-C , 20-O ) :   0.8309 B( 16-C , 21-H ) :   0.9315 B( 17-C , 18-C ) :   0.9213
B( 17-C , 22-H ) :   0.9315 B( 17-C , 23-O ) :   0.9144 B( 18-C , 19-C ) :   0.9390
B( 18-C , 24-H ) :   0.9420 B( 18-C , 25-H ) :   0.9424 B( 19-C , 20-O ) :   0.8386
B( 19-C , 26-H ) :   0.9324 B( 19-C , 27-H ) :   0.9375 B( 23-O , 28-H ) :   0.7710

FINAL SINGLE POINT ENERGY      -652.850653909716

DIPOLE MOMENT
-------------
                                X             Y             Z
Electronic contribution:     -3.08289      -1.41559       1.41574
Nuclear contribution   :      3.86234       1.48759      -2.26427
                        -----------------------------------------
Total Dipole Moment    :      0.77945       0.07200      -0.84854
                        -----------------------------------------
Magnitude (a.u.)       :      1.15445
Magnitude (Debye)      :      2.93437

Rotational constants in cm-1:     0.058072     0.013805     0.012477
Rotational constants in MHz :  1740.946163   413.851312   374.046728

                             ****ORCA TERMINATED NORMALLY****
TOTAL RUN TIME: 0 days 0 hours 43 minutes 58 seconds 682 msec
