                         Program Version 4.2.0 -  RELEASE  -
|  1> # Test redundant internal optimization
|  2> #
|  3> ! RKS B3LYP  Opt TightSCF SmallPrint
|  4>
|  5> %basis
|  6>         Basis "6-31G"
|  7> end
|  8>
|  9> %geom
| 10> Constraints
| 11> { D 4  0  15  12  315.0   C } # D for Dihedral angle
| 12> { D 0  15  12  16  165.0   C } # D for Dihedral angle
| 13> { D 0  4  3  2   C } # D for Dihedral angle
| 14> { D 4  3  2  1   C } # D for Dihedral angle
| 15> { D 3  2  1  0   C } # D for Dihedral angle
| 16> { D 2  1  0  4   C } # D for Dihedral angle
| 17> { D 1  0  4  3   C } # D for Dihedral angle
| 18> { D 16  20  19  18   C } # D for Dihedral angle
| 19> { D 20  19  18  17   C } # D for Dihedral angle
| 20> { D 19  18  17  16   C } # D for Dihedral angle
| 21> { D 18  17  16  20   C } # D for Dihedral angle
| 22> { D 17  16  20  19   C } # D for Dihedral angle
| 23> { D 15  12  16  20   C } # D for Dihedral angle
| 24> end
| 25> end
| 26>
| 27>
| 28> #%pal
| 29> #nprocs 8
| 30> #end
| 31>
| 32> * xyz 0 1
| 33> C  -21.048   26.222   46.251
| 34> C  -20.361   27.558   45.944
| 35> C  -20.329   28.222   47.341
| 36> C  -20.110   27.022   48.296
| 37> O  -20.473   25.807   47.535
| 38> H  -20.833   25.428   45.533
| 39> H  -19.344   27.382   45.576
| 40> H  -20.898   28.157   45.201
| 41> H  -19.543   28.978   47.434
| 42> H  -21.289   28.710   47.548
| 43> H  -20.733   27.082   49.195
| 44> H  -19.064   26.913   48.597
| 45> C  -23.319   25.255   47.135
| 46> H  -23.372   24.367   46.492
| 47> H  -22.769   24.986   48.046
| 48> O  -22.586   26.394   46.375
| 49> C  -24.764   25.644   47.552
| 50> C  -24.776   26.933   48.382
| 51> C  -24.638   28.014   47.282
| 52> C  -25.435   27.414   46.097
| 53> O  -25.570   25.967   46.370
| 54> H  -25.238   24.789   48.038
| 55> H  -25.734   27.034   48.904
| 56> O  -23.635   26.994   49.432
| 57> H  -25.025   28.989   47.594
| 58> H  -23.583   28.143   47.012
| 59> H  -24.927   27.553   45.137
| 60> H  -26.447   27.823   46.025
| 61> H  -22.666   26.894   48.930
| 62> *
| 63>
| 64>                          ****END OF INPUT****
 Total Charge           Charge          ....    0
 Multiplicity           Mult            ....    1
 Number of Electrons    NEL             ....  102
FINAL SINGLE POINT ENERGY      -652.836187209777
FINAL SINGLE POINT ENERGY      -652.860004120841
FINAL SINGLE POINT ENERGY      -652.864280787168
FINAL SINGLE POINT ENERGY      -652.865783893636
FINAL SINGLE POINT ENERGY      -652.865914674037
FINAL SINGLE POINT ENERGY      -652.865943955729
FINAL SINGLE POINT ENERGY      -652.865944127215
                    ***********************HURRAY********************

CARTESIAN COORDINATES (ANGSTROEM)
---------------------------------
  C    -21.061649   26.144308   46.292968
  C    -20.421662   27.489878   45.948007
  C    -20.359069   28.173977   47.333042
  C    -20.077592   26.997450   48.295741
  O    -20.442320   25.764457   47.545253
  H    -20.836921   25.326622   45.599595
  H    -19.417141   27.315220   45.548370
  H    -21.005886   28.048820   45.214105
  H    -19.581043   28.941732   47.386784
  H    -21.317117   28.651894   47.560487
  H    -20.657920   27.037355   49.223218
  H    -19.018833   26.902903   48.551417
  C    -23.207576   25.258678   47.111335
  H    -23.260034   24.361414   46.479925
  H    -22.658109   25.007826   48.024966
  O    -22.497226   26.312027   46.379033
  C    -24.625417   25.690682   47.467270
  C    -24.751451   26.935727   48.362306
  C    -24.703196   28.091121   47.314488
  C    -25.441566   27.478433   46.104426
  O    -25.448424   26.008614   46.308823
  H    -25.095013   24.821145   47.943772
  H    -25.710068   26.919781   48.884594
  O    -23.759618   27.029912   49.413083
  H    -25.180420   29.002658   47.684822
  H    -23.661335   28.301034   47.065194
  H    -24.945988   27.696732   45.154495
  H    -26.487624   27.795059   46.047078
  H    -22.878783   27.168542   49.009403

 Multiplicity           Mult            ....    1
 Number of Electrons    NEL             ....  102
 Basis Dimension        Dim             ....  149

ORBITAL ENERGIES
----------------

  NO   OCC          E(Eh)            E(eV)
   0   2.0000     -19.156079      -521.2634
   1   2.0000     -19.152820      -521.1747
   2   2.0000     -19.141128      -520.8566
   3   2.0000     -19.130843      -520.5767
   4   2.0000     -10.287085      -279.9258
   5   2.0000     -10.240637      -278.6619
   6   2.0000     -10.235790      -278.5300
   7   2.0000     -10.229030      -278.3461
   8   2.0000     -10.225743      -278.2566
   9   2.0000     -10.219604      -278.0896
  10   2.0000     -10.199658      -277.5468
  11   2.0000     -10.196013      -277.4476
  12   2.0000     -10.178391      -276.9681
  13   2.0000      -1.064447       -28.9651
  14   2.0000      -1.027051       -27.9475
  15   2.0000      -1.009915       -27.4812
  16   2.0000      -0.999972       -27.2106
  17   2.0000      -0.800240       -21.7756
  18   2.0000      -0.772387       -21.0177
  19   2.0000      -0.765455       -20.8291
  20   2.0000      -0.738258       -20.0890
  21   2.0000      -0.676402       -18.4058
  22   2.0000      -0.612589       -16.6694
  23   2.0000      -0.600473       -16.3397
  24   2.0000      -0.599072       -16.3016
  25   2.0000      -0.569732       -15.5032
  26   2.0000      -0.525416       -14.2973
  27   2.0000      -0.515483       -14.0270
  28   2.0000      -0.505908       -13.7665
  29   2.0000      -0.491225       -13.3669
  30   2.0000      -0.472545       -12.8586
  31   2.0000      -0.464556       -12.6412
  32   2.0000      -0.441907       -12.0249
  33   2.0000      -0.427124       -11.6226
  34   2.0000      -0.419870       -11.4253
  35   2.0000      -0.417691       -11.3659
  36   2.0000      -0.407042       -11.0762
  37   2.0000      -0.399678       -10.8758
  38   2.0000      -0.384501       -10.4628
  39   2.0000      -0.370220       -10.0742
  40   2.0000      -0.368503       -10.0275
  41   2.0000      -0.357096        -9.7171
  42   2.0000      -0.350519        -9.5381
  43   2.0000      -0.344180        -9.3656
  44   2.0000      -0.324100        -8.8192
  45   2.0000      -0.306787        -8.3481
  46   2.0000      -0.305700        -8.3185
  47   2.0000      -0.272634        -7.4188
  48   2.0000      -0.267357        -7.2752
  49   2.0000      -0.260704        -7.0941
  50   2.0000      -0.237319        -6.4578
  51   0.0000       0.040745         1.1087
  52   0.0000       0.084137         2.2895
  53   0.0000       0.089988         2.4487
  54   0.0000       0.094547         2.5727
  55   0.0000       0.101914         2.7732

MULLIKEN ATOMIC CHARGES
-----------------------
   0 C :    0.298495
   1 C :   -0.264534
   2 C :   -0.311983
   3 C :   -0.022708
   4 O :   -0.511121
   5 H :    0.153084
   6 H :    0.152318
   7 H :    0.162026
   8 H :    0.152191
   9 H :    0.155716
  10 H :    0.144918
  11 H :    0.156362
  12 C :   -0.023796
  13 H :    0.147208
  14 H :    0.162130
  15 O :   -0.538007
  16 C :    0.086970
  17 C :    0.082896
  18 C :   -0.316161
  19 C :    0.002930
  20 O :   -0.522069
  21 H :    0.150381
  22 H :    0.161529
  23 O :   -0.614560
  24 H :    0.139291
  25 H :    0.164770
  26 H :    0.144452
  27 H :    0.139483
  28 H :    0.367789
Sum of atomic charges:   -0.0000000

LOEWDIN ATOMIC CHARGES
----------------------
   0 C :    0.175235
   1 C :   -0.213477
   2 C :   -0.219529
   3 C :   -0.034163
   4 O :   -0.323686
   5 H :    0.099394
   6 H :    0.118462
   7 H :    0.126774
   8 H :    0.119201
   9 H :    0.110780
  10 H :    0.100176
  11 H :    0.110235
  12 C :   -0.052939
  13 H :    0.106616
  14 H :    0.113054
  15 O :   -0.337007
  16 C :    0.019075
  17 C :    0.039069
  18 C :   -0.242849
  19 C :   -0.023275
  20 O :   -0.323253
  21 H :    0.115351
  22 H :    0.116236
  23 O :   -0.410254
  24 H :    0.113489
  25 H :    0.116777
  26 H :    0.104716
  27 H :    0.100013
  28 H :    0.275780

  Mayer bond orders larger than 0.100000
B(  0-C ,  1-C ) :   0.9467 B(  0-C ,  4-O ) :   0.8939 B(  0-C ,  5-H ) :   0.9202
B(  0-C , 15-O ) :   0.8563 B(  1-C ,  2-C ) :   0.9520 B(  1-C ,  6-H ) :   0.9381
B(  1-C ,  7-H ) :   0.9349 B(  2-C ,  3-C ) :   0.9520 B(  2-C ,  8-H ) :   0.9439
B(  2-C ,  9-H ) :   0.9385 B(  3-C ,  4-O ) :   0.8351 B(  3-C , 10-H ) :   0.9268
B(  3-C , 11-H ) :   0.9386 B( 12-C , 13-H ) :   0.9233 B( 12-C , 14-H ) :   0.8948
B( 12-C , 15-O ) :   0.8173 B( 12-C , 16-C ) :   0.9205 B( 16-C , 17-C ) :   0.8861
B( 16-C , 20-O ) :   0.8753 B( 16-C , 21-H ) :   0.9276 B( 17-C , 18-C ) :   0.9299
B( 17-C , 22-H ) :   0.9363 B( 17-C , 23-O ) :   0.9028 B( 18-C , 19-C ) :   0.9451
B( 18-C , 24-H ) :   0.9422 B( 18-C , 25-H ) :   0.9235 B( 19-C , 20-O ) :   0.8386
B( 19-C , 26-H ) :   0.9332 B( 19-C , 27-H ) :   0.9382 B( 23-O , 28-H ) :   0.7761

FINAL SINGLE POINT ENERGY      -652.865942155976

DIPOLE MOMENT
-------------
                                X             Y             Z
Electronic contribution:     -2.38083      -4.55981       0.08712
Nuclear contribution   :      3.31777       5.47788      -0.37005
                        -----------------------------------------
Total Dipole Moment    :      0.93694       0.91807      -0.28293
                        -----------------------------------------
Magnitude (a.u.)       :      1.34192
Magnitude (Debye)      :      3.41090

Rotational constants in cm-1:     0.044959     0.017738     0.016874
Rotational constants in MHz :  1347.849983   531.783089   505.868271

                             ****ORCA TERMINATED NORMALLY****
TOTAL RUN TIME: 0 days 0 hours 35 minutes 9 seconds 695 msec
