                         Program Version 4.2.1 -  RELEASE  -
|  1> # Test redundant internal optimization
|  2> #
|  3> ! RKS B3LYP  Opt TightSCF SmallPrint
|  4>
|  5> %basis
|  6>         Basis "6-31G"
|  7> end
|  8>
|  9> %geom
| 10> Constraints
| 11> { D 4  0  19  14  285.0   C } # D for Dihedral angle
| 12> { D 0  19  14  12  90.0   C } # D for Dihedral angle
| 13> { D 0  4  3  2   C } # D for Dihedral angle
| 14> { D 4  3  2  1   C } # D for Dihedral angle
| 15> { D 3  2  1  0   C } # D for Dihedral angle
| 16> { D 2  1  0  4   C } # D for Dihedral angle
| 17> { D 1  0  4  3   C } # D for Dihedral angle
| 18> { D 14  15  16  17   C } # D for Dihedral angle
| 19> { D 15  16  17  12   C } # D for Dihedral angle
| 20> { D 16  17  12  14   C } # D for Dihedral angle
| 21> { D 17  12  14  15   C } # D for Dihedral angle
| 22> { D 12  14  15  16   C } # D for Dihedral angle
| 23> end
| 24> end
| 25>
| 26>
| 27> #%pal
| 28> #nprocs 8
| 29> #end
| 30>
| 31> * xyz 0 1
| 32> C  -21.048   26.222   46.251
| 33> C  -20.361   27.558   45.944
| 34> C  -20.329   28.222   47.341
| 35> C  -20.110   27.022   48.296
| 36> O  -20.473   25.807   47.535
| 37> H  -20.833   25.428   45.533
| 38> H  -19.344   27.382   45.576
| 39> H  -20.898   28.157   45.201
| 40> H  -19.543   28.978   47.434
| 41> H  -21.289   28.710   47.548
| 42> H  -20.733   27.082   49.195
| 43> H  -19.064   26.913   48.597
| 44> C  -23.356   24.689   47.876
| 45> H  -23.645   23.628   47.934
| 46> C  -23.203   25.146   46.420
| 47> C  -24.677   25.364   46.004
| 48> C  -25.334   25.897   47.301
| 49> O  -24.423   25.540   48.412
| 50> H  -22.474   24.854   48.497
| 51> O  -22.472   26.381   46.366
| 52> H  -22.688   24.411   45.791
| 53> H  -24.783   26.060   45.166
| 54> H  -25.130   24.410   45.706
| 55> H  -26.318   25.453   47.488
| 56> H  -25.431   26.987   47.303
| 57> *
| 58>
| 59>                          ****END OF INPUT****
 Total Charge           Charge          ....    0
 Multiplicity           Mult            ....    1
 Number of Electrons    NEL             ....   86
FINAL SINGLE POINT ENERGY      -538.436843101907
FINAL SINGLE POINT ENERGY      -538.439402597258
FINAL SINGLE POINT ENERGY      -538.439753763832
FINAL SINGLE POINT ENERGY      -538.439790866094
FINAL SINGLE POINT ENERGY      -538.439800849364
                    ***********************HURRAY********************

CARTESIAN COORDINATES (ANGSTROEM)
---------------------------------
  C    -20.993219   26.176534   46.255469
  C    -20.420870   27.561056   45.946200
  C    -20.424495   28.223123   47.343423
  C    -20.098889   27.046671   48.291416
  O    -20.378544   25.809136   47.516605
  H    -20.735800   25.378985   45.549567
  H    -19.399812   27.451924   45.563245
  H    -21.023951   28.097279   45.210991
  H    -19.696915   29.036261   47.426796
  H    -21.420014   28.622615   47.556289
  H    -20.714809   27.042766   49.193547
  H    -19.042237   27.005773   48.572035
  C    -23.391567   24.625401   47.885410
  H    -23.756471   23.586884   47.914296
  C    -23.190813   25.076720   46.438318
  C    -24.634429   25.406064   46.012223
  C    -25.265167   25.979780   47.304763
  O    -24.394550   25.548158   48.417959
  H    -22.489697   24.720818   48.488605
  O    -22.422505   26.316097   46.353554
  H    -22.719964   24.307253   45.811304
  H    -24.646153   26.113689   45.179761
  H    -25.140599   24.486083   45.698540
  H    -26.281693   25.608426   47.476092
  H    -25.275837   27.073504   47.308590

 Multiplicity           Mult            ....    1
 Number of Electrons    NEL             ....   86
 Basis Dimension        Dim             ....  127

ORBITAL ENERGIES
----------------

  NO   OCC          E(Eh)            E(eV)
   0   2.0000     -19.143889      -520.9317
   1   2.0000     -19.139371      -520.8088
   2   2.0000     -19.122979      -520.3627
   3   2.0000     -10.278719      -279.6982
   4   2.0000     -10.238326      -278.5990
   5   2.0000     -10.222394      -278.1655
   6   2.0000     -10.216745      -278.0118
   7   2.0000     -10.212730      -277.9025
   8   2.0000     -10.184150      -277.1248
   9   2.0000     -10.183402      -277.1045
  10   2.0000     -10.182532      -277.0808
  11   2.0000      -1.054539       -28.6955
  12   2.0000      -1.009785       -27.4776
  13   2.0000      -0.989449       -26.9243
  14   2.0000      -0.791479       -21.5372
  15   2.0000      -0.774152       -21.0657
  16   2.0000      -0.734216       -19.9790
  17   2.0000      -0.718503       -19.5515
  18   2.0000      -0.606441       -16.5021
  19   2.0000      -0.597958       -16.2713
  20   2.0000      -0.590489       -16.0680
  21   2.0000      -0.576872       -15.6975
  22   2.0000      -0.517448       -14.0805
  23   2.0000      -0.502516       -13.6742
  24   2.0000      -0.479168       -13.0388
  25   2.0000      -0.474800       -12.9200
  26   2.0000      -0.449004       -12.2180
  27   2.0000      -0.444663       -12.0999
  28   2.0000      -0.426930       -11.6174
  29   2.0000      -0.407034       -11.0759
  30   2.0000      -0.405074       -11.0226
  31   2.0000      -0.385375       -10.4866
  32   2.0000      -0.366100        -9.9621
  33   2.0000      -0.362208        -9.8562
  34   2.0000      -0.354970        -9.6592
  35   2.0000      -0.351466        -9.5639
  36   2.0000      -0.339887        -9.2488
  37   2.0000      -0.325488        -8.8570
  38   2.0000      -0.301867        -8.2142
  39   2.0000      -0.299284        -8.1439
  40   2.0000      -0.269552        -7.3349
  41   2.0000      -0.249466        -6.7883
  42   2.0000      -0.229389        -6.2420
  43   0.0000       0.081251         2.2110
  44   0.0000       0.096803         2.6341
  45   0.0000       0.101707         2.7676
  46   0.0000       0.116954         3.1825
  47   0.0000       0.125903         3.4260

MULLIKEN ATOMIC CHARGES
-----------------------
   0 C :    0.287347
   1 C :   -0.261205
   2 C :   -0.298658
   3 C :   -0.005482
   4 O :   -0.514387
   5 H :    0.138750
   6 H :    0.144133
   7 H :    0.155303
   8 H :    0.140052
   9 H :    0.167582
  10 H :    0.156181
  11 H :    0.141418
  12 C :   -0.000188
  13 H :    0.116855
  14 C :    0.065101
  15 C :   -0.295438
  16 C :    0.005117
  17 O :   -0.522330
  18 H :    0.183166
  19 O :   -0.512784
  20 H :    0.125479
  21 H :    0.158597
  22 H :    0.141616
  23 H :    0.131717
  24 H :    0.152057
Sum of atomic charges:   -0.0000000

LOEWDIN ATOMIC CHARGES
----------------------
   0 C :    0.171508
   1 C :   -0.215033
   2 C :   -0.215571
   3 C :   -0.028248
   4 O :   -0.332661
   5 H :    0.094162
   6 H :    0.113636
   7 H :    0.123426
   8 H :    0.113022
   9 H :    0.121797
  10 H :    0.109700
  11 H :    0.102123
  12 C :   -0.046935
  13 H :    0.088502
  14 C :    0.038412
  15 C :   -0.226792
  16 C :   -0.028225
  17 O :   -0.331596
  18 H :    0.128341
  19 O :   -0.317990
  20 H :    0.096894
  21 H :    0.125583
  22 H :    0.112683
  23 H :    0.096496
  24 H :    0.106766

  Mayer bond orders larger than 0.100000
B(  0-C ,  1-C ) :   0.9489 B(  0-C ,  4-O ) :   0.9019 B(  0-C ,  5-H ) :   0.9183
B(  0-C , 19-O ) :   0.8692 B(  1-C ,  2-C ) :   0.9577 B(  1-C ,  6-H ) :   0.9402
B(  1-C ,  7-H ) :   0.9366 B(  2-C ,  3-C ) :   0.9558 B(  2-C ,  8-H ) :   0.9452
B(  2-C ,  9-H ) :   0.9432 B(  3-C ,  4-O ) :   0.8327 B(  3-C , 10-H ) :   0.9336
B(  3-C , 11-H ) :   0.9406 B( 12-C , 13-H ) :   0.9114 B( 12-C , 14-C ) :   0.9174
B( 12-C , 17-O ) :   0.8675 B( 12-C , 18-H ) :   0.9194 B( 14-C , 15-C ) :   0.9590
B( 14-C , 19-O ) :   0.8285 B( 14-C , 20-H ) :   0.9183 B( 15-C , 16-C ) :   0.9484
B( 15-C , 21-H ) :   0.9375 B( 15-C , 22-H ) :   0.9418 B( 16-C , 17-O ) :   0.8585
B( 16-C , 23-H ) :   0.9331 B( 16-C , 24-H ) :   0.9363

FINAL SINGLE POINT ENERGY      -538.439801599269

DIPOLE MOMENT
-------------
                                X             Y             Z
Electronic contribution:     -0.03101      -2.04299       1.12517
Nuclear contribution   :      0.28611       2.20536      -2.07190
                        -----------------------------------------
Total Dipole Moment    :      0.25509       0.16237      -0.94673
                        -----------------------------------------
Magnitude (a.u.)       :      0.99385
Magnitude (Debye)      :      2.52616

Rotational constants in cm-1:     0.073264     0.022768     0.021520
Rotational constants in MHz :  2196.386308   682.563811   645.161461

                             ****ORCA TERMINATED NORMALLY****
TOTAL RUN TIME: 0 days 0 hours 5 minutes 55 seconds 685 msec
