                         Program Version 4.2.1 -  RELEASE  -
|  1> # Test redundant internal optimization
|  2> #
|  3> ! RKS B3LYP  Opt TightSCF SmallPrint
|  4>
|  5> %basis
|  6>         Basis "6-31G"
|  7> end
|  8>
|  9> %geom
| 10> Constraints
| 11> { D 4  0  19  14  300.0   C } # D for Dihedral angle
| 12> { D 0  19  14  12  120.0   C } # D for Dihedral angle
| 13> { D 0  4  3  2   C } # D for Dihedral angle
| 14> { D 4  3  2  1   C } # D for Dihedral angle
| 15> { D 3  2  1  0   C } # D for Dihedral angle
| 16> { D 2  1  0  4   C } # D for Dihedral angle
| 17> { D 1  0  4  3   C } # D for Dihedral angle
| 18> { D 14  15  16  17   C } # D for Dihedral angle
| 19> { D 15  16  17  12   C } # D for Dihedral angle
| 20> { D 16  17  12  14   C } # D for Dihedral angle
| 21> { D 17  12  14  15   C } # D for Dihedral angle
| 22> { D 12  14  15  16   C } # D for Dihedral angle
| 23> end
| 24> end
| 25>
| 26>
| 27> #%pal
| 28> #nprocs 8
| 29> #end
| 30>
| 31> * xyz 0 1
| 32> C  -21.048   26.222   46.251
| 33> C  -20.361   27.558   45.944
| 34> C  -20.329   28.222   47.341
| 35> C  -20.110   27.022   48.296
| 36> O  -20.473   25.807   47.535
| 37> H  -20.833   25.428   45.533
| 38> H  -19.344   27.382   45.576
| 39> H  -20.898   28.157   45.201
| 40> H  -19.543   28.978   47.434
| 41> H  -21.289   28.710   47.548
| 42> H  -20.733   27.082   49.195
| 43> H  -19.064   26.913   48.597
| 44> C  -23.919   25.427   48.075
| 45> H  -24.217   24.476   48.544
| 46> C  -23.171   25.189   46.758
| 47> C  -24.336   24.893   45.784
| 48> C  -25.468   25.817   46.298
| 49> O  -25.105   26.197   47.682
| 50> H  -23.374   26.030   48.802
| 51> O  -22.472   26.381   46.366
| 52> H  -22.448   24.368   46.817
| 53> H  -24.077   25.092   44.739
| 54> H  -24.633   23.840   45.860
| 55> H  -26.445   25.320   46.307
| 56> H  -25.547   26.743   45.721
| 57> *
| 58>
| 59>                          ****END OF INPUT****
 Total Charge           Charge          ....    0
 Multiplicity           Mult            ....    1
 Number of Electrons    NEL             ....   86
FINAL SINGLE POINT ENERGY      -538.435966713396
FINAL SINGLE POINT ENERGY      -538.437824806359
FINAL SINGLE POINT ENERGY      -538.438158058504
FINAL SINGLE POINT ENERGY      -538.438179852413
FINAL SINGLE POINT ENERGY      -538.438187256939
                    ***********************HURRAY********************

CARTESIAN COORDINATES (ANGSTROEM)
---------------------------------
  C    -21.003802   26.180126   46.251647
  C    -20.415885   27.558126   45.946595
  C    -20.406197   28.212323   47.345868
  C    -20.091780   27.029196   48.288481
  O    -20.389766   25.797873   47.508397
  H    -20.754979   25.381408   45.545091
  H    -19.398761   27.437178   45.557142
  H    -21.015733   28.107515   45.218253
  H    -19.668157   29.016003   47.429933
  H    -21.395796   28.624312   47.562423
  H    -20.701511   27.030344   49.195651
  H    -19.034842   26.973234   48.565106
  C    -23.921550   25.422990   48.079904
  H    -24.262168   24.485342   48.544638
  C    -23.170143   25.139533   46.779960
  C    -24.330152   24.901976   45.794361
  C    -25.420090   25.885243   46.283529
  O    -25.055957   26.250388   47.669432
  H    -23.332737   25.996951   48.796090
  O    -22.432054   26.333521   46.360020
  H    -22.487641   24.288066   46.865279
  H    -24.020394   25.089232   44.763053
  H    -24.671126   23.862651   45.871895
  H    -26.421116   25.439779   46.279644
  H    -25.434663   26.810691   45.701607

 Multiplicity           Mult            ....    1
 Number of Electrons    NEL             ....   86
 Basis Dimension        Dim             ....  127

ORBITAL ENERGIES
----------------

  NO   OCC          E(Eh)            E(eV)
   0   2.0000     -19.141446      -520.8652
   1   2.0000     -19.141190      -520.8583
   2   2.0000     -19.124275      -520.3980
   3   2.0000     -10.278433      -279.6904
   4   2.0000     -10.235949      -278.5343
   5   2.0000     -10.225347      -278.2458
   6   2.0000     -10.217199      -278.0241
   7   2.0000     -10.217080      -278.0209
   8   2.0000     -10.184470      -277.1335
   9   2.0000     -10.183535      -277.1081
  10   2.0000     -10.183108      -277.0965
  11   2.0000      -1.054685       -28.6994
  12   2.0000      -1.010994       -27.5105
  13   2.0000      -0.988268       -26.8921
  14   2.0000      -0.791861       -21.5476
  15   2.0000      -0.774463       -21.0742
  16   2.0000      -0.737098       -20.0575
  17   2.0000      -0.718931       -19.5631
  18   2.0000      -0.607028       -16.5181
  19   2.0000      -0.596992       -16.2450
  20   2.0000      -0.594345       -16.1730
  21   2.0000      -0.573829       -15.6147
  22   2.0000      -0.519229       -14.1289
  23   2.0000      -0.502125       -13.6635
  24   2.0000      -0.481627       -13.1057
  25   2.0000      -0.476066       -12.9544
  26   2.0000      -0.452867       -12.3231
  27   2.0000      -0.438998       -11.9457
  28   2.0000      -0.425170       -11.5695
  29   2.0000      -0.414116       -11.2687
  30   2.0000      -0.405998       -11.0478
  31   2.0000      -0.382867       -10.4183
  32   2.0000      -0.367261        -9.9937
  33   2.0000      -0.366050        -9.9607
  34   2.0000      -0.356535        -9.7018
  35   2.0000      -0.351899        -9.5757
  36   2.0000      -0.340951        -9.2778
  37   2.0000      -0.329546        -8.9674
  38   2.0000      -0.300717        -8.1829
  39   2.0000      -0.296765        -8.0754
  40   2.0000      -0.266881        -7.2622
  41   2.0000      -0.253161        -6.8889
  42   2.0000      -0.229910        -6.2562
  43   0.0000       0.080943         2.2026
  44   0.0000       0.092820         2.5257
  45   0.0000       0.101899         2.7728
  46   0.0000       0.114971         3.1285
  47   0.0000       0.116498         3.1701

MULLIKEN ATOMIC CHARGES
-----------------------
   0 C :    0.280181
   1 C :   -0.261028
   2 C :   -0.299802
   3 C :   -0.007231
   4 O :   -0.516777
   5 H :    0.142680
   6 H :    0.143998
   7 H :    0.158954
   8 H :    0.140963
   9 H :    0.169360
  10 H :    0.146430
  11 H :    0.143527
  12 C :    0.010714
  13 H :    0.122442
  14 C :    0.058749
  15 C :   -0.282930
  16 C :    0.004612
  17 O :   -0.522363
  18 H :    0.160261
  19 O :   -0.514879
  20 H :    0.147306
  21 H :    0.151931
  22 H :    0.138369
  23 H :    0.132143
  24 H :    0.152391
Sum of atomic charges:   -0.0000000

LOEWDIN ATOMIC CHARGES
----------------------
   0 C :    0.171277
   1 C :   -0.214072
   2 C :   -0.216252
   3 C :   -0.028849
   4 O :   -0.335180
   5 H :    0.094582
   6 H :    0.113691
   7 H :    0.125363
   8 H :    0.113563
   9 H :    0.122571
  10 H :    0.103933
  11 H :    0.103149
  12 C :   -0.036762
  13 H :    0.090830
  14 C :    0.036526
  15 C :   -0.227895
  16 C :   -0.027732
  17 O :   -0.331597
  18 H :    0.118129
  19 O :   -0.322726
  20 H :    0.109968
  21 H :    0.122325
  22 H :    0.110843
  23 H :    0.096758
  24 H :    0.107557

  Mayer bond orders larger than 0.100000
B(  0-C ,  1-C ) :   0.9507 B(  0-C ,  4-O ) :   0.8943 B(  0-C ,  5-H ) :   0.9195
B(  0-C , 19-O ) :   0.8749 B(  1-C ,  2-C ) :   0.9556 B(  1-C ,  6-H ) :   0.9399
B(  1-C ,  7-H ) :   0.9359 B(  2-C ,  3-C ) :   0.9560 B(  2-C ,  8-H ) :   0.9450
B(  2-C ,  9-H ) :   0.9425 B(  3-C ,  4-O ) :   0.8353 B(  3-C , 10-H ) :   0.9342
B(  3-C , 11-H ) :   0.9406 B( 12-C , 13-H ) :   0.9128 B( 12-C , 14-C ) :   0.9288
B( 12-C , 17-O ) :   0.8697 B( 12-C , 18-H ) :   0.9327 B( 14-C , 15-C ) :   0.9474
B( 14-C , 19-O ) :   0.8124 B( 14-C , 20-H ) :   0.9173 B( 15-C , 16-C ) :   0.9464
B( 15-C , 21-H ) :   0.9402 B( 15-C , 22-H ) :   0.9409 B( 16-C , 17-O ) :   0.8578
B( 16-C , 23-H ) :   0.9335 B( 16-C , 24-H ) :   0.9360

FINAL SINGLE POINT ENERGY      -538.438187385352

DIPOLE MOMENT
-------------
                                X             Y             Z
Electronic contribution:     -0.73483      -1.24134       0.74030
Nuclear contribution   :      1.30719       1.04630      -1.27593
                        -----------------------------------------
Total Dipole Moment    :      0.57236      -0.19504      -0.53563
                        -----------------------------------------
Magnitude (a.u.)       :      0.80780
Magnitude (Debye)      :      2.05326

Rotational constants in cm-1:     0.077453     0.021453     0.020676
Rotational constants in MHz :  2321.971817   643.158510   619.854819

                             ****ORCA TERMINATED NORMALLY****
TOTAL RUN TIME: 0 days 0 hours 5 minutes 50 seconds 369 msec
