                         Program Version 4.2.0 -  RELEASE  -
|  1> # Test redundant internal optimization
|  2> #
|  3> ! RKS B3LYP  Opt TightSCF SmallPrint
|  4>
|  5> %basis
|  6>         Basis "6-31G"
|  7> end
|  8>
|  9> %geom
| 10> Constraints
| 11> { D 4  0  15  12  75.0   C } # D for Dihedral angle
| 12> { D 0  15  12  16  165.0   C } # D for Dihedral angle
| 13> { D 0  4  3  2   C } # D for Dihedral angle
| 14> { D 4  3  2  1   C } # D for Dihedral angle
| 15> { D 3  2  1  0   C } # D for Dihedral angle
| 16> { D 2  1  0  4   C } # D for Dihedral angle
| 17> { D 1  0  4  3   C } # D for Dihedral angle
| 18> { D 16  20  19  18   C } # D for Dihedral angle
| 19> { D 20  19  18  17   C } # D for Dihedral angle
| 20> { D 19  18  17  16   C } # D for Dihedral angle
| 21> { D 18  17  16  20   C } # D for Dihedral angle
| 22> { D 17  16  20  19   C } # D for Dihedral angle
| 23> { D 15  12  16  20   C } # D for Dihedral angle
| 24> end
| 25> end
| 26>
| 27>
| 28> #%pal
| 29> #nprocs 8
| 30> #end
| 31>
| 32> * xyz 0 1
| 33> C  -21.048   26.222   46.251
| 34> C  -20.361   27.558   45.944
| 35> C  -20.329   28.222   47.341
| 36> C  -20.110   27.022   48.296
| 37> O  -20.473   25.807   47.535
| 38> H  -20.833   25.428   45.533
| 39> H  -19.344   27.382   45.576
| 40> H  -20.898   28.157   45.201
| 41> H  -19.543   28.978   47.434
| 42> H  -21.289   28.710   47.548
| 43> H  -20.733   27.082   49.195
| 44> H  -19.064   26.913   48.597
| 45> C  -23.049   27.675   47.122
| 46> H  -22.879   27.547   48.198
| 47> H  -22.473   28.546   46.784
| 48> O  -22.586   26.394   46.375
| 49> C  -24.555   27.989   46.899
| 50> C  -24.887   28.091   45.406
| 51> C  -24.980   26.600   45.002
| 52> C  -25.587   25.932   46.261
| 53> O  -25.386   26.880   47.379
| 54> H  -24.827   28.869   47.484
| 55> O  -26.256   28.797   45.212
| 56> H  -24.131   28.640   44.833
| 57> H  -25.591   26.439   44.108
| 58> H  -23.978   26.202   44.799
| 59> H  -25.104   24.980   46.506
| 60> H  -26.665   25.769   46.168
| 61> H  -27.029   28.265   45.777
| 62> *
| 63>
| 64>                          ****END OF INPUT****
 Total Charge           Charge          ....    0
 Multiplicity           Mult            ....    1
 Number of Electrons    NEL             ....  102
FINAL SINGLE POINT ENERGY      -652.809693301204
FINAL SINGLE POINT ENERGY      -652.838764366589
FINAL SINGLE POINT ENERGY      -652.854227504047
FINAL SINGLE POINT ENERGY      -652.857157564681
FINAL SINGLE POINT ENERGY      -652.857535120484
FINAL SINGLE POINT ENERGY      -652.857596439256
FINAL SINGLE POINT ENERGY      -652.857606253563
FINAL SINGLE POINT ENERGY      -652.857605927245
                    ***********************HURRAY********************

CARTESIAN COORDINATES (ANGSTROEM)
---------------------------------
  C    -21.206735   26.354989   46.456120
  C    -20.333151   27.526405   45.981502
  C    -20.004847   28.254245   47.320484
  C    -19.889749   27.072946   48.318927
  O    -20.562871   25.920905   47.674566
  H    -21.170585   25.495027   45.785811
  H    -19.422648   27.120595   45.530114
  H    -20.832575   28.165422   45.247428
  H    -19.071960   28.823765   47.260893
  H    -20.796655   28.949330   47.606657
  H    -20.369428   27.273309   49.281452
  H    -18.851391   26.776617   48.493580
  C    -23.193186   27.734742   47.233575
  H    -23.099105   27.618934   48.320374
  H    -22.686184   28.658025   46.925097
  O    -22.629290   26.571099   46.567620
  C    -24.671932   27.877205   46.872748
  C    -25.005449   28.061775   45.385122
  C    -25.040688   26.593160   44.881536
  C    -25.624504   25.825883   46.094429
  O    -25.458797   26.712645   47.271836
  H    -25.058815   28.728707   47.446669
  O    -26.287778   28.733151   45.230063
  H    -24.290948   28.686050   44.846769
  H    -25.660057   26.508466   43.984133
  H    -24.027013   26.254866   44.665804
  H    -25.094885   24.890230   46.287747
  H    -26.695683   25.621703   45.995857
  H    -26.951094   28.285803   45.797088

 Multiplicity           Mult            ....    1
 Number of Electrons    NEL             ....  102
 Basis Dimension        Dim             ....  149

ORBITAL ENERGIES
----------------

  NO   OCC          E(Eh)            E(eV)
   0   2.0000     -19.150601      -521.1144
   1   2.0000     -19.144470      -520.9475
   2   2.0000     -19.135432      -520.7016
   3   2.0000     -19.135070      -520.6917
   4   2.0000     -10.284367      -279.8519
   5   2.0000     -10.236830      -278.5583
   6   2.0000     -10.236483      -278.5489
   7   2.0000     -10.234242      -278.4879
   8   2.0000     -10.232651      -278.4446
   9   2.0000     -10.219790      -278.0946
  10   2.0000     -10.198092      -277.5042
  11   2.0000     -10.197715      -277.4939
  12   2.0000     -10.175112      -276.8789
  13   2.0000      -1.056870       -28.7589
  14   2.0000      -1.031483       -28.0681
  15   2.0000      -1.005156       -27.3517
  16   2.0000      -0.996847       -27.1256
  17   2.0000      -0.793434       -21.5904
  18   2.0000      -0.781760       -21.2728
  19   2.0000      -0.764501       -20.8031
  20   2.0000      -0.736211       -20.0333
  21   2.0000      -0.679307       -18.4849
  22   2.0000      -0.609732       -16.5916
  23   2.0000      -0.605165       -16.4674
  24   2.0000      -0.596089       -16.2204
  25   2.0000      -0.569405       -15.4943
  26   2.0000      -0.523429       -14.2432
  27   2.0000      -0.514645       -14.0042
  28   2.0000      -0.504036       -13.7155
  29   2.0000      -0.487679       -13.2704
  30   2.0000      -0.474381       -12.9086
  31   2.0000      -0.456594       -12.4246
  32   2.0000      -0.451241       -12.2789
  33   2.0000      -0.438144       -11.9225
  34   2.0000      -0.423666       -11.5285
  35   2.0000      -0.419997       -11.4287
  36   2.0000      -0.404605       -11.0099
  37   2.0000      -0.387574       -10.5464
  38   2.0000      -0.385188       -10.4815
  39   2.0000      -0.366890        -9.9836
  40   2.0000      -0.366074        -9.9614
  41   2.0000      -0.361951        -9.8492
  42   2.0000      -0.351086        -9.5535
  43   2.0000      -0.326923        -8.8960
  44   2.0000      -0.319757        -8.7010
  45   2.0000      -0.308159        -8.3854
  46   2.0000      -0.299622        -8.1531
  47   2.0000      -0.272765        -7.4223
  48   2.0000      -0.264170        -7.1884
  49   2.0000      -0.257844        -7.0163
  50   2.0000      -0.240151        -6.5348
  51   0.0000       0.063235         1.7207
  52   0.0000       0.074733         2.0336
  53   0.0000       0.084866         2.3093
  54   0.0000       0.100833         2.7438
  55   0.0000       0.108497         2.9524

MULLIKEN ATOMIC CHARGES
-----------------------
   0 C :    0.308208
   1 C :   -0.285535
   2 C :   -0.314615
   3 C :   -0.009757
   4 O :   -0.500849
   5 H :    0.164029
   6 H :    0.159473
   7 H :    0.146976
   8 H :    0.147975
   9 H :    0.148938
  10 H :    0.147879
  11 H :    0.148801
  12 C :    0.002121
  13 H :    0.156950
  14 H :    0.122357
  15 O :   -0.523895
  16 C :    0.067330
  17 C :    0.075412
  18 C :   -0.283943
  19 C :   -0.019779
  20 O :   -0.524063
  21 H :    0.154432
  22 O :   -0.602680
  23 H :    0.143222
  24 H :    0.146659
  25 H :    0.166744
  26 H :    0.158398
  27 H :    0.135921
  28 H :    0.363290
Sum of atomic charges:   -0.0000000

LOEWDIN ATOMIC CHARGES
----------------------
   0 C :    0.174710
   1 C :   -0.230470
   2 C :   -0.224268
   3 C :   -0.032460
   4 O :   -0.318099
   5 H :    0.112307
   6 H :    0.124542
   7 H :    0.116614
   8 H :    0.116838
   9 H :    0.108909
  10 H :    0.104269
  11 H :    0.105245
  12 C :   -0.040323
  13 H :    0.109970
  14 H :    0.092746
  15 O :   -0.317148
  16 C :    0.014800
  17 C :    0.038546
  18 C :   -0.241295
  19 C :   -0.032562
  20 O :   -0.328005
  21 H :    0.115129
  22 O :   -0.417053
  23 H :    0.111898
  24 H :    0.117370
  25 H :    0.127046
  26 H :    0.112060
  27 H :    0.096230
  28 H :    0.282453

  Mayer bond orders larger than 0.100000
B(  0-C ,  1-C ) :   0.9207 B(  0-C ,  4-O ) :   0.9079 B(  0-C ,  5-H ) :   0.9368
B(  0-C , 15-O ) :   0.8894 B(  1-C ,  2-C ) :   0.9545 B(  1-C ,  6-H ) :   0.9346
B(  1-C ,  7-H ) :   0.9357 B(  2-C ,  3-C ) :   0.9466 B(  2-C ,  8-H ) :   0.9453
B(  2-C ,  9-H ) :   0.9391 B(  3-C ,  4-O ) :   0.8459 B(  3-C , 10-H ) :   0.9334
B(  3-C , 11-H ) :   0.9386 B( 12-C , 13-H ) :   0.9169 B( 12-C , 14-H ) :   0.8985
B( 12-C , 15-O ) :   0.8398 B( 12-C , 16-C ) :   0.9054 B( 16-C , 17-C ) :   0.9072
B( 16-C , 20-O ) :   0.8787 B( 16-C , 21-H ) :   0.9225 B( 17-C , 18-C ) :   0.9247
B( 17-C , 22-O ) :   0.8935 B( 17-C , 23-H ) :   0.9361 B( 18-C , 19-C ) :   0.9476
B( 18-C , 24-H ) :   0.9374 B( 18-C , 25-H ) :   0.9202 B( 19-C , 20-O ) :   0.8372
B( 19-C , 26-H ) :   0.9332 B( 19-C , 27-H ) :   0.9371 B( 22-O , 28-H ) :   0.7952

FINAL SINGLE POINT ENERGY      -652.857604367665

DIPOLE MOMENT
-------------
                                X             Y             Z
Electronic contribution:     -4.09503      -2.26514       1.16463
Nuclear contribution   :      5.13111       2.88773      -1.43464
                        -----------------------------------------
Total Dipole Moment    :      1.03609       0.62260      -0.27001
                        -----------------------------------------
Magnitude (a.u.)       :      1.23855
Magnitude (Debye)      :      3.14815

Rotational constants in cm-1:     0.058242     0.013610     0.013046
Rotational constants in MHz :  1746.055927   408.019880   391.122750

                             ****ORCA TERMINATED NORMALLY****
TOTAL RUN TIME: 0 days 0 hours 24 minutes 22 seconds 875 msec
