                         Program Version 4.2.0 -  RELEASE  -
|  1> # Test redundant internal optimization
|  2> #
|  3> ! RKS B3LYP  Opt TightSCF SmallPrint
|  4>
|  5> %basis
|  6>         Basis "6-31G"
|  7> end
|  8>
|  9> %geom
| 10> Constraints
| 11> { D 4  0  15  12  240.0   C } # D for Dihedral angle
| 12> { D 0  15  12  16  105.0   C } # D for Dihedral angle
| 13> { D 0  4  3  2   C } # D for Dihedral angle
| 14> { D 4  3  2  1   C } # D for Dihedral angle
| 15> { D 3  2  1  0   C } # D for Dihedral angle
| 16> { D 2  1  0  4   C } # D for Dihedral angle
| 17> { D 1  0  4  3   C } # D for Dihedral angle
| 18> { D 16  20  19  18   C } # D for Dihedral angle
| 19> { D 20  19  18  17   C } # D for Dihedral angle
| 20> { D 19  18  17  16   C } # D for Dihedral angle
| 21> { D 18  17  16  20   C } # D for Dihedral angle
| 22> { D 17  16  20  19   C } # D for Dihedral angle
| 23> { D 15  12  16  20   C } # D for Dihedral angle
| 24> end
| 25> end
| 26>
| 27>
| 28> #%pal
| 29> #nprocs 8
| 30> #end
| 31>
| 32> * xyz 0 1
| 33> C  -21.048   26.222   46.251
| 34> C  -20.361   27.558   45.944
| 35> C  -20.329   28.222   47.341
| 36> C  -20.110   27.022   48.296
| 37> O  -20.473   25.807   47.535
| 38> H  -20.833   25.428   45.533
| 39> H  -19.344   27.382   45.576
| 40> H  -20.898   28.157   45.201
| 41> H  -19.543   28.978   47.434
| 42> H  -21.289   28.710   47.548
| 43> H  -20.733   27.082   49.195
| 44> H  -19.064   26.913   48.597
| 45> C  -23.430   25.483   45.442
| 46> H  -24.220   26.080   44.970
| 47> H  -22.801   25.058   44.649
| 48> O  -22.586   26.394   46.375
| 49> C  -24.097   24.302   46.200
| 50> C  -23.058   23.470   46.962
| 51> C  -22.820   24.343   48.217
| 52> C  -24.217   24.951   48.494
| 53> O  -24.995   24.805   47.245
| 54> H  -24.710   23.729   45.501
| 55> H  -23.485   22.501   47.240
| 56> O  -21.760   23.220   46.147
| 57> H  -22.439   23.768   49.068
| 58> H  -22.092   25.132   47.995
| 59> H  -24.167   26.011   48.765
| 60> H  -24.760   24.412   49.276
| 61> H  -21.317   24.179   45.857
| 62> *
| 63>
| 64>                          ****END OF INPUT****
 Total Charge           Charge          ....    0
 Multiplicity           Mult            ....    1
 Number of Electrons    NEL             ....  102
FINAL SINGLE POINT ENERGY      -652.810836215503
FINAL SINGLE POINT ENERGY      -652.842446110128
FINAL SINGLE POINT ENERGY      -652.856951414068
FINAL SINGLE POINT ENERGY      -652.860328742855
FINAL SINGLE POINT ENERGY      -652.861569212881
FINAL SINGLE POINT ENERGY      -652.862303608368
FINAL SINGLE POINT ENERGY      -652.862836523641
FINAL SINGLE POINT ENERGY      -652.863133346592
FINAL SINGLE POINT ENERGY      -652.863204146229
FINAL SINGLE POINT ENERGY      -652.863219607103
                    ***********************HURRAY********************

CARTESIAN COORDINATES (ANGSTROEM)
---------------------------------
  C    -21.019422   26.304157   46.189596
  C    -20.366548   27.645685   45.848153
  C    -20.335960   28.346231   47.229537
  C    -20.081948   27.175006   48.206455
  O    -20.431768   25.938766   47.458659
  H    -20.805719   25.489581   45.493854
  H    -19.350011   27.474488   45.474312
  H    -20.935493   28.196548   45.096833
  H    -19.562207   29.116700   47.296949
  H    -21.307449   28.808288   47.427698
  H    -20.699305   27.224048   49.106386
  H    -19.030421   27.078971   48.491840
  C    -23.299600   25.627085   45.487355
  H    -24.063725   26.290094   45.070632
  H    -22.715183   25.200722   44.662101
  O    -22.452825   26.493378   46.309956
  C    -24.021506   24.486520   46.206643
  C    -23.151492   23.423592   46.899981
  C    -22.913869   24.066617   48.301610
  C    -24.251218   24.794690   48.564810
  O    -24.927554   24.931687   47.255268
  H    -24.657096   24.023010   45.439425
  H    -23.713121   22.487833   46.980395
  O    -21.923705   23.128242   46.173969
  H    -22.695645   23.312605   49.065144
  H    -22.081352   24.770513   48.240370
  H    -24.106740   25.791790   48.991391
  H    -24.923484   24.221159   49.211262
  H    -21.154635   23.470993   46.673412

 Multiplicity           Mult            ....    1
 Number of Electrons    NEL             ....  102
 Basis Dimension        Dim             ....  149

ORBITAL ENERGIES
----------------

  NO   OCC          E(Eh)            E(eV)
   0   2.0000     -19.154338      -521.2160
   1   2.0000     -19.145016      -520.9624
   2   2.0000     -19.135681      -520.7083
   3   2.0000     -19.127902      -520.4967
   4   2.0000     -10.284397      -279.8527
   5   2.0000     -10.234308      -278.4897
   6   2.0000     -10.232583      -278.4427
   7   2.0000     -10.225340      -278.2456
   8   2.0000     -10.223890      -278.2062
   9   2.0000     -10.216792      -278.0130
  10   2.0000     -10.190931      -277.3093
  11   2.0000     -10.189309      -277.2652
  12   2.0000     -10.172632      -276.8114
  13   2.0000      -1.058718       -28.8092
  14   2.0000      -1.021541       -27.7975
  15   2.0000      -1.005088       -27.3498
  16   2.0000      -0.997438       -27.1417
  17   2.0000      -0.791745       -21.5445
  18   2.0000      -0.767414       -20.8824
  19   2.0000      -0.761055       -20.7094
  20   2.0000      -0.734464       -19.9858
  21   2.0000      -0.673538       -18.3279
  22   2.0000      -0.606046       -16.4914
  23   2.0000      -0.599715       -16.3191
  24   2.0000      -0.597280       -16.2528
  25   2.0000      -0.565227       -15.3806
  26   2.0000      -0.520932       -14.1753
  27   2.0000      -0.501322       -13.6417
  28   2.0000      -0.499527       -13.5928
  29   2.0000      -0.491845       -13.3838
  30   2.0000      -0.470875       -12.8132
  31   2.0000      -0.451398       -12.2832
  32   2.0000      -0.442473       -12.0403
  33   2.0000      -0.427738       -11.6393
  34   2.0000      -0.424133       -11.5412
  35   2.0000      -0.415702       -11.3118
  36   2.0000      -0.405055       -11.0221
  37   2.0000      -0.396505       -10.7895
  38   2.0000      -0.371133       -10.0990
  39   2.0000      -0.363583        -9.8936
  40   2.0000      -0.361134        -9.8270
  41   2.0000      -0.351422        -9.5627
  42   2.0000      -0.347515        -9.4564
  43   2.0000      -0.331459        -9.0195
  44   2.0000      -0.317002        -8.6261
  45   2.0000      -0.306859        -8.3500
  46   2.0000      -0.301367        -8.2006
  47   2.0000      -0.274810        -7.4780
  48   2.0000      -0.260756        -7.0955
  49   2.0000      -0.258194        -7.0258
  50   2.0000      -0.229371        -6.2415
  51   0.0000       0.067888         1.8473
  52   0.0000       0.079380         2.1600
  53   0.0000       0.090733         2.4690
  54   0.0000       0.100179         2.7260
  55   0.0000       0.111327         3.0294

MULLIKEN ATOMIC CHARGES
-----------------------
   0 C :    0.272936
   1 C :   -0.250259
   2 C :   -0.302311
   3 C :   -0.002161
   4 O :   -0.524155
   5 H :    0.153077
   6 H :    0.142994
   7 H :    0.155138
   8 H :    0.144855
   9 H :    0.168788
  10 H :    0.151207
  11 H :    0.145957
  12 C :   -0.017954
  13 H :    0.158164
  14 H :    0.141172
  15 O :   -0.518235
  16 C :    0.105046
  17 C :    0.093558
  18 C :   -0.365602
  19 C :   -0.003533
  20 O :   -0.522530
  21 H :    0.142151
  22 H :    0.152533
  23 O :   -0.632161
  24 H :    0.138010
  25 H :    0.208979
  26 H :    0.146280
  27 H :    0.139068
  28 H :    0.378988
Sum of atomic charges:    0.0000000

LOEWDIN ATOMIC CHARGES
----------------------
   0 C :    0.166297
   1 C :   -0.218052
   2 C :   -0.215798
   3 C :   -0.025842
   4 O :   -0.327423
   5 H :    0.102035
   6 H :    0.112547
   7 H :    0.122956
   8 H :    0.115749
   9 H :    0.122589
  10 H :    0.107617
  11 H :    0.104319
  12 C :   -0.039295
  13 H :    0.115806
  14 H :    0.106203
  15 O :   -0.331154
  16 C :    0.016422
  17 C :    0.037629
  18 C :   -0.259241
  19 C :   -0.024059
  20 O :   -0.323758
  21 H :    0.111656
  22 H :    0.107778
  23 O :   -0.426196
  24 H :    0.112165
  25 H :    0.136904
  26 H :    0.104258
  27 H :    0.098778
  28 H :    0.289109

  Mayer bond orders larger than 0.100000
B(  0-C ,  1-C ) :   0.9420 B(  0-C ,  4-O ) :   0.8811 B(  0-C ,  5-H ) :   0.9101
B(  0-C , 15-O ) :   0.8585 B(  1-C ,  2-C ) :   0.9555 B(  1-C ,  6-H ) :   0.9368
B(  1-C ,  7-H ) :   0.9388 B(  2-C ,  3-C ) :   0.9560 B(  2-C ,  8-H ) :   0.9449
B(  2-C ,  9-H ) :   0.9423 B(  3-C ,  4-O ) :   0.8225 B(  3-C , 10-H ) :   0.9352
B(  3-C , 11-H ) :   0.9401 B( 12-C , 13-H ) :   0.9341 B( 12-C , 14-H ) :   0.9088
B( 12-C , 15-O ) :   0.8552 B( 12-C , 16-C ) :   0.8994 B( 16-C , 17-C ) :   0.8939
B( 16-C , 20-O ) :   0.8779 B( 16-C , 21-H ) :   0.9228 B( 17-C , 18-C ) :   0.9498
B( 17-C , 22-H ) :   0.9321 B( 17-C , 23-O ) :   0.8772 B( 18-C , 19-C ) :   0.9442
B( 18-C , 24-H ) :   0.9421 B( 18-C , 25-H ) :   0.8891 B( 19-C , 20-O ) :   0.8414
B( 19-C , 26-H ) :   0.9327 B( 19-C , 27-H ) :   0.9382 B( 23-O , 28-H ) :   0.7823

FINAL SINGLE POINT ENERGY      -652.863222267223

DIPOLE MOMENT
-------------
                                X             Y             Z
Electronic contribution:     -2.74038      -3.19904      -1.48837
Nuclear contribution   :      3.75429       3.88134       1.69808
                        -----------------------------------------
Total Dipole Moment    :      1.01392       0.68230       0.20971
                        -----------------------------------------
Magnitude (a.u.)       :      1.23998
Magnitude (Debye)      :      3.15177

Rotational constants in cm-1:     0.045055     0.017384     0.017271
Rotational constants in MHz :  1350.718329   521.156733   517.762117

                             ****ORCA TERMINATED NORMALLY****
TOTAL RUN TIME: 0 days 1 hours 13 minutes 59 seconds 916 msec
