                         Program Version 4.2.0 -  RELEASE  -
|  1> # Test redundant internal optimization
|  2> #
|  3> ! RKS B3LYP  Opt TightSCF SmallPrint
|  4>
|  5> %basis
|  6>         Basis "6-31G"
|  7> end
|  8>
|  9> %geom
| 10> Constraints
| 11> { D 4  0  15  12  240.0   C } # D for Dihedral angle
| 12> { D 0  15  12  16  90.0   C } # D for Dihedral angle
| 13> { D 0  4  3  2   C } # D for Dihedral angle
| 14> { D 4  3  2  1   C } # D for Dihedral angle
| 15> { D 3  2  1  0   C } # D for Dihedral angle
| 16> { D 2  1  0  4   C } # D for Dihedral angle
| 17> { D 1  0  4  3   C } # D for Dihedral angle
| 18> { D 16  20  19  18   C } # D for Dihedral angle
| 19> { D 20  19  18  17   C } # D for Dihedral angle
| 20> { D 19  18  17  16   C } # D for Dihedral angle
| 21> { D 18  17  16  20   C } # D for Dihedral angle
| 22> { D 17  16  20  19   C } # D for Dihedral angle
| 23> { D 15  12  16  20   C } # D for Dihedral angle
| 24> end
| 25> end
| 26>
| 27>
| 28> #%pal
| 29> #nprocs 8
| 30> #end
| 31>
| 32> * xyz 0 1
| 33> C  -21.048   26.222   46.251
| 34> C  -20.361   27.558   45.944
| 35> C  -20.329   28.222   47.341
| 36> C  -20.110   27.022   48.296
| 37> O  -20.473   25.807   47.535
| 38> H  -20.833   25.428   45.533
| 39> H  -19.344   27.382   45.576
| 40> H  -20.898   28.157   45.201
| 41> H  -19.543   28.978   47.434
| 42> H  -21.289   28.710   47.548
| 43> H  -20.733   27.082   49.195
| 44> H  -19.064   26.913   48.597
| 45> C  -23.430   25.483   45.442
| 46> H  -24.364   25.996   45.183
| 47> H  -22.884   25.274   44.513
| 48> O  -22.586   26.394   46.375
| 49> C  -23.787   24.120   46.097
| 50> C  -24.698   24.309   47.315
| 51> C  -26.076   24.524   46.645
| 52> C  -26.012   23.599   45.404
| 53> O  -24.582   23.301   45.175
| 54> H  -22.867   23.569   46.301
| 55> H  -24.703   23.399   47.926
| 56> O  -24.273   25.501   48.216
| 57> H  -26.913   24.278   47.307
| 58> H  -26.188   25.572   46.342
| 59> H  -26.429   24.070   44.508
| 60> H  -26.518   22.644   45.569
| 61> H  -24.261   26.423   47.624
| 62> *
| 63>
| 64>                          ****END OF INPUT****
 Total Charge           Charge          ....    0
 Multiplicity           Mult            ....    1
 Number of Electrons    NEL             ....  102
FINAL SINGLE POINT ENERGY      -652.830797721788
FINAL SINGLE POINT ENERGY      -652.855565096364
FINAL SINGLE POINT ENERGY      -652.861717934627
FINAL SINGLE POINT ENERGY      -652.864116352162
FINAL SINGLE POINT ENERGY      -652.865514881411
FINAL SINGLE POINT ENERGY      -652.866435093291
FINAL SINGLE POINT ENERGY      -652.866890359528
FINAL SINGLE POINT ENERGY      -652.866990903707
FINAL SINGLE POINT ENERGY      -652.867006459100
FINAL SINGLE POINT ENERGY      -652.867009801190
                    ***********************HURRAY********************

CARTESIAN COORDINATES (ANGSTROEM)
---------------------------------
  C    -21.085108   26.162019   46.210935
  C    -20.411393   27.504832   45.934746
  C    -20.487133   28.190776   47.319345
  C    -20.307183   27.013175   48.301197
  O    -20.599272   25.785339   47.509369
  H    -20.838374   25.353762   45.517732
  H    -19.369849   27.331674   45.639484
  H    -20.914274   28.068383   45.145816
  H    -19.721442   28.961171   47.449261
  H    -21.469144   28.656361   47.447130
  H    -20.991273   27.046645   49.152338
  H    -19.280467   26.910886   48.663204
  C    -23.350396   25.497281   45.370548
  H    -24.223953   26.098715   45.107660
  H    -22.804267   25.258640   44.450200
  O    -22.534355   26.348920   46.248786
  C    -23.750266   24.203016   46.089942
  C    -24.641616   24.404552   47.327227
  C    -26.040509   24.613492   46.677118
  C    -25.999518   23.680052   45.449536
  O    -24.558803   23.377521   45.194484
  H    -22.851187   23.624399   46.325636
  H    -24.644554   23.476721   47.910928
  O    -24.265361   25.479907   48.209743
  H    -26.850199   24.368639   47.369685
  H    -26.145738   25.666815   46.396653
  H    -26.428186   24.128308   44.547695
  H    -26.489716   22.719325   45.632175
  H    -23.542467   26.005675   47.794426

 Multiplicity           Mult            ....    1
 Number of Electrons    NEL             ....  102
 Basis Dimension        Dim             ....  149

ORBITAL ENERGIES
----------------

  NO   OCC          E(Eh)            E(eV)
   0   2.0000     -19.163545      -521.4666
   1   2.0000     -19.150299      -521.1061
   2   2.0000     -19.139272      -520.8061
   3   2.0000     -19.109904      -520.0069
   4   2.0000     -10.292360      -280.0693
   5   2.0000     -10.240208      -278.6502
   6   2.0000     -10.231863      -278.4231
   7   2.0000     -10.231863      -278.4231
   8   2.0000     -10.227928      -278.3161
   9   2.0000     -10.225495      -278.2499
  10   2.0000     -10.193646      -277.3832
  11   2.0000     -10.192522      -277.3526
  12   2.0000     -10.177371      -276.9403
  13   2.0000      -1.065278       -28.9877
  14   2.0000      -1.024049       -27.8658
  15   2.0000      -1.007133       -27.4055
  16   2.0000      -0.989616       -26.9288
  17   2.0000      -0.795184       -21.6380
  18   2.0000      -0.771124       -20.9834
  19   2.0000      -0.765683       -20.8353
  20   2.0000      -0.737197       -20.0602
  21   2.0000      -0.679182       -18.4815
  22   2.0000      -0.607205       -16.5229
  23   2.0000      -0.602478       -16.3942
  24   2.0000      -0.594250       -16.1704
  25   2.0000      -0.579241       -15.7619
  26   2.0000      -0.527609       -14.3570
  27   2.0000      -0.522631       -14.2215
  28   2.0000      -0.496291       -13.5048
  29   2.0000      -0.487503       -13.2656
  30   2.0000      -0.470395       -12.8001
  31   2.0000      -0.455836       -12.4039
  32   2.0000      -0.451324       -12.2812
  33   2.0000      -0.435098       -11.8396
  34   2.0000      -0.425187       -11.5699
  35   2.0000      -0.411448       -11.1961
  36   2.0000      -0.408540       -11.1170
  37   2.0000      -0.384652       -10.4669
  38   2.0000      -0.381712       -10.3869
  39   2.0000      -0.365905        -9.9568
  40   2.0000      -0.364162        -9.9094
  41   2.0000      -0.361046        -9.8245
  42   2.0000      -0.347166        -9.4469
  43   2.0000      -0.340281        -9.2595
  44   2.0000      -0.329269        -8.9599
  45   2.0000      -0.320211        -8.7134
  46   2.0000      -0.290526        -7.9056
  47   2.0000      -0.277784        -7.5589
  48   2.0000      -0.264767        -7.2047
  49   2.0000      -0.243065        -6.6141
  50   2.0000      -0.238858        -6.4996
  51   0.0000       0.056570         1.5394
  52   0.0000       0.081510         2.2180
  53   0.0000       0.091914         2.5011
  54   0.0000       0.098049         2.6681
  55   0.0000       0.103810         2.8248

MULLIKEN ATOMIC CHARGES
-----------------------
   0 C :    0.284682
   1 C :   -0.251360
   2 C :   -0.304589
   3 C :   -0.010775
   4 O :   -0.502486
   5 H :    0.152173
   6 H :    0.148667
   7 H :    0.151414
   8 H :    0.146993
   9 H :    0.165029
  10 H :    0.162515
  11 H :    0.147854
  12 C :   -0.047339
  13 H :    0.161567
  14 H :    0.155512
  15 O :   -0.540921
  16 C :    0.050262
  17 C :    0.124940
  18 C :   -0.301677
  19 C :   -0.021970
  20 O :   -0.521167
  21 H :    0.163698
  22 H :    0.146598
  23 O :   -0.642666
  24 H :    0.151977
  25 H :    0.146994
  26 H :    0.140079
  27 H :    0.150305
  28 H :    0.393688
Sum of atomic charges:    0.0000000

LOEWDIN ATOMIC CHARGES
----------------------
   0 C :    0.174679
   1 C :   -0.219053
   2 C :   -0.216961
   3 C :   -0.027638
   4 O :   -0.313547
   5 H :    0.104617
   6 H :    0.115674
   7 H :    0.121020
   8 H :    0.117009
   9 H :    0.120230
  10 H :    0.112695
  11 H :    0.105963
  12 C :   -0.046566
  13 H :    0.115187
  14 H :    0.109352
  15 O :   -0.338216
  16 C :    0.005978
  17 C :    0.043795
  18 C :   -0.236632
  19 C :   -0.032720
  20 O :   -0.325685
  21 H :    0.115573
  22 H :    0.104286
  23 O :   -0.435668
  24 H :    0.121544
  25 H :    0.111876
  26 H :    0.100947
  27 H :    0.106354
  28 H :    0.285909

  Mayer bond orders larger than 0.100000
B(  0-C ,  1-C ) :   0.9444 B(  0-C ,  4-O ) :   0.9405 B(  0-C ,  5-H ) :   0.9179
B(  0-C , 15-O ) :   0.7973 B(  1-C ,  2-C ) :   0.9544 B(  1-C ,  6-H ) :   0.9357
B(  1-C ,  7-H ) :   0.9375 B(  2-C ,  3-C ) :   0.9533 B(  2-C ,  8-H ) :   0.9446
B(  2-C ,  9-H ) :   0.9434 B(  3-C ,  4-O ) :   0.8275 B(  3-C , 10-H ) :   0.9330
B(  3-C , 11-H ) :   0.9398 B( 12-C , 13-H ) :   0.9361 B( 12-C , 14-H ) :   0.9264
B( 12-C , 15-O ) :   0.8058 B( 12-C , 16-C ) :   0.8840 B( 16-C , 17-C ) :   0.9152
B( 16-C , 20-O ) :   0.8529 B( 16-C , 21-H ) :   0.9282 B( 17-C , 18-C ) :   0.9037
B( 17-C , 22-H ) :   0.9294 B( 17-C , 23-O ) :   0.9337 B( 18-C , 19-C ) :   0.9403
B( 18-C , 24-H ) :   0.9444 B( 18-C , 25-H ) :   0.9428 B( 19-C , 20-O ) :   0.8302
B( 19-C , 26-H ) :   0.9348 B( 19-C , 27-H ) :   0.9382 B( 23-O , 28-H ) :   0.7222

FINAL SINGLE POINT ENERGY      -652.867010639273

DIPOLE MOMENT
-------------
                                X             Y             Z
Electronic contribution:      0.19426      -3.51994       0.40263
Nuclear contribution   :      0.28561       4.44244      -1.17381
                        -----------------------------------------
Total Dipole Moment    :      0.47987       0.92250      -0.77117
                        -----------------------------------------
Magnitude (a.u.)       :      1.29460
Magnitude (Debye)      :      3.29062

Rotational constants in cm-1:     0.061850     0.013696     0.012647
Rotational constants in MHz :  1854.208307   410.588010   379.144765

                             ****ORCA TERMINATED NORMALLY****
TOTAL RUN TIME: 0 days 0 hours 47 minutes 53 seconds 638 msec
