                         Program Version 4.2.0 -  RELEASE  -
|  1> # Test redundant internal optimization
|  2> #
|  3> ! RKS B3LYP  Opt TightSCF SmallPrint
|  4>
|  5> %basis
|  6>         Basis "6-31G"
|  7> end
|  8>
|  9> %geom
| 10> Constraints
| 11> { D 4  0  15  12  0.0   C } # D for Dihedral angle
| 12> { D 0  15  12  16  210.0   C } # D for Dihedral angle
| 13> { D 0  4  3  2   C } # D for Dihedral angle
| 14> { D 4  3  2  1   C } # D for Dihedral angle
| 15> { D 3  2  1  0   C } # D for Dihedral angle
| 16> { D 2  1  0  4   C } # D for Dihedral angle
| 17> { D 1  0  4  3   C } # D for Dihedral angle
| 18> { D 16  20  19  18   C } # D for Dihedral angle
| 19> { D 20  19  18  17   C } # D for Dihedral angle
| 20> { D 19  18  17  16   C } # D for Dihedral angle
| 21> { D 18  17  16  20   C } # D for Dihedral angle
| 22> { D 17  16  20  19   C } # D for Dihedral angle
| 23> { D 15  12  16  20   C } # D for Dihedral angle
| 24> end
| 25> end
| 26>
| 27>
| 28> #%pal
| 29> #nprocs 8
| 30> #end
| 31>
| 32> * xyz 0 1
| 33> C  -21.048   26.222   46.251
| 34> C  -20.361   27.558   45.944
| 35> C  -20.329   28.222   47.341
| 36> C  -20.110   27.022   48.296
| 37> O  -20.473   25.807   47.535
| 38> H  -20.833   25.428   45.533
| 39> H  -19.344   27.382   45.576
| 40> H  -20.898   28.157   45.201
| 41> H  -19.543   28.978   47.434
| 42> H  -21.289   28.710   47.548
| 43> H  -20.733   27.082   49.195
| 44> H  -19.064   26.913   48.597
| 45> C  -23.172   26.101   47.783
| 46> H  -22.547   25.353   48.287
| 47> H  -23.176   27.012   48.395
| 48> O  -22.586   26.394   46.375
| 49> C  -24.628   25.562   47.728
| 50> C  -25.546   26.517   46.955
| 51> C  -25.198   26.169   45.488
| 52> C  -24.927   24.644   45.544
| 53> O  -24.684   24.311   46.964
| 54> H  -24.964   25.334   48.741
| 55> H  -26.595   26.285   47.169
| 56> O  -25.296   28.012   47.295
| 57> H  -26.000   26.425   44.789
| 58> H  -24.296   26.710   45.177
| 59> H  -24.054   24.351   44.951
| 60> H  -25.790   24.055   45.218
| 61> H  -24.251   28.267   47.088
| 62> *
| 63>
| 64>                          ****END OF INPUT****
 Total Charge           Charge          ....    0
 Multiplicity           Mult            ....    1
 Number of Electrons    NEL             ....  102
FINAL SINGLE POINT ENERGY      -652.833132291370
FINAL SINGLE POINT ENERGY      -652.855611220449
FINAL SINGLE POINT ENERGY      -652.860166313544
FINAL SINGLE POINT ENERGY      -652.861465570386
FINAL SINGLE POINT ENERGY      -652.861593352603
FINAL SINGLE POINT ENERGY      -652.861613887706
                    ***********************HURRAY********************

CARTESIAN COORDINATES (ANGSTROEM)
---------------------------------
  C    -21.068290   26.206938   46.370945
  C    -20.437688   27.549858   46.002158
  C    -20.292501   28.223858   47.387344
  C    -19.968125   27.038186   48.321915
  O    -20.386629   25.815082   47.577981
  H    -20.910801   25.403425   45.649232
  H    -19.456640   27.374930   45.545423
  H    -21.056915   28.119221   45.305528
  H    -19.510254   28.988763   47.403359
  H    -21.235530   28.701084   47.674313
  H    -20.508013   27.071213   49.271667
  H    -18.898186   26.928414   48.517907
  C    -23.130193   26.104665   47.821992
  H    -22.540183   25.360266   48.362988
  H    -23.159784   27.030902   48.413459
  O    -22.518422   26.354943   46.519953
  C    -24.556010   25.587096   47.654529
  C    -25.518482   26.533502   46.915867
  C    -25.243166   26.174417   45.423749
  C    -24.965648   24.657281   45.489056
  O    -24.648860   24.342486   46.905818
  H    -24.924750   25.366156   48.664028
  H    -26.550467   26.311727   47.195289
  O    -25.335636   27.936199   47.233889
  H    -26.091126   26.422264   44.778056
  H    -24.357455   26.717321   45.086422
  H    -24.119213   24.356557   44.865113
  H    -25.841648   24.058121   45.221009
  H    -24.504383   28.248127   46.819009

 Multiplicity           Mult            ....    1
 Number of Electrons    NEL             ....  102
 Basis Dimension        Dim             ....  149

ORBITAL ENERGIES
----------------

  NO   OCC          E(Eh)            E(eV)
   0   2.0000     -19.156719      -521.2808
   1   2.0000     -19.145048      -520.9632
   2   2.0000     -19.137137      -520.7480
   3   2.0000     -19.128968      -520.5257
   4   2.0000     -10.285752      -279.8895
   5   2.0000     -10.237890      -278.5871
   6   2.0000     -10.232409      -278.4380
   7   2.0000     -10.225750      -278.2568
   8   2.0000     -10.225111      -278.2394
   9   2.0000     -10.217939      -278.0443
  10   2.0000     -10.197932      -277.4998
  11   2.0000     -10.192984      -277.3652
  12   2.0000     -10.175697      -276.8948
  13   2.0000      -1.060947       -28.8698
  14   2.0000      -1.024034       -27.8654
  15   2.0000      -1.006092       -27.3772
  16   2.0000      -0.994312       -27.0566
  17   2.0000      -0.797471       -21.7003
  18   2.0000      -0.771596       -20.9962
  19   2.0000      -0.763150       -20.7664
  20   2.0000      -0.735860       -20.0238
  21   2.0000      -0.674403       -18.3514
  22   2.0000      -0.610474       -16.6118
  23   2.0000      -0.599681       -16.3181
  24   2.0000      -0.597375       -16.2554
  25   2.0000      -0.560912       -15.2632
  26   2.0000      -0.527374       -14.3506
  27   2.0000      -0.513373       -13.9696
  28   2.0000      -0.498958       -13.5773
  29   2.0000      -0.489468       -13.3191
  30   2.0000      -0.469578       -12.7779
  31   2.0000      -0.459080       -12.4922
  32   2.0000      -0.443369       -12.0647
  33   2.0000      -0.426834       -11.6147
  34   2.0000      -0.423714       -11.5299
  35   2.0000      -0.416823       -11.3423
  36   2.0000      -0.398682       -10.8487
  37   2.0000      -0.393470       -10.7069
  38   2.0000      -0.379110       -10.3161
  39   2.0000      -0.373347       -10.1593
  40   2.0000      -0.366945        -9.9851
  41   2.0000      -0.357631        -9.7316
  42   2.0000      -0.348995        -9.4966
  43   2.0000      -0.334414        -9.0999
  44   2.0000      -0.321610        -8.7514
  45   2.0000      -0.308506        -8.3949
  46   2.0000      -0.302471        -8.2306
  47   2.0000      -0.271519        -7.3884
  48   2.0000      -0.261778        -7.1233
  49   2.0000      -0.254329        -6.9206
  50   2.0000      -0.233678        -6.3587
  51   0.0000       0.055158         1.5009
  52   0.0000       0.083960         2.2847
  53   0.0000       0.091763         2.4970
  54   0.0000       0.098705         2.6859
  55   0.0000       0.103900         2.8272

MULLIKEN ATOMIC CHARGES
-----------------------
   0 C :    0.308137
   1 C :   -0.257354
   2 C :   -0.310148
   3 C :   -0.016384
   4 O :   -0.507407
   5 H :    0.162539
   6 H :    0.147791
   7 H :    0.153607
   8 H :    0.151457
   9 H :    0.152395
  10 H :    0.149607
  11 H :    0.154478
  12 C :   -0.022690
  13 H :    0.178994
  14 H :    0.125784
  15 O :   -0.559727
  16 C :    0.092489
  17 C :    0.086133
  18 C :   -0.310325
  19 C :   -0.003043
  20 O :   -0.519266
  21 H :    0.146407
  22 H :    0.157936
  23 O :   -0.608966
  24 H :    0.141388
  25 H :    0.162620
  26 H :    0.142754
  27 H :    0.140053
  28 H :    0.360741
Sum of atomic charges:   -0.0000000

LOEWDIN ATOMIC CHARGES
----------------------
   0 C :    0.184872
   1 C :   -0.221181
   2 C :   -0.219364
   3 C :   -0.031633
   4 O :   -0.312244
   5 H :    0.108957
   6 H :    0.115566
   7 H :    0.121801
   8 H :    0.119331
   9 H :    0.112708
  10 H :    0.105563
  11 H :    0.109387
  12 C :   -0.051064
  13 H :    0.122337
  14 H :    0.092180
  15 O :   -0.354539
  16 C :    0.018821
  17 C :    0.036924
  18 C :   -0.243327
  19 C :   -0.024945
  20 O :   -0.321520
  21 H :    0.113173
  22 H :    0.114582
  23 O :   -0.413771
  24 H :    0.113612
  25 H :    0.120798
  26 H :    0.103299
  27 H :    0.099908
  28 H :    0.279770

  Mayer bond orders larger than 0.100000
B(  0-C ,  1-C ) :   0.9322 B(  0-C ,  4-O ) :   0.9189 B(  0-C ,  5-H ) :   0.9297
B(  0-C , 15-O ) :   0.8259 B(  1-C ,  2-C ) :   0.9516 B(  1-C ,  6-H ) :   0.9343
B(  1-C ,  7-H ) :   0.9372 B(  2-C ,  3-C ) :   0.9531 B(  2-C ,  8-H ) :   0.9443
B(  2-C ,  9-H ) :   0.9455 B(  3-C ,  4-O ) :   0.8267 B(  3-C , 10-H ) :   0.9331
B(  3-C , 11-H ) :   0.9400 B( 12-C , 13-H ) :   0.9104 B( 12-C , 14-H ) :   0.9052
B( 12-C , 15-O ) :   0.8210 B( 12-C , 16-C ) :   0.9110 B( 16-C , 17-C ) :   0.8859
B( 16-C , 20-O ) :   0.8809 B( 16-C , 21-H ) :   0.9282 B( 17-C , 18-C ) :   0.9345
B( 17-C , 22-H ) :   0.9373 B( 17-C , 23-O ) :   0.8982 B( 18-C , 19-C ) :   0.9462
B( 18-C , 24-H ) :   0.9413 B( 18-C , 25-H ) :   0.9267 B( 19-C , 20-O ) :   0.8402
B( 19-C , 26-H ) :   0.9330 B( 19-C , 27-H ) :   0.9374 B( 23-O , 28-H ) :   0.7932

FINAL SINGLE POINT ENERGY      -652.861614588611

DIPOLE MOMENT
-------------
                                X             Y             Z
Electronic contribution:     -2.15762      -3.55601       1.12361
Nuclear contribution   :      3.09304       4.48020      -1.51751
                        -----------------------------------------
Total Dipole Moment    :      0.93542       0.92420      -0.39389
                        -----------------------------------------
Magnitude (a.u.)       :      1.37270
Magnitude (Debye)      :      3.48912

Rotational constants in cm-1:     0.049020     0.015662     0.014663
Rotational constants in MHz :  1469.573569   469.532355   439.585232

                             ****ORCA TERMINATED NORMALLY****
TOTAL RUN TIME: 0 days 0 hours 15 minutes 6 seconds 164 msec
