                         Program Version 4.2.0 -  RELEASE  -
|  1> # Test redundant internal optimization
|  2> #
|  3> ! RKS B3LYP  Opt TightSCF SmallPrint
|  4>
|  5> %basis
|  6>         Basis "6-31G"
|  7> end
|  8>
|  9> %geom
| 10> Constraints
| 11> { D 4  0  15  12  15.0   C } # D for Dihedral angle
| 12> { D 0  15  12  16  255.0   C } # D for Dihedral angle
| 13> { D 0  4  3  2   C } # D for Dihedral angle
| 14> { D 4  3  2  1   C } # D for Dihedral angle
| 15> { D 3  2  1  0   C } # D for Dihedral angle
| 16> { D 2  1  0  4   C } # D for Dihedral angle
| 17> { D 1  0  4  3   C } # D for Dihedral angle
| 18> { D 16  20  19  18   C } # D for Dihedral angle
| 19> { D 20  19  18  17   C } # D for Dihedral angle
| 20> { D 19  18  17  16   C } # D for Dihedral angle
| 21> { D 18  17  16  20   C } # D for Dihedral angle
| 22> { D 17  16  20  19   C } # D for Dihedral angle
| 23> { D 15  12  16  20   C } # D for Dihedral angle
| 24> end
| 25> end
| 26>
| 27>
| 28> #%pal
| 29> #nprocs 8
| 30> #end
| 31>
| 32> * xyz 0 1
| 33> C  -21.048   26.222   46.251
| 34> C  -20.361   27.558   45.944
| 35> C  -20.329   28.222   47.341
| 36> C  -20.110   27.022   48.296
| 37> O  -20.473   25.807   47.535
| 38> H  -20.833   25.428   45.533
| 39> H  -19.344   27.382   45.576
| 40> H  -20.898   28.157   45.201
| 41> H  -19.543   28.978   47.434
| 42> H  -21.289   28.710   47.548
| 43> H  -20.733   27.082   49.195
| 44> H  -19.064   26.913   48.597
| 45> C  -23.128   26.462   47.829
| 46> H  -22.295   26.652   48.517
| 47> H  -23.850   27.282   47.932
| 48> O  -22.586   26.394   46.375
| 49> C  -23.836   25.151   48.268
| 50> C  -22.851   23.977   48.319
| 51> C  -22.136   24.225   49.668
| 52> C  -23.261   24.807   50.560
| 53> O  -24.326   25.270   49.646
| 54> H  -24.707   24.984   47.632
| 55> O  -23.628   22.632   48.348
| 56> H  -22.161   23.957   47.469
| 57> H  -21.698   23.315   50.090
| 58> H  -21.329   24.956   49.537
| 59> H  -22.920   25.650   51.169
| 60> H  -23.705   24.053   51.217
| 61> H  -24.326   22.628   49.193
| 62> *
| 63>
| 64>                          ****END OF INPUT****
 Total Charge           Charge          ....    0
 Multiplicity           Mult            ....    1
 Number of Electrons    NEL             ....  102
FINAL SINGLE POINT ENERGY      -652.829336564749
FINAL SINGLE POINT ENERGY      -652.852513679464
FINAL SINGLE POINT ENERGY      -652.858232536499
FINAL SINGLE POINT ENERGY      -652.860782427946
FINAL SINGLE POINT ENERGY      -652.861074394513
FINAL SINGLE POINT ENERGY      -652.861124792165
FINAL SINGLE POINT ENERGY      -652.861130283094
                    ***********************HURRAY********************

CARTESIAN COORDINATES (ANGSTROEM)
---------------------------------
  C    -21.077612   26.264260   46.372290
  C    -20.458939   27.588425   45.914128
  C    -20.233539   28.317644   47.263176
  C    -19.865293   27.165670   48.226021
  O    -20.329651   25.915261   47.559814
  H    -20.933667   25.443941   45.666200
  H    -19.505611   27.386454   45.412587
  H    -21.116140   28.130747   45.231664
  H    -19.445974   29.075131   47.208056
  H    -21.156484   28.814114   47.581642
  H    -20.344327   27.246336   49.206047
  H    -18.785664   27.058218   48.364646
  C    -23.123561   26.440117   47.873430
  H    -22.395009   26.731090   48.634472
  H    -23.897555   27.210520   47.819066
  O    -22.516010   26.360340   46.550958
  C    -23.775758   25.106678   48.260587
  C    -22.845633   23.890217   48.384766
  C    -22.227433   24.109757   49.789098
  C    -23.392290   24.738492   50.593552
  O    -24.367696   25.247568   49.597950
  H    -24.593245   24.888395   47.567201
  O    -23.615684   22.655853   48.313340
  H    -22.100713   23.819190   47.595553
  H    -21.881743   23.163771   50.212536
  H    -21.372528   24.786685   49.704685
  H    -23.072565   25.567281   51.233849
  H    -23.919529   24.005817   51.213021
  H    -24.418146   22.748030   48.869666

 Multiplicity           Mult            ....    1
 Number of Electrons    NEL             ....  102
 Basis Dimension        Dim             ....  149

ORBITAL ENERGIES
----------------

  NO   OCC          E(Eh)            E(eV)
   0   2.0000     -19.160602      -521.3865
   1   2.0000     -19.142313      -520.8888
   2   2.0000     -19.140247      -520.8326
   3   2.0000     -19.128636      -520.5167
   4   2.0000     -10.285626      -279.8861
   5   2.0000     -10.241489      -278.6851
   6   2.0000     -10.230111      -278.3755
   7   2.0000     -10.228716      -278.3375
   8   2.0000     -10.227087      -278.2932
   9   2.0000     -10.225550      -278.2514
  10   2.0000     -10.198549      -277.5166
  11   2.0000     -10.191358      -277.3209
  12   2.0000     -10.177964      -276.9565
  13   2.0000      -1.061144       -28.8752
  14   2.0000      -1.030385       -28.0382
  15   2.0000      -0.999932       -27.2095
  16   2.0000      -0.996437       -27.1144
  17   2.0000      -0.796888       -21.6844
  18   2.0000      -0.774265       -21.0688
  19   2.0000      -0.765685       -20.8354
  20   2.0000      -0.736460       -20.0401
  21   2.0000      -0.675108       -18.3706
  22   2.0000      -0.611317       -16.6348
  23   2.0000      -0.598353       -16.2820
  24   2.0000      -0.595192       -16.1960
  25   2.0000      -0.574150       -15.6234
  26   2.0000      -0.526074       -14.3152
  27   2.0000      -0.511218       -13.9110
  28   2.0000      -0.507986       -13.8230
  29   2.0000      -0.483977       -13.1697
  30   2.0000      -0.475536       -12.9400
  31   2.0000      -0.457824       -12.4580
  32   2.0000      -0.452959       -12.3256
  33   2.0000      -0.432550       -11.7703
  34   2.0000      -0.422544       -11.4980
  35   2.0000      -0.412636       -11.2284
  36   2.0000      -0.408602       -11.1186
  37   2.0000      -0.386222       -10.5096
  38   2.0000      -0.380998       -10.3675
  39   2.0000      -0.368216       -10.0197
  40   2.0000      -0.360007        -9.7963
  41   2.0000      -0.356290        -9.6951
  42   2.0000      -0.355007        -9.6602
  43   2.0000      -0.335319        -9.1245
  44   2.0000      -0.323133        -8.7929
  45   2.0000      -0.314387        -8.5549
  46   2.0000      -0.300265        -8.1706
  47   2.0000      -0.274617        -7.4727
  48   2.0000      -0.267384        -7.2759
  49   2.0000      -0.257437        -7.0052
  50   2.0000      -0.234726        -6.3872
  51   0.0000       0.060653         1.6505
  52   0.0000       0.070228         1.9110
  53   0.0000       0.088586         2.4105
  54   0.0000       0.094987         2.5847
  55   0.0000       0.108658         2.9567

MULLIKEN ATOMIC CHARGES
-----------------------
   0 C :    0.303240
   1 C :   -0.257397
   2 C :   -0.311584
   3 C :   -0.024518
   4 O :   -0.516874
   5 H :    0.163957
   6 H :    0.147582
   7 H :    0.163382
   8 H :    0.151708
   9 H :    0.156993
  10 H :    0.144467
  11 H :    0.156158
  12 C :   -0.016271
  13 H :    0.133808
  14 H :    0.161099
  15 O :   -0.537350
  16 C :    0.061980
  17 C :    0.089698
  18 C :   -0.306573
  19 C :   -0.031042
  20 O :   -0.529971
  21 H :    0.163029
  22 O :   -0.605171
  23 H :    0.174622
  24 H :    0.156018
  25 H :    0.164558
  26 H :    0.139303
  27 H :    0.144286
  28 H :    0.360861
Sum of atomic charges:   -0.0000000

LOEWDIN ATOMIC CHARGES
----------------------
   0 C :    0.180341
   1 C :   -0.221601
   2 C :   -0.220844
   3 C :   -0.036162
   4 O :   -0.322259
   5 H :    0.108633
   6 H :    0.115661
   7 H :    0.127028
   8 H :    0.119780
   9 H :    0.115020
  10 H :    0.099683
  11 H :    0.109265
  12 C :   -0.038657
  13 H :    0.099247
  14 H :    0.116101
  15 O :   -0.337107
  16 C :    0.010881
  17 C :    0.039620
  18 C :   -0.244162
  19 C :   -0.039778
  20 O :   -0.334048
  21 H :    0.116189
  22 O :   -0.417317
  23 H :    0.126453
  24 H :    0.124369
  25 H :    0.122331
  26 H :    0.099964
  27 H :    0.101202
  28 H :    0.280168

  Mayer bond orders larger than 0.100000
B(  0-C ,  1-C ) :   0.9255 B(  0-C ,  4-O ) :   0.8940 B(  0-C ,  5-H ) :   0.9303
B(  0-C , 15-O ) :   0.8566 B(  1-C ,  2-C ) :   0.9522 B(  1-C ,  6-H ) :   0.9345
B(  1-C ,  7-H ) :   0.9363 B(  2-C ,  3-C ) :   0.9527 B(  2-C ,  8-H ) :   0.9442
B(  2-C ,  9-H ) :   0.9444 B(  3-C ,  4-O ) :   0.8263 B(  3-C , 10-H ) :   0.9279
B(  3-C , 11-H ) :   0.9390 B( 12-C , 13-H ) :   0.9177 B( 12-C , 14-H ) :   0.9322
B( 12-C , 15-O ) :   0.8295 B( 12-C , 16-C ) :   0.8873 B( 16-C , 17-C ) :   0.9151
B( 16-C , 20-O ) :   0.8341 B( 16-C , 21-H ) :   0.9271 B( 17-C , 18-C ) :   0.9152
B( 17-C , 22-O ) :   0.8842 B( 17-C , 23-H ) :   0.9242 B( 18-C , 19-C ) :   0.9416
B( 18-C , 24-H ) :   0.9390 B( 18-C , 25-H ) :   0.9231 B( 19-C , 20-O ) :   0.8428
B( 19-C , 26-H ) :   0.9363 B( 19-C , 27-H ) :   0.9383 B( 22-O , 28-H ) :   0.7964

FINAL SINGLE POINT ENERGY      -652.861131582460

DIPOLE MOMENT
-------------
                                X             Y             Z
Electronic contribution:     -4.21824      -4.04149      -1.87927
Nuclear contribution   :      5.24523       5.26712       2.34005
                        -----------------------------------------
Total Dipole Moment    :      1.02700       1.22563       0.46078
                        -----------------------------------------
Magnitude (a.u.)       :      1.66409
Magnitude (Debye)      :      4.22979

Rotational constants in cm-1:     0.050627     0.015753     0.015285
Rotational constants in MHz :  1517.753895   472.259283   458.239309

                             ****ORCA TERMINATED NORMALLY****
TOTAL RUN TIME: 0 days 0 hours 17 minutes 30 seconds 465 msec
