                         Program Version 4.2.0 -  RELEASE  -
|  1> # Test redundant internal optimization
|  2> #
|  3> ! RKS B3LYP  Opt TightSCF SmallPrint
|  4>
|  5> %basis
|  6>         Basis "6-31G"
|  7> end
|  8>
|  9> %geom
| 10> Constraints
| 11> { D 4  0  15  12  105.0   C } # D for Dihedral angle
| 12> { D 0  15  12  16  270.0   C } # D for Dihedral angle
| 13> { D 0  4  3  2   C } # D for Dihedral angle
| 14> { D 4  3  2  1   C } # D for Dihedral angle
| 15> { D 3  2  1  0   C } # D for Dihedral angle
| 16> { D 2  1  0  4   C } # D for Dihedral angle
| 17> { D 1  0  4  3   C } # D for Dihedral angle
| 18> { D 16  20  19  18   C } # D for Dihedral angle
| 19> { D 20  19  18  17   C } # D for Dihedral angle
| 20> { D 19  18  17  16   C } # D for Dihedral angle
| 21> { D 18  17  16  20   C } # D for Dihedral angle
| 22> { D 17  16  20  19   C } # D for Dihedral angle
| 23> { D 15  12  16  20   C } # D for Dihedral angle
| 24> end
| 25> end
| 26>
| 27>
| 28> #%pal
| 29> #nprocs 8
| 30> #end
| 31>
| 32> * xyz 0 1
| 33> C  -21.048   26.222   46.251
| 34> C  -20.361   27.558   45.944
| 35> C  -20.329   28.222   47.341
| 36> C  -20.110   27.022   48.296
| 37> O  -20.473   25.807   47.535
| 38> H  -20.833   25.428   45.533
| 39> H  -19.344   27.382   45.576
| 40> H  -20.898   28.157   45.201
| 41> H  -19.543   28.978   47.434
| 42> H  -21.289   28.710   47.548
| 43> H  -20.733   27.082   49.195
| 44> H  -19.064   26.913   48.597
| 45> C  -23.085   27.864   46.420
| 46> H  -22.401   28.497   45.840
| 47> H  -24.085   27.944   45.976
| 48> O  -22.586   26.394   46.375
| 49> C  -23.163   28.428   47.866
| 50> C  -23.766   29.836   47.883
| 51> C  -25.278   29.532   47.755
| 52> C  -25.440   28.215   48.554
| 53> O  -24.087   27.630   48.678
| 54> H  -22.179   28.352   48.334
| 55> H  -23.551   30.328   48.838
| 56> O  -23.236   30.741   46.737
| 57> H  -25.908   30.337   48.146
| 58> H  -25.544   29.380   46.702
| 59> H  -26.096   27.496   48.050
| 60> H  -25.812   28.384   49.568
| 61> H  -23.441   30.270   45.769
| 62> *
| 63>
| 64>                          ****END OF INPUT****
 Total Charge           Charge          ....    0
 Multiplicity           Mult            ....    1
 Number of Electrons    NEL             ....  102
FINAL SINGLE POINT ENERGY      -652.779755417478
FINAL SINGLE POINT ENERGY      -652.819418251120
FINAL SINGLE POINT ENERGY      -652.839377226875
FINAL SINGLE POINT ENERGY      -652.843984492894
FINAL SINGLE POINT ENERGY      -652.844813194437
FINAL SINGLE POINT ENERGY      -652.845020005845
FINAL SINGLE POINT ENERGY      -652.845045228474
FINAL SINGLE POINT ENERGY      -652.845043670059
FINAL SINGLE POINT ENERGY      -652.845042279794
                    ***********************HURRAY********************

CARTESIAN COORDINATES (ANGSTROEM)
---------------------------------
  C    -21.117521   26.326898   46.351368
  C    -20.143059   27.429910   45.919949
  C    -19.848081   28.148297   47.267695
  C    -19.870551   26.978136   48.283302
  O    -20.579955   25.864268   47.609252
  H    -21.079637   25.450290   45.701458
  H    -19.238930   26.947688   45.535603
  H    -20.531368   28.095394   45.143997
  H    -18.878712   28.656990   47.257207
  H    -20.607025   28.903178   47.486156
  H    -20.394730   27.223572   49.211994
  H    -18.866853   26.617288   48.524951
  C    -23.115571   27.934206   46.429916
  H    -22.510982   28.645598   45.851600
  H    -24.081078   27.815211   45.927601
  O    -22.538992   26.603103   46.396160
  C    -23.323020   28.489074   47.844975
  C    -23.988373   29.874994   47.864596
  C    -25.497637   29.509064   47.725104
  C    -25.599100   28.186082   48.517954
  O    -24.217676   27.658354   48.645478
  H    -22.375243   28.489965   48.385057
  H    -23.802801   30.352335   48.830056
  O    -23.484223   30.818115   46.884934
  H    -26.152037   30.292385   48.116854
  H    -25.743575   29.360906   46.664654
  H    -26.223239   27.437281   48.020195
  H    -25.977357   28.340967   49.532771
  H    -23.895672   30.659447   46.011164

 Multiplicity           Mult            ....    1
 Number of Electrons    NEL             ....  102
 Basis Dimension        Dim             ....  149

ORBITAL ENERGIES
----------------

  NO   OCC          E(Eh)            E(eV)
   0   2.0000     -19.155413      -521.2453
   1   2.0000     -19.136991      -520.7440
   2   2.0000     -19.136416      -520.7284
   3   2.0000     -19.132914      -520.6331
   4   2.0000     -10.273953      -279.5685
   5   2.0000     -10.249351      -278.8990
   6   2.0000     -10.232321      -278.4356
   7   2.0000     -10.231187      -278.4048
   8   2.0000     -10.231126      -278.4031
   9   2.0000     -10.222979      -278.1814
  10   2.0000     -10.199912      -277.5537
  11   2.0000     -10.191716      -277.3307
  12   2.0000     -10.190089      -277.2864
  13   2.0000      -1.044314       -28.4172
  14   2.0000      -1.036409       -28.2021
  15   2.0000      -1.016827       -27.6693
  16   2.0000      -0.989956       -26.9381
  17   2.0000      -0.786453       -21.4005
  18   2.0000      -0.785999       -21.3881
  19   2.0000      -0.770785       -20.9741
  20   2.0000      -0.731679       -19.9100
  21   2.0000      -0.685580       -18.6556
  22   2.0000      -0.614865       -16.7313
  23   2.0000      -0.606730       -16.5100
  24   2.0000      -0.596865       -16.2415
  25   2.0000      -0.565848       -15.3975
  26   2.0000      -0.525653       -14.3037
  27   2.0000      -0.511660       -13.9230
  28   2.0000      -0.504640       -13.7320
  29   2.0000      -0.497088       -13.5265
  30   2.0000      -0.464735       -12.6461
  31   2.0000      -0.450407       -12.2562
  32   2.0000      -0.447483       -12.1766
  33   2.0000      -0.432850       -11.7785
  34   2.0000      -0.430983       -11.7276
  35   2.0000      -0.426863       -11.6155
  36   2.0000      -0.412278       -11.2187
  37   2.0000      -0.401301       -10.9200
  38   2.0000      -0.380832       -10.3630
  39   2.0000      -0.376902       -10.2560
  40   2.0000      -0.359331        -9.7779
  41   2.0000      -0.355682        -9.6786
  42   2.0000      -0.348632        -9.4867
  43   2.0000      -0.331501        -9.0206
  44   2.0000      -0.320041        -8.7088
  45   2.0000      -0.308313        -8.3896
  46   2.0000      -0.288316        -7.8455
  47   2.0000      -0.274927        -7.4811
  48   2.0000      -0.268424        -7.3042
  49   2.0000      -0.250499        -6.8164
  50   2.0000      -0.233590        -6.3563
  51   0.0000       0.046342         1.2610
  52   0.0000       0.074818         2.0359
  53   0.0000       0.079367         2.1597
  54   0.0000       0.086682         2.3587
  55   0.0000       0.099133         2.6976

MULLIKEN ATOMIC CHARGES
-----------------------
   0 C :    0.309265
   1 C :   -0.299394
   2 C :   -0.318959
   3 C :   -0.008488
   4 O :   -0.492804
   5 H :    0.161728
   6 H :    0.158952
   7 H :    0.146239
   8 H :    0.145471
   9 H :    0.157556
  10 H :    0.151728
  11 H :    0.144297
  12 C :   -0.021729
  13 H :    0.127284
  14 H :    0.145233
  15 O :   -0.509160
  16 C :    0.092844
  17 C :    0.079320
  18 C :   -0.328106
  19 C :   -0.014164
  20 O :   -0.501430
  21 H :    0.156601
  22 H :    0.167139
  23 O :   -0.603043
  24 H :    0.159903
  25 H :    0.133683
  26 H :    0.150878
  27 H :    0.151600
  28 H :    0.357557
Sum of atomic charges:   -0.0000000

LOEWDIN ATOMIC CHARGES
----------------------
   0 C :    0.176338
   1 C :   -0.231163
   2 C :   -0.224751
   3 C :   -0.033446
   4 O :   -0.314300
   5 H :    0.108917
   6 H :    0.124271
   7 H :    0.114868
   8 H :    0.116042
   9 H :    0.111437
  10 H :    0.105009
  11 H :    0.104112
  12 C :   -0.049311
  13 H :    0.095021
  14 H :    0.108001
  15 O :   -0.309704
  16 C :    0.008928
  17 C :    0.032231
  18 C :   -0.241828
  19 C :   -0.030467
  20 O :   -0.309854
  21 H :    0.112843
  22 H :    0.118692
  23 O :   -0.410810
  24 H :    0.123302
  25 H :    0.103795
  26 H :    0.106070
  27 H :    0.106999
  28 H :    0.278760

  Mayer bond orders larger than 0.100000
B(  0-C ,  1-C ) :   0.9251 B(  0-C ,  4-O ) :   0.9090 B(  0-C ,  5-H ) :   0.9358
B(  0-C , 15-O ) :   0.8947 B(  1-C ,  2-C ) :   0.9521 B(  1-C ,  6-H ) :   0.9343
B(  1-C ,  7-H ) :   0.9311 B(  2-C ,  3-C ) :   0.9462 B(  2-C ,  8-H ) :   0.9456
B(  2-C ,  9-H ) :   0.9335 B(  3-C ,  4-O ) :   0.8498 B(  3-C , 10-H ) :   0.9292
B(  3-C , 11-H ) :   0.9382 B( 12-C , 13-H ) :   0.8973 B( 12-C , 14-H ) :   0.9374
B( 12-C , 15-O ) :   0.8720 B( 12-C , 16-C ) :   0.8815 B( 16-C , 17-C ) :   0.8690
B( 16-C , 20-O ) :   0.8650 B( 16-C , 21-H ) :   0.9213 B( 17-C , 18-C ) :   0.9267
B( 17-C , 22-H ) :   0.9318 B( 17-C , 23-O ) :   0.8927 B( 18-C , 19-C ) :   0.9396
B( 18-C , 24-H ) :   0.9406 B( 18-C , 25-H ) :   0.9404 B( 19-C , 20-O ) :   0.8519
B( 19-C , 26-H ) :   0.9301 B( 19-C , 27-H ) :   0.9368 B( 23-O , 28-H ) :   0.7984

FINAL SINGLE POINT ENERGY      -652.845042189521

DIPOLE MOMENT
-------------
                                X             Y             Z
Electronic contribution:     -0.97188      -3.67087       0.68218
Nuclear contribution   :      0.73409       5.02896      -1.42406
                        -----------------------------------------
Total Dipole Moment    :     -0.23779       1.35809      -0.74188
                        -----------------------------------------
Magnitude (a.u.)       :      1.56567
Magnitude (Debye)      :      3.97962

Rotational constants in cm-1:     0.046984     0.015860     0.014404
Rotational constants in MHz :  1408.532458   475.463870   431.832450

                             ****ORCA TERMINATED NORMALLY****
TOTAL RUN TIME: 0 days 0 hours 29 minutes 34 seconds 503 msec
