                         Program Version 4.2.0 -  RELEASE  -
|  1> # Test redundant internal optimization
|  2> #
|  3> ! RKS B3LYP  Opt TightSCF SmallPrint
|  4>
|  5> %basis
|  6>         Basis "6-31G"
|  7> end
|  8>
|  9> %geom
| 10> Constraints
| 11> { D 4  0  15  12  255.0   C } # D for Dihedral angle
| 12> { D 0  15  12  16  210.0   C } # D for Dihedral angle
| 13> { D 0  4  3  2   C } # D for Dihedral angle
| 14> { D 4  3  2  1   C } # D for Dihedral angle
| 15> { D 3  2  1  0   C } # D for Dihedral angle
| 16> { D 2  1  0  4   C } # D for Dihedral angle
| 17> { D 1  0  4  3   C } # D for Dihedral angle
| 18> { D 16  20  19  18   C } # D for Dihedral angle
| 19> { D 20  19  18  17   C } # D for Dihedral angle
| 20> { D 19  18  17  16   C } # D for Dihedral angle
| 21> { D 18  17  16  20   C } # D for Dihedral angle
| 22> { D 17  16  20  19   C } # D for Dihedral angle
| 23> { D 15  12  16  20   C } # D for Dihedral angle
| 24> end
| 25> end
| 26>
| 27>
| 28> #%pal
| 29> #nprocs 8
| 30> #end
| 31>
| 32> * xyz 0 1
| 33> C  -21.048   26.222   46.251
| 34> C  -20.361   27.558   45.944
| 35> C  -20.329   28.222   47.341
| 36> C  -20.110   27.022   48.296
| 37> O  -20.473   25.807   47.535
| 38> H  -20.833   25.428   45.533
| 39> H  -19.344   27.382   45.576
| 40> H  -20.898   28.157   45.201
| 41> H  -19.543   28.978   47.434
| 42> H  -21.289   28.710   47.548
| 43> H  -20.733   27.082   49.195
| 44> H  -19.064   26.913   48.597
| 45> C  -23.431   25.260   45.734
| 46> H  -22.879   24.831   44.888
| 47> H  -23.617   24.460   46.462
| 48> O  -22.586   26.394   46.375
| 49> C  -24.809   25.757   45.215
| 50> C  -24.643   26.759   44.067
| 51> C  -24.359   25.820   42.871
| 52> C  -25.232   24.579   43.182
| 53> O  -25.563   24.648   44.621
| 54> H  -25.396   26.128   46.058
| 55> H  -25.577   27.311   43.912
| 56> O  -23.503   27.785   44.313
| 57> H  -24.607   26.275   41.906
| 58> H  -23.296   25.550   42.849
| 59> H  -24.711   23.638   42.978
| 60> H  -26.178   24.586   42.632
| 61> H  -22.558   27.254   44.471
| 62> *
| 63>
| 64>                          ****END OF INPUT****
 Total Charge           Charge          ....    0
 Multiplicity           Mult            ....    1
 Number of Electrons    NEL             ....  102
FINAL SINGLE POINT ENERGY      -652.826149416431
FINAL SINGLE POINT ENERGY      -652.851717787257
FINAL SINGLE POINT ENERGY      -652.857984472566
FINAL SINGLE POINT ENERGY      -652.860646958328
FINAL SINGLE POINT ENERGY      -652.862266849587
FINAL SINGLE POINT ENERGY      -652.863760158402
FINAL SINGLE POINT ENERGY      -652.864822793600
FINAL SINGLE POINT ENERGY      -652.865405403795
FINAL SINGLE POINT ENERGY      -652.865680811940
FINAL SINGLE POINT ENERGY      -652.865720198408
FINAL SINGLE POINT ENERGY      -652.865730572243
                    ***********************HURRAY********************

CARTESIAN COORDINATES (ANGSTROEM)
---------------------------------
  C    -21.050249   26.127143   46.228102
  C    -20.403826   27.468901   45.887582
  C    -20.433655   28.194244   47.254224
  C    -20.201353   27.046089   48.259680
  O    -20.508349   25.794356   47.518075
  H    -20.814103   25.300708   45.553494
  H    -19.370535   27.289403   45.568188
  H    -20.922477   28.000698   45.087359
  H    -19.671609   28.975575   47.330238
  H    -21.413558   28.655681   47.411239
  H    -20.852239   27.100452   49.135447
  H    -19.159990   26.967332   48.584505
  C    -23.326325   25.213068   45.748871
  H    -22.778493   24.711723   44.939964
  H    -23.541747   24.478252   46.530483
  O    -22.500325   26.298650   46.300129
  C    -24.641368   25.798319   45.219515
  C    -24.512251   26.793153   44.054953
  C    -24.314931   25.837053   42.845161
  C    -25.196753   24.624056   43.208227
  O    -25.450009   24.709663   44.675700
  H    -25.206338   26.222374   46.054968
  H    -25.464452   27.327128   43.946690
  O    -23.454104   27.766452   44.192040
  H    -24.607703   26.304771   41.901402
  H    -23.254459   25.573291   42.774092
  H    -24.721922   23.662839   42.988116
  H    -26.175635   24.652399   42.721395
  H    -23.021243   27.622227   45.065160

 Multiplicity           Mult            ....    1
 Number of Electrons    NEL             ....  102
 Basis Dimension        Dim             ....  149

ORBITAL ENERGIES
----------------

  NO   OCC          E(Eh)            E(eV)
   0   2.0000     -19.163568      -521.4672
   1   2.0000     -19.146556      -521.0043
   2   2.0000     -19.143301      -520.9157
   3   2.0000     -19.122133      -520.3397
   4   2.0000     -10.290668      -280.0233
   5   2.0000     -10.239224      -278.6234
   6   2.0000     -10.237209      -278.5686
   7   2.0000     -10.235006      -278.5087
   8   2.0000     -10.230173      -278.3772
   9   2.0000     -10.229782      -278.3665
  10   2.0000     -10.192412      -277.3496
  11   2.0000     -10.191341      -277.3205
  12   2.0000     -10.183699      -277.1125
  13   2.0000      -1.063070       -28.9276
  14   2.0000      -1.029380       -28.0109
  15   2.0000      -1.008263       -27.4362
  16   2.0000      -0.998057       -27.1585
  17   2.0000      -0.794850       -21.6290
  18   2.0000      -0.775756       -21.1094
  19   2.0000      -0.770286       -20.9606
  20   2.0000      -0.735673       -20.0187
  21   2.0000      -0.680467       -18.5164
  22   2.0000      -0.605962       -16.4891
  23   2.0000      -0.602666       -16.3994
  24   2.0000      -0.595176       -16.1955
  25   2.0000      -0.585214       -15.9245
  26   2.0000      -0.526146       -14.3172
  27   2.0000      -0.524283       -14.2665
  28   2.0000      -0.500407       -13.6168
  29   2.0000      -0.490229       -13.3398
  30   2.0000      -0.472752       -12.8642
  31   2.0000      -0.461607       -12.5610
  32   2.0000      -0.443250       -12.0615
  33   2.0000      -0.434650       -11.8274
  34   2.0000      -0.430344       -11.7102
  35   2.0000      -0.424762       -11.5584
  36   2.0000      -0.405808       -11.0426
  37   2.0000      -0.389633       -10.6025
  38   2.0000      -0.381704       -10.3867
  39   2.0000      -0.373485       -10.1630
  40   2.0000      -0.362569        -9.8660
  41   2.0000      -0.357769        -9.7354
  42   2.0000      -0.350534        -9.5385
  43   2.0000      -0.343137        -9.3372
  44   2.0000      -0.328318        -8.9340
  45   2.0000      -0.317817        -8.6482
  46   2.0000      -0.296601        -8.0709
  47   2.0000      -0.276554        -7.5254
  48   2.0000      -0.265293        -7.2190
  49   2.0000      -0.252545        -6.8721
  50   2.0000      -0.245517        -6.6809
  51   0.0000       0.052938         1.4405
  52   0.0000       0.074009         2.0139
  53   0.0000       0.091021         2.4768
  54   0.0000       0.095103         2.5879
  55   0.0000       0.107980         2.9383

MULLIKEN ATOMIC CHARGES
-----------------------
   0 C :    0.294699
   1 C :   -0.286209
   2 C :   -0.301301
   3 C :   -0.002228
   4 O :   -0.501234
   5 H :    0.149829
   6 H :    0.153329
   7 H :    0.166567
   8 H :    0.147487
   9 H :    0.162394
  10 H :    0.154295
  11 H :    0.145442
  12 C :   -0.000537
  13 H :    0.131387
  14 H :    0.172280
  15 O :   -0.551738
  16 C :    0.033937
  17 C :    0.123696
  18 C :   -0.299219
  19 C :   -0.018548
  20 O :   -0.518255
  21 H :    0.164207
  22 H :    0.144750
  23 O :   -0.651826
  24 H :    0.150625
  25 H :    0.146338
  26 H :    0.141312
  27 H :    0.151600
  28 H :    0.396921
Sum of atomic charges:    0.0000000

LOEWDIN ATOMIC CHARGES
----------------------
   0 C :    0.177392
   1 C :   -0.224324
   2 C :   -0.216358
   3 C :   -0.026099
   4 O :   -0.315515
   5 H :    0.102986
   6 H :    0.118799
   7 H :    0.126306
   8 H :    0.117035
   9 H :    0.118352
  10 H :    0.109461
  11 H :    0.104542
  12 C :   -0.038914
  13 H :    0.096466
  14 H :    0.117799
  15 O :   -0.341987
  16 C :    0.014337
  17 C :    0.042060
  18 C :   -0.232625
  19 C :   -0.031282
  20 O :   -0.320717
  21 H :    0.116540
  22 H :    0.102543
  23 O :   -0.440620
  24 H :    0.121035
  25 H :    0.111523
  26 H :    0.101893
  27 H :    0.107069
  28 H :    0.282303

  Mayer bond orders larger than 0.100000
B(  0-C ,  1-C ) :   0.9451 B(  0-C ,  4-O ) :   0.9400 B(  0-C ,  5-H ) :   0.9187
B(  0-C , 15-O ) :   0.8089 B(  1-C ,  2-C ) :   0.9530 B(  1-C ,  6-H ) :   0.9377
B(  1-C ,  7-H ) :   0.9252 B(  2-C ,  3-C ) :   0.9527 B(  2-C ,  8-H ) :   0.9449
B(  2-C ,  9-H ) :   0.9447 B(  3-C ,  4-O ) :   0.8324 B(  3-C , 10-H ) :   0.9348
B(  3-C , 11-H ) :   0.9398 B( 12-C , 13-H ) :   0.9196 B( 12-C , 14-H ) :   0.9237
B( 12-C , 15-O ) :   0.7924 B( 12-C , 16-C ) :   0.9091 B( 16-C , 17-C ) :   0.9162
B( 16-C , 20-O ) :   0.8577 B( 16-C , 21-H ) :   0.9275 B( 17-C , 18-C ) :   0.9086
B( 17-C , 22-H ) :   0.9258 B( 17-C , 23-O ) :   0.9209 B( 18-C , 19-C ) :   0.9391
B( 18-C , 24-H ) :   0.9453 B( 18-C , 25-H ) :   0.9425 B( 19-C , 20-O ) :   0.8328
B( 19-C , 26-H ) :   0.9348 B( 19-C , 27-H ) :   0.9378 B( 23-O , 28-H ) :   0.7095

FINAL SINGLE POINT ENERGY      -652.865733130178

DIPOLE MOMENT
-------------
                                X             Y             Z
Electronic contribution:     -2.44779      -2.01074       1.91576
Nuclear contribution   :      3.10467       2.16559      -2.16942
                        -----------------------------------------
Total Dipole Moment    :      0.65689       0.15485      -0.25366
                        -----------------------------------------
Magnitude (a.u.)       :      0.72099
Magnitude (Debye)      :      1.83260

Rotational constants in cm-1:     0.061779     0.013490     0.012261
Rotational constants in MHz :  1852.090897   404.406370   367.587527

                             ****ORCA TERMINATED NORMALLY****
TOTAL RUN TIME: 0 days 0 hours 48 minutes 27 seconds 247 msec
