                         Program Version 4.2.0 -  RELEASE  -
|  1> # Test redundant internal optimization
|  2> #
|  3> ! RKS B3LYP  Opt TightSCF SmallPrint
|  4>
|  5> %basis
|  6>         Basis "6-31G"
|  7> end
|  8>
|  9> %geom
| 10> Constraints
| 11> { D 4  0  15  12  345.0   C } # D for Dihedral angle
| 12> { D 0  15  12  16  195.0   C } # D for Dihedral angle
| 13> { D 0  4  3  2   C } # D for Dihedral angle
| 14> { D 4  3  2  1   C } # D for Dihedral angle
| 15> { D 3  2  1  0   C } # D for Dihedral angle
| 16> { D 2  1  0  4   C } # D for Dihedral angle
| 17> { D 1  0  4  3   C } # D for Dihedral angle
| 18> { D 16  20  19  18   C } # D for Dihedral angle
| 19> { D 20  19  18  17   C } # D for Dihedral angle
| 20> { D 19  18  17  16   C } # D for Dihedral angle
| 21> { D 18  17  16  20   C } # D for Dihedral angle
| 22> { D 17  16  20  19   C } # D for Dihedral angle
| 23> { D 15  12  16  20   C } # D for Dihedral angle
| 24> end
| 25> end
| 26>
| 27>
| 28> #%pal
| 29> #nprocs 8
| 30> #end
| 31>
| 32> * xyz 0 1
| 33> C  -21.048   26.222   46.251
| 34> C  -20.361   27.558   45.944
| 35> C  -20.329   28.222   47.341
| 36> C  -20.110   27.022   48.296
| 37> O  -20.473   25.807   47.535
| 38> H  -20.833   25.428   45.533
| 39> H  -19.344   27.382   45.576
| 40> H  -20.898   28.157   45.201
| 41> H  -19.543   28.978   47.434
| 42> H  -21.289   28.710   47.548
| 43> H  -20.733   27.082   49.195
| 44> H  -19.064   26.913   48.597
| 45> C  -23.221   25.764   47.645
| 46> H  -22.801   24.763   47.801
| 47> H  -22.994   26.373   48.530
| 48> O  -22.586   26.394   46.375
| 49> C  -24.766   25.635   47.544
| 50> C  -25.369   25.119   48.855
| 51> C  -25.378   26.401   49.721
| 52> C  -25.680   27.519   48.692
| 53> O  -25.379   26.955   47.359
| 54> H  -25.018   25.039   46.664
| 55> O  -26.816   24.610   48.612
| 56> H  -24.788   24.307   49.305
| 57> H  -26.120   26.364   50.526
| 58> H  -24.394   26.553   50.180
| 59> H  -25.064   28.412   48.850
| 60> H  -26.734   27.811   48.689
| 61> H  -27.416   25.409   48.162
| 62> *
| 63>
| 64>                          ****END OF INPUT****
 Total Charge           Charge          ....    0
 Multiplicity           Mult            ....    1
 Number of Electrons    NEL             ....  102
FINAL SINGLE POINT ENERGY      -652.832224595865
FINAL SINGLE POINT ENERGY      -652.855197348624
FINAL SINGLE POINT ENERGY      -652.859262971582
FINAL SINGLE POINT ENERGY      -652.859978022540
FINAL SINGLE POINT ENERGY      -652.860076157515
FINAL SINGLE POINT ENERGY      -652.860089787296
                    ***********************HURRAY********************

CARTESIAN COORDINATES (ANGSTROEM)
---------------------------------
  C    -21.145014   26.186437   46.329374
  C    -20.556124   27.546028   45.954404
  C    -20.359582   28.196592   47.341261
  C    -19.971214   27.003834   48.242347
  O    -20.399493   25.783052   47.501912
  H    -20.998242   25.391807   45.592435
  H    -19.596956   27.397566   45.444711
  H    -21.224585   28.114079   45.304135
  H    -19.592612   28.977293   47.335524
  H    -21.301268   28.644767   47.673105
  H    -20.466931   27.015915   49.217278
  H    -18.891161   26.913249   48.390502
  C    -23.128998   25.759598   47.774921
  H    -22.746898   24.743803   47.940543
  H    -22.851103   26.369671   48.644818
  O    -22.574854   26.333139   46.560671
  C    -24.643456   25.711655   47.600498
  C    -25.394357   25.163539   48.822722
  C    -25.497506   26.424909   49.721029
  C    -25.677056   27.570651   48.693826
  O    -25.227696   27.039056   47.385947
  H    -24.870435   25.130999   46.701548
  O    -26.707031   24.667358   48.442563
  H    -24.897751   24.324266   49.311640
  H    -26.336812   26.335736   50.415805
  H    -24.578451   26.551003   50.304374
  H    -25.086037   28.457612   48.941774
  H    -26.723157   27.871202   48.579825
  H    -27.104220   25.284184   47.791508

 Multiplicity           Mult            ....    1
 Number of Electrons    NEL             ....  102
 Basis Dimension        Dim             ....  149

ORBITAL ENERGIES
----------------

  NO   OCC          E(Eh)            E(eV)
   0   2.0000     -19.149191      -521.0760
   1   2.0000     -19.138439      -520.7834
   2   2.0000     -19.137123      -520.7476
   3   2.0000     -19.136528      -520.7314
   4   2.0000     -10.277657      -279.6693
   5   2.0000     -10.241562      -278.6871
   6   2.0000     -10.232214      -278.4327
   7   2.0000     -10.231466      -278.4123
   8   2.0000     -10.229009      -278.3455
   9   2.0000     -10.228707      -278.3373
  10   2.0000     -10.189128      -277.2603
  11   2.0000     -10.188953      -277.2555
  12   2.0000     -10.184235      -277.1271
  13   2.0000      -1.054786       -28.7022
  14   2.0000      -1.034450       -28.1488
  15   2.0000      -1.004648       -27.3379
  16   2.0000      -0.990375       -26.9495
  17   2.0000      -0.791880       -21.5482
  18   2.0000      -0.781661       -21.2701
  19   2.0000      -0.767400       -20.8820
  20   2.0000      -0.732691       -19.9375
  21   2.0000      -0.671625       -18.2758
  22   2.0000      -0.604009       -16.4359
  23   2.0000      -0.602629       -16.3984
  24   2.0000      -0.592433       -16.1209
  25   2.0000      -0.576506       -15.6875
  26   2.0000      -0.527054       -14.3419
  27   2.0000      -0.506527       -13.7833
  28   2.0000      -0.496361       -13.5067
  29   2.0000      -0.492054       -13.3895
  30   2.0000      -0.475770       -12.9464
  31   2.0000      -0.459537       -12.5046
  32   2.0000      -0.452363       -12.3094
  33   2.0000      -0.439000       -11.9458
  34   2.0000      -0.415485       -11.3059
  35   2.0000      -0.412792       -11.2326
  36   2.0000      -0.402516       -10.9530
  37   2.0000      -0.392346       -10.6763
  38   2.0000      -0.372312       -10.1311
  39   2.0000      -0.369565       -10.0564
  40   2.0000      -0.360266        -9.8033
  41   2.0000      -0.357712        -9.7338
  42   2.0000      -0.349793        -9.5183
  43   2.0000      -0.340710        -9.2712
  44   2.0000      -0.324072        -8.8184
  45   2.0000      -0.307400        -8.3648
  46   2.0000      -0.301988        -8.2175
  47   2.0000      -0.270088        -7.3495
  48   2.0000      -0.262470        -7.1422
  49   2.0000      -0.251447        -6.8422
  50   2.0000      -0.240487        -6.5440
  51   0.0000       0.062184         1.6921
  52   0.0000       0.076779         2.0893
  53   0.0000       0.092777         2.5246
  54   0.0000       0.099705         2.7131
  55   0.0000       0.102585         2.7915

MULLIKEN ATOMIC CHARGES
-----------------------
   0 C :    0.296848
   1 C :   -0.256134
   2 C :   -0.306125
   3 C :   -0.016654
   4 O :   -0.514093
   5 H :    0.152699
   6 H :    0.142783
   7 H :    0.167049
   8 H :    0.145775
   9 H :    0.160784
  10 H :    0.141124
  11 H :    0.150827
  12 C :    0.018008
  13 H :    0.144452
  14 H :    0.120869
  15 O :   -0.529453
  16 C :    0.061561
  17 C :    0.075078
  18 C :   -0.292634
  19 C :   -0.027914
  20 O :   -0.510161
  21 H :    0.167764
  22 O :   -0.602206
  23 H :    0.152138
  24 H :    0.162912
  25 H :    0.140006
  26 H :    0.144088
  27 H :    0.144960
  28 H :    0.365651
Sum of atomic charges:   -0.0000000

LOEWDIN ATOMIC CHARGES
----------------------
   0 C :    0.180737
   1 C :   -0.217150
   2 C :   -0.218691
   3 C :   -0.032440
   4 O :   -0.323250
   5 H :    0.101694
   6 H :    0.112780
   7 H :    0.129245
   8 H :    0.116508
   9 H :    0.117785
  10 H :    0.100275
  11 H :    0.106700
  12 C :   -0.036318
  13 H :    0.105812
  14 H :    0.089438
  15 O :   -0.332096
  16 C :    0.017152
  17 C :    0.035506
  18 C :   -0.241438
  19 C :   -0.038546
  20 O :   -0.321145
  21 H :    0.120389
  22 O :   -0.414436
  23 H :    0.115372
  24 H :    0.126582
  25 H :    0.110810
  26 H :    0.102948
  27 H :    0.102081
  28 H :    0.283695

  Mayer bond orders larger than 0.100000
B(  0-C ,  1-C ) :   0.9393 B(  0-C ,  4-O ) :   0.9028 B(  0-C ,  5-H ) :   0.9256
B(  0-C , 15-O ) :   0.8464 B(  1-C ,  2-C ) :   0.9524 B(  1-C ,  6-H ) :   0.9365
B(  1-C ,  7-H ) :   0.9345 B(  2-C ,  3-C ) :   0.9545 B(  2-C ,  8-H ) :   0.9446
B(  2-C ,  9-H ) :   0.9445 B(  3-C ,  4-O ) :   0.8318 B(  3-C , 10-H ) :   0.9330
B(  3-C , 11-H ) :   0.9401 B( 12-C , 13-H ) :   0.9109 B( 12-C , 14-H ) :   0.9184
B( 12-C , 15-O ) :   0.8307 B( 12-C , 16-C ) :   0.9008 B( 16-C , 17-C ) :   0.9008
B( 16-C , 20-O ) :   0.8611 B( 16-C , 21-H ) :   0.9234 B( 17-C , 18-C ) :   0.9104
B( 17-C , 22-O ) :   0.8934 B( 17-C , 23-H ) :   0.9330 B( 18-C , 19-C ) :   0.9408
B( 18-C , 24-H ) :   0.9372 B( 18-C , 25-H ) :   0.9343 B( 19-C , 20-O ) :   0.8548
B( 19-C , 26-H ) :   0.9343 B( 19-C , 27-H ) :   0.9377 B( 22-O , 28-H ) :   0.7932

FINAL SINGLE POINT ENERGY      -652.860092412257

DIPOLE MOMENT
-------------
                                X             Y             Z
Electronic contribution:     -3.00610      -3.90035      -3.13399
Nuclear contribution   :      3.70955       4.75547       3.77960
                        -----------------------------------------
Total Dipole Moment    :      0.70345       0.85512       0.64561
                        -----------------------------------------
Magnitude (a.u.)       :      1.28174
Magnitude (Debye)      :      3.25794

Rotational constants in cm-1:     0.057884     0.012621     0.012339
Rotational constants in MHz :  1735.306519   378.363536   369.904568

                             ****ORCA TERMINATED NORMALLY****
TOTAL RUN TIME: 0 days 1 hours 17 minutes 57 seconds 479 msec
