                         Program Version 4.2.0 -  RELEASE  -
|  1> # Test redundant internal optimization
|  2> #
|  3> ! RKS B3LYP  Opt TightSCF SmallPrint
|  4>
|  5> %basis
|  6>         Basis "6-31G"
|  7> end
|  8>
|  9> %geom
| 10> Constraints
| 11> { D 4  0  15  12  240.0   C } # D for Dihedral angle
| 12> { D 0  15  12  16  30.0   C } # D for Dihedral angle
| 13> { D 0  4  3  2   C } # D for Dihedral angle
| 14> { D 4  3  2  1   C } # D for Dihedral angle
| 15> { D 3  2  1  0   C } # D for Dihedral angle
| 16> { D 2  1  0  4   C } # D for Dihedral angle
| 17> { D 1  0  4  3   C } # D for Dihedral angle
| 18> { D 16  20  19  18   C } # D for Dihedral angle
| 19> { D 20  19  18  17   C } # D for Dihedral angle
| 20> { D 19  18  17  16   C } # D for Dihedral angle
| 21> { D 18  17  16  20   C } # D for Dihedral angle
| 22> { D 17  16  20  19   C } # D for Dihedral angle
| 23> { D 15  12  16  20   C } # D for Dihedral angle
| 24> end
| 25> end
| 26>
| 27>
| 28> #%pal
| 29> #nprocs 8
| 30> #end
| 31>
| 32> * xyz 0 1
| 33> C  -21.048   26.222   46.251
| 34> C  -20.361   27.558   45.944
| 35> C  -20.329   28.222   47.341
| 36> C  -20.110   27.022   48.296
| 37> O  -20.473   25.807   47.535
| 38> H  -20.833   25.428   45.533
| 39> H  -19.344   27.382   45.576
| 40> H  -20.898   28.157   45.201
| 41> H  -19.543   28.978   47.434
| 42> H  -21.289   28.710   47.548
| 43> H  -20.733   27.082   49.195
| 44> H  -19.064   26.913   48.597
| 45> C  -23.430   25.483   45.442
| 46> H  -24.394   25.269   45.920
| 47> H  -23.625   25.987   44.487
| 48> O  -22.586   26.394   46.375
| 49> C  -22.730   24.131   45.130
| 50> C  -23.535   23.309   44.117
| 51> C  -23.153   23.992   42.783
| 52> C  -21.672   24.392   43.004
| 53> O  -21.443   24.362   44.465
| 54> H  -22.518   23.613   46.067
| 55> O  -23.059   21.830   44.133
| 56> H  -24.613   23.326   44.310
| 57> H  -23.282   23.334   41.917
| 58> H  -23.773   24.881   42.624
| 59> H  -21.448   25.396   42.627
| 60> H  -20.975   23.679   42.554
| 61> H  -21.981   21.789   43.942
| 62> *
| 63>
| 64>                          ****END OF INPUT****
 Total Charge           Charge          ....    0
 Multiplicity           Mult            ....    1
 Number of Electrons    NEL             ....  102
FINAL SINGLE POINT ENERGY      -652.820946998248
FINAL SINGLE POINT ENERGY      -652.842167143698
FINAL SINGLE POINT ENERGY      -652.854991474216
FINAL SINGLE POINT ENERGY      -652.857232636852
FINAL SINGLE POINT ENERGY      -652.857729275008
FINAL SINGLE POINT ENERGY      -652.857765768207
FINAL SINGLE POINT ENERGY      -652.857772223619
                    ***********************HURRAY********************

CARTESIAN COORDINATES (ANGSTROEM)
---------------------------------
  C    -20.813067   26.256932   46.238501
  C    -20.308161   27.687934   46.050273
  C    -20.499939   28.284421   47.466508
  C    -20.192523   27.082662   48.388044
  O    -20.307892   25.876026   47.535493
  H    -20.463840   25.521277   45.519769
  H    -19.246508   27.666473   45.776088
  H    -20.862748   28.225413   45.277475
  H    -19.842629   29.137513   47.659012
  H    -21.537655   28.607726   47.589426
  H    -20.892875   26.993943   49.223123
  H    -19.169099   27.097944   48.776396
  C    -23.129677   25.481967   45.447010
  H    -24.038952   25.330748   46.039275
  H    -23.403703   26.067795   44.555470
  O    -22.271107   26.301390   46.283507
  C    -22.613460   24.106617   45.009098
  C    -23.595234   23.346332   44.102038
  C    -23.261861   23.940867   42.706915
  C    -21.731827   24.177503   42.783149
  O    -21.373217   24.168937   44.224579
  H    -22.371454   23.516240   45.899495
  O    -23.352439   21.915416   44.151445
  H    -24.641538   23.471088   44.383174
  H    -23.545745   23.244065   41.914534
  H    -23.803589   24.880129   42.553922
  H    -21.427556   25.134026   42.347098
  H    -21.157425   23.378012   42.305659
  H    -22.386280   21.748604   44.141525

 Multiplicity           Mult            ....    1
 Number of Electrons    NEL             ....  102
 Basis Dimension        Dim             ....  149

ORBITAL ENERGIES
----------------

  NO   OCC          E(Eh)            E(eV)
   0   2.0000     -19.155645      -521.2516
   1   2.0000     -19.145154      -520.9661
   2   2.0000     -19.130425      -520.5653
   3   2.0000     -19.125168      -520.4223
   4   2.0000     -10.260265      -279.1960
   5   2.0000     -10.251130      -278.9474
   6   2.0000     -10.242069      -278.7009
   7   2.0000     -10.240698      -278.6635
   8   2.0000     -10.235307      -278.5169
   9   2.0000     -10.213400      -277.9207
  10   2.0000     -10.197519      -277.4886
  11   2.0000     -10.174834      -276.8713
  12   2.0000     -10.173763      -276.8422
  13   2.0000      -1.048152       -28.5217
  14   2.0000      -1.035422       -28.1753
  15   2.0000      -1.014615       -27.6091
  16   2.0000      -0.980869       -26.6908
  17   2.0000      -0.792974       -21.5779
  18   2.0000      -0.777470       -21.1560
  19   2.0000      -0.767705       -20.8903
  20   2.0000      -0.726445       -19.7676
  21   2.0000      -0.674618       -18.3573
  22   2.0000      -0.612765       -16.6742
  23   2.0000      -0.604742       -16.4559
  24   2.0000      -0.586625       -15.9629
  25   2.0000      -0.568442       -15.4681
  26   2.0000      -0.532753       -14.4969
  27   2.0000      -0.508401       -13.8343
  28   2.0000      -0.494613       -13.4591
  29   2.0000      -0.483250       -13.1499
  30   2.0000      -0.475122       -12.9287
  31   2.0000      -0.456102       -12.4112
  32   2.0000      -0.447605       -12.1800
  33   2.0000      -0.437872       -11.9151
  34   2.0000      -0.425547       -11.5797
  35   2.0000      -0.409334       -11.1385
  36   2.0000      -0.402007       -10.9392
  37   2.0000      -0.392065       -10.6686
  38   2.0000      -0.381875       -10.3913
  39   2.0000      -0.368608       -10.0303
  40   2.0000      -0.364265        -9.9122
  41   2.0000      -0.345858        -9.4113
  42   2.0000      -0.341083        -9.2813
  43   2.0000      -0.334436        -9.1005
  44   2.0000      -0.324332        -8.8255
  45   2.0000      -0.305638        -8.3168
  46   2.0000      -0.295464        -8.0400
  47   2.0000      -0.279085        -7.5943
  48   2.0000      -0.256327        -6.9750
  49   2.0000      -0.253358        -6.8942
  50   2.0000      -0.230843        -6.2816
  51   0.0000       0.057765         1.5719
  52   0.0000       0.080760         2.1976
  53   0.0000       0.086565         2.3556
  54   0.0000       0.096260         2.6194
  55   0.0000       0.104666         2.8481

MULLIKEN ATOMIC CHARGES
-----------------------
   0 C :    0.249696
   1 C :   -0.248034
   2 C :   -0.296395
   3 C :    0.000509
   4 O :   -0.505312
   5 H :    0.203984
   6 H :    0.138780
   7 H :    0.137423
   8 H :    0.133710
   9 H :    0.159429
  10 H :    0.145586
  11 H :    0.136045
  12 C :    0.022527
  13 H :    0.152121
  14 H :    0.122246
  15 O :   -0.540225
  16 C :    0.032412
  17 C :    0.081415
  18 C :   -0.295006
  19 C :   -0.029634
  20 O :   -0.525071
  21 H :    0.182075
  22 O :   -0.599096
  23 H :    0.157549
  24 H :    0.165884
  25 H :    0.147966
  26 H :    0.148504
  27 H :    0.153726
  28 H :    0.367187
Sum of atomic charges:   -0.0000000

LOEWDIN ATOMIC CHARGES
----------------------
   0 C :    0.164219
   1 C :   -0.218982
   2 C :   -0.216996
   3 C :   -0.028263
   4 O :   -0.318873
   5 H :    0.126263
   6 H :    0.109953
   7 H :    0.114022
   8 H :    0.110009
   9 H :    0.117799
  10 H :    0.104325
  11 H :    0.099057
  12 C :   -0.034408
  13 H :    0.115847
  14 H :    0.088910
  15 O :   -0.338711
  16 C :    0.000941
  17 C :    0.040614
  18 C :   -0.240286
  19 C :   -0.037684
  20 O :   -0.329491
  21 H :    0.124282
  22 O :   -0.411024
  23 H :    0.118342
  24 H :    0.128525
  25 H :    0.114697
  26 H :    0.105604
  27 H :    0.106215
  28 H :    0.285096

  Mayer bond orders larger than 0.100000
B(  0-C ,  1-C ) :   0.9412 B(  0-C ,  4-O ) :   0.9168 B(  0-C ,  5-H ) :   0.8840
B(  0-C , 15-O ) :   0.8172 B(  1-C ,  2-C ) :   0.9566 B(  1-C ,  6-H ) :   0.9394
B(  1-C ,  7-H ) :   0.9408 B(  2-C ,  3-C ) :   0.9552 B(  2-C ,  8-H ) :   0.9464
B(  2-C ,  9-H ) :   0.9440 B(  3-C ,  4-O ) :   0.8438 B(  3-C , 10-H ) :   0.9354
B(  3-C , 11-H ) :   0.9403 B( 12-C , 13-H ) :   0.9236 B( 12-C , 14-H ) :   0.9207
B( 12-C , 15-O ) :   0.8671 B( 12-C , 16-C ) :   0.8989 B( 16-C , 17-C ) :   0.8955
B( 16-C , 20-O ) :   0.8312 B( 16-C , 21-H ) :   0.9181 B( 17-C , 18-C ) :   0.9096
B( 17-C , 22-O ) :   0.8974 B( 17-C , 23-H ) :   0.9336 B( 18-C , 19-C ) :   0.9410
B( 18-C , 24-H ) :   0.9369 B( 18-C , 25-H ) :   0.9326 B( 19-C , 20-O ) :   0.8342
B( 19-C , 26-H ) :   0.9355 B( 19-C , 27-H ) :   0.9378 B( 22-O , 28-H ) :   0.7932

FINAL SINGLE POINT ENERGY      -652.857772821689

DIPOLE MOMENT
-------------
                                X             Y             Z
Electronic contribution:     -0.22277      -4.92189       1.38837
Nuclear contribution   :      0.08755       5.63410      -2.45159
                        -----------------------------------------
Total Dipole Moment    :     -0.13522       0.71220      -1.06322
                        -----------------------------------------
Magnitude (a.u.)       :      1.28684
Magnitude (Debye)      :      3.27089

Rotational constants in cm-1:     0.065734     0.012415     0.012004
Rotational constants in MHz :  1970.642809   372.191936   359.877121

                             ****ORCA TERMINATED NORMALLY****
TOTAL RUN TIME: 0 days 0 hours 28 minutes 50 seconds 118 msec
