                         Program Version 4.2.0 -  RELEASE  -
|  1> # Test redundant internal optimization
|  2> #
|  3> ! RKS B3LYP  Opt TightSCF SmallPrint
|  4>
|  5> %basis
|  6>         Basis "6-31G"
|  7> end
|  8>
|  9> %geom
| 10> Constraints
| 11> { D 4  0  15  12  30.0   C } # D for Dihedral angle
| 12> { D 0  15  12  16  195.0   C } # D for Dihedral angle
| 13> { D 0  4  3  2   C } # D for Dihedral angle
| 14> { D 4  3  2  1   C } # D for Dihedral angle
| 15> { D 3  2  1  0   C } # D for Dihedral angle
| 16> { D 2  1  0  4   C } # D for Dihedral angle
| 17> { D 1  0  4  3   C } # D for Dihedral angle
| 18> { D 16  20  19  18   C } # D for Dihedral angle
| 19> { D 20  19  18  17   C } # D for Dihedral angle
| 20> { D 19  18  17  16   C } # D for Dihedral angle
| 21> { D 18  17  16  20   C } # D for Dihedral angle
| 22> { D 17  16  20  19   C } # D for Dihedral angle
| 23> { D 15  12  16  20   C } # D for Dihedral angle
| 24> end
| 25> end
| 26>
| 27>
| 28> #%pal
| 29> #nprocs 8
| 30> #end
| 31>
| 32> * xyz 0 1
| 33> C  -21.048   26.222   46.251
| 34> C  -20.361   27.558   45.944
| 35> C  -20.329   28.222   47.341
| 36> C  -20.110   27.022   48.296
| 37> O  -20.473   25.807   47.535
| 38> H  -20.833   25.428   45.533
| 39> H  -19.344   27.382   45.576
| 40> H  -20.898   28.157   45.201
| 41> H  -19.543   28.978   47.434
| 42> H  -21.289   28.710   47.548
| 43> H  -20.733   27.082   49.195
| 44> H  -19.064   26.913   48.597
| 45> C  -23.091   26.824   47.779
| 46> H  -22.576   26.232   48.546
| 47> H  -22.871   27.884   47.959
| 48> O  -22.586   26.394   46.375
| 49> C  -24.622   26.623   47.954
| 50> C  -25.408   27.352   46.858
| 51> C  -25.261   26.375   45.666
| 52> C  -25.278   24.984   46.347
| 53> O  -24.978   25.212   47.777
| 54> H  -24.905   26.899   48.972
| 55> O  -26.898   27.489   47.272
| 56> H  -25.017   28.351   46.639
| 57> H  -26.058   26.487   44.924
| 58> H  -24.304   26.544   45.157
| 59> H  -24.531   24.302   45.927
| 60> H  -26.261   24.506   46.296
| 61> H  -27.311   26.499   47.496
| 62> *
| 63>
| 64>                          ****END OF INPUT****
 Total Charge           Charge          ....    0
 Multiplicity           Mult            ....    1
 Number of Electrons    NEL             ....  102
FINAL SINGLE POINT ENERGY      -652.829703064779
FINAL SINGLE POINT ENERGY      -652.853130195018
FINAL SINGLE POINT ENERGY      -652.858382573133
FINAL SINGLE POINT ENERGY      -652.860716043456
FINAL SINGLE POINT ENERGY      -652.860878137080
FINAL SINGLE POINT ENERGY      -652.860912472083
FINAL SINGLE POINT ENERGY      -652.860914302895
                    ***********************HURRAY********************

CARTESIAN COORDINATES (ANGSTROEM)
---------------------------------
  C    -21.144786   26.275044   46.427897
  C    -20.410111   27.545990   45.987999
  C    -20.163895   28.261111   47.343997
  C    -19.915301   27.081609   48.313160
  O    -20.459083   25.874697   47.632894
  H    -21.046599   25.448018   45.722955
  H    -19.461369   27.263159   45.518532
  H    -20.994002   28.140341   45.281476
  H    -19.309897   28.944663   47.307084
  H    -21.042295   28.844352   47.637063
  H    -20.415116   27.198053   49.278708
  H    -18.851584   26.891394   48.480500
  C    -23.146984   26.834022   47.849697
  H    -22.681753   26.244053   48.645429
  H    -22.975180   27.902551   48.045574
  O    -22.583893   26.430420   46.569783
  C    -24.651907   26.571612   47.863131
  C    -25.490505   27.299782   46.802712
  C    -25.345011   26.353714   45.580049
  C    -25.300608   24.949246   46.231261
  O    -24.968654   25.159507   47.660556
  H    -25.013212   26.834824   48.864947
  O    -26.872344   27.427877   47.243324
  H    -25.158263   28.319060   46.602975
  H    -26.185851   26.479994   44.891911
  H    -24.407997   26.566803   45.063826
  H    -24.534404   24.309628   45.786191
  H    -26.265386   24.431482   46.199056
  H    -27.185008   26.554994   47.562312

 Multiplicity           Mult            ....    1
 Number of Electrons    NEL             ....  102
 Basis Dimension        Dim             ....  149

ORBITAL ENERGIES
----------------

  NO   OCC          E(Eh)            E(eV)
   0   2.0000     -19.152899      -521.1769
   1   2.0000     -19.146330      -520.9981
   2   2.0000     -19.133659      -520.6533
   3   2.0000     -19.132030      -520.6090
   4   2.0000     -10.283985      -279.8414
   5   2.0000     -10.236501      -278.5494
   6   2.0000     -10.233420      -278.4655
   7   2.0000     -10.231264      -278.4068
   8   2.0000     -10.231123      -278.4030
   9   2.0000     -10.218636      -278.0632
  10   2.0000     -10.197800      -277.4963
  11   2.0000     -10.192302      -277.3466
  12   2.0000     -10.172646      -276.8118
  13   2.0000      -1.059332       -28.8259
  14   2.0000      -1.029508       -28.0143
  15   2.0000      -1.002608       -27.2823
  16   2.0000      -0.993955       -27.0469
  17   2.0000      -0.794834       -21.6285
  18   2.0000      -0.778272       -21.1779
  19   2.0000      -0.762025       -20.7358
  20   2.0000      -0.736055       -20.0291
  21   2.0000      -0.673767       -18.3341
  22   2.0000      -0.609441       -16.5837
  23   2.0000      -0.602578       -16.3970
  24   2.0000      -0.593481       -16.1494
  25   2.0000      -0.568282       -15.4637
  26   2.0000      -0.524216       -14.2647
  27   2.0000      -0.512758       -13.9528
  28   2.0000      -0.498935       -13.5767
  29   2.0000      -0.487008       -13.2522
  30   2.0000      -0.474186       -12.9033
  31   2.0000      -0.457668       -12.4538
  32   2.0000      -0.449524       -12.2322
  33   2.0000      -0.438390       -11.9292
  34   2.0000      -0.423651       -11.5281
  35   2.0000      -0.410021       -11.1572
  36   2.0000      -0.402184       -10.9440
  37   2.0000      -0.383706       -10.4412
  38   2.0000      -0.381384       -10.3780
  39   2.0000      -0.368242       -10.0204
  40   2.0000      -0.365988        -9.9590
  41   2.0000      -0.359573        -9.7845
  42   2.0000      -0.348899        -9.4940
  43   2.0000      -0.332463        -9.0468
  44   2.0000      -0.323379        -8.7996
  45   2.0000      -0.311029        -8.4635
  46   2.0000      -0.297532        -8.0962
  47   2.0000      -0.270129        -7.3506
  48   2.0000      -0.263189        -7.1617
  49   2.0000      -0.254043        -6.9129
  50   2.0000      -0.238871        -6.5000
  51   0.0000       0.066084         1.7982
  52   0.0000       0.077324         2.1041
  53   0.0000       0.089568         2.4373
  54   0.0000       0.101831         2.7710
  55   0.0000       0.108056         2.9404

MULLIKEN ATOMIC CHARGES
-----------------------
   0 C :    0.304488
   1 C :   -0.259685
   2 C :   -0.317344
   3 C :   -0.015096
   4 O :   -0.506671
   5 H :    0.163693
   6 H :    0.150071
   7 H :    0.154004
   8 H :    0.149957
   9 H :    0.153230
  10 H :    0.145455
  11 H :    0.153500
  12 C :    0.001559
  13 H :    0.169609
  14 H :    0.115511
  15 O :   -0.538085
  16 C :    0.068021
  17 C :    0.078396
  18 C :   -0.286501
  19 C :   -0.019384
  20 O :   -0.523982
  21 H :    0.151756
  22 O :   -0.605242
  23 H :    0.144969
  24 H :    0.146583
  25 H :    0.171606
  26 H :    0.153588
  27 H :    0.133494
  28 H :    0.362501
Sum of atomic charges:   -0.0000000

LOEWDIN ATOMIC CHARGES
----------------------
   0 C :    0.180863
   1 C :   -0.225298
   2 C :   -0.222587
   3 C :   -0.033147
   4 O :   -0.314816
   5 H :    0.111622
   6 H :    0.117706
   7 H :    0.121774
   8 H :    0.118250
   9 H :    0.110945
  10 H :    0.103130
  11 H :    0.108421
  12 C :   -0.040710
  13 H :    0.117216
  14 H :    0.087051
  15 O :   -0.333587
  16 C :    0.016472
  17 C :    0.038748
  18 C :   -0.242230
  19 C :   -0.033037
  20 O :   -0.327721
  21 H :    0.114328
  22 O :   -0.418650
  23 H :    0.113109
  24 H :    0.117290
  25 H :    0.129120
  26 H :    0.109003
  27 H :    0.095009
  28 H :    0.281727

  Mayer bond orders larger than 0.100000
B(  0-C ,  1-C ) :   0.9195 B(  0-C ,  4-O ) :   0.9131 B(  0-C ,  5-H ) :   0.9351
B(  0-C , 15-O ) :   0.8578 B(  1-C ,  2-C ) :   0.9537 B(  1-C ,  6-H ) :   0.9342
B(  1-C ,  7-H ) :   0.9372 B(  2-C ,  3-C ) :   0.9498 B(  2-C ,  8-H ) :   0.9445
B(  2-C ,  9-H ) :   0.9417 B(  3-C ,  4-O ) :   0.8340 B(  3-C , 10-H ) :   0.9326
B(  3-C , 11-H ) :   0.9398 B( 12-C , 13-H ) :   0.9089 B( 12-C , 14-H ) :   0.9013
B( 12-C , 15-O ) :   0.8389 B( 12-C , 16-C ) :   0.9069 B( 16-C , 17-C ) :   0.9083
B( 16-C , 20-O ) :   0.8788 B( 16-C , 21-H ) :   0.9238 B( 17-C , 18-C ) :   0.9256
B( 17-C , 22-O ) :   0.8886 B( 17-C , 23-H ) :   0.9365 B( 18-C , 19-C ) :   0.9458
B( 18-C , 24-H ) :   0.9374 B( 18-C , 25-H ) :   0.9189 B( 19-C , 20-O ) :   0.8394
B( 19-C , 26-H ) :   0.9338 B( 19-C , 27-H ) :   0.9368 B( 22-O , 28-H ) :   0.7962

FINAL SINGLE POINT ENERGY      -652.860912269237

DIPOLE MOMENT
-------------
                                X             Y             Z
Electronic contribution:     -3.35070      -3.52818       1.46683
Nuclear contribution   :      4.39530       4.29759      -1.77704
                        -----------------------------------------
Total Dipole Moment    :      1.04460       0.76941      -0.31021
                        -----------------------------------------
Magnitude (a.u.)       :      1.33394
Magnitude (Debye)      :      3.39061

Rotational constants in cm-1:     0.058308     0.013599     0.013323
Rotational constants in MHz :  1748.025618   407.695763   399.413162

                             ****ORCA TERMINATED NORMALLY****
TOTAL RUN TIME: 0 days 0 hours 24 minutes 33 seconds 100 msec
