                         Program Version 4.2.0 -  RELEASE  -
|  1> # Test redundant internal optimization
|  2> #
|  3> ! RKS B3LYP  Opt TightSCF SmallPrint
|  4>
|  5> %basis
|  6>         Basis "6-31G"
|  7> end
|  8>
|  9> %geom
| 10> Constraints
| 11> { D 4  0  15  12  210.0   C } # D for Dihedral angle
| 12> { D 0  15  12  16  180.0   C } # D for Dihedral angle
| 13> { D 0  4  3  2   C } # D for Dihedral angle
| 14> { D 4  3  2  1   C } # D for Dihedral angle
| 15> { D 3  2  1  0   C } # D for Dihedral angle
| 16> { D 2  1  0  4   C } # D for Dihedral angle
| 17> { D 1  0  4  3   C } # D for Dihedral angle
| 18> { D 16  20  19  18   C } # D for Dihedral angle
| 19> { D 20  19  18  17   C } # D for Dihedral angle
| 20> { D 19  18  17  16   C } # D for Dihedral angle
| 21> { D 18  17  16  20   C } # D for Dihedral angle
| 22> { D 17  16  20  19   C } # D for Dihedral angle
| 23> { D 15  12  16  20   C } # D for Dihedral angle
| 24> end
| 25> end
| 26>
| 27>
| 28> #%pal
| 29> #nprocs 8
| 30> #end
| 31>
| 32> * xyz 0 1
| 33> C  -21.048   26.222   46.251
| 34> C  -20.361   27.558   45.944
| 35> C  -20.329   28.222   47.341
| 36> C  -20.110   27.022   48.296
| 37> O  -20.473   25.807   47.535
| 38> H  -20.833   25.428   45.533
| 39> H  -19.344   27.382   45.576
| 40> H  -20.898   28.157   45.201
| 41> H  -19.543   28.978   47.434
| 42> H  -21.289   28.710   47.548
| 43> H  -20.733   27.082   49.195
| 44> H  -19.064   26.913   48.597
| 45> C  -23.389   26.110   45.076
| 46> H  -23.052   26.792   44.286
| 47> H  -23.219   25.081   44.736
| 48> O  -22.586   26.394   46.375
| 49> C  -24.920   26.299   45.263
| 50> C  -25.267   27.759   45.575
| 51> C  -25.203   28.403   44.169
| 52> C  -25.733   27.280   43.243
| 53> O  -25.628   26.019   44.009
| 54> H  -25.281   25.581   46.002
| 55> O  -26.704   27.853   46.157
| 56> H  -24.576   28.224   46.287
| 57> H  -25.797   29.320   44.095
| 58> H  -24.166   28.655   43.918
| 59> H  -25.151   27.188   42.320
| 60> H  -26.787   27.414   42.985
| 61> H  -27.415   27.394   45.459
| 62> *
| 63>
| 64>                          ****END OF INPUT****
 Total Charge           Charge          ....    0
 Multiplicity           Mult            ....    1
 Number of Electrons    NEL             ....  102
FINAL SINGLE POINT ENERGY      -652.835490912409
FINAL SINGLE POINT ENERGY      -652.859051072720
FINAL SINGLE POINT ENERGY      -652.862583668833
FINAL SINGLE POINT ENERGY      -652.863221247867
FINAL SINGLE POINT ENERGY      -652.863311062089
FINAL SINGLE POINT ENERGY      -652.863322551574
                    ***********************HURRAY********************

CARTESIAN COORDINATES (ANGSTROEM)
---------------------------------
  C    -21.132758   26.196806   46.192338
  C    -20.422434   27.516119   45.897692
  C    -20.490149   28.229682   47.268981
  C    -20.348113   27.064959   48.271308
  O    -20.666240   25.833025   47.499653
  H    -20.892510   25.368997   45.516902
  H    -19.383458   27.314887   45.611099
  H    -20.898424   28.085656   45.094052
  H    -19.706316   28.983354   47.389823
  H    -21.461742   28.719473   47.382935
  H    -21.038253   27.134176   49.115431
  H    -19.326706   26.944507   48.643776
  C    -23.284790   26.080942   45.010098
  H    -22.922511   26.712261   44.184242
  H    -23.138537   25.030919   44.723138
  O    -22.576286   26.381262   46.242948
  C    -24.768031   26.334492   45.268105
  C    -25.131950   27.786433   45.608692
  C    -25.154190   28.441329   44.203397
  C    -25.705270   27.313092   43.296094
  O    -25.532298   26.045346   44.049577
  H    -25.121606   25.651577   46.045225
  O    -26.435036   27.855295   46.251846
  H    -24.432702   28.249629   46.302419
  H    -25.783850   29.334400   44.203488
  H    -24.142509   28.735706   43.903557
  H    -25.174880   27.235064   42.342308
  H    -26.774799   27.421762   43.092108
  H    -27.052654   27.245852   45.794769

 Multiplicity           Mult            ....    1
 Number of Electrons    NEL             ....  102
 Basis Dimension        Dim             ....  149

ORBITAL ENERGIES
----------------

  NO   OCC          E(Eh)            E(eV)
   0   2.0000     -19.146399      -521.0000
   1   2.0000     -19.146294      -520.9971
   2   2.0000     -19.142145      -520.8843
   3   2.0000     -19.135753      -520.7103
   4   2.0000     -10.282681      -279.8060
   5   2.0000     -10.237017      -278.5634
   6   2.0000     -10.234980      -278.5080
   7   2.0000     -10.234534      -278.4958
   8   2.0000     -10.233355      -278.4638
   9   2.0000     -10.226405      -278.2746
  10   2.0000     -10.190228      -277.2902
  11   2.0000     -10.189440      -277.2687
  12   2.0000     -10.188845      -277.2526
  13   2.0000      -1.056468       -28.7480
  14   2.0000      -1.037217       -28.2241
  15   2.0000      -1.005203       -27.3530
  16   2.0000      -0.998983       -27.1837
  17   2.0000      -0.790449       -21.5092
  18   2.0000      -0.780868       -21.2485
  19   2.0000      -0.769729       -20.9454
  20   2.0000      -0.731837       -19.9143
  21   2.0000      -0.676816       -18.4171
  22   2.0000      -0.605566       -16.4783
  23   2.0000      -0.602779       -16.4024
  24   2.0000      -0.590799       -16.0765
  25   2.0000      -0.585573       -15.9342
  26   2.0000      -0.525343       -14.2953
  27   2.0000      -0.518902       -14.1201
  28   2.0000      -0.499565       -13.5939
  29   2.0000      -0.490876       -13.3574
  30   2.0000      -0.472791       -12.8653
  31   2.0000      -0.456467       -12.4211
  32   2.0000      -0.452938       -12.3251
  33   2.0000      -0.445453       -12.1214
  34   2.0000      -0.426254       -11.5990
  35   2.0000      -0.416419       -11.3313
  36   2.0000      -0.403180       -10.9711
  37   2.0000      -0.393672       -10.7123
  38   2.0000      -0.376350       -10.2410
  39   2.0000      -0.368617       -10.0306
  40   2.0000      -0.363756        -9.8983
  41   2.0000      -0.358016        -9.7421
  42   2.0000      -0.355704        -9.6792
  43   2.0000      -0.332552        -9.0492
  44   2.0000      -0.316191        -8.6040
  45   2.0000      -0.314360        -8.5542
  46   2.0000      -0.304890        -8.2965
  47   2.0000      -0.272617        -7.4183
  48   2.0000      -0.263760        -7.1773
  49   2.0000      -0.254341        -6.9210
  50   2.0000      -0.248101        -6.7512
  51   0.0000       0.061956         1.6859
  52   0.0000       0.065335         1.7778
  53   0.0000       0.090687         2.4677
  54   0.0000       0.097964         2.6657
  55   0.0000       0.103096         2.8054

MULLIKEN ATOMIC CHARGES
-----------------------
   0 C :    0.301257
   1 C :   -0.263999
   2 C :   -0.300555
   3 C :   -0.002977
   4 O :   -0.502113
   5 H :    0.140619
   6 H :    0.146286
   7 H :    0.139183
   8 H :    0.143452
   9 H :    0.161288
  10 H :    0.156991
  11 H :    0.142816
  12 C :   -0.003817
  13 H :    0.121283
  14 H :    0.148824
  15 O :   -0.519411
  16 C :    0.051205
  17 C :    0.090073
  18 C :   -0.298088
  19 C :   -0.032361
  20 O :   -0.527274
  21 H :    0.175509
  22 O :   -0.601476
  23 H :    0.172787
  24 H :    0.163676
  25 H :    0.138256
  26 H :    0.145706
  27 H :    0.149462
  28 H :    0.363396
Sum of atomic charges:   -0.0000000

LOEWDIN ATOMIC CHARGES
----------------------
   0 C :    0.179422
   1 C :   -0.227145
   2 C :   -0.216822
   3 C :   -0.025301
   4 O :   -0.305238
   5 H :    0.098335
   6 H :    0.114461
   7 H :    0.112994
   8 H :    0.115102
   9 H :    0.117747
  10 H :    0.110762
  11 H :    0.103075
  12 C :   -0.039522
  13 H :    0.085967
  14 H :    0.105082
  15 O :   -0.336276
  16 C :    0.018548
  17 C :    0.038400
  18 C :   -0.241731
  19 C :   -0.039067
  20 O :   -0.330516
  21 H :    0.122915
  22 O :   -0.413791
  23 H :    0.125158
  24 H :    0.127286
  25 H :    0.110471
  26 H :    0.103623
  27 H :    0.103991
  28 H :    0.282069

  Mayer bond orders larger than 0.100000
B(  0-C ,  1-C ) :   0.9339 B(  0-C ,  4-O ) :   0.9381 B(  0-C ,  5-H ) :   0.9195
B(  0-C , 15-O ) :   0.8245 B(  1-C ,  2-C ) :   0.9539 B(  1-C ,  6-H ) :   0.9342
B(  1-C ,  7-H ) :   0.9376 B(  2-C ,  3-C ) :   0.9550 B(  2-C ,  8-H ) :   0.9449
B(  2-C ,  9-H ) :   0.9434 B(  3-C ,  4-O ) :   0.8355 B(  3-C , 10-H ) :   0.9340
B(  3-C , 11-H ) :   0.9396 B( 12-C , 13-H ) :   0.9148 B( 12-C , 14-H ) :   0.9140
B( 12-C , 15-O ) :   0.8309 B( 12-C , 16-C ) :   0.9085 B( 16-C , 17-C ) :   0.9133
B( 16-C , 20-O ) :   0.8425 B( 16-C , 21-H ) :   0.9227 B( 17-C , 18-C ) :   0.9117
B( 17-C , 22-O ) :   0.8935 B( 17-C , 23-H ) :   0.9238 B( 18-C , 19-C ) :   0.9426
B( 18-C , 24-H ) :   0.9374 B( 18-C , 25-H ) :   0.9356 B( 19-C , 20-O ) :   0.8438
B( 19-C , 26-H ) :   0.9355 B( 19-C , 27-H ) :   0.9375 B( 22-O , 28-H ) :   0.7950

FINAL SINGLE POINT ENERGY      -652.863325132955

DIPOLE MOMENT
-------------
                                X             Y             Z
Electronic contribution:     -3.41406      -4.85064       1.87682
Nuclear contribution   :      4.16531       5.78733      -2.89308
                        -----------------------------------------
Total Dipole Moment    :      0.75125       0.93669      -1.01626
                        -----------------------------------------
Magnitude (a.u.)       :      1.57307
Magnitude (Debye)      :      3.99843

Rotational constants in cm-1:     0.054889     0.012483     0.012049
Rotational constants in MHz :  1645.518343   374.217256   361.224963

                             ****ORCA TERMINATED NORMALLY****
TOTAL RUN TIME: 0 days 0 hours 35 minutes 4 seconds 815 msec
