                         Program Version 4.2.0 -  RELEASE  -
|  1> # Test redundant internal optimization
|  2> #
|  3> ! RKS B3LYP  Opt TightSCF SmallPrint
|  4>
|  5> %basis
|  6>         Basis "6-31G"
|  7> end
|  8>
|  9> %geom
| 10> Constraints
| 11> { D 4  0  15  12  240.0   C } # D for Dihedral angle
| 12> { D 0  15  12  16  150.0   C } # D for Dihedral angle
| 13> { D 0  4  3  2   C } # D for Dihedral angle
| 14> { D 4  3  2  1   C } # D for Dihedral angle
| 15> { D 3  2  1  0   C } # D for Dihedral angle
| 16> { D 2  1  0  4   C } # D for Dihedral angle
| 17> { D 1  0  4  3   C } # D for Dihedral angle
| 18> { D 16  20  19  18   C } # D for Dihedral angle
| 19> { D 20  19  18  17   C } # D for Dihedral angle
| 20> { D 19  18  17  16   C } # D for Dihedral angle
| 21> { D 18  17  16  20   C } # D for Dihedral angle
| 22> { D 17  16  20  19   C } # D for Dihedral angle
| 23> { D 15  12  16  20   C } # D for Dihedral angle
| 24> end
| 25> end
| 26>
| 27>
| 28> #%pal
| 29> #nprocs 8
| 30> #end
| 31>
| 32> * xyz 0 1
| 33> C  -21.048   26.222   46.251
| 34> C  -20.361   27.558   45.944
| 35> C  -20.329   28.222   47.341
| 36> C  -20.110   27.022   48.296
| 37> O  -20.473   25.807   47.535
| 38> H  -20.833   25.428   45.533
| 39> H  -19.344   27.382   45.576
| 40> H  -20.898   28.157   45.201
| 41> H  -19.543   28.978   47.434
| 42> H  -21.289   28.710   47.548
| 43> H  -20.733   27.082   49.195
| 44> H  -19.064   26.913   48.597
| 45> C  -23.430   25.483   45.442
| 46> H  -23.596   25.997   44.488
| 47> H  -22.898   24.545   45.238
| 48> O  -22.586   26.394   46.375
| 49> C  -24.813   25.119   46.049
| 50> C  -24.663   24.474   47.432
| 51> C  -24.422   25.712   48.330
| 52> C  -25.304   26.801   47.671
| 53> O  -25.598   26.332   46.299
| 54> H  -25.373   24.518   45.329
| 55> O  -25.980   23.756   47.831
| 56> H  -23.844   23.748   47.482
| 57> H  -24.689   25.536   49.376
| 58> H  -23.365   26.000   48.298
| 59> H  -24.802   27.773   47.618
| 60> H  -26.264   26.926   48.180
| 61> H  -26.814   24.465   47.788
| 62> *
| 63>
| 64>                          ****END OF INPUT****
 Total Charge           Charge          ....    0
 Multiplicity           Mult            ....    1
 Number of Electrons    NEL             ....  102
FINAL SINGLE POINT ENERGY      -652.836588534034
FINAL SINGLE POINT ENERGY      -652.858828523664
FINAL SINGLE POINT ENERGY      -652.862785622229
FINAL SINGLE POINT ENERGY      -652.863910978313
FINAL SINGLE POINT ENERGY      -652.864016141646
FINAL SINGLE POINT ENERGY      -652.864032750771
                    ***********************HURRAY********************

CARTESIAN COORDINATES (ANGSTROEM)
---------------------------------
  C    -21.071944   26.177530   46.204441
  C    -20.413420   27.523804   45.902611
  C    -20.438780   28.208448   47.289827
  C    -20.217133   27.029878   48.263595
  O    -20.532760   25.800608   47.489161
  H    -20.827728   25.369031   45.508513
  H    -19.382972   27.357752   45.567135
  H    -20.951104   28.084545   45.134800
  H    -19.672904   28.982984   47.392505
  H    -21.418591   28.667150   47.454052
  H    -20.867015   27.068164   49.141374
  H    -19.176664   26.935963   48.588092
  C    -23.338748   25.490396   45.450316
  H    -23.516903   25.997827   44.493715
  H    -22.830826   24.534294   45.252056
  O    -22.508223   26.339459   46.293247
  C    -24.687682   25.213646   46.108940
  C    -24.666448   24.504389   47.470644
  C    -24.438713   25.692813   48.441516
  C    -25.223492   26.847057   47.771385
  O    -25.435251   26.446822   46.358428
  H    -25.280377   24.628187   45.394838
  O    -25.931597   23.823053   47.708027
  H    -23.903750   23.729625   47.553361
  H    -24.809250   25.450715   49.441636
  H    -23.372474   25.918672   48.485596
  H    -24.670139   27.789740   47.786152
  H    -26.213495   27.004573   48.211951
  H    -26.667613   24.442878   47.519087

 Multiplicity           Mult            ....    1
 Number of Electrons    NEL             ....  102
 Basis Dimension        Dim             ....  149

ORBITAL ENERGIES
----------------

  NO   OCC          E(Eh)            E(eV)
   0   2.0000     -19.147793      -521.0379
   1   2.0000     -19.144344      -520.9441
   2   2.0000     -19.135532      -520.7043
   3   2.0000     -19.131769      -520.6019
   4   2.0000     -10.285240      -279.8756
   5   2.0000     -10.236337      -278.5449
   6   2.0000     -10.232624      -278.4439
   7   2.0000     -10.232224      -278.4330
   8   2.0000     -10.228940      -278.3436
   9   2.0000     -10.219935      -278.0986
  10   2.0000     -10.189235      -277.2632
  11   2.0000     -10.188891      -277.2538
  12   2.0000     -10.171530      -276.7814
  13   2.0000      -1.057646       -28.7800
  14   2.0000      -1.029554       -28.0156
  15   2.0000      -1.002532       -27.2803
  16   2.0000      -0.994803       -27.0700
  17   2.0000      -0.791415       -21.5355
  18   2.0000      -0.774882       -21.0856
  19   2.0000      -0.761673       -20.7262
  20   2.0000      -0.733366       -19.9559
  21   2.0000      -0.674107       -18.3434
  22   2.0000      -0.602422       -16.3927
  23   2.0000      -0.598579       -16.2882
  24   2.0000      -0.592700       -16.1282
  25   2.0000      -0.579572       -15.7710
  26   2.0000      -0.526985       -14.3400
  27   2.0000      -0.502201       -13.6656
  28   2.0000      -0.499746       -13.5988
  29   2.0000      -0.487366       -13.2619
  30   2.0000      -0.474195       -12.9035
  31   2.0000      -0.454025       -12.3547
  32   2.0000      -0.445692       -12.1279
  33   2.0000      -0.440810       -11.9950
  34   2.0000      -0.425078       -11.5670
  35   2.0000      -0.410900       -11.1811
  36   2.0000      -0.403715       -10.9856
  37   2.0000      -0.384091       -10.4516
  38   2.0000      -0.371509       -10.1093
  39   2.0000      -0.365456        -9.9446
  40   2.0000      -0.360030        -9.7969
  41   2.0000      -0.356723        -9.7069
  42   2.0000      -0.350823        -9.5464
  43   2.0000      -0.325091        -8.8462
  44   2.0000      -0.321838        -8.7577
  45   2.0000      -0.311057        -8.4643
  46   2.0000      -0.299921        -8.1613
  47   2.0000      -0.272032        -7.4024
  48   2.0000      -0.263281        -7.1642
  49   2.0000      -0.253485        -6.8977
  50   2.0000      -0.238442        -6.4883
  51   0.0000       0.065191         1.7739
  52   0.0000       0.083008         2.2587
  53   0.0000       0.086588         2.3562
  54   0.0000       0.103967         2.8291
  55   0.0000       0.109160         2.9704

MULLIKEN ATOMIC CHARGES
-----------------------
   0 C :    0.284728
   1 C :   -0.251785
   2 C :   -0.302758
   3 C :   -0.004223
   4 O :   -0.505330
   5 H :    0.143016
   6 H :    0.144553
   7 H :    0.151921
   8 H :    0.143929
   9 H :    0.162931
  10 H :    0.148366
  11 H :    0.144152
  12 C :    0.006619
  13 H :    0.148040
  14 H :    0.128285
  15 O :   -0.522763
  16 C :    0.063480
  17 C :    0.075952
  18 C :   -0.292787
  19 C :   -0.017808
  20 O :   -0.527365
  21 H :    0.154478
  22 O :   -0.604350
  23 H :    0.156814
  24 H :    0.144191
  25 H :    0.183814
  26 H :    0.147236
  27 H :    0.134735
  28 H :    0.361925
Sum of atomic charges:   -0.0000000

LOEWDIN ATOMIC CHARGES
----------------------
   0 C :    0.175870
   1 C :   -0.220038
   2 C :   -0.216782
   3 C :   -0.028068
   4 O :   -0.319509
   5 H :    0.099185
   6 H :    0.113692
   7 H :    0.121331
   8 H :    0.115255
   9 H :    0.118905
  10 H :    0.105170
  11 H :    0.103533
  12 C :   -0.034021
  13 H :    0.104813
  14 H :    0.097944
  15 O :   -0.331458
  16 C :    0.012366
  17 C :    0.039589
  18 C :   -0.242772
  19 C :   -0.032596
  20 O :   -0.331307
  21 H :    0.115248
  22 O :   -0.417946
  23 H :    0.118436
  24 H :    0.116970
  25 H :    0.133189
  26 H :    0.105972
  27 H :    0.095710
  28 H :    0.281318

  Mayer bond orders larger than 0.100000
B(  0-C ,  1-C ) :   0.9421 B(  0-C ,  4-O ) :   0.9224 B(  0-C ,  5-H ) :   0.9188
B(  0-C , 15-O ) :   0.8421 B(  1-C ,  2-C ) :   0.9565 B(  1-C ,  6-H ) :   0.9362
B(  1-C ,  7-H ) :   0.9377 B(  2-C ,  3-C ) :   0.9542 B(  2-C ,  8-H ) :   0.9449
B(  2-C ,  9-H ) :   0.9434 B(  3-C ,  4-O ) :   0.8371 B(  3-C , 10-H ) :   0.9338
B(  3-C , 11-H ) :   0.9399 B( 12-C , 13-H ) :   0.9197 B( 12-C , 14-H ) :   0.9086
B( 12-C , 15-O ) :   0.8416 B( 12-C , 16-C ) :   0.9105 B( 16-C , 17-C ) :   0.9082
B( 16-C , 20-O ) :   0.8736 B( 16-C , 21-H ) :   0.9210 B( 17-C , 18-C ) :   0.9244
B( 17-C , 22-O ) :   0.8894 B( 17-C , 23-H ) :   0.9344 B( 18-C , 19-C ) :   0.9456
B( 18-C , 24-H ) :   0.9377 B( 18-C , 25-H ) :   0.9131 B( 19-C , 20-O ) :   0.8390
B( 19-C , 26-H ) :   0.9350 B( 19-C , 27-H ) :   0.9375 B( 22-O , 28-H ) :   0.7962

FINAL SINGLE POINT ENERGY      -652.864032964511

DIPOLE MOMENT
-------------
                                X             Y             Z
Electronic contribution:     -3.58022      -3.70629      -1.36141
Nuclear contribution   :      4.44670       4.54071       1.07742
                        -----------------------------------------
Total Dipole Moment    :      0.86648       0.83442      -0.28399
                        -----------------------------------------
Magnitude (a.u.)       :      1.23600
Magnitude (Debye)      :      3.14165

Rotational constants in cm-1:     0.051853     0.014718     0.014321
Rotational constants in MHz :  1554.502567   441.234669   429.323007

                             ****ORCA TERMINATED NORMALLY****
TOTAL RUN TIME: 0 days 0 hours 15 minutes 14 seconds 885 msec
