                         Program Version 4.2.0 -  RELEASE  -
|  1> # Test redundant internal optimization
|  2> #
|  3> ! RKS B3LYP  Opt TightSCF SmallPrint
|  4>
|  5> %basis
|  6>         Basis "6-31G"
|  7> end
|  8>
|  9> %geom
| 10> Constraints
| 11> { D 4  0  15  12  30.0   C } # D for Dihedral angle
| 12> { D 0  15  12  16  240.0   C } # D for Dihedral angle
| 13> { D 0  4  3  2   C } # D for Dihedral angle
| 14> { D 4  3  2  1   C } # D for Dihedral angle
| 15> { D 3  2  1  0   C } # D for Dihedral angle
| 16> { D 2  1  0  4   C } # D for Dihedral angle
| 17> { D 1  0  4  3   C } # D for Dihedral angle
| 18> { D 16  20  19  18   C } # D for Dihedral angle
| 19> { D 20  19  18  17   C } # D for Dihedral angle
| 20> { D 19  18  17  16   C } # D for Dihedral angle
| 21> { D 18  17  16  20   C } # D for Dihedral angle
| 22> { D 17  16  20  19   C } # D for Dihedral angle
| 23> { D 15  12  16  20   C } # D for Dihedral angle
| 24> end
| 25> end
| 26>
| 27>
| 28> #%pal
| 29> #nprocs 8
| 30> #end
| 31>
| 32> * xyz 0 1
| 33> C  -21.048   26.222   46.251
| 34> C  -20.361   27.558   45.944
| 35> C  -20.329   28.222   47.341
| 36> C  -20.110   27.022   48.296
| 37> O  -20.473   25.807   47.535
| 38> H  -20.833   25.428   45.533
| 39> H  -19.344   27.382   45.576
| 40> H  -20.898   28.157   45.201
| 41> H  -19.543   28.978   47.434
| 42> H  -21.289   28.710   47.548
| 43> H  -20.733   27.082   49.195
| 44> H  -19.064   26.913   48.597
| 45> C  -23.091   26.824   47.779
| 46> H  -22.233   26.941   48.453
| 47> H  -23.615   27.787   47.721
| 48> O  -22.586   26.394   46.375
| 49> C  -24.069   25.792   48.408
| 50> C  -24.636   26.301   49.738
| 51> C  -25.734   27.279   49.256
| 52> C  -26.274   26.598   47.975
| 53> O  -25.249   25.619   47.555
| 54> H  -23.573   24.821   48.470
| 55> O  -25.261   25.125   50.536
| 56> H  -23.883   26.786   50.369
| 57> H  -26.516   27.441   50.005
| 58> H  -25.292   28.254   49.018
| 59> H  -26.444   27.311   47.160
| 60> H  -27.198   26.040   48.156
| 61> H  -26.019   24.625   49.922
| 62> *
| 63>
| 64>                          ****END OF INPUT****
 Total Charge           Charge          ....    0
 Multiplicity           Mult            ....    1
 Number of Electrons    NEL             ....  102
FINAL SINGLE POINT ENERGY      -652.820791049868
FINAL SINGLE POINT ENERGY      -652.845295285927
FINAL SINGLE POINT ENERGY      -652.852182844438
FINAL SINGLE POINT ENERGY      -652.854663049159
FINAL SINGLE POINT ENERGY      -652.855002770725
FINAL SINGLE POINT ENERGY      -652.855059020224
FINAL SINGLE POINT ENERGY      -652.855064904042
                    ***********************HURRAY********************

CARTESIAN COORDINATES (ANGSTROEM)
---------------------------------
  C    -21.172231   26.277815   46.430389
  C    -20.404594   27.511616   45.941595
  C    -20.069362   28.231063   47.276326
  C    -19.828175   27.052098   48.250079
  O    -20.450393   25.861695   47.612043
  H    -21.132943   25.439975   45.732538
  H    -19.489554   27.185213   45.434808
  H    -20.996375   28.119893   45.254282
  H    -19.193837   28.882343   47.196718
  H    -20.915518   28.847454   47.599692
  H    -20.271769   27.202528   49.239301
  H    -18.765788   26.820842   48.371943
  C    -23.132591   26.934971   47.888862
  H    -22.343250   27.059515   48.636077
  H    -23.627429   27.900329   47.726139
  O    -22.593864   26.494376   46.613818
  C    -24.122298   25.891004   48.410174
  C    -24.791548   26.282114   49.736099
  C    -25.941226   27.204839   49.249567
  C    -26.363529   26.555701   47.907459
  O    -25.243572   25.680100   47.492162
  H    -23.600694   24.932677   48.489738
  O    -25.303054   25.108306   50.426028
  H    -24.121486   26.766317   50.448475
  H    -26.749603   27.235391   49.984685
  H    -25.570533   28.225481   49.100899
  H    -26.551581   27.292566   47.120475
  H    -27.249715   25.921373   48.009998
  H    -25.701488   24.501406   49.766629

 Multiplicity           Mult            ....    1
 Number of Electrons    NEL             ....  102
 Basis Dimension        Dim             ....  149

ORBITAL ENERGIES
----------------

  NO   OCC          E(Eh)            E(eV)
   0   2.0000     -19.150448      -521.1102
   1   2.0000     -19.137494      -520.7577
   2   2.0000     -19.137015      -520.7446
   3   2.0000     -19.136302      -520.7252
   4   2.0000     -10.278663      -279.6966
   5   2.0000     -10.241070      -278.6737
   6   2.0000     -10.235686      -278.5272
   7   2.0000     -10.232357      -278.4366
   8   2.0000     -10.229354      -278.3549
   9   2.0000     -10.227501      -278.3044
  10   2.0000     -10.195788      -277.4415
  11   2.0000     -10.188247      -277.2363
  12   2.0000     -10.187569      -277.2179
  13   2.0000      -1.054857       -28.7041
  14   2.0000      -1.033535       -28.1239
  15   2.0000      -1.004104       -27.3231
  16   2.0000      -0.992997       -27.0208
  17   2.0000      -0.791927       -21.5494
  18   2.0000      -0.783019       -21.3070
  19   2.0000      -0.768334       -20.9074
  20   2.0000      -0.734903       -19.9977
  21   2.0000      -0.675150       -18.3718
  22   2.0000      -0.606551       -16.5051
  23   2.0000      -0.603738       -16.4286
  24   2.0000      -0.598291       -16.2803
  25   2.0000      -0.574308       -15.6277
  26   2.0000      -0.522781       -14.2256
  27   2.0000      -0.513892       -13.9837
  28   2.0000      -0.501864       -13.6564
  29   2.0000      -0.490037       -13.3346
  30   2.0000      -0.474863       -12.9217
  31   2.0000      -0.463000       -12.5989
  32   2.0000      -0.449842       -12.2408
  33   2.0000      -0.438083       -11.9208
  34   2.0000      -0.423232       -11.5167
  35   2.0000      -0.418449       -11.3866
  36   2.0000      -0.398664       -10.8482
  37   2.0000      -0.390953       -10.6384
  38   2.0000      -0.379236       -10.3195
  39   2.0000      -0.370462       -10.0808
  40   2.0000      -0.363273        -9.8852
  41   2.0000      -0.357484        -9.7276
  42   2.0000      -0.352027        -9.5791
  43   2.0000      -0.329238        -8.9590
  44   2.0000      -0.327375        -8.9083
  45   2.0000      -0.312473        -8.5028
  46   2.0000      -0.299870        -8.1599
  47   2.0000      -0.268408        -7.3038
  48   2.0000      -0.265996        -7.2381
  49   2.0000      -0.257421        -7.0048
  50   2.0000      -0.233371        -6.3504
  51   0.0000       0.065430         1.7804
  52   0.0000       0.075694         2.0597
  53   0.0000       0.085444         2.3251
  54   0.0000       0.097240         2.6460
  55   0.0000       0.102749         2.7959

MULLIKEN ATOMIC CHARGES
-----------------------
   0 C :    0.292748
   1 C :   -0.259008
   2 C :   -0.311313
   3 C :   -0.022482
   4 O :   -0.509356
   5 H :    0.167290
   6 H :    0.147925
   7 H :    0.157534
   8 H :    0.149038
   9 H :    0.148359
  10 H :    0.143159
  11 H :    0.153142
  12 C :   -0.010256
  13 H :    0.137706
  14 H :    0.134352
  15 O :   -0.514474
  16 C :    0.071731
  17 C :    0.076295
  18 C :   -0.300231
  19 C :   -0.027820
  20 O :   -0.508447
  21 H :    0.174244
  22 O :   -0.601927
  23 H :    0.146156
  24 H :    0.164741
  25 H :    0.140624
  26 H :    0.147775
  27 H :    0.145748
  28 H :    0.366747
Sum of atomic charges:   -0.0000000

LOEWDIN ATOMIC CHARGES
----------------------
   0 C :    0.179575
   1 C :   -0.225816
   2 C :   -0.222870
   3 C :   -0.036763
   4 O :   -0.320378
   5 H :    0.112898
   6 H :    0.116422
   7 H :    0.123729
   8 H :    0.118153
   9 H :    0.110188
  10 H :    0.098957
  11 H :    0.107584
  12 C :   -0.043139
  13 H :    0.105028
  14 H :    0.099361
  15 O :   -0.319368
  16 C :    0.013091
  17 C :    0.033980
  18 C :   -0.242959
  19 C :   -0.038424
  20 O :   -0.319816
  21 H :    0.123443
  22 O :   -0.414529
  23 H :    0.112302
  24 H :    0.127064
  25 H :    0.110666
  26 H :    0.104979
  27 H :    0.102293
  28 H :    0.284347

  Mayer bond orders larger than 0.100000
B(  0-C ,  1-C ) :   0.9157 B(  0-C ,  4-O ) :   0.9020 B(  0-C ,  5-H ) :   0.9331
B(  0-C , 15-O ) :   0.8812 B(  1-C ,  2-C ) :   0.9545 B(  1-C ,  6-H ) :   0.9347
B(  1-C ,  7-H ) :   0.9372 B(  2-C ,  3-C ) :   0.9498 B(  2-C ,  8-H ) :   0.9448
B(  2-C ,  9-H ) :   0.9446 B(  3-C ,  4-O ) :   0.8366 B(  3-C , 10-H ) :   0.9282
B(  3-C , 11-H ) :   0.9390 B( 12-C , 13-H ) :   0.9030 B( 12-C , 14-H ) :   0.9296
B( 12-C , 15-O ) :   0.8437 B( 12-C , 16-C ) :   0.8901 B( 16-C , 17-C ) :   0.8980
B( 16-C , 20-O ) :   0.8640 B( 16-C , 21-H ) :   0.9233 B( 17-C , 18-C ) :   0.9087
B( 17-C , 22-O ) :   0.8935 B( 17-C , 23-H ) :   0.9339 B( 18-C , 19-C ) :   0.9425
B( 18-C , 24-H ) :   0.9368 B( 18-C , 25-H ) :   0.9340 B( 19-C , 20-O ) :   0.8530
B( 19-C , 26-H ) :   0.9336 B( 19-C , 27-H ) :   0.9378 B( 22-O , 28-H ) :   0.7929

FINAL SINGLE POINT ENERGY      -652.855053898695

DIPOLE MOMENT
-------------
                                X             Y             Z
Electronic contribution:     -1.91394      -5.96376      -0.74081
Nuclear contribution   :      2.35842       7.45186       0.78856
                        -----------------------------------------
Total Dipole Moment    :      0.44448       1.48810       0.04775
                        -----------------------------------------
Magnitude (a.u.)       :      1.55380
Magnitude (Debye)      :      3.94944

Rotational constants in cm-1:     0.056438     0.012943     0.012164
Rotational constants in MHz :  1691.956420   388.030832   364.666452

                             ****ORCA TERMINATED NORMALLY****
TOTAL RUN TIME: 0 days 0 hours 25 minutes 1 seconds 210 msec
