                         Program Version 4.2.0 -  RELEASE  -
|  1> # Test redundant internal optimization
|  2> #
|  3> ! RKS B3LYP  Opt TightSCF SmallPrint
|  4>
|  5> %basis
|  6>         Basis "6-31G"
|  7> end
|  8>
|  9> %geom
| 10> Constraints
| 11> { D 4  0  15  12  345.0   C } # D for Dihedral angle
| 12> { D 0  15  12  16  195.0   C } # D for Dihedral angle
| 13> { D 0  4  3  2   C } # D for Dihedral angle
| 14> { D 4  3  2  1   C } # D for Dihedral angle
| 15> { D 3  2  1  0   C } # D for Dihedral angle
| 16> { D 2  1  0  4   C } # D for Dihedral angle
| 17> { D 1  0  4  3   C } # D for Dihedral angle
| 18> { D 16  20  19  18   C } # D for Dihedral angle
| 19> { D 20  19  18  17   C } # D for Dihedral angle
| 20> { D 19  18  17  16   C } # D for Dihedral angle
| 21> { D 18  17  16  20   C } # D for Dihedral angle
| 22> { D 17  16  20  19   C } # D for Dihedral angle
| 23> { D 15  12  16  20   C } # D for Dihedral angle
| 24> end
| 25> end
| 26>
| 27>
| 28> #%pal
| 29> #nprocs 8
| 30> #end
| 31>
| 32> * xyz 0 1
| 33> C  -21.048   26.222   46.251
| 34> C  -20.361   27.558   45.944
| 35> C  -20.329   28.222   47.341
| 36> C  -20.110   27.022   48.296
| 37> O  -20.473   25.807   47.535
| 38> H  -20.833   25.428   45.533
| 39> H  -19.344   27.382   45.576
| 40> H  -20.898   28.157   45.201
| 41> H  -19.543   28.978   47.434
| 42> H  -21.289   28.710   47.548
| 43> H  -20.733   27.082   49.195
| 44> H  -19.064   26.913   48.597
| 45> C  -23.221   25.764   47.645
| 46> H  -22.801   24.763   47.801
| 47> H  -22.994   26.373   48.530
| 48> O  -22.586   26.394   46.375
| 49> C  -24.766   25.635   47.544
| 50> C  -25.418   26.988   47.235
| 51> C  -25.175   27.113   45.712
| 52> C  -25.294   25.650   45.215
| 53> O  -25.136   24.787   46.406
| 54> H  -25.144   25.146   48.443
| 55> O  -26.939   26.928   47.543
| 56> H  -24.983   27.816   47.804
| 57> H  -25.890   27.780   45.220
| 58> H  -24.167   27.503   45.522
| 59> H  -24.525   25.392   44.479
| 60> H  -26.278   25.433   44.789
| 61> H  -27.397   26.105   46.983
| 62> *
| 63>
| 64>                          ****END OF INPUT****
 Total Charge           Charge          ....    0
 Multiplicity           Mult            ....    1
 Number of Electrons    NEL             ....  102
FINAL SINGLE POINT ENERGY      -652.836958256855
FINAL SINGLE POINT ENERGY      -652.858876192666
FINAL SINGLE POINT ENERGY      -652.863005099566
FINAL SINGLE POINT ENERGY      -652.863966527207
FINAL SINGLE POINT ENERGY      -652.864079672295
FINAL SINGLE POINT ENERGY      -652.864096968047
                    ***********************HURRAY********************

CARTESIAN COORDINATES (ANGSTROEM)
---------------------------------
  C    -21.091792   26.165085   46.347260
  C    -20.470493   27.512651   45.981678
  C    -20.371099   28.199402   47.362421
  C    -20.054878   27.028407   48.318521
  O    -20.435930   25.791452   47.577979
  H    -20.901240   25.350784   45.643519
  H    -19.476864   27.345280   45.550493
  H    -21.079789   28.068497   45.265805
  H    -19.601543   28.976765   47.391631
  H    -21.330750   28.660867   47.616339
  H    -20.619555   27.065256   49.254047
  H    -18.988996   26.937119   48.544933
  C    -23.175958   25.772112   47.664569
  H    -22.793712   24.766348   47.865648
  H    -22.964666   26.400165   48.541533
  O    -22.537669   26.318337   46.473384
  C    -24.685850   25.690845   47.454388
  C    -25.422501   27.008151   47.170281
  C    -25.228098   27.156979   45.637880
  C    -25.278052   25.691812   45.138097
  O    -25.038544   24.834174   46.322261
  H    -25.108189   25.218414   48.349740
  O    -26.826331   26.898589   47.541702
  H    -25.041983   27.856884   47.739539
  H    -26.014250   27.782413   45.205726
  H    -24.250789   27.597378   45.436464
  H    -24.507268   25.481394   44.392209
  H    -26.256399   25.412753   44.731952
  H    -27.185811   26.062684   47.177001

 Multiplicity           Mult            ....    1
 Number of Electrons    NEL             ....  102
 Basis Dimension        Dim             ....  149

ORBITAL ENERGIES
----------------

  NO   OCC          E(Eh)            E(eV)
   0   2.0000     -19.153467      -521.1923
   1   2.0000     -19.144323      -520.9435
   2   2.0000     -19.134199      -520.6680
   3   2.0000     -19.131604      -520.5974
   4   2.0000     -10.283516      -279.8287
   5   2.0000     -10.235635      -278.5258
   6   2.0000     -10.233262      -278.4612
   7   2.0000     -10.230421      -278.3839
   8   2.0000     -10.228828      -278.3406
   9   2.0000     -10.219416      -278.0844
  10   2.0000     -10.194678      -277.4113
  11   2.0000     -10.191088      -277.3136
  12   2.0000     -10.172930      -276.8195
  13   2.0000      -1.059689       -28.8356
  14   2.0000      -1.029510       -28.0144
  15   2.0000      -1.001383       -27.2490
  16   2.0000      -0.992445       -27.0058
  17   2.0000      -0.796104       -21.6631
  18   2.0000      -0.775387       -21.0993
  19   2.0000      -0.761764       -20.7286
  20   2.0000      -0.735329       -20.0093
  21   2.0000      -0.670945       -18.2573
  22   2.0000      -0.608137       -16.5482
  23   2.0000      -0.598689       -16.2911
  24   2.0000      -0.593578       -16.1521
  25   2.0000      -0.569376       -15.4935
  26   2.0000      -0.525047       -14.2873
  27   2.0000      -0.511087       -13.9074
  28   2.0000      -0.497940       -13.5496
  29   2.0000      -0.488536       -13.2937
  30   2.0000      -0.470054       -12.7908
  31   2.0000      -0.459190       -12.4952
  32   2.0000      -0.447172       -12.1682
  33   2.0000      -0.435565       -11.8523
  34   2.0000      -0.421030       -11.4568
  35   2.0000      -0.408988       -11.1291
  36   2.0000      -0.403927       -10.9914
  37   2.0000      -0.383978       -10.4486
  38   2.0000      -0.376849       -10.2546
  39   2.0000      -0.368020       -10.0143
  40   2.0000      -0.364655        -9.9228
  41   2.0000      -0.358051        -9.7431
  42   2.0000      -0.349904        -9.5214
  43   2.0000      -0.339757        -9.2453
  44   2.0000      -0.321544        -8.7497
  45   2.0000      -0.308179        -8.3860
  46   2.0000      -0.298161        -8.1134
  47   2.0000      -0.268077        -7.2948
  48   2.0000      -0.264750        -7.2042
  49   2.0000      -0.253505        -6.8982
  50   2.0000      -0.239485        -6.5167
  51   0.0000       0.063063         1.7160
  52   0.0000       0.079177         2.1545
  53   0.0000       0.097894         2.6638
  54   0.0000       0.101654         2.7662
  55   0.0000       0.104918         2.8550

MULLIKEN ATOMIC CHARGES
-----------------------
   0 C :    0.304316
   1 C :   -0.258272
   2 C :   -0.305527
   3 C :   -0.016276
   4 O :   -0.510474
   5 H :    0.158587
   6 H :    0.146672
   7 H :    0.157976
   8 H :    0.148732
   9 H :    0.155438
  10 H :    0.147009
  11 H :    0.152094
  12 C :    0.021653
  13 H :    0.161972
  14 H :    0.119370
  15 O :   -0.548986
  16 C :    0.061989
  17 C :    0.078120
  18 C :   -0.284540
  19 C :   -0.016015
  20 O :   -0.527207
  21 H :    0.153395
  22 O :   -0.605841
  23 H :    0.145650
  24 H :    0.146663
  25 H :    0.169482
  26 H :    0.149604
  27 H :    0.131812
  28 H :    0.362606
Sum of atomic charges:   -0.0000000

LOEWDIN ATOMIC CHARGES
----------------------
   0 C :    0.182465
   1 C :   -0.217621
   2 C :   -0.218522
   3 C :   -0.031645
   4 O :   -0.318327
   5 H :    0.105111
   6 H :    0.115017
   7 H :    0.123913
   8 H :    0.117965
   9 H :    0.115066
  10 H :    0.103441
  11 H :    0.107837
  12 C :   -0.032256
  13 H :    0.114508
  14 H :    0.091269
  15 O :   -0.344993
  16 C :    0.014809
  17 C :    0.038860
  18 C :   -0.241705
  19 C :   -0.032306
  20 O :   -0.329900
  21 H :    0.114841
  22 O :   -0.419017
  23 H :    0.113101
  24 H :    0.117295
  25 H :    0.127578
  26 H :    0.107020
  27 H :    0.094540
  28 H :    0.281656

  Mayer bond orders larger than 0.100000
B(  0-C ,  1-C ) :   0.9399 B(  0-C ,  4-O ) :   0.9104 B(  0-C ,  5-H ) :   0.9257
B(  0-C , 15-O ) :   0.8312 B(  1-C ,  2-C ) :   0.9519 B(  1-C ,  6-H ) :   0.9357
B(  1-C ,  7-H ) :   0.9362 B(  2-C ,  3-C ) :   0.9543 B(  2-C ,  8-H ) :   0.9445
B(  2-C ,  9-H ) :   0.9455 B(  3-C ,  4-O ) :   0.8301 B(  3-C , 10-H ) :   0.9324
B(  3-C , 11-H ) :   0.9400 B( 12-C , 13-H ) :   0.9166 B( 12-C , 14-H ) :   0.9116
B( 12-C , 15-O ) :   0.8280 B( 12-C , 16-C ) :   0.9084 B( 16-C , 17-C ) :   0.9074
B( 16-C , 20-O ) :   0.8719 B( 16-C , 21-H ) :   0.9233 B( 17-C , 18-C ) :   0.9239
B( 17-C , 22-O ) :   0.8880 B( 17-C , 23-H ) :   0.9367 B( 18-C , 19-C ) :   0.9457
B( 18-C , 24-H ) :   0.9375 B( 18-C , 25-H ) :   0.9196 B( 19-C , 20-O ) :   0.8401
B( 19-C , 26-H ) :   0.9346 B( 19-C , 27-H ) :   0.9377 B( 22-O , 28-H ) :   0.7961

FINAL SINGLE POINT ENERGY      -652.864097415612

DIPOLE MOMENT
-------------
                                X             Y             Z
Electronic contribution:     -3.05655      -4.52942       0.67212
Nuclear contribution   :      4.03002       5.34518      -0.86571
                        -----------------------------------------
Total Dipole Moment    :      0.97347       0.81576      -0.19359
                        -----------------------------------------
Magnitude (a.u.)       :      1.28475
Magnitude (Debye)      :      3.26558

Rotational constants in cm-1:     0.055423     0.013804     0.013656
Rotational constants in MHz :  1661.541636   413.822687   409.398176

                             ****ORCA TERMINATED NORMALLY****
TOTAL RUN TIME: 0 days 0 hours 19 minutes 4 seconds 451 msec
