                         Program Version 4.2.0 -  RELEASE  -
|  1> # Test redundant internal optimization
|  2> #
|  3> ! RKS B3LYP  Opt TightSCF SmallPrint
|  4>
|  5> %basis
|  6>         Basis "6-31G"
|  7> end
|  8>
|  9> %geom
| 10> Constraints
| 11> { D 4  0  15  12  135.0   C } # D for Dihedral angle
| 12> { D 0  15  12  16  135.0   C } # D for Dihedral angle
| 13> { D 0  4  3  2   C } # D for Dihedral angle
| 14> { D 4  3  2  1   C } # D for Dihedral angle
| 15> { D 3  2  1  0   C } # D for Dihedral angle
| 16> { D 2  1  0  4   C } # D for Dihedral angle
| 17> { D 1  0  4  3   C } # D for Dihedral angle
| 18> { D 16  20  19  18   C } # D for Dihedral angle
| 19> { D 20  19  18  17   C } # D for Dihedral angle
| 20> { D 19  18  17  16   C } # D for Dihedral angle
| 21> { D 18  17  16  20   C } # D for Dihedral angle
| 22> { D 17  16  20  19   C } # D for Dihedral angle
| 23> { D 15  12  16  20   C } # D for Dihedral angle
| 24> end
| 25> end
| 26>
| 27>
| 28> #%pal
| 29> #nprocs 8
| 30> #end
| 31>
| 32> * xyz 0 1
| 33> C  -21.048   26.222   46.251
| 34> C  -20.361   27.558   45.944
| 35> C  -20.329   28.222   47.341
| 36> C  -20.110   27.022   48.296
| 37> O  -20.473   25.807   47.535
| 38> H  -20.833   25.428   45.533
| 39> H  -19.344   27.382   45.576
| 40> H  -20.898   28.157   45.201
| 41> H  -19.543   28.978   47.434
| 42> H  -21.289   28.710   47.548
| 43> H  -20.733   27.082   49.195
| 44> H  -19.064   26.913   48.597
| 45> C  -23.162   27.680   45.721
| 46> H  -23.410   28.405   46.505
| 47> H  -22.419   28.136   45.053
| 48> O  -22.586   26.394   46.375
| 49> C  -24.443   27.406   44.885
| 50> C  -24.916   28.672   44.162
| 51> C  -23.953   28.721   42.953
| 52> C  -23.743   27.225   42.610
| 53> O  -24.157   26.458   43.804
| 54> H  -25.196   26.944   45.527
| 55> O  -26.385   28.497   43.686
| 56> H  -24.861   29.570   44.786
| 57> H  -24.358   29.289   42.109
| 58> H  -23.004   29.187   43.246
| 59> H  -22.697   26.990   42.378
| 60> H  -24.372   26.894   41.779
| 61> H  -26.464   27.602   43.059
| 62> *
| 63>
| 64>                          ****END OF INPUT****
 Total Charge           Charge          ....    0
 Multiplicity           Mult            ....    1
 Number of Electrons    NEL             ....  102
FINAL SINGLE POINT ENERGY      -652.817037524887
FINAL SINGLE POINT ENERGY      -652.841145514021
FINAL SINGLE POINT ENERGY      -652.848504994772
FINAL SINGLE POINT ENERGY      -652.850667825898
FINAL SINGLE POINT ENERGY      -652.850993500754
FINAL SINGLE POINT ENERGY      -652.851038721710
                    ***********************HURRAY********************

CARTESIAN COORDINATES (ANGSTROEM)
---------------------------------
  C    -21.107505   26.326168   46.232647
  C    -20.152095   27.500674   46.011370
  C    -20.141007   28.177153   47.408133
  C    -20.258036   26.970133   48.366257
  O    -20.764917   25.846255   47.545122
  H    -20.968893   25.484006   45.552547
  H    -19.163446   27.090779   45.776237
  H    -20.427914   28.178066   45.200323
  H    -19.232212   28.761333   47.581219
  H    -21.000048   28.848763   47.515806
  H    -20.951299   27.144745   49.193383
  H    -19.289944   26.656553   48.767767
  C    -23.097318   27.841647   45.654858
  H    -23.406527   28.523133   46.460740
  H    -22.380888   28.371592   45.015633
  O    -22.530012   26.639831   46.224024
  C    -24.321591   27.434035   44.834243
  C    -25.029127   28.593720   44.118373
  C    -24.163677   28.750646   42.841665
  C    -23.751562   27.293094   42.516320
  O    -23.965981   26.507711   43.755479
  H    -25.009518   26.889086   45.487230
  O    -26.403331   28.245480   43.796904
  H    -25.095175   29.508235   44.710046
  H    -24.739144   29.221412   42.040629
  H    -23.288627   29.377518   43.049117
  H    -22.703272   27.206836   42.213574
  H    -24.375275   26.845132   41.736747
  H    -26.432660   27.317268   43.482608

 Multiplicity           Mult            ....    1
 Number of Electrons    NEL             ....  102
 Basis Dimension        Dim             ....  149

ORBITAL ENERGIES
----------------

  NO   OCC          E(Eh)            E(eV)
   0   2.0000     -19.142834      -520.9030
   1   2.0000     -19.139892      -520.8229
   2   2.0000     -19.137014      -520.7446
   3   2.0000     -19.134830      -520.6852
   4   2.0000     -10.278965      -279.7049
   5   2.0000     -10.245077      -278.7827
   6   2.0000     -10.236861      -278.5592
   7   2.0000     -10.233562      -278.4694
   8   2.0000     -10.232793      -278.4484
   9   2.0000     -10.226119      -278.2668
  10   2.0000     -10.194717      -277.4124
  11   2.0000     -10.194104      -277.3957
  12   2.0000     -10.192923      -277.3635
  13   2.0000      -1.049930       -28.5701
  14   2.0000      -1.037291       -28.2261
  15   2.0000      -1.007881       -27.4258
  16   2.0000      -0.989784       -26.9334
  17   2.0000      -0.791102       -21.5270
  18   2.0000      -0.786924       -21.4133
  19   2.0000      -0.771208       -20.9856
  20   2.0000      -0.733787       -19.9674
  21   2.0000      -0.680888       -18.5279
  22   2.0000      -0.607541       -16.5320
  23   2.0000      -0.604783       -16.4570
  24   2.0000      -0.597406       -16.2562
  25   2.0000      -0.577080       -15.7032
  26   2.0000      -0.529273       -14.4023
  27   2.0000      -0.507218       -13.8021
  28   2.0000      -0.503042       -13.6885
  29   2.0000      -0.493063       -13.4169
  30   2.0000      -0.480999       -13.0886
  31   2.0000      -0.462488       -12.5849
  32   2.0000      -0.452175       -12.3043
  33   2.0000      -0.443950       -12.0805
  34   2.0000      -0.427961       -11.6454
  35   2.0000      -0.410194       -11.1620
  36   2.0000      -0.405758       -11.0412
  37   2.0000      -0.396280       -10.7833
  38   2.0000      -0.382392       -10.4054
  39   2.0000      -0.374879       -10.2010
  40   2.0000      -0.366952        -9.9853
  41   2.0000      -0.358773        -9.7627
  42   2.0000      -0.353579        -9.6214
  43   2.0000      -0.333200        -9.0668
  44   2.0000      -0.312987        -8.5168
  45   2.0000      -0.308226        -8.3873
  46   2.0000      -0.292008        -7.9460
  47   2.0000      -0.272929        -7.4268
  48   2.0000      -0.262707        -7.1486
  49   2.0000      -0.255802        -6.9607
  50   2.0000      -0.238803        -6.4982
  51   0.0000       0.058341         1.5875
  52   0.0000       0.075884         2.0649
  53   0.0000       0.082091         2.2338
  54   0.0000       0.097122         2.6428
  55   0.0000       0.102940         2.8011

MULLIKEN ATOMIC CHARGES
-----------------------
   0 C :    0.320126
   1 C :   -0.300039
   2 C :   -0.306154
   3 C :    0.000327
   4 O :   -0.493596
   5 H :    0.162314
   6 H :    0.155510
   7 H :    0.142215
   8 H :    0.145065
   9 H :    0.150565
  10 H :    0.150834
  11 H :    0.143487
  12 C :   -0.000867
  13 H :    0.132565
  14 H :    0.119158
  15 O :   -0.518876
  16 C :    0.074253
  17 C :    0.074635
  18 C :   -0.298520
  19 C :   -0.028433
  20 O :   -0.511335
  21 H :    0.175095
  22 O :   -0.600607
  23 H :    0.149743
  24 H :    0.165114
  25 H :    0.140058
  26 H :    0.141262
  27 H :    0.148898
  28 H :    0.367200
Sum of atomic charges:   -0.0000000

LOEWDIN ATOMIC CHARGES
----------------------
   0 C :    0.187498
   1 C :   -0.233295
   2 C :   -0.219379
   3 C :   -0.028217
   4 O :   -0.307727
   5 H :    0.109076
   6 H :    0.121885
   7 H :    0.111815
   8 H :    0.115810
   9 H :    0.110478
  10 H :    0.107232
  11 H :    0.103349
  12 C :   -0.039182
  13 H :    0.097741
  14 H :    0.090289
  15 O :   -0.325990
  16 C :    0.015109
  17 C :    0.034406
  18 C :   -0.242767
  19 C :   -0.039026
  20 O :   -0.321292
  21 H :    0.123210
  22 O :   -0.413413
  23 H :    0.114419
  24 H :    0.127770
  25 H :    0.109999
  26 H :    0.101735
  27 H :    0.103797
  28 H :    0.284671

  Mayer bond orders larger than 0.100000
B(  0-C ,  1-C ) :   0.9330 B(  0-C ,  4-O ) :   0.9224 B(  0-C ,  5-H ) :   0.9266
B(  0-C , 15-O ) :   0.8539 B(  1-C ,  2-C ) :   0.9484 B(  1-C ,  6-H ) :   0.9337
B(  1-C ,  7-H ) :   0.9263 B(  2-C ,  3-C ) :   0.9524 B(  2-C ,  8-H ) :   0.9456
B(  2-C ,  9-H ) :   0.9451 B(  3-C ,  4-O ) :   0.8444 B(  3-C , 10-H ) :   0.9342
B(  3-C , 11-H ) :   0.9394 B( 12-C , 13-H ) :   0.9144 B( 12-C , 14-H ) :   0.9077
B( 12-C , 15-O ) :   0.8579 B( 12-C , 16-C ) :   0.8894 B( 16-C , 17-C ) :   0.8968
B( 16-C , 20-O ) :   0.8621 B( 16-C , 21-H ) :   0.9229 B( 17-C , 18-C ) :   0.9082
B( 17-C , 22-O ) :   0.8960 B( 17-C , 23-H ) :   0.9333 B( 18-C , 19-C ) :   0.9399
B( 18-C , 24-H ) :   0.9373 B( 18-C , 25-H ) :   0.9343 B( 19-C , 20-O ) :   0.8540
B( 19-C , 26-H ) :   0.9352 B( 19-C , 27-H ) :   0.9374 B( 22-O , 28-H ) :   0.7927

FINAL SINGLE POINT ENERGY      -652.851045103017

DIPOLE MOMENT
-------------
                                X             Y             Z
Electronic contribution:     -4.38599      -5.37113       0.71578
Nuclear contribution   :      5.49613       6.81277      -1.29839
                        -----------------------------------------
Total Dipole Moment    :      1.11014       1.44164      -0.58261
                        -----------------------------------------
Magnitude (a.u.)       :      1.91054
Magnitude (Debye)      :      4.85620

Rotational constants in cm-1:     0.064430     0.011809     0.011710
Rotational constants in MHz :  1931.564919   354.020022   351.056821

                             ****ORCA TERMINATED NORMALLY****
TOTAL RUN TIME: 0 days 0 hours 23 minutes 37 seconds 187 msec
