                         Program Version 4.2.0 -  RELEASE  -
|  1> # Test redundant internal optimization
|  2> #
|  3> ! RKS B3LYP  Opt TightSCF SmallPrint
|  4>
|  5> %basis
|  6>         Basis "6-31G"
|  7> end
|  8>
|  9> %geom
| 10> Constraints
| 11> { D 4  0  15  12  180.0   C } # D for Dihedral angle
| 12> { D 0  15  12  16  315.0   C } # D for Dihedral angle
| 13> { D 0  4  3  2   C } # D for Dihedral angle
| 14> { D 4  3  2  1   C } # D for Dihedral angle
| 15> { D 3  2  1  0   C } # D for Dihedral angle
| 16> { D 2  1  0  4   C } # D for Dihedral angle
| 17> { D 1  0  4  3   C } # D for Dihedral angle
| 18> { D 16  20  19  18   C } # D for Dihedral angle
| 19> { D 20  19  18  17   C } # D for Dihedral angle
| 20> { D 19  18  17  16   C } # D for Dihedral angle
| 21> { D 18  17  16  20   C } # D for Dihedral angle
| 22> { D 17  16  20  19   C } # D for Dihedral angle
| 23> { D 15  12  16  20   C } # D for Dihedral angle
| 24> end
| 25> end
| 26>
| 27>
| 28> #%pal
| 29> #nprocs 8
| 30> #end
| 31>
| 32> * xyz 0 1
| 33> C  -21.048   26.222   46.251
| 34> C  -20.361   27.558   45.944
| 35> C  -20.329   28.222   47.341
| 36> C  -20.110   27.022   48.296
| 37> O  -20.473   25.807   47.535
| 38> H  -20.833   25.428   45.533
| 39> H  -19.344   27.382   45.576
| 40> H  -20.898   28.157   45.201
| 41> H  -19.543   28.978   47.434
| 42> H  -21.289   28.710   47.548
| 43> H  -20.733   27.082   49.195
| 44> H  -19.064   26.913   48.597
| 45> C  -23.309   26.834   45.072
| 46> H  -23.378   25.977   44.390
| 47> H  -24.327   27.178   45.295
| 48> O  -22.586   26.394   46.375
| 49> C  -22.571   27.986   44.336
| 50> C  -21.194   27.535   43.835
| 51> C  -21.568   26.750   42.555
| 52> C  -22.779   27.539   42.000
| 53> O  -23.294   28.360   43.116
| 54> H  -22.552   28.867   44.980
| 55> O  -20.324   28.773   43.485
| 56> H  -20.649   26.926   44.564
| 57> H  -20.743   26.691   41.838
| 58> H  -21.860   25.725   42.815
| 59> H  -23.578   26.883   41.639
| 60> H  -22.497   28.226   41.197
| 61> H  -20.850   29.399   42.754
| 62> *
| 63>
| 64>                          ****END OF INPUT****
 Total Charge           Charge          ....    0
 Multiplicity           Mult            ....    1
 Number of Electrons    NEL             ....  102
FINAL SINGLE POINT ENERGY      -652.706578353609
FINAL SINGLE POINT ENERGY      -652.811930831576
FINAL SINGLE POINT ENERGY      -652.834950603469
FINAL SINGLE POINT ENERGY      -652.840386444239
FINAL SINGLE POINT ENERGY      -652.841286085440
FINAL SINGLE POINT ENERGY      -652.841500248505
FINAL SINGLE POINT ENERGY      -652.841539508108
FINAL SINGLE POINT ENERGY      -652.841566171377
FINAL SINGLE POINT ENERGY      -652.841595433108
FINAL SINGLE POINT ENERGY      -652.841605799635
                    ***********************HURRAY********************

CARTESIAN COORDINATES (ANGSTROEM)
---------------------------------
  C    -20.822156   26.173446   46.419171
  C    -19.904086   27.398005   46.346277
  C    -20.222400   28.132747   47.685093
  C    -20.472376   26.949762   48.644818
  O    -20.734200   25.773995   47.790511
  H    -20.531494   25.319453   45.799214
  H    -18.862249   27.053782   46.340056
  H    -20.049504   28.055570   45.495929
  H    -19.400869   28.776881   48.010712
  H    -21.124040   28.740642   47.570092
  H    -21.334680   27.101877   49.299024
  H    -19.595345   26.706087   49.253007
  C    -22.956119   26.972557   45.050944
  H    -23.174200   26.098271   44.418165
  H    -23.907883   27.308311   45.467750
  O    -22.230401   26.502726   46.226864
  C    -22.464702   28.090554   44.102692
  C    -21.190409   27.795105   43.286536
  C    -21.725237   26.815817   42.191788
  C    -23.152881   27.362973   41.929854
  O    -23.507855   28.212439   43.082656
  H    -22.391903   29.053206   44.616509
  O    -20.645701   29.017241   42.721215
  H    -20.374507   27.349161   43.841395
  H    -21.086747   26.845251   41.305960
  H    -21.746604   25.791661   42.576805
  H    -23.901193   26.570780   41.829829
  H    -23.197658   27.996437   41.038248
  H    -21.376601   29.559264   42.355887

 Multiplicity           Mult            ....    1
 Number of Electrons    NEL             ....  102
 Basis Dimension        Dim             ....  149

ORBITAL ENERGIES
----------------

  NO   OCC          E(Eh)            E(eV)
   0   2.0000     -19.154261      -521.2139
   1   2.0000     -19.147932      -521.0417
   2   2.0000     -19.138883      -520.7955
   3   2.0000     -19.134631      -520.6798
   4   2.0000     -10.284868      -279.8655
   5   2.0000     -10.248597      -278.8785
   6   2.0000     -10.244688      -278.7721
   7   2.0000     -10.238993      -278.6172
   8   2.0000     -10.234336      -278.4904
   9   2.0000     -10.223432      -278.1937
  10   2.0000     -10.196589      -277.4633
  11   2.0000     -10.186662      -277.1932
  12   2.0000     -10.186373      -277.1853
  13   2.0000      -1.052135       -28.6301
  14   2.0000      -1.047612       -28.5070
  15   2.0000      -1.017085       -27.6763
  16   2.0000      -0.985860       -26.8266
  17   2.0000      -0.786484       -21.4013
  18   2.0000      -0.784427       -21.3454
  19   2.0000      -0.773282       -21.0421
  20   2.0000      -0.739143       -20.1131
  21   2.0000      -0.679003       -18.4766
  22   2.0000      -0.616864       -16.7857
  23   2.0000      -0.607355       -16.5270
  24   2.0000      -0.597556       -16.2603
  25   2.0000      -0.577730       -15.7208
  26   2.0000      -0.530119       -14.4253
  27   2.0000      -0.519231       -14.1290
  28   2.0000      -0.503917       -13.7123
  29   2.0000      -0.483992       -13.1701
  30   2.0000      -0.480673       -13.0798
  31   2.0000      -0.461805       -12.5663
  32   2.0000      -0.451447       -12.2845
  33   2.0000      -0.437897       -11.9158
  34   2.0000      -0.427581       -11.6351
  35   2.0000      -0.419262       -11.4087
  36   2.0000      -0.410412       -11.1679
  37   2.0000      -0.399179       -10.8622
  38   2.0000      -0.381692       -10.3864
  39   2.0000      -0.377614       -10.2754
  40   2.0000      -0.367318        -9.9952
  41   2.0000      -0.356417        -9.6986
  42   2.0000      -0.349204        -9.5023
  43   2.0000      -0.338170        -9.2021
  44   2.0000      -0.316512        -8.6127
  45   2.0000      -0.311251        -8.4696
  46   2.0000      -0.294116        -8.0033
  47   2.0000      -0.279935        -7.6174
  48   2.0000      -0.260434        -7.0868
  49   2.0000      -0.257108        -6.9963
  50   2.0000      -0.243787        -6.6338
  51   0.0000       0.058624         1.5952
  52   0.0000       0.068478         1.8634
  53   0.0000       0.081971         2.2305
  54   0.0000       0.094045         2.5591
  55   0.0000       0.097954         2.6655

MULLIKEN ATOMIC CHARGES
-----------------------
   0 C :    0.306803
   1 C :   -0.289877
   2 C :   -0.304658
   3 C :    0.002113
   4 O :   -0.494238
   5 H :    0.137159
   6 H :    0.146429
   7 H :    0.167446
   8 H :    0.143462
   9 H :    0.157208
  10 H :    0.153736
  11 H :    0.143492
  12 C :    0.013742
  13 H :    0.126211
  14 H :    0.173404
  15 O :   -0.534370
  16 C :    0.022339
  17 C :    0.089634
  18 C :   -0.307492
  19 C :   -0.030948
  20 O :   -0.520431
  21 H :    0.162032
  22 O :   -0.607150
  23 H :    0.157596
  24 H :    0.166891
  25 H :    0.150395
  26 H :    0.153723
  27 H :    0.148736
  28 H :    0.366614
Sum of atomic charges:   -0.0000000

LOEWDIN ATOMIC CHARGES
----------------------
   0 C :    0.188969
   1 C :   -0.238800
   2 C :   -0.216718
   3 C :   -0.025900
   4 O :   -0.298730
   5 H :    0.095660
   6 H :    0.116100
   7 H :    0.122529
   8 H :    0.115318
   9 H :    0.115291
  10 H :    0.109144
  11 H :    0.102519
  12 C :   -0.038708
  13 H :    0.092555
  14 H :    0.126849
  15 O :   -0.348828
  16 C :    0.002749
  17 C :    0.026708
  18 C :   -0.242328
  19 C :   -0.039712
  20 O :   -0.322112
  21 H :    0.114042
  22 O :   -0.413501
  23 H :    0.116529
  24 H :    0.128760
  25 H :    0.115864
  26 H :    0.107085
  27 H :    0.104035
  28 H :    0.284635

  Mayer bond orders larger than 0.100000
B(  0-C ,  1-C ) :   0.9243 B(  0-C ,  4-O ) :   0.9410 B(  0-C ,  5-H ) :   0.9205
B(  0-C , 15-O ) :   0.8257 B(  1-C ,  2-C ) :   0.9452 B(  1-C ,  6-H ) :   0.9328
B(  1-C ,  7-H ) :   0.9163 B(  2-C ,  3-C ) :   0.9546 B(  2-C ,  8-H ) :   0.9441
B(  2-C ,  9-H ) :   0.9448 B(  3-C ,  4-O ) :   0.8308 B(  3-C , 10-H ) :   0.9351
B(  3-C , 11-H ) :   0.9391 B( 12-C , 13-H ) :   0.9216 B( 12-C , 14-H ) :   0.9299
B( 12-C , 15-O ) :   0.8532 B( 12-C , 16-C ) :   0.8685 B( 16-C , 17-C ) :   0.9056
B( 16-C , 20-O ) :   0.8255 B( 16-C , 21-H ) :   0.9238 B( 17-C , 18-C ) :   0.9061
B( 17-C , 22-O ) :   0.8824 B( 17-C , 23-H ) :   0.9178 B( 18-C , 19-C ) :   0.9440
B( 18-C , 24-H ) :   0.9366 B( 18-C , 25-H ) :   0.9329 B( 19-C , 20-O ) :   0.8350
B( 19-C , 26-H ) :   0.9337 B( 19-C , 27-H ) :   0.9381 B( 22-O , 28-H ) :   0.7939

FINAL SINGLE POINT ENERGY      -652.841605751576

DIPOLE MOMENT
-------------
                                X             Y             Z
Electronic contribution:     -2.18799      -0.62935       0.35276
Nuclear contribution   :      2.51612       0.92978      -1.07569
                        -----------------------------------------
Total Dipole Moment    :      0.32813       0.30043      -0.72292
                        -----------------------------------------
Magnitude (a.u.)       :      0.84885
Magnitude (Debye)      :      2.15761

Rotational constants in cm-1:     0.055027     0.014268     0.013109
Rotational constants in MHz :  1649.662672   427.751635   392.984691

                             ****ORCA TERMINATED NORMALLY****
TOTAL RUN TIME: 0 days 0 hours 30 minutes 55 seconds 793 msec
