                         Program Version 4.2.1 -  RELEASE  -
|  1> # Test redundant internal optimization
|  2> #
|  3> ! RKS B3LYP  Opt TightSCF SmallPrint
|  4>
|  5> %basis
|  6>         Basis "6-31G"
|  7> end
|  8>
|  9> %geom
| 10> Constraints
| 11> { D 4  0  19  14  90.0   C } # D for Dihedral angle
| 12> { D 0  19  14  12  180.0   C } # D for Dihedral angle
| 13> { D 0  4  3  2   C } # D for Dihedral angle
| 14> { D 4  3  2  1   C } # D for Dihedral angle
| 15> { D 3  2  1  0   C } # D for Dihedral angle
| 16> { D 2  1  0  4   C } # D for Dihedral angle
| 17> { D 1  0  4  3   C } # D for Dihedral angle
| 18> { D 14  15  16  17   C } # D for Dihedral angle
| 19> { D 15  16  17  12   C } # D for Dihedral angle
| 20> { D 16  17  12  14   C } # D for Dihedral angle
| 21> { D 17  12  14  15   C } # D for Dihedral angle
| 22> { D 12  14  15  16   C } # D for Dihedral angle
| 23> end
| 24> end
| 25>
| 26>
| 27> #%pal
| 28> #nprocs 8
| 29> #end
| 30>
| 31> * xyz 0 1
| 32> C  -21.048   26.222   46.251
| 33> C  -20.361   27.558   45.944
| 34> C  -20.329   28.222   47.341
| 35> C  -20.110   27.022   48.296
| 36> O  -20.473   25.807   47.535
| 37> H  -20.833   25.428   45.533
| 38> H  -19.344   27.382   45.576
| 39> H  -20.898   28.157   45.201
| 40> H  -19.543   28.978   47.434
| 41> H  -21.289   28.710   47.548
| 42> H  -20.733   27.082   49.195
| 43> H  -19.064   26.913   48.597
| 44> C  -24.421   27.761   46.838
| 45> H  -24.783   28.801   46.837
| 46> C  -22.892   27.702   46.744
| 47> C  -22.476   28.011   48.201
| 48> C  -23.592   27.336   49.037
| 49> O  -24.730   27.113   48.117
| 50> H  -24.944   27.199   46.062
| 51> O  -22.472   26.381   46.366
| 52> H  -22.478   28.416   46.024
| 53> H  -21.480   27.630   48.449
| 54> H  -22.470   29.095   48.370
| 55> H  -23.925   27.957   49.875
| 56> H  -23.292   26.356   49.421
| 57> *
| 58>
| 59>                          ****END OF INPUT****
 Total Charge           Charge          ....    0
 Multiplicity           Mult            ....    1
 Number of Electrons    NEL             ....   86
FINAL SINGLE POINT ENERGY      -538.273188810445
FINAL SINGLE POINT ENERGY      -538.407960812242
FINAL SINGLE POINT ENERGY      -538.416329731566
FINAL SINGLE POINT ENERGY      -538.419494151080
FINAL SINGLE POINT ENERGY      -538.420549097717
FINAL SINGLE POINT ENERGY      -538.421095327144
FINAL SINGLE POINT ENERGY      -538.421222355333
FINAL SINGLE POINT ENERGY      -538.421242190636
FINAL SINGLE POINT ENERGY      -538.421243563495
                    ***********************HURRAY********************

CARTESIAN COORDINATES (ANGSTROEM)
---------------------------------
  C    -21.078387   26.386804   46.361003
  C    -20.134371   27.501151   45.885449
  C    -19.716979   28.168393   47.228223
  C    -19.661017   26.960367   48.200259
  O    -20.435302   25.874545   47.552881
  H    -21.078685   25.535165   45.677103
  H    -19.271245   27.035321   45.400009
  H    -20.599381   28.194306   45.178806
  H    -18.748871   28.674213   47.157517
  H    -20.455417   28.911807   47.537759
  H    -20.087235   27.173291   49.186015
  H    -18.641811   26.586568   48.334615
  C    -24.625579   27.614001   46.798772
  H    -25.193759   28.555316   46.767951
  C    -23.124041   27.891300   46.871997
  C    -22.942249   28.216037   48.366477
  C    -23.958673   27.282871   49.063489
  O    -24.918487   26.858946   48.019033
  H    -24.890459   26.985445   45.948277
  O    -22.494537   26.637758   46.458245
  H    -22.806368   28.711663   46.214745
  H    -21.930692   28.055243   48.731332
  H    -23.198650   29.270608   48.532097
  H    -24.502180   27.782404   49.872962
  H    -23.485625   26.375478   49.446985

 Multiplicity           Mult            ....    1
 Number of Electrons    NEL             ....   86
 Basis Dimension        Dim             ....  127

ORBITAL ENERGIES
----------------

  NO   OCC          E(Eh)            E(eV)
   0   2.0000     -19.142535      -520.8949
   1   2.0000     -19.142320      -520.8890
   2   2.0000     -19.125382      -520.4281
   3   2.0000     -10.278857      -279.7019
   4   2.0000     -10.244672      -278.7717
   5   2.0000     -10.232294      -278.4349
   6   2.0000     -10.220629      -278.1175
   7   2.0000     -10.218144      -278.0498
   8   2.0000     -10.196939      -277.4728
   9   2.0000     -10.195611      -277.4367
  10   2.0000     -10.188350      -277.2391
  11   2.0000      -1.049938       -28.5703
  12   2.0000      -1.013400       -27.5760
  13   2.0000      -0.990828       -26.9618
  14   2.0000      -0.792227       -21.5576
  15   2.0000      -0.788798       -21.4643
  16   2.0000      -0.743592       -20.2342
  17   2.0000      -0.723663       -19.6919
  18   2.0000      -0.625268       -17.0144
  19   2.0000      -0.607505       -16.5310
  20   2.0000      -0.598827       -16.2949
  21   2.0000      -0.561958       -15.2917
  22   2.0000      -0.519534       -14.1372
  23   2.0000      -0.510005       -13.8779
  24   2.0000      -0.490324       -13.3424
  25   2.0000      -0.485494       -13.2110
  26   2.0000      -0.453172       -12.3314
  27   2.0000      -0.445415       -12.1203
  28   2.0000      -0.429137       -11.6774
  29   2.0000      -0.418839       -11.3972
  30   2.0000      -0.410966       -11.1829
  31   2.0000      -0.386218       -10.5095
  32   2.0000      -0.382489       -10.4081
  33   2.0000      -0.368170       -10.0184
  34   2.0000      -0.364972        -9.9314
  35   2.0000      -0.358660        -9.7596
  36   2.0000      -0.350984        -9.5508
  37   2.0000      -0.317998        -8.6532
  38   2.0000      -0.301056        -8.1922
  39   2.0000      -0.289783        -7.8854
  40   2.0000      -0.268145        -7.2966
  41   2.0000      -0.258012        -7.0209
  42   2.0000      -0.231015        -6.2862
  43   0.0000       0.067181         1.8281
  44   0.0000       0.087850         2.3905
  45   0.0000       0.093087         2.5330
  46   0.0000       0.108980         2.9655
  47   0.0000       0.115247         3.1360

MULLIKEN ATOMIC CHARGES
-----------------------
   0 C :    0.310882
   1 C :   -0.291435
   2 C :   -0.316127
   3 C :   -0.015465
   4 O :   -0.500109
   5 H :    0.168483
   6 H :    0.160146
   7 H :    0.147851
   8 H :    0.146456
   9 H :    0.151560
  10 H :    0.145263
  11 H :    0.148358
  12 C :    0.012414
  13 H :    0.121602
  14 C :    0.067930
  15 C :   -0.307488
  16 C :    0.004888
  17 O :   -0.516249
  18 H :    0.169666
  19 O :   -0.519032
  20 H :    0.125565
  21 H :    0.154196
  22 H :    0.137027
  23 H :    0.132309
  24 H :    0.161305
Sum of atomic charges:    0.0000000

LOEWDIN ATOMIC CHARGES
----------------------
   0 C :    0.174252
   1 C :   -0.229429
   2 C :   -0.225198
   3 C :   -0.036969
   4 O :   -0.318941
   5 H :    0.113207
   6 H :    0.124153
   7 H :    0.116778
   8 H :    0.116069
   9 H :    0.109784
  10 H :    0.099144
  11 H :    0.106062
  12 C :   -0.031106
  13 H :    0.089653
  14 C :    0.037648
  15 C :   -0.240593
  16 C :   -0.026272
  17 O :   -0.325806
  18 H :    0.124712
  19 O :   -0.313503
  20 H :    0.093747
  21 H :    0.121709
  22 H :    0.111168
  23 H :    0.097246
  24 H :    0.112485

  Mayer bond orders larger than 0.100000
B(  0-C ,  1-C ) :   0.9177 B(  0-C ,  4-O ) :   0.8961 B(  0-C ,  5-H ) :   0.9368
B(  0-C , 19-O ) :   0.9085 B(  1-C ,  2-C ) :   0.9543 B(  1-C ,  6-H ) :   0.9355
B(  1-C ,  7-H ) :   0.9356 B(  2-C ,  3-C ) :   0.9482 B(  2-C ,  8-H ) :   0.9449
B(  2-C ,  9-H ) :   0.9384 B(  3-C ,  4-O ) :   0.8511 B(  3-C , 10-H ) :   0.9226
B(  3-C , 11-H ) :   0.9367 B( 12-C , 13-H ) :   0.9151 B( 12-C , 14-C ) :   0.9355
B( 12-C , 17-O ) :   0.8765 B( 12-C , 18-H ) :   0.9290 B( 14-C , 15-C ) :   0.9328
B( 14-C , 19-O ) :   0.8341 B( 14-C , 20-H ) :   0.9177 B( 15-C , 16-C ) :   0.9413
B( 15-C , 21-H ) :   0.9235 B( 15-C , 22-H ) :   0.9361 B( 16-C , 17-O ) :   0.8588
B( 16-C , 23-H ) :   0.9330 B( 16-C , 24-H ) :   0.9341

FINAL SINGLE POINT ENERGY      -538.421241694266

DIPOLE MOMENT
-------------
                                X             Y             Z
Electronic contribution:     -3.19107      -4.85733      -1.17031
Nuclear contribution   :      4.33325       6.53462       0.97831
                        -----------------------------------------
Total Dipole Moment    :      1.14218       1.67730      -0.19200
                        -----------------------------------------
Magnitude (a.u.)       :      2.03832
Magnitude (Debye)      :      5.18101

Rotational constants in cm-1:     0.071923     0.024442     0.022854
Rotational constants in MHz :  2156.199355   732.757692   685.137921

                             ****ORCA TERMINATED NORMALLY****
TOTAL RUN TIME: 0 days 0 hours 11 minutes 26 seconds 633 msec
