                         Program Version 4.2.0 -  RELEASE  -
|  1> # Test redundant internal optimization
|  2> #
|  3> ! RKS B3LYP  Opt TightSCF SmallPrint
|  4>
|  5> %basis
|  6>         Basis "6-31G"
|  7> end
|  8>
|  9> %geom
| 10> Constraints
| 11> { D 4  0  15  12  315.0   C } # D for Dihedral angle
| 12> { D 0  15  12  16  45.0   C } # D for Dihedral angle
| 13> { D 0  4  3  2   C } # D for Dihedral angle
| 14> { D 4  3  2  1   C } # D for Dihedral angle
| 15> { D 3  2  1  0   C } # D for Dihedral angle
| 16> { D 2  1  0  4   C } # D for Dihedral angle
| 17> { D 1  0  4  3   C } # D for Dihedral angle
| 18> { D 16  20  19  18   C } # D for Dihedral angle
| 19> { D 20  19  18  17   C } # D for Dihedral angle
| 20> { D 19  18  17  16   C } # D for Dihedral angle
| 21> { D 18  17  16  20   C } # D for Dihedral angle
| 22> { D 17  16  20  19   C } # D for Dihedral angle
| 23> { D 15  12  16  20   C } # D for Dihedral angle
| 24> end
| 25> end
| 26>
| 27>
| 28> #%pal
| 29> #nprocs 8
| 30> #end
| 31>
| 32> * xyz 0 1
| 33> C  -21.048   26.222   46.251
| 34> C  -20.361   27.558   45.944
| 35> C  -20.329   28.222   47.341
| 36> C  -20.110   27.022   48.296
| 37> O  -20.473   25.807   47.535
| 38> H  -20.833   25.428   45.533
| 39> H  -19.344   27.382   45.576
| 40> H  -20.898   28.157   45.201
| 41> H  -19.543   28.978   47.434
| 42> H  -21.289   28.710   47.548
| 43> H  -20.733   27.082   49.195
| 44> H  -19.064   26.913   48.597
| 45> C  -23.319   25.255   47.135
| 46> H  -24.333   25.585   47.393
| 47> H  -23.400   24.361   46.502
| 48> O  -22.586   26.394   46.375
| 49> C  -22.591   24.841   48.444
| 50> C  -22.582   25.988   49.461
| 51> C  -24.012   25.901   50.046
| 52> C  -24.298   24.378   50.049
| 53> O  -23.324   23.765   49.120
| 54> H  -21.604   24.449   48.196
| 55> H  -21.834   25.795   50.239
| 56> O  -22.276   27.370   48.821
| 57> H  -24.090   26.342   51.044
| 58> H  -24.718   26.425   49.392
| 59> H  -25.313   24.141   49.713
| 60> H  -24.136   23.925   51.031
| 61> H  -23.013   27.584   48.039
| 62> *
| 63>
| 64>                          ****END OF INPUT****
 Total Charge           Charge          ....    0
 Multiplicity           Mult            ....    1
 Number of Electrons    NEL             ....  102
FINAL SINGLE POINT ENERGY      -652.783782636725
FINAL SINGLE POINT ENERGY      -652.830304384815
FINAL SINGLE POINT ENERGY      -652.851472314431
FINAL SINGLE POINT ENERGY      -652.856774172299
FINAL SINGLE POINT ENERGY      -652.857899426890
FINAL SINGLE POINT ENERGY      -652.858186699333
FINAL SINGLE POINT ENERGY      -652.858259610799
FINAL SINGLE POINT ENERGY      -652.858278362025
FINAL SINGLE POINT ENERGY      -652.858281978062
                    ***********************HURRAY********************

CARTESIAN COORDINATES (ANGSTROEM)
---------------------------------
  C    -21.022269   26.266560   46.361611
  C    -20.495931   27.607595   45.846630
  C    -20.203148   28.362157   47.167225
  C    -19.716080   27.244045   48.116718
  O    -20.183832   25.962508   47.485827
  H    -20.827231   25.442631   45.661794
  H    -19.574556   27.424087   45.284274
  H    -21.214242   28.118761   45.201703
  H    -19.451597   29.147768   47.039777
  H    -21.112745   28.831040   47.554653
  H    -20.142225   27.318048   49.112483
  H    -18.625080   27.168515   48.153113
  C    -23.194669   25.233771   47.246745
  H    -24.202382   25.640508   47.360288
  H    -23.264308   24.352945   46.593366
  O    -22.483611   26.301457   46.505928
  C    -22.641310   24.752443   48.600870
  C    -22.721386   25.852216   49.681786
  C    -24.245252   25.832916   50.058108
  C    -24.592388   24.333295   49.926568
  O    -23.522542   23.707974   49.109033
  H    -21.647254   24.323500   48.496960
  H    -22.097917   25.599267   50.541714
  O    -22.333661   27.185520   49.271281
  H    -24.418571   26.225632   51.062907
  H    -24.797135   26.457468   49.349156
  H    -25.557210   24.152546   49.441246
  H    -24.587470   23.819230   50.892041
  H    -22.577997   27.315597   48.327197

 Multiplicity           Mult            ....    1
 Number of Electrons    NEL             ....  102
 Basis Dimension        Dim             ....  149

ORBITAL ENERGIES
----------------

  NO   OCC          E(Eh)            E(eV)
   0   2.0000     -19.158043      -521.3169
   1   2.0000     -19.150258      -521.1050
   2   2.0000     -19.141328      -520.8620
   3   2.0000     -19.133443      -520.6474
   4   2.0000     -10.282559      -279.8027
   5   2.0000     -10.237303      -278.5712
   6   2.0000     -10.234213      -278.4871
   7   2.0000     -10.231279      -278.4073
   8   2.0000     -10.227551      -278.3058
   9   2.0000     -10.218454      -278.0583
  10   2.0000     -10.188998      -277.2567
  11   2.0000     -10.186493      -277.1886
  12   2.0000     -10.184911      -277.1455
  13   2.0000      -1.053532       -28.6681
  14   2.0000      -1.029145       -28.0045
  15   2.0000      -1.009631       -27.4735
  16   2.0000      -0.999396       -27.1949
  17   2.0000      -0.790920       -21.5220
  18   2.0000      -0.772122       -21.0105
  19   2.0000      -0.763592       -20.7784
  20   2.0000      -0.733542       -19.9607
  21   2.0000      -0.677781       -18.4433
  22   2.0000      -0.602420       -16.3927
  23   2.0000      -0.600715       -16.3463
  24   2.0000      -0.597982       -16.2719
  25   2.0000      -0.571992       -15.5647
  26   2.0000      -0.527819       -14.3627
  27   2.0000      -0.511336       -13.9142
  28   2.0000      -0.495821       -13.4920
  29   2.0000      -0.486847       -13.2478
  30   2.0000      -0.464961       -12.6522
  31   2.0000      -0.456848       -12.4315
  32   2.0000      -0.438977       -11.9452
  33   2.0000      -0.434398       -11.8206
  34   2.0000      -0.424861       -11.5611
  35   2.0000      -0.408726       -11.1220
  36   2.0000      -0.404480       -11.0065
  37   2.0000      -0.396514       -10.7897
  38   2.0000      -0.378815       -10.3081
  39   2.0000      -0.367074        -9.9886
  40   2.0000      -0.359149        -9.7729
  41   2.0000      -0.353566        -9.6210
  42   2.0000      -0.350378        -9.5343
  43   2.0000      -0.344591        -9.3768
  44   2.0000      -0.332195        -9.0395
  45   2.0000      -0.306746        -8.3470
  46   2.0000      -0.303370        -8.2551
  47   2.0000      -0.273019        -7.4292
  48   2.0000      -0.261157        -7.1064
  49   2.0000      -0.256433        -6.9779
  50   2.0000      -0.241426        -6.5695
  51   0.0000       0.058499         1.5918
  52   0.0000       0.081100         2.2068
  53   0.0000       0.093398         2.5415
  54   0.0000       0.098299         2.6749
  55   0.0000       0.109385         2.9765

MULLIKEN ATOMIC CHARGES
-----------------------
   0 C :    0.300328
   1 C :   -0.271815
   2 C :   -0.314870
   3 C :   -0.024540
   4 O :   -0.518164
   5 H :    0.149220
   6 H :    0.154772
   7 H :    0.160107
   8 H :    0.145472
   9 H :    0.155634
  10 H :    0.194978
  11 H :    0.140852
  12 C :   -0.051621
  13 H :    0.156519
  14 H :    0.159990
  15 O :   -0.544181
  16 C :    0.062793
  17 C :    0.099005
  18 C :   -0.303235
  19 C :   -0.016111
  20 O :   -0.520769
  21 H :    0.190865
  22 H :    0.156054
  23 O :   -0.629158
  24 H :    0.150637
  25 H :    0.145186
  26 H :    0.139787
  27 H :    0.150309
  28 H :    0.381954
Sum of atomic charges:   -0.0000000

LOEWDIN ATOMIC CHARGES
----------------------
   0 C :    0.169818
   1 C :   -0.214321
   2 C :   -0.217856
   3 C :   -0.041165
   4 O :   -0.319942
   5 H :    0.094217
   6 H :    0.119479
   7 H :    0.125327
   8 H :    0.116421
   9 H :    0.114492
  10 H :    0.127748
  11 H :    0.100974
  12 C :   -0.056391
  13 H :    0.112407
  14 H :    0.110800
  15 O :   -0.342412
  16 C :    0.007560
  17 C :    0.039274
  18 C :   -0.237096
  19 C :   -0.033887
  20 O :   -0.319475
  21 H :    0.130563
  22 H :    0.113386
  23 O :   -0.416584
  24 H :    0.121528
  25 H :    0.110127
  26 H :    0.100547
  27 H :    0.106453
  28 H :    0.278006

  Mayer bond orders larger than 0.100000
B(  0-C ,  1-C ) :   0.9380 B(  0-C ,  4-O ) :   0.9198 B(  0-C ,  5-H ) :   0.9283
B(  0-C , 15-O ) :   0.8244 B(  1-C ,  2-C ) :   0.9577 B(  1-C ,  6-H ) :   0.9388
B(  1-C ,  7-H ) :   0.9363 B(  2-C ,  3-C ) :   0.9596 B(  2-C ,  8-H ) :   0.9447
B(  2-C ,  9-H ) :   0.9412 B(  3-C ,  4-O ) :   0.8059 B(  3-C , 10-H ) :   0.9080
B(  3-C , 11-H ) :   0.9374 B( 12-C , 13-H ) :   0.9361 B( 12-C , 14-H ) :   0.9259
B( 12-C , 15-O ) :   0.8105 B( 12-C , 16-C ) :   0.8824 B( 16-C , 17-C ) :   0.9033
B( 16-C , 20-O ) :   0.8320 B( 16-C , 21-H ) :   0.9154 B( 17-C , 18-C ) :   0.9097
B( 17-C , 22-H ) :   0.9347 B( 17-C , 23-O ) :   0.8919 B( 18-C , 19-C ) :   0.9375
B( 18-C , 24-H ) :   0.9454 B( 18-C , 25-H ) :   0.9426 B( 19-C , 20-O ) :   0.8337
B( 19-C , 26-H ) :   0.9344 B( 19-C , 27-H ) :   0.9387 B( 23-O , 28-H ) :   0.7301

FINAL SINGLE POINT ENERGY      -652.858283298053

DIPOLE MOMENT
-------------
                                X             Y             Z
Electronic contribution:      0.21691      -3.60024      -0.47932
Nuclear contribution   :     -0.33537       4.21553       0.33848
                        -----------------------------------------
Total Dipole Moment    :     -0.11846       0.61529      -0.14084
                        -----------------------------------------
Magnitude (a.u.)       :      0.64223
Magnitude (Debye)      :      1.63241

Rotational constants in cm-1:     0.055862     0.017223     0.015707
Rotational constants in MHz :  1674.691152   516.344056   470.882787

                             ****ORCA TERMINATED NORMALLY****
TOTAL RUN TIME: 0 days 1 hours 18 minutes 6 seconds 166 msec
