                         Program Version 4.2.1 -  RELEASE  -
|  1> # Test redundant internal optimization
|  2> #
|  3> ! RKS B3LYP  Opt TightSCF SmallPrint
|  4>
|  5> %basis
|  6>         Basis "6-31G"
|  7> end
|  8>
|  9> %geom
| 10> Constraints
| 11> { D 4  0  19  14  180.0   C } # D for Dihedral angle
| 12> { D 0  19  14  12  225.0   C } # D for Dihedral angle
| 13> { D 0  4  3  2   C } # D for Dihedral angle
| 14> { D 4  3  2  1   C } # D for Dihedral angle
| 15> { D 3  2  1  0   C } # D for Dihedral angle
| 16> { D 2  1  0  4   C } # D for Dihedral angle
| 17> { D 1  0  4  3   C } # D for Dihedral angle
| 18> { D 14  15  16  17   C } # D for Dihedral angle
| 19> { D 15  16  17  12   C } # D for Dihedral angle
| 20> { D 16  17  12  14   C } # D for Dihedral angle
| 21> { D 17  12  14  15   C } # D for Dihedral angle
| 22> { D 12  14  15  16   C } # D for Dihedral angle
| 23> end
| 24> end
| 25>
| 26>
| 27> #%pal
| 28> #nprocs 8
| 29> #end
| 30>
| 31> * xyz 0 1
| 32> C  -21.048   26.222   46.251
| 33> C  -20.361   27.558   45.944
| 34> C  -20.329   28.222   47.341
| 35> C  -20.110   27.022   48.296
| 36> O  -20.473   25.807   47.535
| 37> H  -20.833   25.428   45.533
| 38> H  -19.344   27.382   45.576
| 39> H  -20.898   28.157   45.201
| 40> H  -19.543   28.978   47.434
| 41> H  -21.289   28.710   47.548
| 42> H  -20.733   27.082   49.195
| 43> H  -19.064   26.913   48.597
| 44> C  -24.129   27.906   45.444
| 45> H  -24.838   28.036   44.610
| 46> C  -23.122   26.788   45.152
| 47> C  -22.125   27.501   44.210
| 48> C  -22.090   28.947   44.764
| 49> O  -23.300   29.106   45.600
| 50> H  -24.688   27.781   46.372
| 51> O  -22.472   26.381   46.366
| 52> H  -23.582   25.905   44.693
| 53> H  -21.136   27.032   44.204
| 54> H  -22.505   27.491   43.180
| 55> H  -22.101   29.702   43.970
| 56> H  -21.226   29.126   45.410
| 57> *
| 58>
| 59>                          ****END OF INPUT****
 Total Charge           Charge          ....    0
 Multiplicity           Mult            ....    1
 Number of Electrons    NEL             ....   86
FINAL SINGLE POINT ENERGY      -538.292056218106
FINAL SINGLE POINT ENERGY      -538.408681552372
FINAL SINGLE POINT ENERGY      -538.415495586949
FINAL SINGLE POINT ENERGY      -538.417724572215
FINAL SINGLE POINT ENERGY      -538.418198547275
FINAL SINGLE POINT ENERGY      -538.418331590605
FINAL SINGLE POINT ENERGY      -538.418353541320
FINAL SINGLE POINT ENERGY      -538.418360451059
                    ***********************HURRAY********************

CARTESIAN COORDINATES (ANGSTROEM)
---------------------------------
  C    -20.800417   26.216684   46.270488
  C    -19.959217   27.486982   46.155660
  C    -20.185982   28.152266   47.537987
  C    -20.284201   26.937226   48.482061
  O    -20.566523   25.770522   47.612356
  H    -20.506258   25.406276   45.595780
  H    -18.910106   27.181793   46.047337
  H    -20.207220   28.127924   45.315035
  H    -19.375218   28.833475   47.812463
  H    -21.125941   28.712197   47.520839
  H    -21.089406   27.026659   49.215820
  H    -19.343670   26.721792   48.998723
  C    -24.051073   27.915607   45.594733
  H    -24.958507   27.928034   44.975167
  C    -23.059801   26.867414   45.085372
  C    -22.426011   27.599698   43.891252
  C    -22.375671   29.080747   44.350464
  O    -23.331165   29.196231   45.480024
  H    -24.309380   27.770900   46.643119
  O    -22.247184   26.416175   46.210671
  H    -23.590469   25.973577   44.728052
  H    -21.448234   27.203530   43.602083
  H    -23.095942   27.486134   43.032701
  H    -22.689854   29.764374   43.552667
  H    -21.401552   29.406785   44.715147

 Multiplicity           Mult            ....    1
 Number of Electrons    NEL             ....   86
 Basis Dimension        Dim             ....  127

ORBITAL ENERGIES
----------------

  NO   OCC          E(Eh)            E(eV)
   0   2.0000     -19.136231      -520.7233
   1   2.0000     -19.135947      -520.7156
   2   2.0000     -19.131811      -520.6031
   3   2.0000     -10.280842      -279.7559
   4   2.0000     -10.243565      -278.7416
   5   2.0000     -10.229630      -278.3624
   6   2.0000     -10.222138      -278.1585
   7   2.0000     -10.220721      -278.1200
   8   2.0000     -10.198183      -277.5067
   9   2.0000     -10.185216      -277.1538
  10   2.0000     -10.181520      -277.0532
  11   2.0000      -1.048570       -28.5331
  12   2.0000      -1.016210       -27.6525
  13   2.0000      -0.981867       -26.7180
  14   2.0000      -0.789685       -21.4884
  15   2.0000      -0.783240       -21.3130
  16   2.0000      -0.748972       -20.3806
  17   2.0000      -0.720577       -19.6079
  18   2.0000      -0.619853       -16.8671
  19   2.0000      -0.606080       -16.4923
  20   2.0000      -0.595265       -16.1980
  21   2.0000      -0.566694       -15.4205
  22   2.0000      -0.514605       -14.0031
  23   2.0000      -0.503493       -13.7007
  24   2.0000      -0.494148       -13.4465
  25   2.0000      -0.486796       -13.2464
  26   2.0000      -0.454434       -12.3658
  27   2.0000      -0.445736       -12.1291
  28   2.0000      -0.422243       -11.4898
  29   2.0000      -0.418822       -11.3967
  30   2.0000      -0.404886       -11.0175
  31   2.0000      -0.392532       -10.6813
  32   2.0000      -0.375603       -10.2207
  33   2.0000      -0.371110       -10.0984
  34   2.0000      -0.364205        -9.9105
  35   2.0000      -0.354654        -9.6506
  36   2.0000      -0.345861        -9.4114
  37   2.0000      -0.312107        -8.4929
  38   2.0000      -0.307504        -8.3676
  39   2.0000      -0.289833        -7.8868
  40   2.0000      -0.254270        -6.9190
  41   2.0000      -0.248357        -6.7581
  42   2.0000      -0.240402        -6.5417
  43   0.0000       0.073820         2.0087
  44   0.0000       0.085193         2.3182
  45   0.0000       0.099173         2.6986
  46   0.0000       0.104440         2.8420
  47   0.0000       0.112392         3.0583

MULLIKEN ATOMIC CHARGES
-----------------------
   0 C :    0.311336
   1 C :   -0.277425
   2 C :   -0.310688
   3 C :   -0.000024
   4 O :   -0.496199
   5 H :    0.137854
   6 H :    0.144551
   7 H :    0.132258
   8 H :    0.139303
   9 H :    0.180250
  10 H :    0.154217
  11 H :    0.140770
  12 C :   -0.007042
  13 H :    0.126608
  14 C :    0.105617
  15 C :   -0.325101
  16 C :   -0.008130
  17 O :   -0.523028
  18 H :    0.173645
  19 O :   -0.532278
  20 H :    0.136180
  21 H :    0.149081
  22 H :    0.154113
  23 H :    0.140601
  24 H :    0.153529
Sum of atomic charges:   -0.0000000

LOEWDIN ATOMIC CHARGES
----------------------
   0 C :    0.190721
   1 C :   -0.233272
   2 C :   -0.220054
   3 C :   -0.025147
   4 O :   -0.301203
   5 H :    0.094527
   6 H :    0.114543
   7 H :    0.112084
   8 H :    0.113382
   9 H :    0.126346
  10 H :    0.109309
  11 H :    0.101315
  12 C :   -0.037601
  13 H :    0.092364
  14 C :    0.045287
  15 C :   -0.240607
  16 C :   -0.034660
  17 O :   -0.333983
  18 H :    0.126307
  19 O :   -0.342095
  20 H :    0.099992
  21 H :    0.117986
  22 H :    0.122640
  23 H :    0.099862
  24 H :    0.101961

  Mayer bond orders larger than 0.100000
B(  0-C ,  1-C ) :   0.9276 B(  0-C ,  4-O ) :   0.9407 B(  0-C ,  5-H ) :   0.9229
B(  0-C , 19-O ) :   0.8264 B(  1-C ,  2-C ) :   0.9521 B(  1-C ,  6-H ) :   0.9323
B(  1-C ,  7-H ) :   0.9163 B(  2-C ,  3-C ) :   0.9539 B(  2-C ,  8-H ) :   0.9446
B(  2-C ,  9-H ) :   0.9336 B(  3-C ,  4-O ) :   0.8316 B(  3-C , 10-H ) :   0.9351
B(  3-C , 11-H ) :   0.9396 B( 12-C , 13-H ) :   0.9145 B( 12-C , 14-C ) :   0.9232
B( 12-C , 17-O ) :   0.8601 B( 12-C , 18-H ) :   0.9306 B( 14-C , 15-C ) :   0.9311
B( 14-C , 19-O ) :   0.8563 B( 14-C , 20-H ) :   0.9269 B( 15-C , 16-C ) :   0.9414
B( 15-C , 21-H ) :   0.9345 B( 15-C , 22-H ) :   0.9340 B( 16-C , 17-O ) :   0.8617
B( 16-C , 23-H ) :   0.9306 B( 16-C , 24-H ) :   0.9191

FINAL SINGLE POINT ENERGY      -538.418361763752

DIPOLE MOMENT
-------------
                                X             Y             Z
Electronic contribution:     -1.95719      -3.05301       1.94292
Nuclear contribution   :      2.41263       3.38818      -3.00285
                        -----------------------------------------
Total Dipole Moment    :      0.45544       0.33517      -1.05993
                        -----------------------------------------
Magnitude (a.u.)       :      1.20134
Magnitude (Debye)      :      3.05357

Rotational constants in cm-1:     0.067416     0.025344     0.023929
Rotational constants in MHz :  2021.084551   759.786622   717.372748

                             ****ORCA TERMINATED NORMALLY****
TOTAL RUN TIME: 0 days 0 hours 10 minutes 15 seconds 883 msec
