                         Program Version 4.2.0 -  RELEASE  -
|  1> # Test redundant internal optimization
|  2> #
|  3> ! RKS B3LYP  Opt TightSCF SmallPrint
|  4>
|  5> %basis
|  6>         Basis "6-31G"
|  7> end
|  8>
|  9> %geom
| 10> Constraints
| 11> { D 4  0  15  12  150.0   C } # D for Dihedral angle
| 12> { D 0  15  12  16  105.0   C } # D for Dihedral angle
| 13> { D 0  4  3  2   C } # D for Dihedral angle
| 14> { D 4  3  2  1   C } # D for Dihedral angle
| 15> { D 3  2  1  0   C } # D for Dihedral angle
| 16> { D 2  1  0  4   C } # D for Dihedral angle
| 17> { D 1  0  4  3   C } # D for Dihedral angle
| 18> { D 16  20  19  18   C } # D for Dihedral angle
| 19> { D 20  19  18  17   C } # D for Dihedral angle
| 20> { D 19  18  17  16   C } # D for Dihedral angle
| 21> { D 18  17  16  20   C } # D for Dihedral angle
| 22> { D 17  16  20  19   C } # D for Dihedral angle
| 23> { D 15  12  16  20   C } # D for Dihedral angle
| 24> end
| 25> end
| 26>
| 27>
| 28> #%pal
| 29> #nprocs 8
| 30> #end
| 31>
| 32> * xyz 0 1
| 33> C  -21.048   26.222   46.251
| 34> C  -20.361   27.558   45.944
| 35> C  -20.329   28.222   47.341
| 36> C  -20.110   27.022   48.296
| 37> O  -20.473   25.807   47.535
| 38> H  -20.833   25.428   45.533
| 39> H  -19.344   27.382   45.576
| 40> H  -20.898   28.157   45.201
| 41> H  -19.543   28.978   47.434
| 42> H  -21.289   28.710   47.548
| 43> H  -20.733   27.082   49.195
| 44> H  -19.064   26.913   48.597
| 45> C  -23.210   27.459   45.431
| 46> H  -23.913   28.079   46.001
| 47> H  -22.429   28.113   45.022
| 48> O  -22.586   26.394   46.375
| 49> C  -23.973   26.827   44.235
| 50> C  -24.475   27.902   43.265
| 51> C  -23.190   28.232   42.470
| 52> C  -22.472   26.862   42.378
| 53> O  -23.068   26.005   43.425
| 54> H  -24.752   26.164   44.617
| 55> O  -25.563   27.309   42.328
| 56> H  -24.896   28.777   43.773
| 57> H  -23.398   28.660   41.484
| 58> H  -22.578   28.953   43.025
| 59> H  -21.393   26.942   42.552
| 60> H  -22.641   26.365   41.419
| 61> H  -25.162   26.432   41.808
| 62> *
| 63>
| 64>                          ****END OF INPUT****
 Total Charge           Charge          ....    0
 Multiplicity           Mult            ....    1
 Number of Electrons    NEL             ....  102
FINAL SINGLE POINT ENERGY      -652.821917942980
FINAL SINGLE POINT ENERGY      -652.846031664912
FINAL SINGLE POINT ENERGY      -652.851684200763
FINAL SINGLE POINT ENERGY      -652.854035175455
FINAL SINGLE POINT ENERGY      -652.854327548010
FINAL SINGLE POINT ENERGY      -652.854373828244
FINAL SINGLE POINT ENERGY      -652.854380623306
                    ***********************HURRAY********************

CARTESIAN COORDINATES (ANGSTROEM)
---------------------------------
  C    -21.049648   26.290818   46.198328
  C    -20.169925   27.526636   46.005515
  C    -20.232855   28.192045   47.406111
  C    -20.290177   26.973322   48.352540
  O    -20.704595   25.826006   47.511716
  H    -20.857723   25.472126   45.503442
  H    -19.151771   27.182131   45.790657
  H    -20.467098   28.191809   45.191967
  H    -19.368694   28.833881   47.602365
  H    -21.138615   28.800920   47.498000
  H    -21.011990   27.093935   49.164537
  H    -19.312500   26.718856   48.772635
  C    -23.121721   27.550484   45.392076
  H    -23.850683   28.066197   46.029750
  H    -22.406252   28.295633   45.024567
  O    -22.490671   26.541553   46.214272
  C    -23.849236   26.872871   44.230563
  C    -24.535180   27.824698   43.239073
  C    -23.347695   28.244731   42.334822
  C    -22.484549   26.959963   42.266956
  O    -22.908548   26.104784   43.402898
  H    -24.554475   26.145330   44.642854
  O    -25.568313   27.135981   42.483657
  H    -25.037518   28.670378   43.711217
  H    -23.705256   28.570895   41.355650
  H    -22.795784   29.073610   42.792928
  H    -21.412485   27.164618   42.353184
  H    -22.655699   26.387699   41.349936
  H    -25.244342   26.244092   42.236781

 Multiplicity           Mult            ....    1
 Number of Electrons    NEL             ....  102
 Basis Dimension        Dim             ....  149

ORBITAL ENERGIES
----------------

  NO   OCC          E(Eh)            E(eV)
   0   2.0000     -19.147246      -521.0230
   1   2.0000     -19.141483      -520.8662
   2   2.0000     -19.135910      -520.7146
   3   2.0000     -19.134144      -520.6665
   4   2.0000     -10.275695      -279.6159
   5   2.0000     -10.246355      -278.8175
   6   2.0000     -10.236034      -278.5366
   7   2.0000     -10.235201      -278.5140
   8   2.0000     -10.234054      -278.4828
   9   2.0000     -10.224257      -278.2162
  10   2.0000     -10.194540      -277.4075
  11   2.0000     -10.191974      -277.3377
  12   2.0000     -10.191178      -277.3161
  13   2.0000      -1.049612       -28.5614
  14   2.0000      -1.038726       -28.2652
  15   2.0000      -1.009710       -27.4756
  16   2.0000      -0.988047       -26.8861
  17   2.0000      -0.789088       -21.4722
  18   2.0000      -0.787302       -21.4236
  19   2.0000      -0.770938       -20.9783
  20   2.0000      -0.733011       -19.9462
  21   2.0000      -0.680790       -18.5252
  22   2.0000      -0.608369       -16.5546
  23   2.0000      -0.604528       -16.4500
  24   2.0000      -0.597283       -16.2529
  25   2.0000      -0.574861       -15.6428
  26   2.0000      -0.530618       -14.4389
  27   2.0000      -0.506992       -13.7960
  28   2.0000      -0.504027       -13.7153
  29   2.0000      -0.491942       -13.3864
  30   2.0000      -0.479835       -13.0570
  31   2.0000      -0.461153       -12.5486
  32   2.0000      -0.453509       -12.3406
  33   2.0000      -0.443858       -12.0780
  34   2.0000      -0.428508       -11.6603
  35   2.0000      -0.407437       -11.0869
  36   2.0000      -0.403877       -10.9900
  37   2.0000      -0.398714       -10.8496
  38   2.0000      -0.379901       -10.3376
  39   2.0000      -0.376441       -10.2435
  40   2.0000      -0.366965        -9.9856
  41   2.0000      -0.356974        -9.7137
  42   2.0000      -0.353863        -9.6291
  43   2.0000      -0.335324        -9.1246
  44   2.0000      -0.311738        -8.4828
  45   2.0000      -0.310814        -8.4577
  46   2.0000      -0.291851        -7.9417
  47   2.0000      -0.274991        -7.4829
  48   2.0000      -0.266797        -7.2599
  49   2.0000      -0.255517        -6.9530
  50   2.0000      -0.237000        -6.4491
  51   0.0000       0.053305         1.4505
  52   0.0000       0.075993         2.0679
  53   0.0000       0.085228         2.3192
  54   0.0000       0.097527         2.6538
  55   0.0000       0.103121         2.8061

MULLIKEN ATOMIC CHARGES
-----------------------
   0 C :    0.319440
   1 C :   -0.301183
   2 C :   -0.301317
   3 C :    0.001566
   4 O :   -0.495245
   5 H :    0.166216
   6 H :    0.154486
   7 H :    0.140180
   8 H :    0.143294
   9 H :    0.151181
  10 H :    0.151998
  11 H :    0.142172
  12 C :   -0.014431
  13 H :    0.145972
  14 H :    0.117157
  15 O :   -0.514678
  16 C :    0.069399
  17 C :    0.080507
  18 C :   -0.292981
  19 C :   -0.035384
  20 O :   -0.517006
  21 H :    0.175022
  22 O :   -0.602144
  23 H :    0.151015
  24 H :    0.164424
  25 H :    0.138099
  26 H :    0.144850
  27 H :    0.149765
  28 H :    0.367628
Sum of atomic charges:   -0.0000000

LOEWDIN ATOMIC CHARGES
----------------------
   0 C :    0.187916
   1 C :   -0.234404
   2 C :   -0.218514
   3 C :   -0.026782
   4 O :   -0.304077
   5 H :    0.110094
   6 H :    0.120888
   7 H :    0.110232
   8 H :    0.114690
   9 H :    0.111607
  10 H :    0.108076
  11 H :    0.102660
  12 C :   -0.042112
  13 H :    0.108804
  14 H :    0.089921
  15 O :   -0.327215
  16 C :    0.008519
  17 C :    0.035108
  18 C :   -0.240278
  19 C :   -0.040840
  20 O :   -0.327783
  21 H :    0.123277
  22 O :   -0.414069
  23 H :    0.115440
  24 H :    0.127840
  25 H :    0.109620
  26 H :    0.102115
  27 H :    0.104344
  28 H :    0.284922

  Mayer bond orders larger than 0.100000
B(  0-C ,  1-C ) :   0.9318 B(  0-C ,  4-O ) :   0.9256 B(  0-C ,  5-H ) :   0.9211
B(  0-C , 15-O ) :   0.8370 B(  1-C ,  2-C ) :   0.9481 B(  1-C ,  6-H ) :   0.9337
B(  1-C ,  7-H ) :   0.9258 B(  2-C ,  3-C ) :   0.9542 B(  2-C ,  8-H ) :   0.9454
B(  2-C ,  9-H ) :   0.9464 B(  3-C ,  4-O ) :   0.8416 B(  3-C , 10-H ) :   0.9343
B(  3-C , 11-H ) :   0.9397 B( 12-C , 13-H ) :   0.9248 B( 12-C , 14-H ) :   0.9095
B( 12-C , 15-O ) :   0.8703 B( 12-C , 16-C ) :   0.8852 B( 16-C , 17-C ) :   0.8950
B( 16-C , 20-O ) :   0.8547 B( 16-C , 21-H ) :   0.9232 B( 17-C , 18-C ) :   0.9078
B( 17-C , 22-O ) :   0.8935 B( 17-C , 23-H ) :   0.9337 B( 18-C , 19-C ) :   0.9405
B( 18-C , 24-H ) :   0.9375 B( 18-C , 25-H ) :   0.9353 B( 19-C , 20-O ) :   0.8521
B( 19-C , 26-H ) :   0.9338 B( 19-C , 27-H ) :   0.9373 B( 22-O , 28-H ) :   0.7928

FINAL SINGLE POINT ENERGY      -652.854381742902

DIPOLE MOMENT
-------------
                                X             Y             Z
Electronic contribution:     -3.91705      -5.82136       0.24689
Nuclear contribution   :      4.85654       7.36630      -0.75899
                        -----------------------------------------
Total Dipole Moment    :      0.93949       1.54494      -0.51210
                        -----------------------------------------
Magnitude (a.u.)       :      1.87929
Magnitude (Debye)      :      4.77678

Rotational constants in cm-1:     0.066145     0.012431     0.012133
Rotational constants in MHz :  1982.980431   372.673232   363.748488

                             ****ORCA TERMINATED NORMALLY****
TOTAL RUN TIME: 0 days 1 hours 36 minutes 43 seconds 245 msec
