                         Program Version 4.2.0 -  RELEASE  -
|  1> # Test redundant internal optimization
|  2> #
|  3> ! RKS B3LYP  Opt TightSCF SmallPrint
|  4>
|  5> %basis
|  6>         Basis "6-31G"
|  7> end
|  8>
|  9> %geom
| 10> Constraints
| 11> { D 4  0  15  12  210.0   C } # D for Dihedral angle
| 12> { D 0  15  12  16  195.0   C } # D for Dihedral angle
| 13> { D 0  4  3  2   C } # D for Dihedral angle
| 14> { D 4  3  2  1   C } # D for Dihedral angle
| 15> { D 3  2  1  0   C } # D for Dihedral angle
| 16> { D 2  1  0  4   C } # D for Dihedral angle
| 17> { D 1  0  4  3   C } # D for Dihedral angle
| 18> { D 16  20  19  18   C } # D for Dihedral angle
| 19> { D 20  19  18  17   C } # D for Dihedral angle
| 20> { D 19  18  17  16   C } # D for Dihedral angle
| 21> { D 18  17  16  20   C } # D for Dihedral angle
| 22> { D 17  16  20  19   C } # D for Dihedral angle
| 23> { D 15  12  16  20   C } # D for Dihedral angle
| 24> end
| 25> end
| 26>
| 27>
| 28> #%pal
| 29> #nprocs 8
| 30> #end
| 31>
| 32> * xyz 0 1
| 33> C  -21.048   26.222   46.251
| 34> C  -20.361   27.558   45.944
| 35> C  -20.329   28.222   47.341
| 36> C  -20.110   27.022   48.296
| 37> O  -20.473   25.807   47.535
| 38> H  -20.833   25.428   45.533
| 39> H  -19.344   27.382   45.576
| 40> H  -20.898   28.157   45.201
| 41> H  -19.543   28.978   47.434
| 42> H  -21.289   28.710   47.548
| 43> H  -20.733   27.082   49.195
| 44> H  -19.064   26.913   48.597
| 45> C  -23.389   26.110   45.076
| 46> H  -22.885   26.588   44.227
| 47> H  -23.438   25.031   44.883
| 48> O  -22.586   26.394   46.375
| 49> C  -24.847   26.645   45.142
| 50> C  -25.589   26.088   46.362
| 51> C  -25.045   26.987   47.498
| 52> C  -24.863   28.360   46.804
| 53> O  -24.851   28.097   45.348
| 54> H  -25.340   26.456   44.187
| 55> O  -27.120   26.289   46.191
| 56> H  -25.398   25.023   46.534
| 57> H  -25.720   27.040   48.358
| 58> H  -24.080   26.603   47.852
| 59> H  -23.928   28.853   47.088
| 60> H  -25.697   29.040   47.001
| 61> H  -27.335   27.349   46.018
| 62> *
| 63>
| 64>                          ****END OF INPUT****
 Total Charge           Charge          ....    0
 Multiplicity           Mult            ....    1
 Number of Electrons    NEL             ....  102
FINAL SINGLE POINT ENERGY      -652.836079971462
FINAL SINGLE POINT ENERGY      -652.858802578059
FINAL SINGLE POINT ENERGY      -652.862578785259
FINAL SINGLE POINT ENERGY      -652.863475419453
FINAL SINGLE POINT ENERGY      -652.863585857105
FINAL SINGLE POINT ENERGY      -652.863599044129
                    ***********************HURRAY********************

CARTESIAN COORDINATES (ANGSTROEM)
---------------------------------
  C    -21.091068   26.212624   46.189804
  C    -20.402525   27.541693   45.888845
  C    -20.387781   28.216059   47.280442
  C    -20.182782   27.025731   48.240800
  O    -20.545254   25.813344   47.456203
  H    -20.887716   25.404295   45.479825
  H    -19.382835   27.351224   45.533727
  H    -20.931149   28.131823   45.135306
  H    -19.599303   28.968822   47.373932
  H    -21.350927   28.701529   47.463907
  H    -20.818874   27.069347   49.128027
  H    -19.140435   26.898348   48.546657
  C    -23.296417   26.115940   45.122168
  H    -22.821458   26.603894   44.259371
  H    -23.333579   25.032301   44.931844
  O    -22.531090   26.387875   46.329097
  C    -24.712022   26.670957   45.247863
  C    -25.568462   26.124707   46.398788
  C    -25.112729   27.016109   47.583924
  C    -24.849970   28.384587   46.910176
  O    -24.713122   28.119470   45.457134
  H    -25.218432   26.490892   44.291628
  O    -26.985091   26.278651   46.098839
  H    -25.429455   25.059037   46.582307
  H    -25.887318   27.061284   48.354943
  H    -24.191822   26.611883   48.006756
  H    -23.931163   28.855441   47.269348
  H    -25.681994   29.087349   47.029361
  H    -27.151226   27.198784   45.803977

 Multiplicity           Mult            ....    1
 Number of Electrons    NEL             ....  102
 Basis Dimension        Dim             ....  149

ORBITAL ENERGIES
----------------

  NO   OCC          E(Eh)            E(eV)
   0   2.0000     -19.147179      -521.0212
   1   2.0000     -19.144284      -520.9425
   2   2.0000     -19.139102      -520.8014
   3   2.0000     -19.133874      -520.6592
   4   2.0000     -10.283657      -279.8325
   5   2.0000     -10.236702      -278.5548
   6   2.0000     -10.235379      -278.5188
   7   2.0000     -10.235105      -278.5114
   8   2.0000     -10.228445      -278.3302
   9   2.0000     -10.223603      -278.1984
  10   2.0000     -10.189320      -277.2655
  11   2.0000     -10.188562      -277.2449
  12   2.0000     -10.174142      -276.8525
  13   2.0000      -1.057829       -28.7850
  14   2.0000      -1.032378       -28.0924
  15   2.0000      -1.004242       -27.3268
  16   2.0000      -0.996150       -27.1066
  17   2.0000      -0.790265       -21.5042
  18   2.0000      -0.777244       -21.1499
  19   2.0000      -0.763872       -20.7860
  20   2.0000      -0.733682       -19.9645
  21   2.0000      -0.675339       -18.3769
  22   2.0000      -0.603371       -16.4186
  23   2.0000      -0.597456       -16.2576
  24   2.0000      -0.595320       -16.1995
  25   2.0000      -0.579996       -15.7825
  26   2.0000      -0.527712       -14.3598
  27   2.0000      -0.504251       -13.7214
  28   2.0000      -0.498654       -13.5691
  29   2.0000      -0.486038       -13.2258
  30   2.0000      -0.478574       -13.0226
  31   2.0000      -0.458378       -12.4731
  32   2.0000      -0.448156       -12.1950
  33   2.0000      -0.443794       -12.0763
  34   2.0000      -0.419060       -11.4032
  35   2.0000      -0.411027       -11.1846
  36   2.0000      -0.405393       -11.0313
  37   2.0000      -0.387562       -10.5461
  38   2.0000      -0.374893       -10.2014
  39   2.0000      -0.370661       -10.0862
  40   2.0000      -0.359384        -9.7793
  41   2.0000      -0.357468        -9.7272
  42   2.0000      -0.353705        -9.6248
  43   2.0000      -0.327962        -8.9243
  44   2.0000      -0.316596        -8.6150
  45   2.0000      -0.312620        -8.5068
  46   2.0000      -0.301012        -8.1910
  47   2.0000      -0.267863        -7.2889
  48   2.0000      -0.265931        -7.2364
  49   2.0000      -0.254127        -6.9151
  50   2.0000      -0.243486        -6.6256
  51   0.0000       0.061687         1.6786
  52   0.0000       0.082546         2.2462
  53   0.0000       0.089500         2.4354
  54   0.0000       0.099059         2.6955
  55   0.0000       0.106378         2.8947

MULLIKEN ATOMIC CHARGES
-----------------------
   0 C :    0.297020
   1 C :   -0.262278
   2 C :   -0.307268
   3 C :   -0.003325
   4 O :   -0.504331
   5 H :    0.141138
   6 H :    0.144625
   7 H :    0.155761
   8 H :    0.144562
   9 H :    0.164858
  10 H :    0.151083
  11 H :    0.144122
  12 C :    0.002318
  13 H :    0.137122
  14 H :    0.132799
  15 O :   -0.519128
  16 C :    0.062525
  17 C :    0.077642
  18 C :   -0.290659
  19 C :   -0.024642
  20 O :   -0.528554
  21 H :    0.155756
  22 O :   -0.604257
  23 H :    0.155425
  24 H :    0.148580
  25 H :    0.183181
  26 H :    0.147752
  27 H :    0.135916
  28 H :    0.362256
Sum of atomic charges:   -0.0000000

LOEWDIN ATOMIC CHARGES
----------------------
   0 C :    0.179201
   1 C :   -0.226143
   2 C :   -0.216930
   3 C :   -0.025931
   4 O :   -0.307351
   5 H :    0.098303
   6 H :    0.113848
   7 H :    0.121483
   8 H :    0.115800
   9 H :    0.117133
  10 H :    0.107624
  11 H :    0.103679
  12 C :   -0.038359
  13 H :    0.098893
  14 H :    0.097577
  15 O :   -0.336361
  16 C :    0.015280
  17 C :    0.040059
  18 C :   -0.242554
  19 C :   -0.033233
  20 O :   -0.331922
  21 H :    0.116133
  22 O :   -0.417868
  23 H :    0.118052
  24 H :    0.118459
  25 H :    0.134650
  26 H :    0.103094
  27 H :    0.095843
  28 H :    0.281538

  Mayer bond orders larger than 0.100000
B(  0-C ,  1-C ) :   0.9340 B(  0-C ,  4-O ) :   0.9370 B(  0-C ,  5-H ) :   0.9198
B(  0-C , 15-O ) :   0.8234 B(  1-C ,  2-C ) :   0.9534 B(  1-C ,  6-H ) :   0.9341
B(  1-C ,  7-H ) :   0.9339 B(  2-C ,  3-C ) :   0.9550 B(  2-C ,  8-H ) :   0.9446
B(  2-C ,  9-H ) :   0.9393 B(  3-C ,  4-O ) :   0.8358 B(  3-C , 10-H ) :   0.9348
B(  3-C , 11-H ) :   0.9395 B( 12-C , 13-H ) :   0.9144 B( 12-C , 14-H ) :   0.9082
B( 12-C , 15-O ) :   0.8457 B( 12-C , 16-C ) :   0.9091 B( 16-C , 17-C ) :   0.9090
B( 16-C , 20-O ) :   0.8735 B( 16-C , 21-H ) :   0.9222 B( 17-C , 18-C ) :   0.9243
B( 17-C , 22-O ) :   0.8909 B( 17-C , 23-H ) :   0.9348 B( 18-C , 19-C ) :   0.9449
B( 18-C , 24-H ) :   0.9373 B( 18-C , 25-H ) :   0.9169 B( 19-C , 20-O ) :   0.8394
B( 19-C , 26-H ) :   0.9305 B( 19-C , 27-H ) :   0.9368 B( 22-O , 28-H ) :   0.7963

FINAL SINGLE POINT ENERGY      -652.863599189000

DIPOLE MOMENT
-------------
                                X             Y             Z
Electronic contribution:     -3.22354      -2.96456      -1.64680
Nuclear contribution   :      4.09306       3.64307       1.50633
                        -----------------------------------------
Total Dipole Moment    :      0.86952       0.67851      -0.14046
                        -----------------------------------------
Magnitude (a.u.)       :      1.11183
Magnitude (Debye)      :      2.82605

Rotational constants in cm-1:     0.055193     0.014318     0.013961
Rotational constants in MHz :  1654.632071   429.231324   418.553010

                             ****ORCA TERMINATED NORMALLY****
TOTAL RUN TIME: 0 days 0 hours 13 minutes 14 seconds 948 msec
