                         Program Version 4.2.0 -  RELEASE  -
|  1> # Test redundant internal optimization
|  2> #
|  3> ! RKS B3LYP  Opt TightSCF SmallPrint
|  4>
|  5> %basis
|  6>         Basis "6-31G"
|  7> end
|  8>
|  9> %geom
| 10> Constraints
| 11> { D 4  0  15  12  165.0   C } # D for Dihedral angle
| 12> { D 0  15  12  16  135.0   C } # D for Dihedral angle
| 13> { D 0  4  3  2   C } # D for Dihedral angle
| 14> { D 4  3  2  1   C } # D for Dihedral angle
| 15> { D 3  2  1  0   C } # D for Dihedral angle
| 16> { D 2  1  0  4   C } # D for Dihedral angle
| 17> { D 1  0  4  3   C } # D for Dihedral angle
| 18> { D 16  20  19  18   C } # D for Dihedral angle
| 19> { D 20  19  18  17   C } # D for Dihedral angle
| 20> { D 19  18  17  16   C } # D for Dihedral angle
| 21> { D 18  17  16  20   C } # D for Dihedral angle
| 22> { D 17  16  20  19   C } # D for Dihedral angle
| 23> { D 15  12  16  20   C } # D for Dihedral angle
| 24> end
| 25> end
| 26>
| 27>
| 28> #%pal
| 29> #nprocs 8
| 30> #end
| 31>
| 32> * xyz 0 1
| 33> C  -21.048   26.222   46.251
| 34> C  -20.361   27.558   45.944
| 35> C  -20.329   28.222   47.341
| 36> C  -20.110   27.022   48.296
| 37> O  -20.473   25.807   47.535
| 38> H  -20.833   25.428   45.533
| 39> H  -19.344   27.382   45.576
| 40> H  -20.898   28.157   45.201
| 41> H  -19.543   28.978   47.434
| 42> H  -21.289   28.710   47.548
| 43> H  -20.733   27.082   49.195
| 44> H  -19.064   26.913   48.597
| 45> C  -23.260   27.170   45.210
| 46> H  -23.512   28.183   45.548
| 47> H  -22.574   27.254   44.357
| 48> O  -22.586   26.394   46.375
| 49> C  -24.561   26.486   44.706
| 50> C  -25.134   27.213   43.485
| 51> C  -24.230   26.679   42.349
| 52> C  -23.954   25.216   42.777
| 53> O  -24.272   25.133   44.218
| 54> H  -25.258   26.384   45.540
| 55> H  -26.176   26.913   43.323
| 56> O  -25.085   28.760   43.617
| 57> H  -24.703   26.743   41.363
| 58> H  -23.296   27.253   42.310
| 59> H  -22.909   24.924   42.623
| 60> H  -24.601   24.501   42.261
| 61> H  -24.051   29.084   43.779
| 62> *
| 63>
| 64>                          ****END OF INPUT****
 Total Charge           Charge          ....    0
 Multiplicity           Mult            ....    1
 Number of Electrons    NEL             ....  102
FINAL SINGLE POINT ENERGY      -652.821106079771
FINAL SINGLE POINT ENERGY      -652.844554947482
FINAL SINGLE POINT ENERGY      -652.849169449438
FINAL SINGLE POINT ENERGY      -652.849898493077
FINAL SINGLE POINT ENERGY      -652.850026977905
FINAL SINGLE POINT ENERGY      -652.850056654589
FINAL SINGLE POINT ENERGY      -652.850061902014
FINAL SINGLE POINT ENERGY      -652.850062902460
                    ***********************HURRAY********************

CARTESIAN COORDINATES (ANGSTROEM)
---------------------------------
  C    -21.034371   26.271061   46.182529
  C    -20.226651   27.553805   45.985710
  C    -20.307578   28.207472   47.390667
  C    -20.285636   26.984407   48.330946
  O    -20.648364   25.819390   47.486078
  H    -20.818056   25.463866   45.476926
  H    -19.192114   27.282785   45.744111
  H    -20.596881   28.206115   45.190671
  H    -19.478929   28.896438   47.579365
  H    -21.246719   28.759913   47.494227
  H    -21.004616   27.058092   49.150551
  H    -19.290940   26.778221   48.737056
  C    -23.098452   27.260970   45.162444
  H    -23.354764   28.264284   45.527602
  H    -22.418289   27.364563   44.303962
  O    -22.475931   26.494828   46.225619
  C    -24.368395   26.525682   44.731262
  C    -25.131898   27.189313   43.573184
  C    -24.353148   26.660306   42.331879
  C    -23.956865   25.230914   42.761413
  O    -24.082171   25.180525   44.240797
  H    -24.996227   26.390205   45.616487
  H    -26.160824   26.824034   43.561669
  O    -25.257960   28.630683   43.650914
  H    -24.960020   26.680798   41.422713
  H    -23.468513   27.288568   42.159504
  H    -22.932337   24.968789   42.478819
  H    -24.635531   24.474138   42.357224
  H    -24.404817   29.060835   43.437673

 Multiplicity           Mult            ....    1
 Number of Electrons    NEL             ....  102
 Basis Dimension        Dim             ....  149

ORBITAL ENERGIES
----------------

  NO   OCC          E(Eh)            E(eV)
   0   2.0000     -19.151889      -521.1494
   1   2.0000     -19.137702      -520.7634
   2   2.0000     -19.137257      -520.7512
   3   2.0000     -19.134047      -520.6639
   4   2.0000     -10.277584      -279.6673
   5   2.0000     -10.246396      -278.8186
   6   2.0000     -10.233119      -278.4573
   7   2.0000     -10.231706      -278.4189
   8   2.0000     -10.229407      -278.3563
   9   2.0000     -10.223943      -278.2076
  10   2.0000     -10.198188      -277.5068
  11   2.0000     -10.190427      -277.2956
  12   2.0000     -10.189213      -277.2626
  13   2.0000      -1.050787       -28.5934
  14   2.0000      -1.034918       -28.1615
  15   2.0000      -1.016617       -27.6636
  16   2.0000      -0.989293       -26.9200
  17   2.0000      -0.787593       -21.4315
  18   2.0000      -0.784244       -21.3404
  19   2.0000      -0.768838       -20.9212
  20   2.0000      -0.731347       -19.9010
  21   2.0000      -0.684040       -18.6137
  22   2.0000      -0.613143       -16.6845
  23   2.0000      -0.603159       -16.4128
  24   2.0000      -0.591307       -16.0903
  25   2.0000      -0.573743       -15.6123
  26   2.0000      -0.530045       -14.4233
  27   2.0000      -0.507077       -13.7983
  28   2.0000      -0.503551       -13.7023
  29   2.0000      -0.493891       -13.4395
  30   2.0000      -0.471402       -12.8275
  31   2.0000      -0.461070       -12.5463
  32   2.0000      -0.445757       -12.1297
  33   2.0000      -0.439555       -11.9609
  34   2.0000      -0.429810       -11.6957
  35   2.0000      -0.413135       -11.2420
  36   2.0000      -0.410809       -11.1787
  37   2.0000      -0.399055       -10.8588
  38   2.0000      -0.381063       -10.3693
  39   2.0000      -0.376658       -10.2494
  40   2.0000      -0.362469        -9.8633
  41   2.0000      -0.355003        -9.6601
  42   2.0000      -0.350702        -9.5431
  43   2.0000      -0.332397        -9.0450
  44   2.0000      -0.315675        -8.5900
  45   2.0000      -0.311209        -8.4684
  46   2.0000      -0.296953        -8.0805
  47   2.0000      -0.272126        -7.4049
  48   2.0000      -0.257083        -6.9956
  49   2.0000      -0.255045        -6.9401
  50   2.0000      -0.236386        -6.4324
  51   0.0000       0.046015         1.2521
  52   0.0000       0.070004         1.9049
  53   0.0000       0.085803         2.3348
  54   0.0000       0.092784         2.5248
  55   0.0000       0.107122         2.9149

MULLIKEN ATOMIC CHARGES
-----------------------
   0 C :    0.310595
   1 C :   -0.287111
   2 C :   -0.300450
   3 C :    0.000836
   4 O :   -0.496761
   5 H :    0.150841
   6 H :    0.149392
   7 H :    0.136460
   8 H :    0.142868
   9 H :    0.156449
  10 H :    0.155696
  11 H :    0.141690
  12 C :   -0.022796
  13 H :    0.135202
  14 H :    0.112858
  15 O :   -0.503961
  16 C :    0.096820
  17 C :    0.082815
  18 C :   -0.329888
  19 C :   -0.007962
  20 O :   -0.503106
  21 H :    0.171711
  22 H :    0.171557
  23 O :   -0.598553
  24 H :    0.159098
  25 H :    0.130806
  26 H :    0.138739
  27 H :    0.152733
  28 H :    0.353421
Sum of atomic charges:   -0.0000000

LOEWDIN ATOMIC CHARGES
----------------------
   0 C :    0.185852
   1 C :   -0.235774
   2 C :   -0.217282
   3 C :   -0.025429
   4 O :   -0.299705
   5 H :    0.102381
   6 H :    0.117170
   7 H :    0.109928
   8 H :    0.114535
   9 H :    0.115038
  10 H :    0.110190
  11 H :    0.102519
  12 C :   -0.052949
  13 H :    0.100142
  14 H :    0.085417
  15 O :   -0.326017
  16 C :    0.019231
  17 C :    0.034354
  18 C :   -0.243517
  19 C :   -0.030472
  20 O :   -0.311940
  21 H :    0.123195
  22 H :    0.121149
  23 O :   -0.407042
  24 H :    0.123153
  25 H :    0.101953
  26 H :    0.100361
  27 H :    0.107465
  28 H :    0.276094

  Mayer bond orders larger than 0.100000
B(  0-C ,  1-C ) :   0.9279 B(  0-C ,  4-O ) :   0.9381 B(  0-C ,  5-H ) :   0.9208
B(  0-C , 15-O ) :   0.8379 B(  1-C ,  2-C ) :   0.9494 B(  1-C ,  6-H ) :   0.9339
B(  1-C ,  7-H ) :   0.9305 B(  2-C ,  3-C ) :   0.9556 B(  2-C ,  8-H ) :   0.9451
B(  2-C ,  9-H ) :   0.9456 B(  3-C ,  4-O ) :   0.8371 B(  3-C , 10-H ) :   0.9341
B(  3-C , 11-H ) :   0.9397 B( 12-C , 13-H ) :   0.9093 B( 12-C , 14-H ) :   0.9158
B( 12-C , 15-O ) :   0.8565 B( 12-C , 16-C ) :   0.8954 B( 16-C , 17-C ) :   0.8712
B( 16-C , 20-O ) :   0.8680 B( 16-C , 21-H ) :   0.9284 B( 17-C , 18-C ) :   0.9219
B( 17-C , 22-H ) :   0.9318 B( 17-C , 23-O ) :   0.8953 B( 18-C , 19-C ) :   0.9392
B( 18-C , 24-H ) :   0.9418 B( 18-C , 25-H ) :   0.9409 B( 19-C , 20-O ) :   0.8525
B( 19-C , 26-H ) :   0.9324 B( 19-C , 27-H ) :   0.9372 B( 23-O , 28-H ) :   0.7996

FINAL SINGLE POINT ENERGY      -652.850063020797

DIPOLE MOMENT
-------------
                                X             Y             Z
Electronic contribution:     -3.35926      -3.72072       2.00602
Nuclear contribution   :      4.26540       4.95735      -3.22005
                        -----------------------------------------
Total Dipole Moment    :      0.90614       1.23663      -1.21403
                        -----------------------------------------
Magnitude (a.u.)       :      1.95556
Magnitude (Debye)      :      4.97064

Rotational constants in cm-1:     0.055697     0.012754     0.011667
Rotational constants in MHz :  1669.739588   382.363121   349.774795

                             ****ORCA TERMINATED NORMALLY****
TOTAL RUN TIME: 0 days 2 hours 8 minutes 30 seconds 903 msec
