                         Program Version 4.2.0 -  RELEASE  -
|  1> # Test redundant internal optimization
|  2> #
|  3> ! RKS B3LYP  Opt TightSCF SmallPrint
|  4>
|  5> %basis
|  6>         Basis "6-31G"
|  7> end
|  8>
|  9> %geom
| 10> Constraints
| 11> { D 4  0  15  12  45.0   C } # D for Dihedral angle
| 12> { D 0  15  12  16  225.0   C } # D for Dihedral angle
| 13> { D 0  4  3  2   C } # D for Dihedral angle
| 14> { D 4  3  2  1   C } # D for Dihedral angle
| 15> { D 3  2  1  0   C } # D for Dihedral angle
| 16> { D 2  1  0  4   C } # D for Dihedral angle
| 17> { D 1  0  4  3   C } # D for Dihedral angle
| 18> { D 16  20  19  18   C } # D for Dihedral angle
| 19> { D 20  19  18  17   C } # D for Dihedral angle
| 20> { D 19  18  17  16   C } # D for Dihedral angle
| 21> { D 18  17  16  20   C } # D for Dihedral angle
| 22> { D 17  16  20  19   C } # D for Dihedral angle
| 23> { D 15  12  16  20   C } # D for Dihedral angle
| 24> end
| 25> end
| 26>
| 27>
| 28> #%pal
| 29> #nprocs 8
| 30> #end
| 31>
| 32> * xyz 0 1
| 33> C  -21.048   26.222   46.251
| 34> C  -20.361   27.558   45.944
| 35> C  -20.329   28.222   47.341
| 36> C  -20.110   27.022   48.296
| 37> O  -20.473   25.807   47.535
| 38> H  -20.833   25.428   45.533
| 39> H  -19.344   27.382   45.576
| 40> H  -20.898   28.157   45.201
| 41> H  -19.543   28.978   47.434
| 42> H  -21.289   28.710   47.548
| 43> H  -20.733   27.082   49.195
| 44> H  -19.064   26.913   48.597
| 45> C  -23.065   27.161   47.638
| 46> H  -22.239   27.227   48.357
| 47> H  -23.371   28.182   47.374
| 48> O  -22.586   26.394   46.375
| 49> C  -24.269   26.473   48.338
| 50> C  -25.435   26.266   47.364
| 51> C  -24.973   25.011   46.585
| 52> C  -24.227   24.183   47.662
| 53> O  -23.908   25.117   48.764
| 54> H  -24.527   27.033   49.239
| 55> O  -26.741   25.971   48.152
| 56> H  -25.612   27.128   46.713
| 57> H  -25.806   24.458   46.138
| 58> H  -24.290   25.299   45.778
| 59> H  -23.298   23.743   47.283
| 60> H  -24.849   23.389   48.083
| 61> H  -26.587   25.110   48.811
| 62> *
| 63>
| 64>                          ****END OF INPUT****
 Total Charge           Charge          ....    0
 Multiplicity           Mult            ....    1
 Number of Electrons    NEL             ....  102
FINAL SINGLE POINT ENERGY      -652.821328508979
FINAL SINGLE POINT ENERGY      -652.846558832152
FINAL SINGLE POINT ENERGY      -652.856496720598
FINAL SINGLE POINT ENERGY      -652.858471224923
FINAL SINGLE POINT ENERGY      -652.858781787456
FINAL SINGLE POINT ENERGY      -652.858834567412
FINAL SINGLE POINT ENERGY      -652.858837650194
                    ***********************HURRAY********************

CARTESIAN COORDINATES (ANGSTROEM)
---------------------------------
  C    -21.142557   26.337490   46.428101
  C    -20.377408   27.586928   45.975619
  C    -20.083740   28.294871   47.327931
  C    -19.853193   27.104218   48.290736
  O    -20.446262   25.917613   47.618857
  H    -21.070810   25.510377   45.720332
  H    -19.445522   27.275189   45.491342
  H    -20.952511   28.199423   45.277034
  H    -19.210594   28.952268   47.274985
  H    -20.938923   28.903351   47.639094
  H    -20.326061   27.232011   49.268782
  H    -18.791518   26.883765   48.435531
  C    -23.163057   27.185099   47.707476
  H    -22.432380   27.260241   48.516869
  H    -23.480931   28.193939   47.410501
  O    -22.576277   26.498453   46.565487
  C    -24.358645   26.404376   48.261802
  C    -25.527604   26.159651   47.296986
  C    -25.049640   24.895278   46.533521
  C    -24.285241   24.101788   47.622016
  O    -23.976855   25.067170   48.705069
  H    -24.715570   26.945123   49.147153
  O    -26.760778   25.928292   48.036913
  H    -25.742805   27.004265   46.641367
  H    -25.901986   24.346642   46.123471
  H    -24.374784   25.190660   45.728812
  H    -23.346642   23.681679   47.253780
  H    -24.886258   23.301860   48.067716
  H    -26.589450   25.263980   48.737717

 Multiplicity           Mult            ....    1
 Number of Electrons    NEL             ....  102
 Basis Dimension        Dim             ....  149

ORBITAL ENERGIES
----------------

  NO   OCC          E(Eh)            E(eV)
   0   2.0000     -19.148624      -521.0606
   1   2.0000     -19.146322      -520.9979
   2   2.0000     -19.132393      -520.6189
   3   2.0000     -19.130609      -520.5703
   4   2.0000     -10.282904      -279.8120
   5   2.0000     -10.234214      -278.4871
   6   2.0000     -10.233340      -278.4633
   7   2.0000     -10.231888      -278.4238
   8   2.0000     -10.229836      -278.3680
   9   2.0000     -10.217144      -278.0226
  10   2.0000     -10.196630      -277.4644
  11   2.0000     -10.191524      -277.3255
  12   2.0000     -10.171256      -276.7740
  13   2.0000      -1.056774       -28.7563
  14   2.0000      -1.028210       -27.9790
  15   2.0000      -1.001815       -27.2608
  16   2.0000      -0.993345       -27.0303
  17   2.0000      -0.792528       -21.5658
  18   2.0000      -0.777757       -21.1638
  19   2.0000      -0.761169       -20.7125
  20   2.0000      -0.734541       -19.9879
  21   2.0000      -0.674611       -18.3571
  22   2.0000      -0.607496       -16.5308
  23   2.0000      -0.603756       -16.4290
  24   2.0000      -0.591965       -16.1082
  25   2.0000      -0.567432       -15.4406
  26   2.0000      -0.524472       -14.2716
  27   2.0000      -0.509791       -13.8721
  28   2.0000      -0.496627       -13.5139
  29   2.0000      -0.482778       -13.1371
  30   2.0000      -0.477547       -12.9947
  31   2.0000      -0.458849       -12.4859
  32   2.0000      -0.447374       -12.1737
  33   2.0000      -0.435315       -11.8455
  34   2.0000      -0.423029       -11.5112
  35   2.0000      -0.412736       -11.2311
  36   2.0000      -0.398692       -10.8490
  37   2.0000      -0.383045       -10.4232
  38   2.0000      -0.382208       -10.4004
  39   2.0000      -0.365577        -9.9479
  40   2.0000      -0.364001        -9.9050
  41   2.0000      -0.358012        -9.7420
  42   2.0000      -0.348241        -9.4761
  43   2.0000      -0.324135        -8.8202
  44   2.0000      -0.323227        -8.7955
  45   2.0000      -0.310287        -8.4433
  46   2.0000      -0.295463        -8.0400
  47   2.0000      -0.268969        -7.3190
  48   2.0000      -0.262577        -7.1451
  49   2.0000      -0.256376        -6.9764
  50   2.0000      -0.235611        -6.4113
  51   0.0000       0.068780         1.8716
  52   0.0000       0.078223         2.1286
  53   0.0000       0.091754         2.4968
  54   0.0000       0.104053         2.8314
  55   0.0000       0.108254         2.9457

MULLIKEN ATOMIC CHARGES
-----------------------
   0 C :    0.301708
   1 C :   -0.266074
   2 C :   -0.314817
   3 C :   -0.020049
   4 O :   -0.499503
   5 H :    0.161891
   6 H :    0.151693
   7 H :    0.152723
   8 H :    0.149201
   9 H :    0.149179
  10 H :    0.151164
  11 H :    0.151215
  12 C :   -0.009709
  13 H :    0.157572
  14 H :    0.129454
  15 O :   -0.531158
  16 C :    0.073335
  17 C :    0.076587
  18 C :   -0.285359
  19 C :   -0.020701
  20 O :   -0.521542
  21 H :    0.150620
  22 O :   -0.604790
  23 H :    0.148089
  24 H :    0.145261
  25 H :    0.174146
  26 H :    0.154746
  27 H :    0.133840
  28 H :    0.361279
Sum of atomic charges:   -0.0000000

LOEWDIN ATOMIC CHARGES
----------------------
   0 C :    0.178203
   1 C :   -0.227336
   2 C :   -0.224130
   3 C :   -0.035148
   4 O :   -0.312889
   5 H :    0.111106
   6 H :    0.118689
   7 H :    0.120852
   8 H :    0.117999
   9 H :    0.110408
  10 H :    0.103832
  11 H :    0.106866
  12 C :   -0.041629
  13 H :    0.112248
  14 H :    0.096874
  15 O :   -0.328497
  16 C :    0.013133
  17 C :    0.038028
  18 C :   -0.241804
  19 C :   -0.032819
  20 O :   -0.326158
  21 H :    0.113432
  22 O :   -0.418691
  23 H :    0.114240
  24 H :    0.117084
  25 H :    0.130240
  26 H :    0.109929
  27 H :    0.094959
  28 H :    0.280981

  Mayer bond orders larger than 0.100000
B(  0-C ,  1-C ) :   0.9172 B(  0-C ,  4-O ) :   0.9150 B(  0-C ,  5-H ) :   0.9360
B(  0-C , 15-O ) :   0.8739 B(  1-C ,  2-C ) :   0.9550 B(  1-C ,  6-H ) :   0.9350
B(  1-C ,  7-H ) :   0.9375 B(  2-C ,  3-C ) :   0.9486 B(  2-C ,  8-H ) :   0.9448
B(  2-C ,  9-H ) :   0.9430 B(  3-C ,  4-O ) :   0.8373 B(  3-C , 10-H ) :   0.9289
B(  3-C , 11-H ) :   0.9386 B( 12-C , 13-H ) :   0.9091 B( 12-C , 14-H ) :   0.9161
B( 12-C , 15-O ) :   0.8435 B( 12-C , 16-C ) :   0.8929 B( 16-C , 17-C ) :   0.9118
B( 16-C , 20-O ) :   0.8781 B( 16-C , 21-H ) :   0.9209 B( 17-C , 18-C ) :   0.9257
B( 17-C , 22-O ) :   0.8884 B( 17-C , 23-H ) :   0.9359 B( 18-C , 19-C ) :   0.9468
B( 18-C , 24-H ) :   0.9372 B( 18-C , 25-H ) :   0.9185 B( 19-C , 20-O ) :   0.8385
B( 19-C , 26-H ) :   0.9337 B( 19-C , 27-H ) :   0.9369 B( 22-O , 28-H ) :   0.7968

FINAL SINGLE POINT ENERGY      -652.858836211598

DIPOLE MOMENT
-------------
                                X             Y             Z
Electronic contribution:     -3.16079      -2.97578       1.60866
Nuclear contribution   :      4.15843       3.81537      -1.99598
                        -----------------------------------------
Total Dipole Moment    :      0.99764       0.83958      -0.38732
                        -----------------------------------------
Magnitude (a.u.)       :      1.36022
Magnitude (Debye)      :      3.45741

Rotational constants in cm-1:     0.061028     0.014071     0.013824
Rotational constants in MHz :  1829.571046   421.832153   414.440685

                             ****ORCA TERMINATED NORMALLY****
TOTAL RUN TIME: 0 days 0 hours 42 minutes 2 seconds 622 msec
