                         Program Version 4.2.1 -  RELEASE  -
|  1> # Test redundant internal optimization
|  2> #
|  3> ! RKS B3LYP  Opt TightSCF SmallPrint
|  4>
|  5> %basis
|  6>         Basis "6-31G"
|  7> end
|  8>
|  9> %geom
| 10> Constraints
| 11> { D 4  0  19  14  270.0   C } # D for Dihedral angle
| 12> { D 0  19  14  12  270.0   C } # D for Dihedral angle
| 13> { D 0  4  3  2   C } # D for Dihedral angle
| 14> { D 4  3  2  1   C } # D for Dihedral angle
| 15> { D 3  2  1  0   C } # D for Dihedral angle
| 16> { D 2  1  0  4   C } # D for Dihedral angle
| 17> { D 1  0  4  3   C } # D for Dihedral angle
| 18> { D 14  15  16  17   C } # D for Dihedral angle
| 19> { D 15  16  17  12   C } # D for Dihedral angle
| 20> { D 16  17  12  14   C } # D for Dihedral angle
| 21> { D 17  12  14  15   C } # D for Dihedral angle
| 22> { D 12  14  15  16   C } # D for Dihedral angle
| 23> end
| 24> end
| 25>
| 26>
| 27> #%pal
| 28> #nprocs 8
| 29> #end
| 30>
| 31> * xyz 0 1
| 32> C  -21.048   26.222   46.251
| 33> C  -20.361   27.558   45.944
| 34> C  -20.329   28.222   47.341
| 35> C  -20.110   27.022   48.296
| 36> O  -20.473   25.807   47.535
| 37> H  -20.833   25.428   45.533
| 38> H  -19.344   27.382   45.576
| 39> H  -20.898   28.157   45.201
| 40> H  -19.543   28.978   47.434
| 41> H  -21.289   28.710   47.548
| 42> H  -20.733   27.082   49.195
| 43> H  -19.064   26.913   48.597
| 44> C  -23.572   25.131   44.590
| 45> H  -24.377   24.406   44.394
| 46> C  -23.226   25.191   46.082
| 47> C  -22.343   23.932   46.251
| 48> C  -21.576   23.857   44.907
| 49> O  -22.325   24.699   43.948
| 50> H  -23.841   26.092   44.149
| 51> O  -22.472   26.381   46.366
| 52> H  -24.110   25.180   46.729
| 53> H  -21.671   23.997   47.112
| 54> H  -22.974   23.045   46.385
| 55> H  -21.513   22.836   44.515
| 56> H  -20.566   24.272   44.979
| 57> *
| 58>
| 59>                          ****END OF INPUT****
 Total Charge           Charge          ....    0
 Multiplicity           Mult            ....    1
 Number of Electrons    NEL             ....   86
FINAL SINGLE POINT ENERGY      -538.405967820974
FINAL SINGLE POINT ENERGY      -538.430854098269
FINAL SINGLE POINT ENERGY      -538.433443908867
FINAL SINGLE POINT ENERGY      -538.433862042910
FINAL SINGLE POINT ENERGY      -538.433910877912
FINAL SINGLE POINT ENERGY      -538.433921227624
FINAL SINGLE POINT ENERGY      -538.433922284422
                    ***********************HURRAY********************

CARTESIAN COORDINATES (ANGSTROEM)
---------------------------------
  C    -20.819481   26.320816   46.208052
  C    -20.356010   27.766071   46.013169
  C    -20.438518   28.324116   47.455051
  C    -20.034729   27.107885   48.319875
  O    -20.199299   25.916207   47.452712
  H    -20.488545   25.625864   45.439195
  H    -19.321571   27.768232   45.650772
  H    -20.985057   28.304973   45.302549
  H    -19.779630   29.183008   47.612945
  H    -21.466329   28.627633   47.672780
  H    -20.661858   26.988382   49.207244
  H    -18.983353   27.132805   48.622420
  C    -23.499888   25.129943   44.552287
  H    -24.436371   24.564653   44.439981
  C    -23.077172   25.186798   46.022721
  C    -22.446509   23.793200   46.217202
  C    -21.772172   23.505437   44.853069
  O    -22.392249   24.437063   43.876905
  H    -23.602544   26.115790   44.097860
  O    -22.258065   26.357562   46.320854
  H    -23.945101   25.319566   46.676143
  H    -21.743038   23.778854   47.054061
  H    -23.245701   23.072813   46.419269
  H    -21.942404   22.477811   44.512195
  H    -20.695408   23.694518   44.858688

 Multiplicity           Mult            ....    1
 Number of Electrons    NEL             ....   86
 Basis Dimension        Dim             ....  127

ORBITAL ENERGIES
----------------

  NO   OCC          E(Eh)            E(eV)
   0   2.0000     -19.139830      -520.8213
   1   2.0000     -19.136001      -520.7171
   2   2.0000     -19.133200      -520.6408
   3   2.0000     -10.274171      -279.5744
   4   2.0000     -10.239255      -278.6243
   5   2.0000     -10.224312      -278.2177
   6   2.0000     -10.221972      -278.1540
   7   2.0000     -10.220674      -278.1187
   8   2.0000     -10.186214      -277.1810
   9   2.0000     -10.181123      -277.0424
  10   2.0000     -10.180223      -277.0180
  11   2.0000      -1.049839       -28.5676
  12   2.0000      -1.013881       -27.5891
  13   2.0000      -0.987583       -26.8735
  14   2.0000      -0.790103       -21.4998
  15   2.0000      -0.773188       -21.0395
  16   2.0000      -0.744546       -20.2601
  17   2.0000      -0.718021       -19.5383
  18   2.0000      -0.614621       -16.7247
  19   2.0000      -0.601986       -16.3809
  20   2.0000      -0.593448       -16.1485
  21   2.0000      -0.566377       -15.4119
  22   2.0000      -0.522959       -14.2304
  23   2.0000      -0.499937       -13.6040
  24   2.0000      -0.479399       -13.0451
  25   2.0000      -0.475980       -12.9521
  26   2.0000      -0.450959       -12.2712
  27   2.0000      -0.444400       -12.0927
  28   2.0000      -0.420630       -11.4459
  29   2.0000      -0.413304       -11.2466
  30   2.0000      -0.405366       -11.0306
  31   2.0000      -0.394261       -10.7284
  32   2.0000      -0.369594       -10.0572
  33   2.0000      -0.367221        -9.9926
  34   2.0000      -0.355051        -9.6614
  35   2.0000      -0.351900        -9.5757
  36   2.0000      -0.341668        -9.2973
  37   2.0000      -0.319316        -8.6890
  38   2.0000      -0.310026        -8.4362
  39   2.0000      -0.291248        -7.9253
  40   2.0000      -0.265722        -7.2307
  41   2.0000      -0.250451        -6.8151
  42   2.0000      -0.235844        -6.4176
  43   0.0000       0.076223         2.0741
  44   0.0000       0.100912         2.7459
  45   0.0000       0.104891         2.8542
  46   0.0000       0.109321         2.9748
  47   0.0000       0.117165         3.1882

MULLIKEN ATOMIC CHARGES
-----------------------
   0 C :    0.277097
   1 C :   -0.252632
   2 C :   -0.296348
   3 C :   -0.001510
   4 O :   -0.515853
   5 H :    0.164006
   6 H :    0.142794
   7 H :    0.154324
   8 H :    0.137764
   9 H :    0.161623
  10 H :    0.145800
  11 H :    0.140550
  12 C :   -0.004293
  13 H :    0.124292
  14 C :    0.085929
  15 C :   -0.327157
  16 C :   -0.022622
  17 O :   -0.527537
  18 H :    0.162384
  19 O :   -0.527259
  20 H :    0.146910
  21 H :    0.187902
  22 H :    0.150058
  23 H :    0.139740
  24 H :    0.154039
Sum of atomic charges:   -0.0000000

LOEWDIN ATOMIC CHARGES
----------------------
   0 C :    0.170378
   1 C :   -0.212432
   2 C :   -0.215708
   3 C :   -0.027479
   4 O :   -0.332337
   5 H :    0.107709
   6 H :    0.112435
   7 H :    0.122803
   8 H :    0.112062
   9 H :    0.118946
  10 H :    0.104472
  11 H :    0.101419
  12 C :   -0.045828
  13 H :    0.092446
  14 C :    0.042204
  15 C :   -0.243116
  16 C :   -0.038097
  17 O :   -0.339484
  18 H :    0.119064
  19 O :   -0.321681
  20 H :    0.110955
  21 H :    0.138419
  22 H :    0.120125
  23 H :    0.100291
  24 H :    0.102437

  Mayer bond orders larger than 0.100000
B(  0-C ,  1-C ) :   0.9478 B(  0-C ,  4-O ) :   0.8973 B(  0-C ,  5-H ) :   0.9054
B(  0-C , 19-O ) :   0.8492 B(  1-C ,  2-C ) :   0.9570 B(  1-C ,  6-H ) :   0.9411
B(  1-C ,  7-H ) :   0.9377 B(  2-C ,  3-C ) :   0.9547 B(  2-C ,  8-H ) :   0.9459
B(  2-C ,  9-H ) :   0.9440 B(  3-C ,  4-O ) :   0.8372 B(  3-C , 10-H ) :   0.9360
B(  3-C , 11-H ) :   0.9404 B( 12-C , 13-H ) :   0.9136 B( 12-C , 14-C ) :   0.9150
B( 12-C , 17-O ) :   0.8619 B( 12-C , 18-H ) :   0.9331 B( 14-C , 15-C ) :   0.9375
B( 14-C , 19-O ) :   0.8670 B( 14-C , 20-H ) :   0.9355 B( 15-C , 16-C ) :   0.9423
B( 15-C , 21-H ) :   0.9214 B( 15-C , 22-H ) :   0.9370 B( 16-C , 17-O ) :   0.8504
B( 16-C , 23-H ) :   0.9354 B( 16-C , 24-H ) :   0.9275

FINAL SINGLE POINT ENERGY      -538.433922863617

DIPOLE MOMENT
-------------
                                X             Y             Z
Electronic contribution:     -0.78530      -1.23430      -1.34315
Nuclear contribution   :      0.65192       1.41643       1.86447
                        -----------------------------------------
Total Dipole Moment    :     -0.13338       0.18212       0.52132
                        -----------------------------------------
Magnitude (a.u.)       :      0.56810
Magnitude (Debye)      :      1.44398

Rotational constants in cm-1:     0.079811     0.022568     0.021249
Rotational constants in MHz :  2392.666319   676.558002   637.031244

                             ****ORCA TERMINATED NORMALLY****
TOTAL RUN TIME: 0 days 0 hours 8 minutes 6 seconds 472 msec
