                         Program Version 4.2.0 -  RELEASE  -
|  1> # Test redundant internal optimization
|  2> #
|  3> ! RKS B3LYP  Opt TightSCF SmallPrint
|  4>
|  5> %basis
|  6>         Basis "6-31G"
|  7> end
|  8>
|  9> %geom
| 10> Constraints
| 11> { D 4  0  15  12  150.0   C } # D for Dihedral angle
| 12> { D 0  15  12  16  120.0   C } # D for Dihedral angle
| 13> { D 0  4  3  2   C } # D for Dihedral angle
| 14> { D 4  3  2  1   C } # D for Dihedral angle
| 15> { D 3  2  1  0   C } # D for Dihedral angle
| 16> { D 2  1  0  4   C } # D for Dihedral angle
| 17> { D 1  0  4  3   C } # D for Dihedral angle
| 18> { D 16  20  19  18   C } # D for Dihedral angle
| 19> { D 20  19  18  17   C } # D for Dihedral angle
| 20> { D 19  18  17  16   C } # D for Dihedral angle
| 21> { D 18  17  16  20   C } # D for Dihedral angle
| 22> { D 17  16  20  19   C } # D for Dihedral angle
| 23> { D 15  12  16  20   C } # D for Dihedral angle
| 24> end
| 25> end
| 26>
| 27>
| 28> #%pal
| 29> #nprocs 8
| 30> #end
| 31>
| 32> * xyz 0 1
| 33> C  -21.048   26.222   46.251
| 34> C  -20.361   27.558   45.944
| 35> C  -20.329   28.222   47.341
| 36> C  -20.110   27.022   48.296
| 37> O  -20.473   25.807   47.535
| 38> H  -20.833   25.428   45.533
| 39> H  -19.344   27.382   45.576
| 40> H  -20.898   28.157   45.201
| 41> H  -19.543   28.978   47.434
| 42> H  -21.289   28.710   47.548
| 43> H  -20.733   27.082   49.195
| 44> H  -19.064   26.913   48.597
| 45> C  -23.210   27.459   45.431
| 46> H  -23.696   28.236   46.034
| 47> H  -22.431   27.934   44.821
| 48> O  -22.586   26.394   46.375
| 49> C  -24.267   26.858   44.464
| 50> C  -24.776   27.911   43.473
| 51> C  -23.626   27.949   42.439
| 52> C  -23.148   26.476   42.390
| 53> O  -23.659   25.828   43.616
| 54> H  -25.051   26.371   45.048
| 55> H  -25.706   27.569   43.005
| 56> O  -25.039   29.293   44.132
| 57> H  -23.948   28.316   41.459
| 58> H  -22.822   28.604   42.794
| 59> H  -22.056   26.390   42.368
| 60> H  -23.564   25.930   41.538
| 61> H  -24.121   29.656   44.607
| 62> *
| 63>
| 64>                          ****END OF INPUT****
 Total Charge           Charge          ....    0
 Multiplicity           Mult            ....    1
 Number of Electrons    NEL             ....  102
FINAL SINGLE POINT ENERGY      -652.815789900733
FINAL SINGLE POINT ENERGY      -652.840530447221
FINAL SINGLE POINT ENERGY      -652.845950838310
FINAL SINGLE POINT ENERGY      -652.848005898183
FINAL SINGLE POINT ENERGY      -652.848232127431
FINAL SINGLE POINT ENERGY      -652.848324127735
FINAL SINGLE POINT ENERGY      -652.848337764840
FINAL SINGLE POINT ENERGY      -652.848343845232
                    ***********************HURRAY********************

CARTESIAN COORDINATES (ANGSTROEM)
---------------------------------
  C    -21.033605   26.290854   46.217990
  C    -20.140185   27.515742   46.017037
  C    -20.188508   28.186436   47.416043
  C    -20.255654   26.971306   48.366378
  O    -20.687625   25.826210   47.531299
  H    -20.853042   25.463965   45.528313
  H    -19.126434   27.161868   45.796471
  H    -20.437571   28.184021   45.206119
  H    -19.316091   28.818978   47.605652
  H    -21.086945   28.805741   47.509981
  H    -20.972326   27.102766   49.181125
  H    -19.279189   26.706323   48.782686
  C    -23.089826   27.576796   45.411523
  H    -23.599059   28.291216   46.071111
  H    -22.352090   28.122831   44.809940
  O    -22.467749   26.562286   46.235966
  C    -24.117016   26.899314   44.503043
  C    -24.840290   27.842738   43.525674
  C    -23.806919   27.950159   42.364905
  C    -23.181905   26.538665   42.330002
  O    -23.491676   25.901516   43.636720
  H    -24.813848   26.345212   45.137166
  H    -25.759575   27.368880   43.176538
  O    -25.272249   29.108833   44.081282
  H    -24.274350   28.234129   41.418363
  H    -23.058691   28.714807   42.613719
  H    -22.096394   26.555128   42.187181
  H    -23.627176   25.908793   41.554614
  H    -24.505011   29.699487   44.228161

 Multiplicity           Mult            ....    1
 Number of Electrons    NEL             ....  102
 Basis Dimension        Dim             ....  149

ORBITAL ENERGIES
----------------

  NO   OCC          E(Eh)            E(eV)
   0   2.0000     -19.152083      -521.1547
   1   2.0000     -19.140057      -520.8274
   2   2.0000     -19.136262      -520.7242
   3   2.0000     -19.132790      -520.6297
   4   2.0000     -10.276992      -279.6512
   5   2.0000     -10.246753      -278.8283
   6   2.0000     -10.233586      -278.4700
   7   2.0000     -10.233162      -278.4585
   8   2.0000     -10.228841      -278.3409
   9   2.0000     -10.224371      -278.2193
  10   2.0000     -10.198658      -277.5196
  11   2.0000     -10.192526      -277.3527
  12   2.0000     -10.191614      -277.3279
  13   2.0000      -1.049026       -28.5454
  14   2.0000      -1.035283       -28.1715
  15   2.0000      -1.017584       -27.6899
  16   2.0000      -0.987606       -26.8741
  17   2.0000      -0.788932       -21.4679
  18   2.0000      -0.785155       -21.3652
  19   2.0000      -0.769677       -20.9440
  20   2.0000      -0.732337       -19.9279
  21   2.0000      -0.685331       -18.6488
  22   2.0000      -0.613957       -16.7066
  23   2.0000      -0.604317       -16.4443
  24   2.0000      -0.593896       -16.1607
  25   2.0000      -0.571261       -15.5448
  26   2.0000      -0.531059       -14.4508
  27   2.0000      -0.506744       -13.7892
  28   2.0000      -0.505657       -13.7596
  29   2.0000      -0.494726       -13.4622
  30   2.0000      -0.472171       -12.8484
  31   2.0000      -0.461556       -12.5596
  32   2.0000      -0.444811       -12.1039
  33   2.0000      -0.440333       -11.9821
  34   2.0000      -0.429589       -11.6897
  35   2.0000      -0.417617       -11.3639
  36   2.0000      -0.407477       -11.0880
  37   2.0000      -0.401531       -10.9262
  38   2.0000      -0.382146       -10.3987
  39   2.0000      -0.379024       -10.3138
  40   2.0000      -0.362708        -9.8698
  41   2.0000      -0.354730        -9.6527
  42   2.0000      -0.351904        -9.5758
  43   2.0000      -0.333247        -9.0681
  44   2.0000      -0.317012        -8.6263
  45   2.0000      -0.310871        -8.4592
  46   2.0000      -0.292126        -7.9491
  47   2.0000      -0.272536        -7.4161
  48   2.0000      -0.261576        -7.1178
  49   2.0000      -0.255089        -6.9413
  50   2.0000      -0.234537        -6.3821
  51   0.0000       0.045016         1.2249
  52   0.0000       0.065187         1.7738
  53   0.0000       0.086166         2.3447
  54   0.0000       0.092429         2.5151
  55   0.0000       0.102903         2.8001

MULLIKEN ATOMIC CHARGES
-----------------------
   0 C :    0.318000
   1 C :   -0.296965
   2 C :   -0.301546
   3 C :    0.001675
   4 O :   -0.494169
   5 H :    0.161626
   6 H :    0.153611
   7 H :    0.138602
   8 H :    0.143280
   9 H :    0.151145
  10 H :    0.152884
  11 H :    0.142196
  12 C :   -0.016873
  13 H :    0.141139
  14 H :    0.105948
  15 O :   -0.515889
  16 C :    0.102049
  17 C :    0.081646
  18 C :   -0.318719
  19 C :   -0.016097
  20 O :   -0.508745
  21 H :    0.170889
  22 H :    0.169754
  23 O :   -0.597977
  24 H :    0.156413
  25 H :    0.128982
  26 H :    0.140095
  27 H :    0.153459
  28 H :    0.353586
Sum of atomic charges:   -0.0000000

LOEWDIN ATOMIC CHARGES
----------------------
   0 C :    0.188759
   1 C :   -0.234550
   2 C :   -0.218155
   3 C :   -0.026796
   4 O :   -0.303197
   5 H :    0.107913
   6 H :    0.120186
   7 H :    0.109566
   8 H :    0.114704
   9 H :    0.111620
  10 H :    0.108590
  11 H :    0.102722
  12 C :   -0.049113
  13 H :    0.104196
  14 H :    0.084135
  15 O :   -0.326602
  16 C :    0.016784
  17 C :    0.034130
  18 C :   -0.241011
  19 C :   -0.032607
  20 O :   -0.316883
  21 H :    0.123033
  22 H :    0.120808
  23 O :   -0.406416
  24 H :    0.122574
  25 H :    0.101268
  26 H :    0.100241
  27 H :    0.107842
  28 H :    0.276257

  Mayer bond orders larger than 0.100000
B(  0-C ,  1-C ) :   0.9313 B(  0-C ,  4-O ) :   0.9283 B(  0-C ,  5-H ) :   0.9224
B(  0-C , 15-O ) :   0.8426 B(  1-C ,  2-C ) :   0.9478 B(  1-C ,  6-H ) :   0.9337
B(  1-C ,  7-H ) :   0.9266 B(  2-C ,  3-C ) :   0.9545 B(  2-C ,  8-H ) :   0.9453
B(  2-C ,  9-H ) :   0.9466 B(  3-C ,  4-O ) :   0.8414 B(  3-C , 10-H ) :   0.9341
B(  3-C , 11-H ) :   0.9396 B( 12-C , 13-H ) :   0.9155 B( 12-C , 14-H ) :   0.9102
B( 12-C , 15-O ) :   0.8640 B( 12-C , 16-C ) :   0.8915 B( 16-C , 17-C ) :   0.8701
B( 16-C , 20-O ) :   0.8638 B( 16-C , 21-H ) :   0.9290 B( 17-C , 18-C ) :   0.9203
B( 17-C , 22-H ) :   0.9322 B( 17-C , 23-O ) :   0.8958 B( 18-C , 19-C ) :   0.9393
B( 18-C , 24-H ) :   0.9425 B( 18-C , 25-H ) :   0.9414 B( 19-C , 20-O ) :   0.8534
B( 19-C , 26-H ) :   0.9319 B( 19-C , 27-H ) :   0.9371 B( 23-O , 28-H ) :   0.7996

FINAL SINGLE POINT ENERGY      -652.848344876104

DIPOLE MOMENT
-------------
                                X             Y             Z
Electronic contribution:     -3.79098      -4.60903       1.39134
Nuclear contribution   :      4.80690       6.22783      -2.29689
                        -----------------------------------------
Total Dipole Moment    :      1.01592       1.61880      -0.90554
                        -----------------------------------------
Magnitude (a.u.)       :      2.11485
Magnitude (Debye)      :      5.37553

Rotational constants in cm-1:     0.054135     0.013113     0.012295
Rotational constants in MHz :  1622.922432   393.129366   368.581116

                             ****ORCA TERMINATED NORMALLY****
TOTAL RUN TIME: 0 days 2 hours 30 minutes 33 seconds 503 msec
