                         Program Version 4.2.0 -  RELEASE  -
|  1> # Test redundant internal optimization
|  2> #
|  3> ! RKS B3LYP  Opt TightSCF SmallPrint
|  4>
|  5> %basis
|  6>         Basis "6-31G"
|  7> end
|  8>
|  9> %geom
| 10> Constraints
| 11> { D 4  0  15  12  315.0   C } # D for Dihedral angle
| 12> { D 0  15  12  16  0.0   C } # D for Dihedral angle
| 13> { D 0  4  3  2   C } # D for Dihedral angle
| 14> { D 4  3  2  1   C } # D for Dihedral angle
| 15> { D 3  2  1  0   C } # D for Dihedral angle
| 16> { D 2  1  0  4   C } # D for Dihedral angle
| 17> { D 1  0  4  3   C } # D for Dihedral angle
| 18> { D 16  20  19  18   C } # D for Dihedral angle
| 19> { D 20  19  18  17   C } # D for Dihedral angle
| 20> { D 19  18  17  16   C } # D for Dihedral angle
| 21> { D 18  17  16  20   C } # D for Dihedral angle
| 22> { D 17  16  20  19   C } # D for Dihedral angle
| 23> { D 15  12  16  20   C } # D for Dihedral angle
| 24> end
| 25> end
| 26>
| 27>
| 28> #%pal
| 29> #nprocs 8
| 30> #end
| 31>
| 32> * xyz 0 1
| 33> C  -21.048   26.222   46.251
| 34> C  -20.361   27.558   45.944
| 35> C  -20.329   28.222   47.341
| 36> C  -20.110   27.022   48.296
| 37> O  -20.473   25.807   47.535
| 38> H  -20.833   25.428   45.533
| 39> H  -19.344   27.382   45.576
| 40> H  -20.898   28.157   45.201
| 41> H  -19.543   28.978   47.434
| 42> H  -21.289   28.710   47.548
| 43> H  -20.733   27.082   49.195
| 44> H  -19.064   26.913   48.597
| 45> C  -23.319   25.255   47.135
| 46> H  -23.837   25.675   48.006
| 47> H  -24.067   24.780   46.487
| 48> O  -22.586   26.394   46.375
| 49> C  -22.351   24.145   47.632
| 50> C  -23.119   22.984   48.273
| 51> C  -23.614   22.210   47.029
| 52> C  -22.453   22.386   46.019
| 53> O  -21.650   23.532   46.499
| 54> H  -21.591   24.594   48.274
| 55> H  -22.438   22.364   48.868
| 56> O  -24.280   23.454   49.192
| 57> H  -23.827   21.156   47.240
| 58> H  -24.534   22.666   46.643
| 59> H  -22.808   22.598   45.004
| 60> H  -21.790   21.517   45.989
| 61> H  -24.976   24.075   48.618
| 62> *
| 63>
| 64>                          ****END OF INPUT****
 Total Charge           Charge          ....    0
 Multiplicity           Mult            ....    1
 Number of Electrons    NEL             ....  102
FINAL SINGLE POINT ENERGY      -652.816960754537
FINAL SINGLE POINT ENERGY      -652.838422971338
FINAL SINGLE POINT ENERGY      -652.852079000231
FINAL SINGLE POINT ENERGY      -652.854011913860
FINAL SINGLE POINT ENERGY      -652.854430153547
FINAL SINGLE POINT ENERGY      -652.854487429630
FINAL SINGLE POINT ENERGY      -652.854496228871
FINAL SINGLE POINT ENERGY      -652.854496968013
                    ***********************HURRAY********************

CARTESIAN COORDINATES (ANGSTROEM)
---------------------------------
  C    -20.910134   26.264492   46.238930
  C    -20.471472   27.703881   45.964551
  C    -20.415855   28.293090   47.392376
  C    -19.928095   27.103354   48.248254
  O    -20.172549   25.884743   47.428259
  H    -20.640487   25.519153   45.488975
  H    -19.479460   27.692566   45.498719
  H    -21.170048   28.227536   45.308969
  H    -19.749119   29.157735   47.466871
  H    -21.419244   28.602726   47.698212
  H    -20.465380   27.007594   49.196129
  H    -18.852765   27.133479   48.447365
  C    -23.106685   25.244575   47.087204
  H    -23.636257   25.734905   47.913942
  H    -23.853396   24.904713   46.356137
  O    -22.347997   26.292082   46.408985
  C    -22.352798   24.040386   47.657264
  C    -23.290927   22.982277   48.268644
  C    -23.763841   22.202544   47.002383
  C    -22.508808   22.226687   46.101147
  O    -21.631635   23.310122   46.612608
  H    -21.590942   24.374781   48.357763
  H    -22.711664   22.329304   48.925112
  O    -24.353761   23.494261   49.108328
  H    -24.096332   21.188976   47.240990
  H    -24.604715   22.733373   46.537110
  H    -22.744087   22.422299   45.049757
  H    -21.936968   21.296113   46.165753
  H    -25.059580   23.898253   48.563263

 Multiplicity           Mult            ....    1
 Number of Electrons    NEL             ....  102
 Basis Dimension        Dim             ....  149

ORBITAL ENERGIES
----------------

  NO   OCC          E(Eh)            E(eV)
   0   2.0000     -19.148644      -521.0611
   1   2.0000     -19.135842      -520.7127
   2   2.0000     -19.135642      -520.7073
   3   2.0000     -19.132279      -520.6158
   4   2.0000     -10.268456      -279.4189
   5   2.0000     -10.243211      -278.7319
   6   2.0000     -10.228914      -278.3429
   7   2.0000     -10.227198      -278.2962
   8   2.0000     -10.223010      -278.1822
   9   2.0000     -10.221157      -278.1318
  10   2.0000     -10.193838      -277.3884
  11   2.0000     -10.180272      -277.0193
  12   2.0000     -10.178050      -276.9588
  13   2.0000      -1.043590       -28.3975
  14   2.0000      -1.030795       -28.0493
  15   2.0000      -1.012468       -27.5507
  16   2.0000      -0.983063       -26.7505
  17   2.0000      -0.784701       -21.3528
  18   2.0000      -0.779485       -21.2109
  19   2.0000      -0.760611       -20.6973
  20   2.0000      -0.728252       -19.8167
  21   2.0000      -0.675908       -18.3924
  22   2.0000      -0.610069       -16.6008
  23   2.0000      -0.596266       -16.2252
  24   2.0000      -0.592569       -16.1246
  25   2.0000      -0.560835       -15.2611
  26   2.0000      -0.523339       -14.2408
  27   2.0000      -0.507631       -13.8133
  28   2.0000      -0.495730       -13.4895
  29   2.0000      -0.478964       -13.0333
  30   2.0000      -0.461216       -12.5503
  31   2.0000      -0.455234       -12.3875
  32   2.0000      -0.441200       -12.0057
  33   2.0000      -0.426937       -11.6175
  34   2.0000      -0.425506       -11.5786
  35   2.0000      -0.409525       -11.1437
  36   2.0000      -0.405348       -11.0301
  37   2.0000      -0.393662       -10.7121
  38   2.0000      -0.379712       -10.3325
  39   2.0000      -0.364883        -9.9290
  40   2.0000      -0.355849        -9.6832
  41   2.0000      -0.351744        -9.5714
  42   2.0000      -0.340898        -9.2763
  43   2.0000      -0.330054        -8.9812
  44   2.0000      -0.319722        -8.7001
  45   2.0000      -0.311944        -8.4884
  46   2.0000      -0.292337        -7.9549
  47   2.0000      -0.269793        -7.3414
  48   2.0000      -0.258974        -7.0470
  49   2.0000      -0.242756        -6.6057
  50   2.0000      -0.234702        -6.3866
  51   0.0000       0.051985         1.4146
  52   0.0000       0.078264         2.1297
  53   0.0000       0.092751         2.5239
  54   0.0000       0.094991         2.5848
  55   0.0000       0.107692         2.9305

MULLIKEN ATOMIC CHARGES
-----------------------
   0 C :    0.310595
   1 C :   -0.261935
   2 C :   -0.297465
   3 C :   -0.013808
   4 O :   -0.509546
   5 H :    0.165483
   6 H :    0.143929
   7 H :    0.157655
   8 H :    0.138928
   9 H :    0.157524
  10 H :    0.141084
  11 H :    0.146043
  12 C :    0.015552
  13 H :    0.136891
  14 H :    0.126240
  15 O :   -0.555173
  16 C :    0.062061
  17 C :    0.082978
  18 C :   -0.320407
  19 C :   -0.013669
  20 O :   -0.513618
  21 H :    0.193212
  22 H :    0.168777
  23 O :   -0.599905
  24 H :    0.155374
  25 H :    0.131443
  26 H :    0.144348
  27 H :    0.151067
  28 H :    0.356342
Sum of atomic charges:   -0.0000000

LOEWDIN ATOMIC CHARGES
----------------------
   0 C :    0.182746
   1 C :   -0.214948
   2 C :   -0.216520
   3 C :   -0.033461
   4 O :   -0.319655
   5 H :    0.107403
   6 H :    0.113305
   7 H :    0.124708
   8 H :    0.112551
   9 H :    0.116847
  10 H :    0.101337
  11 H :    0.104058
  12 C :   -0.041386
  13 H :    0.103926
  14 H :    0.094223
  15 O :   -0.338746
  16 C :    0.002608
  17 C :    0.037136
  18 C :   -0.241492
  19 C :   -0.032266
  20 O :   -0.319057
  21 H :    0.132165
  22 H :    0.119735
  23 O :   -0.407124
  24 H :    0.121575
  25 H :    0.103022
  26 H :    0.102551
  27 H :    0.106517
  28 H :    0.278241

  Mayer bond orders larger than 0.100000
B(  0-C ,  1-C ) :   0.9414 B(  0-C ,  4-O ) :   0.8864 B(  0-C ,  5-H ) :   0.9183
B(  0-C , 15-O ) :   0.8433 B(  1-C ,  2-C ) :   0.9549 B(  1-C ,  6-H ) :   0.9397
B(  1-C ,  7-H ) :   0.9365 B(  2-C ,  3-C ) :   0.9558 B(  2-C ,  8-H ) :   0.9455
B(  2-C ,  9-H ) :   0.9450 B(  3-C ,  4-O ) :   0.8392 B(  3-C , 10-H ) :   0.9352
B(  3-C , 11-H ) :   0.9402 B( 12-C , 13-H ) :   0.9128 B( 12-C , 14-H ) :   0.9294
B( 12-C , 15-O ) :   0.8428 B( 12-C , 16-C ) :   0.9084 B( 16-C , 17-C ) :   0.8644
B( 16-C , 20-O ) :   0.8398 B( 16-C , 21-H ) :   0.9084 B( 17-C , 18-C ) :   0.9214
B( 17-C , 22-H ) :   0.9339 B( 17-C , 23-O ) :   0.8994 B( 18-C , 19-C ) :   0.9386
B( 18-C , 24-H ) :   0.9420 B( 18-C , 25-H ) :   0.9403 B( 19-C , 20-O ) :   0.8498
B( 19-C , 26-H ) :   0.9315 B( 19-C , 27-H ) :   0.9377 B( 23-O , 28-H ) :   0.7979

FINAL SINGLE POINT ENERGY      -652.854497080800

DIPOLE MOMENT
-------------
                                X             Y             Z
Electronic contribution:      0.06399      -2.05904       0.63947
Nuclear contribution   :     -0.57175       2.17596      -0.99747
                        -----------------------------------------
Total Dipole Moment    :     -0.50776       0.11692      -0.35799
                        -----------------------------------------
Magnitude (a.u.)       :      0.63218
Magnitude (Debye)      :      1.60687

Rotational constants in cm-1:     0.054705     0.014659     0.013680
Rotational constants in MHz :  1640.007820   439.473520   410.130912

                             ****ORCA TERMINATED NORMALLY****
TOTAL RUN TIME: 0 days 0 hours 20 minutes 28 seconds 836 msec
