                         Program Version 4.2.0 -  RELEASE  -
|  1> # Test redundant internal optimization
|  2> #
|  3> ! RKS B3LYP  Opt TightSCF SmallPrint
|  4>
|  5> %basis
|  6>         Basis "6-31G"
|  7> end
|  8>
|  9> %geom
| 10> Constraints
| 11> { D 4  0  15  12  120.0   C } # D for Dihedral angle
| 12> { D 0  15  12  16  225.0   C } # D for Dihedral angle
| 13> { D 0  4  3  2   C } # D for Dihedral angle
| 14> { D 4  3  2  1   C } # D for Dihedral angle
| 15> { D 3  2  1  0   C } # D for Dihedral angle
| 16> { D 2  1  0  4   C } # D for Dihedral angle
| 17> { D 1  0  4  3   C } # D for Dihedral angle
| 18> { D 16  20  19  18   C } # D for Dihedral angle
| 19> { D 20  19  18  17   C } # D for Dihedral angle
| 20> { D 19  18  17  16   C } # D for Dihedral angle
| 21> { D 18  17  16  20   C } # D for Dihedral angle
| 22> { D 17  16  20  19   C } # D for Dihedral angle
| 23> { D 15  12  16  20   C } # D for Dihedral angle
| 24> end
| 25> end
| 26>
| 27>
| 28> #%pal
| 29> #nprocs 8
| 30> #end
| 31>
| 32> * xyz 0 1
| 33> C  -21.048   26.222   46.251
| 34> C  -20.361   27.558   45.944
| 35> C  -20.329   28.222   47.341
| 36> C  -20.110   27.022   48.296
| 37> O  -20.473   25.807   47.535
| 38> H  -20.833   25.428   45.533
| 39> H  -19.344   27.382   45.576
| 40> H  -20.898   28.157   45.201
| 41> H  -19.543   28.978   47.434
| 42> H  -21.289   28.710   47.548
| 43> H  -20.733   27.082   49.195
| 44> H  -19.064   26.913   48.597
| 45> C  -23.119   27.818   46.058
| 46> H  -22.280   28.525   46.049
| 47> H  -23.595   27.838   45.069
| 48> O  -22.586   26.394   46.375
| 49> C  -24.164   28.314   47.096
| 50> C  -24.752   29.669   46.690
| 51> C  -25.787   29.253   45.617
| 52> C  -26.314   27.896   46.146
| 53> O  -25.321   27.413   47.129
| 54> H  -23.715   28.295   48.091
| 55> O  -25.458   30.330   47.906
| 56> H  -24.000   30.367   46.306
| 57> H  -26.586   29.990   45.490
| 58> H  -25.293   29.125   44.647
| 59> H  -26.423   27.150   45.350
| 60> H  -27.268   27.994   46.672
| 61> H  -26.216   29.648   48.306
| 62> *
| 63>
| 64>                          ****END OF INPUT****
 Total Charge           Charge          ....    0
 Multiplicity           Mult            ....    1
 Number of Electrons    NEL             ....  102
FINAL SINGLE POINT ENERGY      -652.813166260986
FINAL SINGLE POINT ENERGY      -652.837468013112
FINAL SINGLE POINT ENERGY      -652.846171713744
FINAL SINGLE POINT ENERGY      -652.848310845047
FINAL SINGLE POINT ENERGY      -652.848674273652
FINAL SINGLE POINT ENERGY      -652.848717325364
                    ***********************HURRAY********************

CARTESIAN COORDINATES (ANGSTROEM)
---------------------------------
  C    -21.156049   26.344107   46.311655
  C    -20.180424   27.475167   45.968477
  C    -20.053509   28.220102   47.327784
  C    -20.143186   27.061589   48.350736
  O    -20.738393   25.917923   47.623440
  H    -21.058295   25.461744   45.676724
  H    -19.221690   27.024028   45.692712
  H    -20.499330   28.114932   45.141453
  H    -19.112868   28.772964   47.410546
  H    -20.871789   28.933974   47.467959
  H    -20.769973   27.299927   49.214630
  H    -19.159339   26.736697   48.701198
  C    -23.126877   27.951158   45.966346
  H    -22.369641   28.744363   45.966125
  H    -23.553573   27.893725   44.955994
  O    -22.576045   26.652857   46.301087
  C    -24.207973   28.312635   46.985921
  C    -24.898678   29.654043   46.705887
  C    -25.963870   29.248093   45.651828
  C    -26.378276   27.826205   46.108167
  O    -25.304304   27.343028   47.007341
  H    -23.764308   28.292873   47.986272
  O    -25.509892   30.184106   47.914597
  H    -24.225556   30.439681   46.358190
  H    -26.795275   29.957421   45.648593
  H    -25.519369   29.232863   44.650430
  H    -26.485225   27.127390   45.272981
  H    -27.308649   27.824886   46.684789
  H    -25.949642   29.451518   48.396137

 Multiplicity           Mult            ....    1
 Number of Electrons    NEL             ....  102
 Basis Dimension        Dim             ....  149

ORBITAL ENERGIES
----------------

  NO   OCC          E(Eh)            E(eV)
   0   2.0000     -19.140574      -520.8415
   1   2.0000     -19.139608      -520.8152
   2   2.0000     -19.137282      -520.7519
   3   2.0000     -19.136858      -520.7404
   4   2.0000     -10.279687      -279.7245
   5   2.0000     -10.244936      -278.7789
   6   2.0000     -10.236744      -278.5560
   7   2.0000     -10.234515      -278.4953
   8   2.0000     -10.229471      -278.3581
   9   2.0000     -10.227290      -278.2987
  10   2.0000     -10.196461      -277.4598
  11   2.0000     -10.196193      -277.4525
  12   2.0000     -10.190893      -277.3083
  13   2.0000      -1.049315       -28.5533
  14   2.0000      -1.036461       -28.2035
  15   2.0000      -1.006975       -27.4012
  16   2.0000      -0.991642       -26.9840
  17   2.0000      -0.791783       -21.5455
  18   2.0000      -0.786988       -21.4150
  19   2.0000      -0.770387       -20.9633
  20   2.0000      -0.734334       -19.9822
  21   2.0000      -0.680767       -18.5246
  22   2.0000      -0.608303       -16.5528
  23   2.0000      -0.605164       -16.4673
  24   2.0000      -0.597808       -16.2672
  25   2.0000      -0.575994       -15.6736
  26   2.0000      -0.523286       -14.2393
  27   2.0000      -0.518926       -14.1207
  28   2.0000      -0.502384       -13.6706
  29   2.0000      -0.493699       -13.4342
  30   2.0000      -0.473741       -12.8911
  31   2.0000      -0.460722       -12.5369
  32   2.0000      -0.449562       -12.2332
  33   2.0000      -0.443212       -12.0604
  34   2.0000      -0.430095       -11.7035
  35   2.0000      -0.417661       -11.3651
  36   2.0000      -0.399800       -10.8791
  37   2.0000      -0.394183       -10.7263
  38   2.0000      -0.383128       -10.4255
  39   2.0000      -0.373385       -10.1603
  40   2.0000      -0.366101        -9.9621
  41   2.0000      -0.362038        -9.8516
  42   2.0000      -0.353838        -9.6284
  43   2.0000      -0.333861        -9.0848
  44   2.0000      -0.313897        -8.5416
  45   2.0000      -0.307286        -8.3617
  46   2.0000      -0.289476        -7.8771
  47   2.0000      -0.273235        -7.4351
  48   2.0000      -0.268450        -7.3049
  49   2.0000      -0.251137        -6.8338
  50   2.0000      -0.238136        -6.4800
  51   0.0000       0.061877         1.6838
  52   0.0000       0.074357         2.0234
  53   0.0000       0.082303         2.2396
  54   0.0000       0.094750         2.5783
  55   0.0000       0.098125         2.6701

MULLIKEN ATOMIC CHARGES
-----------------------
   0 C :    0.318740
   1 C :   -0.308156
   2 C :   -0.308445
   3 C :   -0.003354
   4 O :   -0.492559
   5 H :    0.159610
   6 H :    0.158901
   7 H :    0.146096
   8 H :    0.147335
   9 H :    0.149063
  10 H :    0.150048
  11 H :    0.145497
  12 C :   -0.001601
  13 H :    0.122333
  14 H :    0.134689
  15 O :   -0.515848
  16 C :    0.076155
  17 C :    0.072444
  18 C :   -0.295565
  19 C :   -0.031006
  20 O :   -0.504231
  21 H :    0.164406
  22 O :   -0.601853
  23 H :    0.146556
  24 H :    0.164871
  25 H :    0.140856
  26 H :    0.152446
  27 H :    0.145647
  28 H :    0.366924
Sum of atomic charges:   -0.0000000

LOEWDIN ATOMIC CHARGES
----------------------
   0 C :    0.183059
   1 C :   -0.234489
   2 C :   -0.221465
   3 C :   -0.030085
   4 O :   -0.311040
   5 H :    0.107327
   6 H :    0.124394
   7 H :    0.114169
   8 H :    0.116932
   9 H :    0.107590
  10 H :    0.106101
  11 H :    0.104276
  12 C :   -0.039721
  13 H :    0.095246
  14 H :    0.097510
  15 O :   -0.319745
  16 C :    0.015100
  17 C :    0.032820
  18 C :   -0.241440
  19 C :   -0.038757
  20 O :   -0.316212
  21 H :    0.118066
  22 O :   -0.414715
  23 H :    0.112333
  24 H :    0.127246
  25 H :    0.111288
  26 H :    0.107081
  27 H :    0.102470
  28 H :    0.284660

  Mayer bond orders larger than 0.100000
B(  0-C ,  1-C ) :   0.9293 B(  0-C ,  4-O ) :   0.9151 B(  0-C ,  5-H ) :   0.9316
B(  0-C , 15-O ) :   0.8745 B(  1-C ,  2-C ) :   0.9502 B(  1-C ,  6-H ) :   0.9336
B(  1-C ,  7-H ) :   0.9299 B(  2-C ,  3-C ) :   0.9478 B(  2-C ,  8-H ) :   0.9458
B(  2-C ,  9-H ) :   0.9400 B(  3-C ,  4-O ) :   0.8476 B(  3-C , 10-H ) :   0.9334
B(  3-C , 11-H ) :   0.9391 B( 12-C , 13-H ) :   0.8981 B( 12-C , 14-H ) :   0.9256
B( 12-C , 15-O ) :   0.8498 B( 12-C , 16-C ) :   0.8887 B( 16-C , 17-C ) :   0.8963
B( 16-C , 20-O ) :   0.8702 B( 16-C , 21-H ) :   0.9243 B( 17-C , 18-C ) :   0.9103
B( 17-C , 22-O ) :   0.8944 B( 17-C , 23-H ) :   0.9335 B( 18-C , 19-C ) :   0.9420
B( 18-C , 24-H ) :   0.9366 B( 18-C , 25-H ) :   0.9342 B( 19-C , 20-O ) :   0.8519
B( 19-C , 26-H ) :   0.9330 B( 19-C , 27-H ) :   0.9376 B( 22-O , 28-H ) :   0.7930

FINAL SINGLE POINT ENERGY      -652.848723740156

DIPOLE MOMENT
-------------
                                X             Y             Z
Electronic contribution:     -2.41791      -4.05104       2.40985
Nuclear contribution   :      2.98334       5.15618      -3.39709
                        -----------------------------------------
Total Dipole Moment    :      0.56544       1.10514      -0.98724
                        -----------------------------------------
Magnitude (a.u.)       :      1.58609
Magnitude (Debye)      :      4.03153

Rotational constants in cm-1:     0.054370     0.013084     0.012312
Rotational constants in MHz :  1629.971543   392.238767   369.094968

                             ****ORCA TERMINATED NORMALLY****
TOTAL RUN TIME: 0 days 0 hours 25 minutes 35 seconds 905 msec
