                         Program Version 4.2.0 -  RELEASE  -
|  1> # Test redundant internal optimization
|  2> #
|  3> ! RKS B3LYP  Opt TightSCF SmallPrint
|  4>
|  5> %basis
|  6>         Basis "6-31G"
|  7> end
|  8>
|  9> %geom
| 10> Constraints
| 11> { D 4  0  15  12  90.0   C } # D for Dihedral angle
| 12> { D 0  15  12  16  135.0   C } # D for Dihedral angle
| 13> { D 0  4  3  2   C } # D for Dihedral angle
| 14> { D 4  3  2  1   C } # D for Dihedral angle
| 15> { D 3  2  1  0   C } # D for Dihedral angle
| 16> { D 2  1  0  4   C } # D for Dihedral angle
| 17> { D 1  0  4  3   C } # D for Dihedral angle
| 18> { D 16  20  19  18   C } # D for Dihedral angle
| 19> { D 20  19  18  17   C } # D for Dihedral angle
| 20> { D 19  18  17  16   C } # D for Dihedral angle
| 21> { D 18  17  16  20   C } # D for Dihedral angle
| 22> { D 17  16  20  19   C } # D for Dihedral angle
| 23> { D 15  12  16  20   C } # D for Dihedral angle
| 24> end
| 25> end
| 26>
| 27>
| 28> #%pal
| 29> #nprocs 8
| 30> #end
| 31>
| 32> * xyz 0 1
| 33> C  -21.048   26.222   46.251
| 34> C  -20.361   27.558   45.944
| 35> C  -20.329   28.222   47.341
| 36> C  -20.110   27.022   48.296
| 37> O  -20.473   25.807   47.535
| 38> H  -20.833   25.428   45.533
| 39> H  -19.344   27.382   45.576
| 40> H  -20.898   28.157   45.201
| 41> H  -19.543   28.978   47.434
| 42> H  -21.289   28.710   47.548
| 43> H  -20.733   27.082   49.195
| 44> H  -19.064   26.913   48.597
| 45> C  -23.061   27.816   46.783
| 46> H  -23.369   27.806   47.836
| 47> H  -22.244   28.540   46.672
| 48> O  -22.586   26.394   46.375
| 49> C  -24.257   28.318   45.928
| 50> C  -23.929   28.273   44.431
| 51> C  -24.131   26.773   44.111
| 52> C  -25.311   26.372   45.031
| 53> O  -25.405   27.417   46.074
| 54> H  -24.571   29.297   46.293
| 55> H  -24.644   28.887   43.872
| 56> O  -22.495   28.771   44.105
| 57> H  -24.345   26.589   43.053
| 58> H  -23.228   26.207   44.372
| 59> H  -25.159   25.399   45.509
| 60> H  -26.268   26.360   44.501
| 61> H  -21.763   28.169   44.655
| 62> *
| 63>
| 64>                          ****END OF INPUT****
 Total Charge           Charge          ....    0
 Multiplicity           Mult            ....    1
 Number of Electrons    NEL             ....  102
FINAL SINGLE POINT ENERGY      -652.771579698833
FINAL SINGLE POINT ENERGY      -652.824486650521
FINAL SINGLE POINT ENERGY      -652.843358825428
FINAL SINGLE POINT ENERGY      -652.848097233861
FINAL SINGLE POINT ENERGY      -652.849308255126
FINAL SINGLE POINT ENERGY      -652.849943272214
FINAL SINGLE POINT ENERGY      -652.850271434621
FINAL SINGLE POINT ENERGY      -652.850531008227
FINAL SINGLE POINT ENERGY      -652.850788971340
FINAL SINGLE POINT ENERGY      -652.851112618590
FINAL SINGLE POINT ENERGY      -652.851869599544
FINAL SINGLE POINT ENERGY      -652.849944581713
FINAL SINGLE POINT ENERGY      -652.852663753091
FINAL SINGLE POINT ENERGY      -652.853149427450
FINAL SINGLE POINT ENERGY      -652.853521918742
FINAL SINGLE POINT ENERGY      -652.853734065270
FINAL SINGLE POINT ENERGY      -652.853783427458
FINAL SINGLE POINT ENERGY      -652.853795909750
FINAL SINGLE POINT ENERGY      -652.853798596038
                    ***********************HURRAY********************

CARTESIAN COORDINATES (ANGSTROEM)
---------------------------------
  C    -21.193695   26.302038   46.535596
  C    -20.256047   27.420329   46.056151
  C    -19.960096   28.188581   47.379596
  C    -19.934779   27.044617   48.427116
  O    -20.620618   25.893208   47.800626
  H    -21.153491   25.409068   45.909537
  H    -19.340604   26.959845   45.671305
  H    -20.708281   28.043225   45.281627
  H    -19.004193   28.721171   47.340554
  H    -20.734947   28.924042   47.604868
  H    -20.447983   27.303204   49.358553
  H    -18.916614   26.719810   48.661782
  C    -23.207087   27.856115   46.892194
  H    -23.615430   27.814672   47.908355
  H    -22.479058   28.667684   46.826623
  O    -22.613465   26.560900   46.589870
  C    -24.349117   28.186452   45.931201
  C    -24.002964   28.271675   44.437386
  C    -24.096960   26.781100   43.999477
  C    -25.255188   26.246597   44.872609
  O    -25.424598   27.208393   45.985060
  H    -24.780727   29.132137   46.284168
  H    -24.773222   28.867359   43.929221
  O    -22.702220   28.892610   44.259016
  H    -24.299509   26.669305   42.928199
  H    -23.158170   26.286458   44.248430
  H    -25.036927   25.260981   45.291062
  H    -26.207314   26.210317   44.332950
  H    -22.517695   29.027106   43.308867

 Multiplicity           Mult            ....    1
 Number of Electrons    NEL             ....  102
 Basis Dimension        Dim             ....  149

ORBITAL ENERGIES
----------------

  NO   OCC          E(Eh)            E(eV)
   0   2.0000     -19.155679      -521.2525
   1   2.0000     -19.134532      -520.6771
   2   2.0000     -19.130181      -520.5587
   3   2.0000     -19.129494      -520.5400
   4   2.0000     -10.271149      -279.4922
   5   2.0000     -10.244860      -278.7768
   6   2.0000     -10.230374      -278.3826
   7   2.0000     -10.221276      -278.1351
   8   2.0000     -10.220238      -278.1068
   9   2.0000     -10.219080      -278.0753
  10   2.0000     -10.184951      -277.1466
  11   2.0000     -10.179838      -277.0075
  12   2.0000     -10.178742      -276.9777
  13   2.0000      -1.042006       -28.3544
  14   2.0000      -1.033362       -28.1192
  15   2.0000      -1.013042       -27.5663
  16   2.0000      -0.985588       -26.8192
  17   2.0000      -0.778825       -21.1929
  18   2.0000      -0.776232       -21.1223
  19   2.0000      -0.765117       -20.8199
  20   2.0000      -0.726585       -19.7714
  21   2.0000      -0.675894       -18.3920
  22   2.0000      -0.601665       -16.3722
  23   2.0000      -0.595726       -16.2105
  24   2.0000      -0.593299       -16.1445
  25   2.0000      -0.551696       -15.0124
  26   2.0000      -0.529777       -14.4160
  27   2.0000      -0.509329       -13.8595
  28   2.0000      -0.497893       -13.5484
  29   2.0000      -0.488401       -13.2901
  30   2.0000      -0.458454       -12.4752
  31   2.0000      -0.449896       -12.2423
  32   2.0000      -0.441523       -12.0145
  33   2.0000      -0.428309       -11.6549
  34   2.0000      -0.425270       -11.5722
  35   2.0000      -0.410143       -11.1606
  36   2.0000      -0.401447       -10.9239
  37   2.0000      -0.393030       -10.6949
  38   2.0000      -0.373534       -10.1644
  39   2.0000      -0.366036        -9.9604
  40   2.0000      -0.356884        -9.7113
  41   2.0000      -0.353613        -9.6223
  42   2.0000      -0.341927        -9.3043
  43   2.0000      -0.332914        -9.0590
  44   2.0000      -0.306331        -8.3357
  45   2.0000      -0.298814        -8.1311
  46   2.0000      -0.287356        -7.8194
  47   2.0000      -0.275646        -7.5007
  48   2.0000      -0.257959        -7.0194
  49   2.0000      -0.248101        -6.7512
  50   2.0000      -0.232217        -6.3190
  51   0.0000       0.048797         1.3278
  52   0.0000       0.079316         2.1583
  53   0.0000       0.094495         2.5713
  54   0.0000       0.104226         2.8361
  55   0.0000       0.113779         3.0961

MULLIKEN ATOMIC CHARGES
-----------------------
   0 C :    0.317690
   1 C :   -0.308094
   2 C :   -0.314017
   3 C :   -0.005818
   4 O :   -0.504559
   5 H :    0.152930
   6 H :    0.145914
   7 H :    0.183235
   8 H :    0.140308
   9 H :    0.150007
  10 H :    0.142410
  11 H :    0.142045
  12 C :    0.009584
  13 H :    0.151755
  14 H :    0.147198
  15 O :   -0.535022
  16 C :    0.095668
  17 C :    0.085211
  18 C :   -0.309531
  19 C :    0.002776
  20 O :   -0.519707
  21 H :    0.140999
  22 H :    0.138418
  23 O :   -0.610158
  24 H :    0.126798
  25 H :    0.177282
  26 H :    0.158075
  27 H :    0.134141
  28 H :    0.364463
Sum of atomic charges:    0.0000000

LOEWDIN ATOMIC CHARGES
----------------------
   0 C :    0.178163
   1 C :   -0.240310
   2 C :   -0.223088
   3 C :   -0.033080
   4 O :   -0.321967
   5 H :    0.105635
   6 H :    0.118418
   7 H :    0.131658
   8 H :    0.113177
   9 H :    0.108405
  10 H :    0.101701
  11 H :    0.101882
  12 C :   -0.036796
  13 H :    0.110659
  14 H :    0.108507
  15 O :   -0.322456
  16 C :    0.032192
  17 C :    0.035082
  18 C :   -0.244715
  19 C :   -0.021466
  20 O :   -0.319783
  21 H :    0.110107
  22 H :    0.097655
  23 O :   -0.417486
  24 H :    0.104962
  25 H :    0.127786
  26 H :    0.111597
  27 H :    0.097216
  28 H :    0.286345

  Mayer bond orders larger than 0.100000
B(  0-C ,  1-C ) :   0.9267 B(  0-C ,  4-O ) :   0.9022 B(  0-C ,  5-H ) :   0.9378
B(  0-C , 15-O ) :   0.8851 B(  1-C ,  2-C ) :   0.9547 B(  1-C ,  6-H ) :   0.9352
B(  1-C ,  7-H ) :   0.9068 B(  2-C ,  3-C ) :   0.9457 B(  2-C ,  8-H ) :   0.9463
B(  2-C ,  9-H ) :   0.9377 B(  3-C ,  4-O ) :   0.8513 B(  3-C , 10-H ) :   0.9349
B(  3-C , 11-H ) :   0.9395 B( 12-C , 13-H ) :   0.9268 B( 12-C , 14-H ) :   0.8909
B( 12-C , 15-O ) :   0.8430 B( 12-C , 16-C ) :   0.9144 B( 16-C , 17-C ) :   0.9230
B( 16-C , 20-O ) :   0.8857 B( 16-C , 21-H ) :   0.9271 B( 17-C , 18-C ) :   0.9270
B( 17-C , 22-H ) :   0.9240 B( 17-C , 23-O ) :   0.8660 B( 18-C , 19-C ) :   0.9472
B( 18-C , 24-H ) :   0.9421 B( 18-C , 25-H ) :   0.9252 B( 19-C , 20-O ) :   0.8394
B( 19-C , 26-H ) :   0.9309 B( 19-C , 27-H ) :   0.9373 B( 23-O , 28-H ) :   0.8007

FINAL SINGLE POINT ENERGY      -652.853799431365

DIPOLE MOMENT
-------------
                                X             Y             Z
Electronic contribution:     -3.28897      -1.89620       0.89527
Nuclear contribution   :      3.91149       2.99990      -2.26956
                        -----------------------------------------
Total Dipole Moment    :      0.62252       1.10370      -1.37429
                        -----------------------------------------
Magnitude (a.u.)       :      1.86932
Magnitude (Debye)      :      4.75144

Rotational constants in cm-1:     0.050547     0.016440     0.015005
Rotational constants in MHz :  1515.367328   492.851566   449.832810

                             ****ORCA TERMINATED NORMALLY****
TOTAL RUN TIME: 0 days 1 hours 56 minutes 55 seconds 451 msec
