                         Program Version 4.2.0 -  RELEASE  -
|  1> # Test redundant internal optimization
|  2> #
|  3> ! RKS B3LYP  Opt TightSCF SmallPrint
|  4>
|  5> %basis
|  6>         Basis "6-31G"
|  7> end
|  8>
|  9> %geom
| 10> Constraints
| 11> { D 4  0  15  12  15.0   C } # D for Dihedral angle
| 12> { D 0  15  12  16  225.0   C } # D for Dihedral angle
| 13> { D 0  4  3  2   C } # D for Dihedral angle
| 14> { D 4  3  2  1   C } # D for Dihedral angle
| 15> { D 3  2  1  0   C } # D for Dihedral angle
| 16> { D 2  1  0  4   C } # D for Dihedral angle
| 17> { D 1  0  4  3   C } # D for Dihedral angle
| 18> { D 16  20  19  18   C } # D for Dihedral angle
| 19> { D 20  19  18  17   C } # D for Dihedral angle
| 20> { D 19  18  17  16   C } # D for Dihedral angle
| 21> { D 18  17  16  20   C } # D for Dihedral angle
| 22> { D 17  16  20  19   C } # D for Dihedral angle
| 23> { D 15  12  16  20   C } # D for Dihedral angle
| 24> end
| 25> end
| 26>
| 27>
| 28> #%pal
| 29> #nprocs 8
| 30> #end
| 31>
| 32> * xyz 0 1
| 33> C  -21.048   26.222   46.251
| 34> C  -20.361   27.558   45.944
| 35> C  -20.329   28.222   47.341
| 36> C  -20.110   27.022   48.296
| 37> O  -20.473   25.807   47.535
| 38> H  -20.833   25.428   45.533
| 39> H  -19.344   27.382   45.576
| 40> H  -20.898   28.157   45.201
| 41> H  -19.543   28.978   47.434
| 42> H  -21.289   28.710   47.548
| 43> H  -20.733   27.082   49.195
| 44> H  -19.064   26.913   48.597
| 45> C  -23.128   26.462   47.829
| 46> H  -22.350   26.118   48.522
| 47> H  -23.390   27.495   48.093
| 48> O  -22.586   26.394   46.375
| 49> C  -24.393   25.585   48.041
| 50> C  -25.497   25.949   47.041
| 51> C  -25.016   25.220   45.764
| 52> C  -24.363   23.930   46.319
| 53> O  -24.095   24.178   47.753
| 54> H  -24.695   25.640   49.088
| 55> H  -26.457   25.545   47.379
| 56> O  -25.654   27.481   46.837
| 57> H  -25.831   25.008   45.064
| 58> H  -24.274   25.833   45.237
| 59> H  -23.423   23.684   45.815
| 60> H  -25.032   23.066   46.262
| 61> H  -24.703   27.907   46.499
| 62> *
| 63>
| 64>                          ****END OF INPUT****
 Total Charge           Charge          ....    0
 Multiplicity           Mult            ....    1
 Number of Electrons    NEL             ....  102
FINAL SINGLE POINT ENERGY      -652.829298148615
FINAL SINGLE POINT ENERGY      -652.852790309538
FINAL SINGLE POINT ENERGY      -652.857795513815
FINAL SINGLE POINT ENERGY      -652.859748796144
FINAL SINGLE POINT ENERGY      -652.859892806220
FINAL SINGLE POINT ENERGY      -652.859924256375
FINAL SINGLE POINT ENERGY      -652.859925312328
                    ***********************HURRAY********************

CARTESIAN COORDINATES (ANGSTROEM)
---------------------------------
  C    -21.081901   26.268003   46.394716
  C    -20.410725   27.586801   46.006049
  C    -20.208984   28.261400   47.386206
  C    -19.906926   27.066392   48.316838
  O    -20.387167   25.857157   47.586980
  H    -20.956694   25.465033   45.666776
  H    -19.446635   27.373484   45.529996
  H    -21.023740   28.175669   45.320260
  H    -19.398015   28.995967   47.381600
  H    -21.125930   28.776285   47.692880
  H    -20.420564   27.122723   49.280045
  H    -18.837102   26.918187   48.486616
  C    -23.132183   26.481213   47.872280
  H    -22.411932   26.119014   48.609504
  H    -23.410653   27.517453   48.106266
  O    -22.528971   26.417893   46.545052
  C    -24.375582   25.597468   47.957186
  C    -25.505734   25.952590   46.975693
  C    -25.074728   25.177925   45.693083
  C    -24.430695   23.900452   46.271715
  O    -24.116720   24.190037   47.694616
  H    -24.727943   25.657119   48.994787
  H    -26.461591   25.588307   47.357490
  O    -25.698523   27.375251   46.776102
  H    -25.924325   24.963997   45.037704
  H    -24.338058   25.774596   45.150614
  H    -23.506107   23.621914   45.758478
  H    -25.114980   23.045952   46.267682
  H    -24.948889   27.727720   46.251785

 Multiplicity           Mult            ....    1
 Number of Electrons    NEL             ....  102
 Basis Dimension        Dim             ....  149

ORBITAL ENERGIES
----------------

  NO   OCC          E(Eh)            E(eV)
   0   2.0000     -19.156066      -521.2630
   1   2.0000     -19.145113      -520.9650
   2   2.0000     -19.135710      -520.7091
   3   2.0000     -19.128692      -520.5182
   4   2.0000     -10.285438      -279.8810
   5   2.0000     -10.237450      -278.5752
   6   2.0000     -10.231435      -278.4115
   7   2.0000     -10.226156      -278.2679
   8   2.0000     -10.224751      -278.2296
   9   2.0000     -10.217621      -278.0356
  10   2.0000     -10.197582      -277.4903
  11   2.0000     -10.192000      -277.3384
  12   2.0000     -10.174884      -276.8727
  13   2.0000      -1.059964       -28.8431
  14   2.0000      -1.023261       -27.8443
  15   2.0000      -1.005390       -27.3580
  16   2.0000      -0.994759       -27.0688
  17   2.0000      -0.795995       -21.6601
  18   2.0000      -0.771818       -21.0022
  19   2.0000      -0.762920       -20.7601
  20   2.0000      -0.735365       -20.0103
  21   2.0000      -0.675114       -18.3708
  22   2.0000      -0.609794       -16.5933
  23   2.0000      -0.600630       -16.3440
  24   2.0000      -0.596909       -16.2427
  25   2.0000      -0.560199       -15.2438
  26   2.0000      -0.527949       -14.3662
  27   2.0000      -0.511165       -13.9095
  28   2.0000      -0.497928       -13.5493
  29   2.0000      -0.487618       -13.2688
  30   2.0000      -0.473480       -12.8840
  31   2.0000      -0.460816       -12.5394
  32   2.0000      -0.438569       -11.9341
  33   2.0000      -0.429647       -11.6913
  34   2.0000      -0.424261       -11.5447
  35   2.0000      -0.415301       -11.3009
  36   2.0000      -0.399474       -10.8702
  37   2.0000      -0.389727       -10.6050
  38   2.0000      -0.379668       -10.3313
  39   2.0000      -0.373664       -10.1679
  40   2.0000      -0.366259        -9.9664
  41   2.0000      -0.357323        -9.7232
  42   2.0000      -0.345887        -9.4121
  43   2.0000      -0.332222        -9.0402
  44   2.0000      -0.321251        -8.7417
  45   2.0000      -0.309239        -8.4148
  46   2.0000      -0.301087        -8.1930
  47   2.0000      -0.271601        -7.3906
  48   2.0000      -0.261652        -7.1199
  49   2.0000      -0.255129        -6.9424
  50   2.0000      -0.231831        -6.3085
  51   0.0000       0.064476         1.7545
  52   0.0000       0.084384         2.2962
  53   0.0000       0.091741         2.4964
  54   0.0000       0.096170         2.6169
  55   0.0000       0.103087         2.8051

MULLIKEN ATOMIC CHARGES
-----------------------
   0 C :    0.308212
   1 C :   -0.257700
   2 C :   -0.312173
   3 C :   -0.021428
   4 O :   -0.502854
   5 H :    0.161750
   6 H :    0.148022
   7 H :    0.153421
   8 H :    0.151241
   9 H :    0.154190
  10 H :    0.148574
  11 H :    0.155143
  12 C :   -0.033611
  13 H :    0.176567
  14 H :    0.129327
  15 O :   -0.555525
  16 C :    0.100943
  17 C :    0.088261
  18 C :   -0.313489
  19 C :   -0.003226
  20 O :   -0.519575
  21 H :    0.143268
  22 H :    0.157239
  23 O :   -0.609183
  24 H :    0.142648
  25 H :    0.164632
  26 H :    0.143033
  27 H :    0.139723
  28 H :    0.362571
Sum of atomic charges:    0.0000000

LOEWDIN ATOMIC CHARGES
----------------------
   0 C :    0.184881
   1 C :   -0.223791
   2 C :   -0.220938
   3 C :   -0.033243
   4 O :   -0.310022
   5 H :    0.109275
   6 H :    0.115853
   7 H :    0.121740
   8 H :    0.119295
   9 H :    0.113348
  10 H :    0.104174
  11 H :    0.109356
  12 C :   -0.054081
  13 H :    0.121638
  14 H :    0.095556
  15 O :   -0.351222
  16 C :    0.018056
  17 C :    0.037528
  18 C :   -0.243967
  19 C :   -0.024564
  20 O :   -0.321194
  21 H :    0.111802
  22 H :    0.114210
  23 O :   -0.413459
  24 H :    0.113945
  25 H :    0.121533
  26 H :    0.103103
  27 H :    0.099962
  28 H :    0.281229

  Mayer bond orders larger than 0.100000
B(  0-C ,  1-C ) :   0.9246 B(  0-C ,  4-O ) :   0.9219 B(  0-C ,  5-H ) :   0.9322
B(  0-C , 15-O ) :   0.8369 B(  1-C ,  2-C ) :   0.9535 B(  1-C ,  6-H ) :   0.9341
B(  1-C ,  7-H ) :   0.9374 B(  2-C ,  3-C ) :   0.9505 B(  2-C ,  8-H ) :   0.9445
B(  2-C ,  9-H ) :   0.9448 B(  3-C ,  4-O ) :   0.8291 B(  3-C , 10-H ) :   0.9315
B(  3-C , 11-H ) :   0.9402 B( 12-C , 13-H ) :   0.9061 B( 12-C , 14-H ) :   0.9084
B( 12-C , 15-O ) :   0.8327 B( 12-C , 16-C ) :   0.9041 B( 16-C , 17-C ) :   0.8869
B( 16-C , 20-O ) :   0.8832 B( 16-C , 21-H ) :   0.9274 B( 17-C , 18-C ) :   0.9342
B( 17-C , 22-H ) :   0.9378 B( 17-C , 23-O ) :   0.8979 B( 18-C , 19-C ) :   0.9454
B( 18-C , 24-H ) :   0.9409 B( 18-C , 25-H ) :   0.9272 B( 19-C , 20-O ) :   0.8391
B( 19-C , 26-H ) :   0.9331 B( 19-C , 27-H ) :   0.9381 B( 23-O , 28-H ) :   0.7934

FINAL SINGLE POINT ENERGY      -652.859923718363

DIPOLE MOMENT
-------------
                                X             Y             Z
Electronic contribution:     -2.33613      -2.97775       1.14000
Nuclear contribution   :      3.26290       3.86585      -1.59145
                        -----------------------------------------
Total Dipole Moment    :      0.92677       0.88810      -0.45145
                        -----------------------------------------
Magnitude (a.u.)       :      1.36068
Magnitude (Debye)      :      3.45857

Rotational constants in cm-1:     0.049830     0.015700     0.014573
Rotational constants in MHz :  1493.861470   470.681843   436.887756

                             ****ORCA TERMINATED NORMALLY****
TOTAL RUN TIME: 0 days 0 hours 31 minutes 57 seconds 701 msec
