                         Program Version 4.2.0 -  RELEASE  -
|  1> # Test redundant internal optimization
|  2> #
|  3> ! RKS B3LYP  Opt TightSCF SmallPrint
|  4>
|  5> %basis
|  6>         Basis "6-31G"
|  7> end
|  8>
|  9> %geom
| 10> Constraints
| 11> { D 4  0  15  12  210.0   C } # D for Dihedral angle
| 12> { D 0  15  12  16  300.0   C } # D for Dihedral angle
| 13> { D 0  4  3  2   C } # D for Dihedral angle
| 14> { D 4  3  2  1   C } # D for Dihedral angle
| 15> { D 3  2  1  0   C } # D for Dihedral angle
| 16> { D 2  1  0  4   C } # D for Dihedral angle
| 17> { D 1  0  4  3   C } # D for Dihedral angle
| 18> { D 16  20  19  18   C } # D for Dihedral angle
| 19> { D 20  19  18  17   C } # D for Dihedral angle
| 20> { D 19  18  17  16   C } # D for Dihedral angle
| 21> { D 18  17  16  20   C } # D for Dihedral angle
| 22> { D 17  16  20  19   C } # D for Dihedral angle
| 23> { D 15  12  16  20   C } # D for Dihedral angle
| 24> end
| 25> end
| 26>
| 27>
| 28> #%pal
| 29> #nprocs 8
| 30> #end
| 31>
| 32> * xyz 0 1
| 33> C  -21.048   26.222   46.251
| 34> C  -20.361   27.558   45.944
| 35> C  -20.329   28.222   47.341
| 36> C  -20.110   27.022   48.296
| 37> O  -20.473   25.807   47.535
| 38> H  -20.833   25.428   45.533
| 39> H  -19.344   27.382   45.576
| 40> H  -20.898   28.157   45.201
| 41> H  -19.543   28.978   47.434
| 42> H  -21.289   28.710   47.548
| 43> H  -20.733   27.082   49.195
| 44> H  -19.064   26.913   48.597
| 45> C  -23.389   26.110   45.076
| 46> H  -23.220   25.072   44.765
| 47> H  -24.464   26.245   45.252
| 48> O  -22.586   26.394   46.375
| 49> C  -22.982   27.044   43.902
| 50> C  -23.872   26.816   42.676
| 51> C  -25.147   27.601   43.062
| 52> C  -24.589   28.810   43.854
| 53> O  -23.214   28.447   44.260
| 54> H  -21.913   26.935   43.712
| 55> O  -23.209   27.433   41.414
| 56> H  -24.069   25.756   42.479
| 57> H  -25.737   27.909   42.192
| 58> H  -25.791   26.985   43.701
| 59> H  -25.180   29.034   44.749
| 60> H  -24.517   29.713   43.242
| 61> H  -23.003   28.495   41.588
| 62> *
| 63>
| 64>                          ****END OF INPUT****
 Total Charge           Charge          ....    0
 Multiplicity           Mult            ....    1
 Number of Electrons    NEL             ....  102
FINAL SINGLE POINT ENERGY      -652.830977044389
FINAL SINGLE POINT ENERGY      -652.854006633861
FINAL SINGLE POINT ENERGY      -652.858306910553
FINAL SINGLE POINT ENERGY      -652.858992247477
FINAL SINGLE POINT ENERGY      -652.859091349444
FINAL SINGLE POINT ENERGY      -652.859100769820
                    ***********************HURRAY********************

CARTESIAN COORDINATES (ANGSTROEM)
---------------------------------
  C    -21.017372   26.237680   46.160200
  C    -20.344442   27.591481   45.937999
  C    -20.397529   28.213312   47.355656
  C    -20.205504   26.988162   48.273824
  O    -20.511603   25.802164   47.431910
  H    -20.778214   25.458376   45.427092
  H    -19.306281   27.431526   45.620661
  H    -20.854388   28.212969   45.201070
  H    -19.629697   28.977321   47.508729
  H    -21.380355   28.666655   47.513711
  H    -20.876755   26.983696   49.136044
  H    -19.172942   26.869554   48.616059
  C    -23.263145   26.158517   45.094911
  H    -23.142306   25.113420   44.759805
  H    -24.291883   26.290718   45.440187
  O    -22.462024   26.383990   46.280651
  C    -22.970665   27.074038   43.901641
  C    -23.903727   26.817739   42.708747
  C    -25.165505   27.626797   43.112317
  C    -24.570372   28.853245   43.850514
  O    -23.182274   28.487782   44.223687
  H    -21.926646   26.976965   43.590774
  O    -23.316311   27.311419   41.474023
  H    -24.107473   25.762103   42.524878
  H    -25.747547   27.899972   42.228835
  H    -25.803395   27.032532   43.775495
  H    -25.123599   29.112071   44.757786
  H    -24.509893   29.740270   43.212311
  H    -22.945152   28.205527   41.630481

 Multiplicity           Mult            ....    1
 Number of Electrons    NEL             ....  102
 Basis Dimension        Dim             ....  149

ORBITAL ENERGIES
----------------

  NO   OCC          E(Eh)            E(eV)
   0   2.0000     -19.150853      -521.1212
   1   2.0000     -19.146043      -520.9903
   2   2.0000     -19.137339      -520.7535
   3   2.0000     -19.134017      -520.6631
   4   2.0000     -10.274921      -279.5948
   5   2.0000     -10.250117      -278.9199
   6   2.0000     -10.241252      -278.6786
   7   2.0000     -10.238296      -278.5982
   8   2.0000     -10.235766      -278.5294
   9   2.0000     -10.218100      -278.0486
  10   2.0000     -10.196870      -277.4709
  11   2.0000     -10.177435      -276.9421
  12   2.0000     -10.175632      -276.8930
  13   2.0000      -1.050438       -28.5839
  14   2.0000      -1.042334       -28.3634
  15   2.0000      -1.013739       -27.5852
  16   2.0000      -0.990165       -26.9438
  17   2.0000      -0.791600       -21.5405
  18   2.0000      -0.777423       -21.1548
  19   2.0000      -0.771303       -20.9882
  20   2.0000      -0.731437       -19.9034
  21   2.0000      -0.676375       -18.4051
  22   2.0000      -0.612511       -16.6673
  23   2.0000      -0.606420       -16.5015
  24   2.0000      -0.591357       -16.0917
  25   2.0000      -0.573955       -15.6181
  26   2.0000      -0.529826       -14.4173
  27   2.0000      -0.515567       -14.0293
  28   2.0000      -0.491765       -13.3816
  29   2.0000      -0.490876       -13.3574
  30   2.0000      -0.472726       -12.8635
  31   2.0000      -0.454775       -12.3751
  32   2.0000      -0.454033       -12.3549
  33   2.0000      -0.449310       -12.2263
  34   2.0000      -0.423110       -11.5134
  35   2.0000      -0.415331       -11.3017
  36   2.0000      -0.402932       -10.9643
  37   2.0000      -0.396101       -10.7784
  38   2.0000      -0.380135       -10.3440
  39   2.0000      -0.369277       -10.0485
  40   2.0000      -0.363468        -9.8905
  41   2.0000      -0.351680        -9.5697
  42   2.0000      -0.344985        -9.3875
  43   2.0000      -0.336771        -9.1640
  44   2.0000      -0.318666        -8.6713
  45   2.0000      -0.307757        -8.3745
  46   2.0000      -0.301174        -8.1954
  47   2.0000      -0.279386        -7.6025
  48   2.0000      -0.265295        -7.2190
  49   2.0000      -0.251646        -6.8476
  50   2.0000      -0.239766        -6.5244
  51   0.0000       0.058815         1.6004
  52   0.0000       0.084110         2.2888
  53   0.0000       0.086664         2.3583
  54   0.0000       0.091109         2.4792
  55   0.0000       0.097863         2.6630

MULLIKEN ATOMIC CHARGES
-----------------------
   0 C :    0.284824
   1 C :   -0.274165
   2 C :   -0.300223
   3 C :   -0.000798
   4 O :   -0.505320
   5 H :    0.133653
   6 H :    0.135418
   7 H :    0.179313
   8 H :    0.138202
   9 H :    0.166873
  10 H :    0.151516
  11 H :    0.138181
  12 C :    0.001119
  13 H :    0.123536
  14 H :    0.152342
  15 O :   -0.499164
  16 C :    0.049577
  17 C :    0.075053
  18 C :   -0.300780
  19 C :   -0.028337
  20 O :   -0.522940
  21 H :    0.160862
  22 O :   -0.599399
  23 H :    0.156781
  24 H :    0.167010
  25 H :    0.148568
  26 H :    0.155594
  27 H :    0.148051
  28 H :    0.364653
Sum of atomic charges:    0.0000000

LOEWDIN ATOMIC CHARGES
----------------------
   0 C :    0.176826
   1 C :   -0.232574
   2 C :   -0.215518
   3 C :   -0.025694
   4 O :   -0.307712
   5 H :    0.093602
   6 H :    0.109238
   7 H :    0.129924
   8 H :    0.112838
   9 H :    0.121702
  10 H :    0.107804
  11 H :    0.100520
  12 C :   -0.039693
  13 H :    0.093009
  14 H :    0.114624
  15 O :   -0.322605
  16 C :   -0.002149
  17 C :    0.036514
  18 C :   -0.240990
  19 C :   -0.036358
  20 O :   -0.330126
  21 H :    0.112759
  22 O :   -0.412822
  23 H :    0.117583
  24 H :    0.128498
  25 H :    0.115191
  26 H :    0.108867
  27 H :    0.103506
  28 H :    0.283238

  Mayer bond orders larger than 0.100000
B(  0-C ,  1-C ) :   0.9320 B(  0-C ,  4-O ) :   0.9360 B(  0-C ,  5-H ) :   0.9176
B(  0-C , 15-O ) :   0.8314 B(  1-C ,  2-C ) :   0.9540 B(  1-C ,  6-H ) :   0.9344
B(  1-C ,  7-H ) :   0.9181 B(  2-C ,  3-C ) :   0.9558 B(  2-C ,  8-H ) :   0.9453
B(  2-C ,  9-H ) :   0.9421 B(  3-C ,  4-O ) :   0.8347 B(  3-C , 10-H ) :   0.9352
B(  3-C , 11-H ) :   0.9400 B( 12-C , 13-H ) :   0.9079 B( 12-C , 14-H ) :   0.9391
B( 12-C , 15-O ) :   0.8790 B( 12-C , 16-C ) :   0.8735 B( 16-C , 17-C ) :   0.8969
B( 16-C , 20-O ) :   0.8450 B( 16-C , 21-H ) :   0.9221 B( 17-C , 18-C ) :   0.9127
B( 17-C , 22-O ) :   0.8944 B( 17-C , 23-H ) :   0.9323 B( 18-C , 19-C ) :   0.9389
B( 18-C , 24-H ) :   0.9366 B( 18-C , 25-H ) :   0.9337 B( 19-C , 20-O ) :   0.8413
B( 19-C , 26-H ) :   0.9337 B( 19-C , 27-H ) :   0.9380 B( 22-O , 28-H ) :   0.7944

FINAL SINGLE POINT ENERGY      -652.859101721804

DIPOLE MOMENT
-------------
                                X             Y             Z
Electronic contribution:      0.47913      -2.59644      -0.60167
Nuclear contribution   :     -0.95866       3.32971       0.21379
                        -----------------------------------------
Total Dipole Moment    :     -0.47953       0.73327      -0.38788
                        -----------------------------------------
Magnitude (a.u.)       :      0.95817
Magnitude (Debye)      :      2.43547

Rotational constants in cm-1:     0.061544     0.012880     0.012527
Rotational constants in MHz :  1845.043507   386.133700   375.536818

                             ****ORCA TERMINATED NORMALLY****
TOTAL RUN TIME: 0 days 1 hours 12 minutes 30 seconds 916 msec
