                         Program Version 4.2.0 -  RELEASE  -
|  1> # Test redundant internal optimization
|  2> #
|  3> ! RKS B3LYP  Opt TightSCF SmallPrint
|  4>
|  5> %basis
|  6>         Basis "6-31G"
|  7> end
|  8>
|  9> %geom
| 10> Constraints
| 11> { D 4  0  15  12  15.0   C } # D for Dihedral angle
| 12> { D 0  15  12  16  210.0   C } # D for Dihedral angle
| 13> { D 0  4  3  2   C } # D for Dihedral angle
| 14> { D 4  3  2  1   C } # D for Dihedral angle
| 15> { D 3  2  1  0   C } # D for Dihedral angle
| 16> { D 2  1  0  4   C } # D for Dihedral angle
| 17> { D 1  0  4  3   C } # D for Dihedral angle
| 18> { D 16  20  19  18   C } # D for Dihedral angle
| 19> { D 20  19  18  17   C } # D for Dihedral angle
| 20> { D 19  18  17  16   C } # D for Dihedral angle
| 21> { D 18  17  16  20   C } # D for Dihedral angle
| 22> { D 17  16  20  19   C } # D for Dihedral angle
| 23> { D 15  12  16  20   C } # D for Dihedral angle
| 24> end
| 25> end
| 26>
| 27>
| 28> #%pal
| 29> #nprocs 8
| 30> #end
| 31>
| 32> * xyz 0 1
| 33> C  -21.048   26.222   46.251
| 34> C  -20.361   27.558   45.944
| 35> C  -20.329   28.222   47.341
| 36> C  -20.110   27.022   48.296
| 37> O  -20.473   25.807   47.535
| 38> H  -20.833   25.428   45.533
| 39> H  -19.344   27.382   45.576
| 40> H  -20.898   28.157   45.201
| 41> H  -19.543   28.978   47.434
| 42> H  -21.289   28.710   47.548
| 43> H  -20.733   27.082   49.195
| 44> H  -19.064   26.913   48.597
| 45> C  -23.128   26.462   47.829
| 46> H  -22.472   25.879   48.488
| 47> H  -23.138   27.500   48.187
| 48> O  -22.586   26.394   46.375
| 49> C  -24.572   25.903   47.959
| 50> C  -25.116   26.091   49.379
| 51> C  -25.530   27.582   49.361
| 52> C  -26.036   27.789   47.911
| 53> O  -25.495   26.667   47.114
| 54> H  -24.589   24.871   47.601
| 55> O  -26.355   25.181   49.601
| 56> H  -24.378   25.865   50.156
| 57> H  -26.295   27.820   50.108
| 58> H  -24.659   28.217   49.560
| 59> H  -25.692   28.735   47.478
| 60> H  -27.126   27.741   47.838
| 61> H  -27.108   25.391   48.833
| 62> *
| 63>
| 64>                          ****END OF INPUT****
 Total Charge           Charge          ....    0
 Multiplicity           Mult            ....    1
 Number of Electrons    NEL             ....  102
FINAL SINGLE POINT ENERGY      -652.828761998947
FINAL SINGLE POINT ENERGY      -652.851814753847
FINAL SINGLE POINT ENERGY      -652.856396034547
FINAL SINGLE POINT ENERGY      -652.857134827308
FINAL SINGLE POINT ENERGY      -652.857233217090
FINAL SINGLE POINT ENERGY      -652.857247240989
                    ***********************HURRAY********************

CARTESIAN COORDINATES (ANGSTROEM)
---------------------------------
  C    -21.169667   26.234204   46.391685
  C    -20.469487   27.520155   45.945735
  C    -20.176244   28.209330   47.301690
  C    -19.873709   27.018798   48.239771
  O    -20.430888   25.815978   47.561073
  H    -21.108338   25.415685   45.672508
  H    -19.538515   27.263996   45.426497
  H    -21.097960   28.117137   45.281794
  H    -19.339231   28.912003   47.246089
  H    -21.058427   28.763482   47.640118
  H    -20.337263   27.113913   49.226063
  H    -18.802431   26.836654   48.363235
  C    -23.101912   26.543949   47.970367
  H    -22.487214   25.940117   48.647546
  H    -23.074921   27.591693   48.304756
  O    -22.595896   26.439699   46.614276
  C    -24.531957   26.011190   47.978945
  C    -25.218701   26.098081   49.349455
  C    -25.720771   27.567275   49.358710
  C    -26.099188   27.814048   47.876551
  O    -25.417430   26.763549   47.085875
  H    -24.518603   24.984555   47.602087
  O    -26.322323   25.155126   49.435151
  H    -24.566624   25.857354   50.190579
  H    -26.565757   27.681874   50.042273
  H    -24.919463   28.240797   49.683226
  H    -25.779583   28.796633   47.516537
  H    -27.174145   27.710543   47.695917
  H    -26.803352   25.151184   48.580494

 Multiplicity           Mult            ....    1
 Number of Electrons    NEL             ....  102
 Basis Dimension        Dim             ....  149

ORBITAL ENERGIES
----------------

  NO   OCC          E(Eh)            E(eV)
   0   2.0000     -19.152476      -521.1654
   1   2.0000     -19.137369      -520.7543
   2   2.0000     -19.136524      -520.7313
   3   2.0000     -19.135917      -520.7148
   4   2.0000     -10.278754      -279.6991
   5   2.0000     -10.241385      -278.6822
   6   2.0000     -10.235626      -278.5255
   7   2.0000     -10.230744      -278.3927
   8   2.0000     -10.228876      -278.3419
   9   2.0000     -10.228004      -278.3181
  10   2.0000     -10.194358      -277.4026
  11   2.0000     -10.188697      -277.2485
  12   2.0000     -10.186093      -277.1777
  13   2.0000      -1.055903       -28.7326
  14   2.0000      -1.034075       -28.1386
  15   2.0000      -1.004342       -27.3295
  16   2.0000      -0.991461       -26.9790
  17   2.0000      -0.792652       -21.5691
  18   2.0000      -0.782595       -21.2955
  19   2.0000      -0.768242       -20.9049
  20   2.0000      -0.734649       -19.9908
  21   2.0000      -0.672920       -18.3111
  22   2.0000      -0.606233       -16.4964
  23   2.0000      -0.603278       -16.4160
  24   2.0000      -0.595789       -16.2123
  25   2.0000      -0.575456       -15.6590
  26   2.0000      -0.525340       -14.2952
  27   2.0000      -0.507654       -13.8140
  28   2.0000      -0.500899       -13.6302
  29   2.0000      -0.492712       -13.4074
  30   2.0000      -0.476466       -12.9653
  31   2.0000      -0.461580       -12.5602
  32   2.0000      -0.453166       -12.3313
  33   2.0000      -0.435887       -11.8611
  34   2.0000      -0.421729       -11.4758
  35   2.0000      -0.417417       -11.3585
  36   2.0000      -0.398713       -10.8495
  37   2.0000      -0.391560       -10.6549
  38   2.0000      -0.377622       -10.2756
  39   2.0000      -0.370316       -10.0768
  40   2.0000      -0.362512        -9.8644
  41   2.0000      -0.357039        -9.7155
  42   2.0000      -0.351195        -9.5565
  43   2.0000      -0.336200        -9.1485
  44   2.0000      -0.326349        -8.8804
  45   2.0000      -0.310064        -8.4373
  46   2.0000      -0.301003        -8.1907
  47   2.0000      -0.270101        -7.3498
  48   2.0000      -0.265414        -7.2223
  49   2.0000      -0.253215        -6.8903
  50   2.0000      -0.236488        -6.4352
  51   0.0000       0.064953         1.7675
  52   0.0000       0.075198         2.0462
  53   0.0000       0.088623         2.4115
  54   0.0000       0.096984         2.6391
  55   0.0000       0.103921         2.8278

MULLIKEN ATOMIC CHARGES
-----------------------
   0 C :    0.293959
   1 C :   -0.254411
   2 C :   -0.314062
   3 C :   -0.018101
   4 O :   -0.510901
   5 H :    0.163123
   6 H :    0.144632
   7 H :    0.163074
   8 H :    0.148896
   9 H :    0.154020
  10 H :    0.140594
  11 H :    0.153978
  12 C :   -0.001682
  13 H :    0.159030
  14 H :    0.114127
  15 O :   -0.522512
  16 C :    0.063290
  17 C :    0.080606
  18 C :   -0.298792
  19 C :   -0.024196
  20 O :   -0.509591
  21 H :    0.169096
  22 O :   -0.603356
  23 H :    0.149543
  24 H :    0.163327
  25 H :    0.141020
  26 H :    0.143837
  27 H :    0.145256
  28 H :    0.366196
Sum of atomic charges:   -0.0000000

LOEWDIN ATOMIC CHARGES
----------------------
   0 C :    0.181404
   1 C :   -0.223037
   2 C :   -0.221167
   3 C :   -0.033963
   4 O :   -0.318487
   5 H :    0.110303
   6 H :    0.114191
   7 H :    0.126694
   8 H :    0.118019
   9 H :    0.112418
  10 H :    0.100355
  11 H :    0.108543
  12 C :   -0.044625
  13 H :    0.112480
  14 H :    0.084920
  15 O :   -0.327430
  16 C :    0.017280
  17 C :    0.035484
  18 C :   -0.242712
  19 C :   -0.037565
  20 O :   -0.320348
  21 H :    0.121197
  22 O :   -0.414621
  23 H :    0.114186
  24 H :    0.126652
  25 H :    0.110622
  26 H :    0.103400
  27 H :    0.101861
  28 H :    0.283948

  Mayer bond orders larger than 0.100000
B(  0-C ,  1-C ) :   0.9218 B(  0-C ,  4-O ) :   0.9063 B(  0-C ,  5-H ) :   0.9317
B(  0-C , 15-O ) :   0.8612 B(  1-C ,  2-C ) :   0.9528 B(  1-C ,  6-H ) :   0.9347
B(  1-C ,  7-H ) :   0.9359 B(  2-C ,  3-C ) :   0.9516 B(  2-C ,  8-H ) :   0.9447
B(  2-C ,  9-H ) :   0.9438 B(  3-C ,  4-O ) :   0.8318 B(  3-C , 10-H ) :   0.9332
B(  3-C , 11-H ) :   0.9403 B( 12-C , 13-H ) :   0.8994 B( 12-C , 14-H ) :   0.9144
B( 12-C , 15-O ) :   0.8408 B( 12-C , 16-C ) :   0.9027 B( 16-C , 17-C ) :   0.9005
B( 16-C , 20-O ) :   0.8635 B( 16-C , 21-H ) :   0.9238 B( 17-C , 18-C ) :   0.9109
B( 17-C , 22-O ) :   0.8918 B( 17-C , 23-H ) :   0.9334 B( 18-C , 19-C ) :   0.9401
B( 18-C , 24-H ) :   0.9369 B( 18-C , 25-H ) :   0.9340 B( 19-C , 20-O ) :   0.8535
B( 19-C , 26-H ) :   0.9349 B( 19-C , 27-H ) :   0.9375 B( 22-O , 28-H ) :   0.7931

FINAL SINGLE POINT ENERGY      -652.857249661312

DIPOLE MOMENT
-------------
                                X             Y             Z
Electronic contribution:     -2.86955      -5.55237      -2.03491
Nuclear contribution   :      3.59913       6.86625       2.42202
                        -----------------------------------------
Total Dipole Moment    :      0.72959       1.31389       0.38711
                        -----------------------------------------
Magnitude (a.u.)       :      1.55192
Magnitude (Debye)      :      3.94466

Rotational constants in cm-1:     0.056943     0.012562     0.012186
Rotational constants in MHz :  1707.121805   376.589661   365.316171

                             ****ORCA TERMINATED NORMALLY****
TOTAL RUN TIME: 0 days 0 hours 15 minutes 38 seconds 822 msec
