                         Program Version 4.2.0 -  RELEASE  -
|  1> # Test redundant internal optimization
|  2> #
|  3> ! RKS B3LYP  Opt TightSCF SmallPrint
|  4>
|  5> %basis
|  6>         Basis "6-31G"
|  7> end
|  8>
|  9> %geom
| 10> Constraints
| 11> { D 4  0  15  12  180.0   C } # D for Dihedral angle
| 12> { D 0  15  12  16  195.0   C } # D for Dihedral angle
| 13> { D 0  4  3  2   C } # D for Dihedral angle
| 14> { D 4  3  2  1   C } # D for Dihedral angle
| 15> { D 3  2  1  0   C } # D for Dihedral angle
| 16> { D 2  1  0  4   C } # D for Dihedral angle
| 17> { D 1  0  4  3   C } # D for Dihedral angle
| 18> { D 16  20  19  18   C } # D for Dihedral angle
| 19> { D 20  19  18  17   C } # D for Dihedral angle
| 20> { D 19  18  17  16   C } # D for Dihedral angle
| 21> { D 18  17  16  20   C } # D for Dihedral angle
| 22> { D 17  16  20  19   C } # D for Dihedral angle
| 23> { D 15  12  16  20   C } # D for Dihedral angle
| 24> end
| 25> end
| 26>
| 27>
| 28> #%pal
| 29> #nprocs 8
| 30> #end
| 31>
| 32> * xyz 0 1
| 33> C  -21.048   26.222   46.251
| 34> C  -20.361   27.558   45.944
| 35> C  -20.329   28.222   47.341
| 36> C  -20.110   27.022   48.296
| 37> O  -20.473   25.807   47.535
| 38> H  -20.833   25.428   45.533
| 39> H  -19.344   27.382   45.576
| 40> H  -20.898   28.157   45.201
| 41> H  -19.543   28.978   47.434
| 42> H  -21.289   28.710   47.548
| 43> H  -20.733   27.082   49.195
| 44> H  -19.064   26.913   48.597
| 45> C  -23.309   26.834   45.072
| 46> H  -22.737   27.640   44.596
| 47> H  -23.372   25.995   44.367
| 48> O  -22.586   26.394   46.375
| 49> C  -24.753   27.345   45.330
| 50> C  -25.475   27.660   44.015
| 51> C  -25.894   26.248   43.541
| 52> C  -26.213   25.512   44.866
| 53> O  -25.567   26.291   45.945
| 54> H  -24.718   28.176   46.037
| 55> H  -26.357   28.280   44.208
| 56> O  -24.574   28.397   42.986
| 57> H  -26.749   26.266   42.857
| 58> H  -25.059   25.762   43.021
| 59> H  -25.823   24.488   44.882
| 60> H  -27.284   25.487   45.083
| 61> H  -23.684   27.795   42.776
| 62> *
| 63>
| 64>                          ****END OF INPUT****
 Total Charge           Charge          ....    0
 Multiplicity           Mult            ....    1
 Number of Electrons    NEL             ....  102
FINAL SINGLE POINT ENERGY      -652.822741795698
FINAL SINGLE POINT ENERGY      -652.846492065531
FINAL SINGLE POINT ENERGY      -652.851286855153
FINAL SINGLE POINT ENERGY      -652.852105839173
FINAL SINGLE POINT ENERGY      -652.852293653365
FINAL SINGLE POINT ENERGY      -652.852343495528
FINAL SINGLE POINT ENERGY      -652.852352953489
FINAL SINGLE POINT ENERGY      -652.852355900685
                    ***********************HURRAY********************

CARTESIAN COORDINATES (ANGSTROEM)
---------------------------------
  C    -21.041762   26.227793   46.184464
  C    -20.307813   27.545186   45.938667
  C    -20.426264   28.243706   47.317657
  C    -20.336119   27.061501   48.304274
  O    -20.632441   25.845847   47.503012
  H    -20.777724   25.410730   45.504003
  H    -19.259947   27.326026   45.701964
  H    -20.718358   28.143931   45.121642
  H    -19.639314   28.986291   47.479492
  H    -21.396304   28.742616   47.399290
  H    -21.059875   27.123566   49.120434
  H    -19.331710   26.926102   48.716358
  C    -23.139462   26.776737   44.989256
  H    -22.614909   27.608386   44.498773
  H    -23.156598   25.921532   44.292393
  O    -22.492143   26.388003   46.224261
  C    -24.552637   27.247788   45.325629
  C    -25.375795   27.657453   44.092994
  C    -25.924034   26.283782   43.601674
  C    -26.158829   25.520834   44.923586
  O    -25.366841   26.221820   45.965694
  H    -24.468783   28.058104   46.056059
  H    -26.196693   28.306064   44.406872
  O    -24.660409   28.427753   43.094447
  H    -26.832131   26.390775   43.002306
  H    -25.164869   25.787151   42.981958
  H    -25.838987   24.475345   44.876149
  H    -27.205663   25.555079   45.240753
  H    -24.102587   27.841096   42.543939

 Multiplicity           Mult            ....    1
 Number of Electrons    NEL             ....  102
 Basis Dimension        Dim             ....  149

ORBITAL ENERGIES
----------------

  NO   OCC          E(Eh)            E(eV)
   0   2.0000     -19.153100      -521.1824
   1   2.0000     -19.137485      -520.7574
   2   2.0000     -19.137121      -520.7475
   3   2.0000     -19.135306      -520.6981
   4   2.0000     -10.277703      -279.6705
   5   2.0000     -10.247035      -278.8360
   6   2.0000     -10.231640      -278.4171
   7   2.0000     -10.231324      -278.4085
   8   2.0000     -10.229725      -278.3650
   9   2.0000     -10.222102      -278.1575
  10   2.0000     -10.197587      -277.4904
  11   2.0000     -10.187453      -277.2147
  12   2.0000     -10.185607      -277.1645
  13   2.0000      -1.051572       -28.6147
  14   2.0000      -1.035260       -28.1709
  15   2.0000      -1.016011       -27.6471
  16   2.0000      -0.991300       -26.9747
  17   2.0000      -0.785588       -21.3769
  18   2.0000      -0.783518       -21.3206
  19   2.0000      -0.768673       -20.9167
  20   2.0000      -0.730148       -19.8683
  21   2.0000      -0.682145       -18.5621
  22   2.0000      -0.612984       -16.6801
  23   2.0000      -0.600184       -16.3318
  24   2.0000      -0.588398       -16.0111
  25   2.0000      -0.576121       -15.6771
  26   2.0000      -0.527377       -14.3507
  27   2.0000      -0.511852       -13.9282
  28   2.0000      -0.502418       -13.6715
  29   2.0000      -0.492564       -13.4033
  30   2.0000      -0.465768       -12.6742
  31   2.0000      -0.458938       -12.4883
  32   2.0000      -0.450723       -12.2648
  33   2.0000      -0.433095       -11.7851
  34   2.0000      -0.430057       -11.7024
  35   2.0000      -0.419616       -11.4183
  36   2.0000      -0.405764       -11.0414
  37   2.0000      -0.398524       -10.8444
  38   2.0000      -0.378384       -10.2964
  39   2.0000      -0.373256       -10.1568
  40   2.0000      -0.356280        -9.6949
  41   2.0000      -0.356039        -9.6883
  42   2.0000      -0.351469        -9.5640
  43   2.0000      -0.331971        -9.0334
  44   2.0000      -0.317515        -8.6400
  45   2.0000      -0.308932        -8.4065
  46   2.0000      -0.299120        -8.1395
  47   2.0000      -0.273135        -7.4324
  48   2.0000      -0.256106        -6.9690
  49   2.0000      -0.251677        -6.8485
  50   2.0000      -0.239745        -6.5238
  51   0.0000       0.048076         1.3082
  52   0.0000       0.074562         2.0289
  53   0.0000       0.086411         2.3514
  54   0.0000       0.089416         2.4331
  55   0.0000       0.106144         2.8883

MULLIKEN ATOMIC CHARGES
-----------------------
   0 C :    0.309950
   1 C :   -0.287724
   2 C :   -0.296389
   3 C :   -0.000416
   4 O :   -0.500039
   5 H :    0.136881
   6 H :    0.148309
   7 H :    0.143442
   8 H :    0.142139
   9 H :    0.159278
  10 H :    0.158072
  11 H :    0.140789
  12 C :   -0.015489
  13 H :    0.127026
  14 H :    0.115262
  15 O :   -0.499452
  16 C :    0.097853
  17 C :    0.076296
  18 C :   -0.327720
  19 C :   -0.012465
  20 O :   -0.498049
  21 H :    0.162105
  22 H :    0.170464
  23 O :   -0.598844
  24 H :    0.159768
  25 H :    0.133332
  26 H :    0.150266
  27 H :    0.150415
  28 H :    0.354941
Sum of atomic charges:   -0.0000000

LOEWDIN ATOMIC CHARGES
----------------------
   0 C :    0.181081
   1 C :   -0.234356
   2 C :   -0.216372
   3 C :   -0.024759
   4 O :   -0.300831
   5 H :    0.094816
   6 H :    0.116145
   7 H :    0.112564
   8 H :    0.114360
   9 H :    0.116968
  10 H :    0.111471
  11 H :    0.101983
  12 C :   -0.054294
  13 H :    0.093380
  14 H :    0.084747
  15 O :   -0.318553
  16 C :    0.023315
  17 C :    0.033107
  18 C :   -0.242875
  19 C :   -0.029888
  20 O :   -0.308370
  21 H :    0.118757
  22 H :    0.120441
  23 O :   -0.408587
  24 H :    0.123022
  25 H :    0.103381
  26 H :    0.105841
  27 H :    0.106205
  28 H :    0.277300

  Mayer bond orders larger than 0.100000
B(  0-C ,  1-C ) :   0.9275 B(  0-C ,  4-O ) :   0.9402 B(  0-C ,  5-H ) :   0.9210
B(  0-C , 15-O ) :   0.8352 B(  1-C ,  2-C ) :   0.9514 B(  1-C ,  6-H ) :   0.9337
B(  1-C ,  7-H ) :   0.9295 B(  2-C ,  3-C ) :   0.9555 B(  2-C ,  8-H ) :   0.9450
B(  2-C ,  9-H ) :   0.9445 B(  3-C ,  4-O ) :   0.8349 B(  3-C , 10-H ) :   0.9339
B(  3-C , 11-H ) :   0.9398 B( 12-C , 13-H ) :   0.8900 B( 12-C , 14-H ) :   0.9158
B( 12-C , 15-O ) :   0.8521 B( 12-C , 16-C ) :   0.9065 B( 16-C , 17-C ) :   0.8727
B( 16-C , 20-O ) :   0.8790 B( 16-C , 21-H ) :   0.9289 B( 17-C , 18-C ) :   0.9269
B( 17-C , 22-H ) :   0.9323 B( 17-C , 23-O ) :   0.8943 B( 18-C , 19-C ) :   0.9379
B( 18-C , 24-H ) :   0.9408 B( 18-C , 25-H ) :   0.9399 B( 19-C , 20-O ) :   0.8507
B( 19-C , 26-H ) :   0.9305 B( 19-C , 27-H ) :   0.9375 B( 23-O , 28-H ) :   0.7992

FINAL SINGLE POINT ENERGY      -652.852356373948

DIPOLE MOMENT
-------------
                                X             Y             Z
Electronic contribution:     -1.61433      -1.99354       1.74881
Nuclear contribution   :      1.91302       2.34918      -3.03689
                        -----------------------------------------
Total Dipole Moment    :      0.29869       0.35563      -1.28808
                        -----------------------------------------
Magnitude (a.u.)       :      1.36925
Magnitude (Debye)      :      3.48035

Rotational constants in cm-1:     0.055636     0.012641     0.011387
Rotational constants in MHz :  1667.932370   378.979429   341.387945

                             ****ORCA TERMINATED NORMALLY****
TOTAL RUN TIME: 0 days 0 hours 23 minutes 33 seconds 101 msec
