                         Program Version 4.2.1 -  RELEASE  -
|  1> # Test redundant internal optimization
|  2> #
|  3> ! RKS B3LYP  Opt TightSCF SmallPrint
|  4>
|  5> %basis
|  6>         Basis "6-31G"
|  7> end
|  8>
|  9> %geom
| 10> Constraints
| 11> { D 4  0  19  14  150.0   C } # D for Dihedral angle
| 12> { D 0  19  14  12  165.0   C } # D for Dihedral angle
| 13> { D 0  4  3  2   C } # D for Dihedral angle
| 14> { D 4  3  2  1   C } # D for Dihedral angle
| 15> { D 3  2  1  0   C } # D for Dihedral angle
| 16> { D 2  1  0  4   C } # D for Dihedral angle
| 17> { D 1  0  4  3   C } # D for Dihedral angle
| 18> { D 14  15  16  17   C } # D for Dihedral angle
| 19> { D 15  16  17  12   C } # D for Dihedral angle
| 20> { D 16  17  12  14   C } # D for Dihedral angle
| 21> { D 17  12  14  15   C } # D for Dihedral angle
| 22> { D 12  14  15  16   C } # D for Dihedral angle
| 23> end
| 24> end
| 25>
| 26>
| 27> #%pal
| 28> #nprocs 8
| 29> #end
| 30>
| 31> * xyz 0 1
| 32> C  -21.048   26.222   46.251
| 33> C  -20.361   27.558   45.944
| 34> C  -20.329   28.222   47.341
| 35> C  -20.110   27.022   48.296
| 36> O  -20.473   25.807   47.535
| 37> H  -20.833   25.428   45.533
| 38> H  -19.344   27.382   45.576
| 39> H  -20.898   28.157   45.201
| 40> H  -19.543   28.978   47.434
| 41> H  -21.289   28.710   47.548
| 42> H  -20.733   27.082   49.195
| 43> H  -19.064   26.913   48.597
| 44> C  -24.553   27.206   45.410
| 45> H  -24.971   27.741   44.543
| 46> C  -23.030   27.370   45.486
| 47> C  -22.896   28.784   46.097
| 48> C  -24.099   28.862   47.071
| 49> O  -25.042   27.798   46.661
| 50> H  -24.897   26.171   45.392
| 51> O  -22.472   26.381   46.366
| 52> H  -22.540   27.280   44.510
| 53> H  -21.939   28.939   46.604
| 54> H  -22.986   29.545   45.312
| 55> H  -24.611   29.830   47.030
| 56> H  -23.812   28.656   48.107
| 57> *
| 58>
| 59>                          ****END OF INPUT****
 Total Charge           Charge          ....    0
 Multiplicity           Mult            ....    1
 Number of Electrons    NEL             ....   86
FINAL SINGLE POINT ENERGY      -538.379435682189
FINAL SINGLE POINT ENERGY      -538.416671769279
FINAL SINGLE POINT ENERGY      -538.418775086759
FINAL SINGLE POINT ENERGY      -538.419100538198
FINAL SINGLE POINT ENERGY      -538.419145712145
FINAL SINGLE POINT ENERGY      -538.419156752676
                    ***********************HURRAY********************

CARTESIAN COORDINATES (ANGSTROEM)
---------------------------------
  C    -21.006928   26.292441   46.240366
  C    -20.091462   27.495640   45.989900
  C    -20.038114   28.168995   47.394341
  C    -20.083676   26.946222   48.341343
  O    -20.595057   25.820190   47.529169
  H    -20.822701   25.464002   45.548429
  H    -19.102044   27.118618   45.711761
  H    -20.434672   28.167830   45.197961
  H    -19.129587   28.763878   47.530553
  H    -20.896056   28.820233   47.565668
  H    -20.746297   27.092365   49.198492
  H    -19.092634   26.651504   48.698088
  C    -24.602390   27.130355   45.468283
  H    -25.147914   27.565508   44.618163
  C    -23.124666   27.519409   45.425524
  C    -23.164294   28.949475   45.991868
  C    -24.289612   28.886154   47.051050
  O    -25.088864   27.681119   46.737732
  H    -24.744254   26.050517   45.498249
  O    -22.449033   26.512802   46.244154
  H    -22.723507   27.498083   44.401979
  H    -22.216401   29.297909   46.392507
  H    -23.444157   29.626341   45.174065
  H    -24.939038   29.768588   47.025949
  H    -23.899640   28.755821   48.064406

 Multiplicity           Mult            ....    1
 Number of Electrons    NEL             ....   86
 Basis Dimension        Dim             ....  127

ORBITAL ENERGIES
----------------

  NO   OCC          E(Eh)            E(eV)
   0   2.0000     -19.140721      -520.8455
   1   2.0000     -19.136305      -520.7253
   2   2.0000     -19.127098      -520.4748
   3   2.0000     -10.280898      -279.7575
   4   2.0000     -10.244958      -278.7795
   5   2.0000     -10.227791      -278.3124
   6   2.0000     -10.221974      -278.1541
   7   2.0000     -10.219730      -278.0930
   8   2.0000     -10.196181      -277.4522
   9   2.0000     -10.194910      -277.4176
  10   2.0000     -10.189881      -277.2808
  11   2.0000      -1.050804       -28.5938
  12   2.0000      -1.013736       -27.5852
  13   2.0000      -0.987223       -26.8637
  14   2.0000      -0.791284       -21.5319
  15   2.0000      -0.787194       -21.4206
  16   2.0000      -0.745114       -20.2756
  17   2.0000      -0.724045       -19.7023
  18   2.0000      -0.619704       -16.8630
  19   2.0000      -0.602954       -16.4072
  20   2.0000      -0.601025       -16.3547
  21   2.0000      -0.568603       -15.4725
  22   2.0000      -0.516524       -14.0553
  23   2.0000      -0.506813       -13.7911
  24   2.0000      -0.497556       -13.5392
  25   2.0000      -0.485353       -13.2071
  26   2.0000      -0.454062       -12.3557
  27   2.0000      -0.444348       -12.0913
  28   2.0000      -0.425835       -11.5876
  29   2.0000      -0.420119       -11.4320
  30   2.0000      -0.413430       -11.2500
  31   2.0000      -0.389178       -10.5901
  32   2.0000      -0.374172       -10.1817
  33   2.0000      -0.369747       -10.0613
  34   2.0000      -0.366845        -9.9824
  35   2.0000      -0.359129        -9.7724
  36   2.0000      -0.355400        -9.6709
  37   2.0000      -0.314806        -8.5663
  38   2.0000      -0.302157        -8.2221
  39   2.0000      -0.289360        -7.8739
  40   2.0000      -0.261779        -7.1234
  41   2.0000      -0.254808        -6.9337
  42   2.0000      -0.230815        -6.2808
  43   0.0000       0.068973         1.8768
  44   0.0000       0.085266         2.3202
  45   0.0000       0.091778         2.4974
  46   0.0000       0.109511         2.9799
  47   0.0000       0.111331         3.0295

MULLIKEN ATOMIC CHARGES
-----------------------
   0 C :    0.327230
   1 C :   -0.299052
   2 C :   -0.309896
   3 C :   -0.002080
   4 O :   -0.495599
   5 H :    0.147880
   6 H :    0.155588
   7 H :    0.142708
   8 H :    0.145669
   9 H :    0.156483
  10 H :    0.154264
  11 H :    0.144126
  12 C :    0.007258
  13 H :    0.120983
  14 C :    0.074271
  15 C :   -0.310665
  16 C :    0.007466
  17 O :   -0.516591
  18 H :    0.175275
  19 O :   -0.521589
  20 H :    0.123376
  21 H :    0.146716
  22 H :    0.142416
  23 H :    0.134710
  24 H :    0.149051
Sum of atomic charges:   -0.0000000

LOEWDIN ATOMIC CHARGES
----------------------
   0 C :    0.185580
   1 C :   -0.233384
   2 C :   -0.220939
   3 C :   -0.026981
   4 O :   -0.302563
   5 H :    0.098463
   6 H :    0.122531
   7 H :    0.112790
   8 H :    0.115917
   9 H :    0.110551
  10 H :    0.108501
  11 H :    0.103369
  12 C :   -0.031629
  13 H :    0.089404
  14 C :    0.040778
  15 C :   -0.241291
  16 C :   -0.027051
  17 O :   -0.326542
  18 H :    0.127256
  19 O :   -0.332156
  20 H :    0.092237
  21 H :    0.117438
  22 H :    0.114235
  23 H :    0.098096
  24 H :    0.105390

  Mayer bond orders larger than 0.100000
B(  0-C ,  1-C ) :   0.9236 B(  0-C ,  4-O ) :   0.9318 B(  0-C ,  5-H ) :   0.9274
B(  0-C , 19-O ) :   0.8556 B(  1-C ,  2-C ) :   0.9538 B(  1-C ,  6-H ) :   0.9325
B(  1-C ,  7-H ) :   0.9304 B(  2-C ,  3-C ) :   0.9491 B(  2-C ,  8-H ) :   0.9453
B(  2-C ,  9-H ) :   0.9271 B(  3-C ,  4-O ) :   0.8402 B(  3-C , 10-H ) :   0.9336
B(  3-C , 11-H ) :   0.9395 B( 12-C , 13-H ) :   0.9162 B( 12-C , 14-C ) :   0.9307
B( 12-C , 17-O ) :   0.8715 B( 12-C , 18-H ) :   0.9289 B( 14-C , 15-C ) :   0.9269
B( 14-C , 19-O ) :   0.8418 B( 14-C , 20-H ) :   0.9209 B( 15-C , 16-C ) :   0.9457
B( 15-C , 21-H ) :   0.9218 B( 15-C , 22-H ) :   0.9337 B( 16-C , 17-O ) :   0.8640
B( 16-C , 23-H ) :   0.9324 B( 16-C , 24-H ) :   0.9357

FINAL SINGLE POINT ENERGY      -538.419157134452

DIPOLE MOMENT
-------------
                                X             Y             Z
Electronic contribution:     -2.63500      -5.28925       0.68271
Nuclear contribution   :      3.77739       6.70569      -1.55446
                        -----------------------------------------
Total Dipole Moment    :      1.14239       1.41644      -0.87175
                        -----------------------------------------
Magnitude (a.u.)       :      2.01775
Magnitude (Debye)      :      5.12871

Rotational constants in cm-1:     0.070407     0.023314     0.022106
Rotational constants in MHz :  2110.746465   698.937708   662.718145

                             ****ORCA TERMINATED NORMALLY****
TOTAL RUN TIME: 0 days 0 hours 7 minutes 34 seconds 349 msec
