                         Program Version 4.2.0 -  RELEASE  -
|  1> # Test redundant internal optimization
|  2> #
|  3> ! RKS B3LYP  Opt TightSCF SmallPrint
|  4>
|  5> %basis
|  6>         Basis "6-31G"
|  7> end
|  8>
|  9> %geom
| 10> Constraints
| 11> { D 4  0  15  12  345.0   C } # D for Dihedral angle
| 12> { D 0  15  12  16  225.0   C } # D for Dihedral angle
| 13> { D 0  4  3  2   C } # D for Dihedral angle
| 14> { D 4  3  2  1   C } # D for Dihedral angle
| 15> { D 3  2  1  0   C } # D for Dihedral angle
| 16> { D 2  1  0  4   C } # D for Dihedral angle
| 17> { D 1  0  4  3   C } # D for Dihedral angle
| 18> { D 16  20  19  18   C } # D for Dihedral angle
| 19> { D 20  19  18  17   C } # D for Dihedral angle
| 20> { D 19  18  17  16   C } # D for Dihedral angle
| 21> { D 18  17  16  20   C } # D for Dihedral angle
| 22> { D 17  16  20  19   C } # D for Dihedral angle
| 23> { D 15  12  16  20   C } # D for Dihedral angle
| 24> end
| 25> end
| 26>
| 27>
| 28> #%pal
| 29> #nprocs 8
| 30> #end
| 31>
| 32> * xyz 0 1
| 33> C  -21.048   26.222   46.251
| 34> C  -20.361   27.558   45.944
| 35> C  -20.329   28.222   47.341
| 36> C  -20.110   27.022   48.296
| 37> O  -20.473   25.807   47.535
| 38> H  -20.833   25.428   45.533
| 39> H  -19.344   27.382   45.576
| 40> H  -20.898   28.157   45.201
| 41> H  -19.543   28.978   47.434
| 42> H  -21.289   28.710   47.548
| 43> H  -20.733   27.082   49.195
| 44> H  -19.064   26.913   48.597
| 45> C  -23.221   25.764   47.645
| 46> H  -22.499   25.081   48.110
| 47> H  -23.474   26.544   48.375
| 48> O  -22.586   26.394   46.375
| 49> C  -24.518   24.967   47.336
| 50> C  -25.545   25.838   46.601
| 51> C  -24.999   25.810   45.153
| 52> C  -24.417   24.381   45.024
| 53> O  -24.238   23.873   46.401
| 54> H  -24.888   24.514   48.258
| 55> O  -26.949   25.178   46.670
| 56> H  -25.619   26.852   47.008
| 57> H  -25.771   26.016   44.405
| 58> H  -24.209   26.561   45.034
| 59> H  -23.452   24.365   44.506
| 60> H  -25.102   23.696   44.515
| 61> H  -26.899   24.161   46.268
| 62> *
| 63>
| 64>                          ****END OF INPUT****
 Total Charge           Charge          ....    0
 Multiplicity           Mult            ....    1
 Number of Electrons    NEL             ....  102
FINAL SINGLE POINT ENERGY      -652.837175356607
FINAL SINGLE POINT ENERGY      -652.858926463581
FINAL SINGLE POINT ENERGY      -652.862950522958
FINAL SINGLE POINT ENERGY      -652.863976252506
FINAL SINGLE POINT ENERGY      -652.864084892681
FINAL SINGLE POINT ENERGY      -652.864102615277
                    ***********************HURRAY********************

CARTESIAN COORDINATES (ANGSTROEM)
---------------------------------
  C    -21.065267   26.181618   46.341849
  C    -20.451146   27.537581   45.997604
  C    -20.356490   28.203478   47.388626
  C    -20.034822   27.020781   48.326951
  O    -20.409308   25.792785   47.565782
  H    -20.873665   25.378281   45.626748
  H    -19.456527   27.383417   45.563377
  H    -21.065628   28.099962   45.291390
  H    -19.591254   28.984565   47.430052
  H    -21.319288   28.655125   47.648010
  H    -20.601608   27.039653   49.261285
  H    -18.968941   26.929233   48.552284
  C    -23.183848   25.788701   47.640890
  H    -22.508283   25.100036   48.154370
  H    -23.437872   26.609366   48.327396
  O    -22.514984   26.337969   46.465897
  C    -24.456994   25.040440   47.249757
  C    -25.544887   25.846569   46.523748
  C    -25.054563   25.785249   45.053259
  C    -24.425122   24.373775   44.954106
  O    -24.174455   23.926394   46.344185
  H    -24.872205   24.604506   48.167061
  O    -26.850080   25.224373   46.698677
  H    -25.661409   26.863785   46.898951
  H    -25.888473   25.930860   44.360691
  H    -24.298477   26.554678   44.889291
  H    -23.477378   24.378596   44.408961
  H    -25.095289   23.638578   44.495446
  H    -26.772739   24.265645   46.508356

 Multiplicity           Mult            ....    1
 Number of Electrons    NEL             ....  102
 Basis Dimension        Dim             ....  149

ORBITAL ENERGIES
----------------

  NO   OCC          E(Eh)            E(eV)
   0   2.0000     -19.154095      -521.2094
   1   2.0000     -19.142298      -520.8884
   2   2.0000     -19.133747      -520.6557
   3   2.0000     -19.130809      -520.5758
   4   2.0000     -10.282939      -279.8130
   5   2.0000     -10.235131      -278.5121
   6   2.0000     -10.231947      -278.4254
   7   2.0000     -10.228194      -278.3233
   8   2.0000     -10.225858      -278.2597
   9   2.0000     -10.220183      -278.1053
  10   2.0000     -10.193566      -277.3810
  11   2.0000     -10.189684      -277.2754
  12   2.0000     -10.172725      -276.8139
  13   2.0000      -1.058470       -28.8024
  14   2.0000      -1.028671       -27.9916
  15   2.0000      -1.000369       -27.2214
  16   2.0000      -0.990996       -26.9664
  17   2.0000      -0.795240       -21.6396
  18   2.0000      -0.773710       -21.0537
  19   2.0000      -0.761259       -20.7149
  20   2.0000      -0.734895       -19.9975
  21   2.0000      -0.670255       -18.2386
  22   2.0000      -0.607290       -16.5252
  23   2.0000      -0.598644       -16.2899
  24   2.0000      -0.592976       -16.1357
  25   2.0000      -0.567304       -15.4371
  26   2.0000      -0.524870       -14.2824
  27   2.0000      -0.509160       -13.8549
  28   2.0000      -0.495479       -13.4827
  29   2.0000      -0.487719       -13.2715
  30   2.0000      -0.469672       -12.7804
  31   2.0000      -0.460439       -12.5292
  32   2.0000      -0.446916       -12.1612
  33   2.0000      -0.438170       -11.9232
  34   2.0000      -0.419149       -11.4056
  35   2.0000      -0.407828       -11.0976
  36   2.0000      -0.399622       -10.8743
  37   2.0000      -0.384173       -10.4539
  38   2.0000      -0.374207       -10.1827
  39   2.0000      -0.368682       -10.0323
  40   2.0000      -0.363591        -9.8938
  41   2.0000      -0.357774        -9.7355
  42   2.0000      -0.348973        -9.4960
  43   2.0000      -0.337317        -9.1789
  44   2.0000      -0.322370        -8.7721
  45   2.0000      -0.305868        -8.3231
  46   2.0000      -0.295051        -8.0287
  47   2.0000      -0.269750        -7.3403
  48   2.0000      -0.265783        -7.2323
  49   2.0000      -0.254719        -6.9313
  50   2.0000      -0.236146        -6.4259
  51   0.0000       0.068200         1.8558
  52   0.0000       0.079372         2.1598
  53   0.0000       0.100000         2.7211
  54   0.0000       0.102788         2.7970
  55   0.0000       0.107949         2.9374

MULLIKEN ATOMIC CHARGES
-----------------------
   0 C :    0.304319
   1 C :   -0.257065
   2 C :   -0.306286
   3 C :   -0.014690
   4 O :   -0.509544
   5 H :    0.158969
   6 H :    0.145574
   7 H :    0.158348
   8 H :    0.148128
   9 H :    0.157260
  10 H :    0.147450
  11 H :    0.152208
  12 C :   -0.011861
  13 H :    0.180810
  14 H :    0.122295
  15 O :   -0.546940
  16 C :    0.072401
  17 C :    0.080454
  18 C :   -0.288491
  19 C :   -0.021575
  20 O :   -0.527444
  21 H :    0.151336
  22 O :   -0.604091
  23 H :    0.147383
  24 H :    0.146238
  25 H :    0.173199
  26 H :    0.144191
  27 H :    0.136183
  28 H :    0.361238
Sum of atomic charges:   -0.0000000

LOEWDIN ATOMIC CHARGES
----------------------
   0 C :    0.183813
   1 C :   -0.218239
   2 C :   -0.218206
   3 C :   -0.030950
   4 O :   -0.315398
   5 H :    0.105105
   6 H :    0.114315
   7 H :    0.124623
   8 H :    0.117621
   9 H :    0.116172
  10 H :    0.104789
  11 H :    0.108151
  12 C :   -0.042761
  13 H :    0.123857
  14 H :    0.093319
  15 O :   -0.347133
  16 C :    0.012661
  17 C :    0.038343
  18 C :   -0.242763
  19 C :   -0.034286
  20 O :   -0.330675
  21 H :    0.114005
  22 O :   -0.418259
  23 H :    0.114269
  24 H :    0.117408
  25 H :    0.129546
  26 H :    0.103807
  27 H :    0.095869
  28 H :    0.280999

  Mayer bond orders larger than 0.100000
B(  0-C ,  1-C ) :   0.9384 B(  0-C ,  4-O ) :   0.9127 B(  0-C ,  5-H ) :   0.9257
B(  0-C , 15-O ) :   0.8299 B(  1-C ,  2-C ) :   0.9522 B(  1-C ,  6-H ) :   0.9357
B(  1-C ,  7-H ) :   0.9360 B(  2-C ,  3-C ) :   0.9550 B(  2-C ,  8-H ) :   0.9446
B(  2-C ,  9-H ) :   0.9454 B(  3-C ,  4-O ) :   0.8272 B(  3-C , 10-H ) :   0.9345
B(  3-C , 11-H ) :   0.9403 B( 12-C , 13-H ) :   0.9056 B( 12-C , 14-H ) :   0.9184
B( 12-C , 15-O ) :   0.8400 B( 12-C , 16-C ) :   0.9002 B( 16-C , 17-C ) :   0.9096
B( 16-C , 20-O ) :   0.8682 B( 16-C , 21-H ) :   0.9211 B( 17-C , 18-C ) :   0.9250
B( 17-C , 22-O ) :   0.8909 B( 17-C , 23-H ) :   0.9365 B( 18-C , 19-C ) :   0.9474
B( 18-C , 24-H ) :   0.9374 B( 18-C , 25-H ) :   0.9194 B( 19-C , 20-O ) :   0.8421
B( 19-C , 26-H ) :   0.9346 B( 19-C , 27-H ) :   0.9367 B( 22-O , 28-H ) :   0.7969

FINAL SINGLE POINT ENERGY      -652.864102432328

DIPOLE MOMENT
-------------
                                X             Y             Z
Electronic contribution:     -2.72263      -4.56897       0.82430
Nuclear contribution   :      3.65877       5.51887      -0.94193
                        -----------------------------------------
Total Dipole Moment    :      0.93614       0.94991      -0.11763
                        -----------------------------------------
Magnitude (a.u.)       :      1.33885
Magnitude (Debye)      :      3.40308

Rotational constants in cm-1:     0.061026     0.013366     0.013176
Rotational constants in MHz :  1829.527731   400.701463   394.994769

                             ****ORCA TERMINATED NORMALLY****
TOTAL RUN TIME: 0 days 0 hours 33 minutes 30 seconds 279 msec
