                         Program Version 4.2.0 -  RELEASE  -
|  1> # Test redundant internal optimization
|  2> #
|  3> ! RKS B3LYP  Opt TightSCF SmallPrint
|  4>
|  5> %basis
|  6>         Basis "6-31G"
|  7> end
|  8>
|  9> %geom
| 10> Constraints
| 11> { D 4  0  15  12  165.0   C } # D for Dihedral angle
| 12> { D 0  15  12  16  210.0   C } # D for Dihedral angle
| 13> { D 0  4  3  2   C } # D for Dihedral angle
| 14> { D 4  3  2  1   C } # D for Dihedral angle
| 15> { D 3  2  1  0   C } # D for Dihedral angle
| 16> { D 2  1  0  4   C } # D for Dihedral angle
| 17> { D 1  0  4  3   C } # D for Dihedral angle
| 18> { D 16  20  19  18   C } # D for Dihedral angle
| 19> { D 20  19  18  17   C } # D for Dihedral angle
| 20> { D 19  18  17  16   C } # D for Dihedral angle
| 21> { D 18  17  16  20   C } # D for Dihedral angle
| 22> { D 17  16  20  19   C } # D for Dihedral angle
| 23> { D 15  12  16  20   C } # D for Dihedral angle
| 24> end
| 25> end
| 26>
| 27>
| 28> #%pal
| 29> #nprocs 8
| 30> #end
| 31>
| 32> * xyz 0 1
| 33> C  -21.048   26.222   46.251
| 34> C  -20.361   27.558   45.944
| 35> C  -20.329   28.222   47.341
| 36> C  -20.110   27.022   48.296
| 37> O  -20.473   25.807   47.535
| 38> H  -20.833   25.428   45.533
| 39> H  -19.344   27.382   45.576
| 40> H  -20.898   28.157   45.201
| 41> H  -19.543   28.978   47.434
| 42> H  -21.289   28.710   47.548
| 43> H  -20.733   27.082   49.195
| 44> H  -19.064   26.913   48.597
| 45> C  -23.260   27.170   45.210
| 46> H  -22.545   27.890   44.794
| 47> H  -23.557   26.480   44.410
| 48> O  -22.586   26.394   46.375
| 49> C  -24.528   27.946   45.660
| 50> C  -25.231   28.604   44.468
| 51> C  -25.994   27.406   43.853
| 52> C  -26.399   26.573   45.095
| 53> O  -25.529   27.022   46.204
| 54> H  -24.260   28.636   46.463
| 55> O  -26.224   29.689   44.966
| 56> H  -24.535   29.071   43.762
| 57> H  -26.859   27.714   43.257
| 58> H  -25.327   26.829   43.202
| 59> H  -26.258   25.497   44.942
| 60> H  -27.432   26.756   45.402
| 61> H  -26.932   29.243   45.674
| 62> *
| 63>
| 64>                          ****END OF INPUT****
 Total Charge           Charge          ....    0
 Multiplicity           Mult            ....    1
 Number of Electrons    NEL             ....  102
FINAL SINGLE POINT ENERGY      -652.823779989172
FINAL SINGLE POINT ENERGY      -652.847269026764
FINAL SINGLE POINT ENERGY      -652.851671032345
FINAL SINGLE POINT ENERGY      -652.852580116826
FINAL SINGLE POINT ENERGY      -652.852706925209
FINAL SINGLE POINT ENERGY      -652.852724029422
                    ***********************HURRAY********************

CARTESIAN COORDINATES (ANGSTROEM)
---------------------------------
  C    -21.069627   26.266984   46.170473
  C    -20.273477   27.549934   45.931523
  C    -20.409327   28.275737   47.296419
  C    -20.401421   27.104241   48.300408
  O    -20.720140   25.891040   47.508213
  H    -20.807623   25.429745   45.516560
  H    -19.229254   27.274443   45.743074
  H    -20.610279   28.156414   45.087717
  H    -19.596199   28.985720   47.474321
  H    -21.357784   28.819747   47.340849
  H    -21.147896   27.209335   49.091527
  H    -19.417398   26.935830   48.748105
  C    -23.165971   27.142675   45.069908
  H    -22.514074   27.907345   44.626555
  H    -23.425994   26.421573   44.281343
  O    -22.520809   26.452014   46.168266
  C    -24.416667   27.837332   45.608663
  C    -25.224672   28.575160   44.532609
  C    -26.071257   27.423808   43.926555
  C    -26.363715   26.525513   45.154420
  O    -25.374968   26.898562   46.193653
  H    -24.118328   28.512234   46.416950
  O    -26.062347   29.602438   45.129892
  H    -24.614335   29.097095   43.793768
  H    -26.976315   27.816405   43.457329
  H    -25.493550   26.885999   43.166150
  H    -26.262635   25.458612   44.933613
  H    -27.358611   26.701551   45.575877
  H    -26.476326   29.243517   45.943260

 Multiplicity           Mult            ....    1
 Number of Electrons    NEL             ....  102
 Basis Dimension        Dim             ....  149

ORBITAL ENERGIES
----------------

  NO   OCC          E(Eh)            E(eV)
   0   2.0000     -19.140817      -520.8481
   1   2.0000     -19.140189      -520.8310
   2   2.0000     -19.138400      -520.7823
   3   2.0000     -19.137268      -520.7515
   4   2.0000     -10.280283      -279.7407
   5   2.0000     -10.244996      -278.7805
   6   2.0000     -10.235738      -278.5286
   7   2.0000     -10.235152      -278.5127
   8   2.0000     -10.229804      -278.3671
   9   2.0000     -10.224360      -278.2190
  10   2.0000     -10.191736      -277.3312
  11   2.0000     -10.190835      -277.3067
  12   2.0000     -10.189857      -277.2801
  13   2.0000      -1.052119       -28.6296
  14   2.0000      -1.037203       -28.2237
  15   2.0000      -1.007393       -27.4126
  16   2.0000      -0.990602       -26.9557
  17   2.0000      -0.788885       -21.4667
  18   2.0000      -0.785906       -21.3856
  19   2.0000      -0.769383       -20.9360
  20   2.0000      -0.733002       -19.9460
  21   2.0000      -0.678179       -18.4542
  22   2.0000      -0.605929       -16.4882
  23   2.0000      -0.604103       -16.4385
  24   2.0000      -0.593230       -16.1426
  25   2.0000      -0.579861       -15.7788
  26   2.0000      -0.524050       -14.2601
  27   2.0000      -0.515491       -14.0272
  28   2.0000      -0.499127       -13.5819
  29   2.0000      -0.494351       -13.4520
  30   2.0000      -0.473789       -12.8924
  31   2.0000      -0.461242       -12.5510
  32   2.0000      -0.453481       -12.3398
  33   2.0000      -0.442438       -12.0393
  34   2.0000      -0.428898       -11.6709
  35   2.0000      -0.412123       -11.2144
  36   2.0000      -0.400789       -10.9060
  37   2.0000      -0.394551       -10.7363
  38   2.0000      -0.377913       -10.2835
  39   2.0000      -0.373268       -10.1571
  40   2.0000      -0.362133        -9.8542
  41   2.0000      -0.358429        -9.7533
  42   2.0000      -0.354866        -9.6564
  43   2.0000      -0.333921        -9.0864
  44   2.0000      -0.312798        -8.5117
  45   2.0000      -0.306974        -8.3532
  46   2.0000      -0.296085        -8.0569
  47   2.0000      -0.273343        -7.4381
  48   2.0000      -0.261849        -7.1253
  49   2.0000      -0.252760        -6.8779
  50   2.0000      -0.240237        -6.5372
  51   0.0000       0.063670         1.7326
  52   0.0000       0.076356         2.0778
  53   0.0000       0.086616         2.3569
  54   0.0000       0.093268         2.5379
  55   0.0000       0.100560         2.7364

MULLIKEN ATOMIC CHARGES
-----------------------
   0 C :    0.313273
   1 C :   -0.296381
   2 C :   -0.298617
   3 C :    0.000548
   4 O :   -0.495715
   5 H :    0.143354
   6 H :    0.152973
   7 H :    0.142309
   8 H :    0.144154
   9 H :    0.155503
  10 H :    0.157732
  11 H :    0.142418
  12 C :   -0.001588
  13 H :    0.117990
  14 H :    0.130432
  15 O :   -0.504052
  16 C :    0.070776
  17 C :    0.077548
  18 C :   -0.296276
  19 C :   -0.028893
  20 O :   -0.504704
  21 H :    0.163248
  22 O :   -0.604179
  23 H :    0.148194
  24 H :    0.162824
  25 H :    0.142398
  26 H :    0.153188
  27 H :    0.144481
  28 H :    0.367060
Sum of atomic charges:   -0.0000000

LOEWDIN ATOMIC CHARGES
----------------------
   0 C :    0.184729
   1 C :   -0.235632
   2 C :   -0.216823
   3 C :   -0.025377
   4 O :   -0.300252
   5 H :    0.097851
   6 H :    0.119300
   7 H :    0.111533
   8 H :    0.115255
   9 H :    0.113698
  10 H :    0.111314
  11 H :    0.102775
  12 C :   -0.044205
  13 H :    0.091774
  14 H :    0.094203
  15 O :   -0.323858
  16 C :    0.017310
  17 C :    0.034470
  18 C :   -0.241159
  19 C :   -0.037824
  20 O :   -0.316578
  21 H :    0.116944
  22 O :   -0.415238
  23 H :    0.113237
  24 H :    0.126772
  25 H :    0.111755
  26 H :    0.107536
  27 H :    0.101881
  28 H :    0.284609

  Mayer bond orders larger than 0.100000
B(  0-C ,  1-C ) :   0.9285 B(  0-C ,  4-O ) :   0.9385 B(  0-C ,  5-H ) :   0.9228
B(  0-C , 15-O ) :   0.8377 B(  1-C ,  2-C ) :   0.9499 B(  1-C ,  6-H ) :   0.9330
B(  1-C ,  7-H ) :   0.9268 B(  2-C ,  3-C ) :   0.9546 B(  2-C ,  8-H ) :   0.9448
B(  2-C ,  9-H ) :   0.9445 B(  3-C ,  4-O ) :   0.8357 B(  3-C , 10-H ) :   0.9338
B(  3-C , 11-H ) :   0.9396 B( 12-C , 13-H ) :   0.8991 B( 12-C , 14-H ) :   0.9186
B( 12-C , 15-O ) :   0.8502 B( 12-C , 16-C ) :   0.8978 B( 16-C , 17-C ) :   0.8970
B( 16-C , 20-O ) :   0.8722 B( 16-C , 21-H ) :   0.9238 B( 17-C , 18-C ) :   0.9110
B( 17-C , 22-O ) :   0.8940 B( 17-C , 23-H ) :   0.9333 B( 18-C , 19-C ) :   0.9395
B( 18-C , 24-H ) :   0.9374 B( 18-C , 25-H ) :   0.9343 B( 19-C , 20-O ) :   0.8514
B( 19-C , 26-H ) :   0.9335 B( 19-C , 27-H ) :   0.9379 B( 22-O , 28-H ) :   0.7927

FINAL SINGLE POINT ENERGY      -652.852727153815

DIPOLE MOMENT
-------------
                                X             Y             Z
Electronic contribution:     -2.09973      -2.39529       2.43222
Nuclear contribution   :      2.56594       2.96523      -3.45264
                        -----------------------------------------
Total Dipole Moment    :      0.46621       0.56994      -1.02042
                        -----------------------------------------
Magnitude (a.u.)       :      1.25835
Magnitude (Debye)      :      3.19847

Rotational constants in cm-1:     0.058396     0.012260     0.011629
Rotational constants in MHz :  1750.675094   367.540230   348.633137

                             ****ORCA TERMINATED NORMALLY****
TOTAL RUN TIME: 0 days 1 hours 7 minutes 53 seconds 454 msec
