                         Program Version 4.2.0 -  RELEASE  -
|  1> # Test redundant internal optimization
|  2> #
|  3> ! RKS B3LYP  Opt TightSCF SmallPrint
|  4>
|  5> %basis
|  6>         Basis "6-31G"
|  7> end
|  8>
|  9> %geom
| 10> Constraints
| 11> { D 4  0  15  12  120.0   C } # D for Dihedral angle
| 12> { D 0  15  12  16  150.0   C } # D for Dihedral angle
| 13> { D 0  4  3  2   C } # D for Dihedral angle
| 14> { D 4  3  2  1   C } # D for Dihedral angle
| 15> { D 3  2  1  0   C } # D for Dihedral angle
| 16> { D 2  1  0  4   C } # D for Dihedral angle
| 17> { D 1  0  4  3   C } # D for Dihedral angle
| 18> { D 16  20  19  18   C } # D for Dihedral angle
| 19> { D 20  19  18  17   C } # D for Dihedral angle
| 20> { D 19  18  17  16   C } # D for Dihedral angle
| 21> { D 18  17  16  20   C } # D for Dihedral angle
| 22> { D 17  16  20  19   C } # D for Dihedral angle
| 23> { D 15  12  16  20   C } # D for Dihedral angle
| 24> end
| 25> end
| 26>
| 27>
| 28> #%pal
| 29> #nprocs 8
| 30> #end
| 31>
| 32> * xyz 0 1
| 33> C  -21.048   26.222   46.251
| 34> C  -20.361   27.558   45.944
| 35> C  -20.329   28.222   47.341
| 36> C  -20.110   27.022   48.296
| 37> O  -20.473   25.807   47.535
| 38> H  -20.833   25.428   45.533
| 39> H  -19.344   27.382   45.576
| 40> H  -20.898   28.157   45.201
| 41> H  -19.543   28.978   47.434
| 42> H  -21.289   28.710   47.548
| 43> H  -20.733   27.082   49.195
| 44> H  -19.064   26.913   48.597
| 45> C  -23.119   27.818   46.058
| 46> H  -23.125   28.416   46.978
| 47> H  -22.468   28.318   45.329
| 48> O  -22.586   26.394   46.375
| 49> C  -24.559   27.804   45.475
| 50> C  -25.008   29.212   45.066
| 51> C  -24.293   29.386   43.706
| 52> C  -24.331   27.960   43.103
| 53> O  -24.599   27.036   44.226
| 54> H  -25.226   27.304   46.180
| 55> H  -26.096   29.238   44.938
| 56> O  -24.611   30.302   46.099
| 57> H  -24.781   30.125   43.061
| 58> H  -23.258   29.712   43.863
| 59> H  -23.385   27.680   42.627
| 60> H  -25.142   27.833   42.380
| 61> H  -23.525   30.296   46.244
| 62> *
| 63>
| 64>                          ****END OF INPUT****
 Total Charge           Charge          ....    0
 Multiplicity           Mult            ....    1
 Number of Electrons    NEL             ....  102
FINAL SINGLE POINT ENERGY      -652.809962375337
FINAL SINGLE POINT ENERGY      -652.834689919115
FINAL SINGLE POINT ENERGY      -652.844303295524
FINAL SINGLE POINT ENERGY      -652.846195028142
FINAL SINGLE POINT ENERGY      -652.846555427843
FINAL SINGLE POINT ENERGY      -652.846635335556
FINAL SINGLE POINT ENERGY      -652.846644811428
FINAL SINGLE POINT ENERGY      -652.846646953112
                    ***********************HURRAY********************

CARTESIAN COORDINATES (ANGSTROEM)
---------------------------------
  C    -21.122912   26.328052   46.294438
  C    -20.127911   27.457531   46.010417
  C    -19.995386   28.130722   47.403852
  C    -20.108217   26.926822   48.369885
  O    -20.718706   25.828954   47.586735
  H    -21.048676   25.477452   45.615415
  H    -19.176590   27.001559   45.715546
  H    -20.426958   28.144466   45.215287
  H    -19.049160   28.668162   47.518194
  H    -20.808864   28.846018   47.568559
  H    -20.735474   27.134741   49.241271
  H    -19.131085   26.570463   48.708801
  C    -23.052931   27.993503   46.051435
  H    -23.144983   28.569721   46.983230
  H    -22.404280   28.547985   45.359670
  O    -22.532175   26.670529   46.314966
  C    -24.442382   27.814101   45.437302
  C    -25.140408   29.130092   45.051323
  C    -24.522810   29.421131   43.651139
  C    -24.352341   28.007419   43.054234
  O    -24.411711   27.054269   44.192012
  H    -25.039919   27.217657   46.132121
  H    -26.215204   28.957138   44.965841
  O    -25.020503   30.208295   46.011638
  H    -25.162081   30.067449   43.043408
  H    -23.555203   29.926335   43.775057
  H    -23.401516   27.877822   42.526690
  H    -25.168423   27.744535   42.374090
  H    -24.120191   30.592080   45.986444

 Multiplicity           Mult            ....    1
 Number of Electrons    NEL             ....  102
 Basis Dimension        Dim             ....  149

ORBITAL ENERGIES
----------------

  NO   OCC          E(Eh)            E(eV)
   0   2.0000     -19.152682      -521.1710
   1   2.0000     -19.137459      -520.7567
   2   2.0000     -19.135914      -520.7147
   3   2.0000     -19.135485      -520.7030
   4   2.0000     -10.277993      -279.6784
   5   2.0000     -10.247148      -278.8391
   6   2.0000     -10.234852      -278.5045
   7   2.0000     -10.232347      -278.4363
   8   2.0000     -10.230094      -278.3750
   9   2.0000     -10.226359      -278.2734
  10   2.0000     -10.198604      -277.5181
  11   2.0000     -10.195675      -277.4384
  12   2.0000     -10.195488      -277.4333
  13   2.0000      -1.048651       -28.5353
  14   2.0000      -1.035181       -28.1687
  15   2.0000      -1.016886       -27.6709
  16   2.0000      -0.990604       -26.9557
  17   2.0000      -0.791275       -21.5317
  18   2.0000      -0.785023       -21.3616
  19   2.0000      -0.771963       -21.0062
  20   2.0000      -0.732943       -19.9444
  21   2.0000      -0.686304       -18.6753
  22   2.0000      -0.613573       -16.6962
  23   2.0000      -0.605979       -16.4895
  24   2.0000      -0.596025       -16.2187
  25   2.0000      -0.572384       -15.5753
  26   2.0000      -0.529696       -14.4138
  27   2.0000      -0.508970       -13.8498
  28   2.0000      -0.504327       -13.7234
  29   2.0000      -0.496656       -13.5147
  30   2.0000      -0.474471       -12.9110
  31   2.0000      -0.462295       -12.5797
  32   2.0000      -0.443807       -12.0766
  33   2.0000      -0.439268       -11.9531
  34   2.0000      -0.428823       -11.6689
  35   2.0000      -0.419491       -11.4149
  36   2.0000      -0.408977       -11.1288
  37   2.0000      -0.403768       -10.9871
  38   2.0000      -0.383802       -10.4438
  39   2.0000      -0.380243       -10.3469
  40   2.0000      -0.363884        -9.9018
  41   2.0000      -0.354896        -9.6572
  42   2.0000      -0.353119        -9.6088
  43   2.0000      -0.332347        -9.0436
  44   2.0000      -0.316364        -8.6087
  45   2.0000      -0.312801        -8.5118
  46   2.0000      -0.291118        -7.9217
  47   2.0000      -0.272732        -7.4214
  48   2.0000      -0.263468        -7.1693
  49   2.0000      -0.251432        -6.8418
  50   2.0000      -0.237980        -6.4758
  51   0.0000       0.043607         1.1866
  52   0.0000       0.065498         1.7823
  53   0.0000       0.082619         2.2482
  54   0.0000       0.091142         2.4801
  55   0.0000       0.100108         2.7241

MULLIKEN ATOMIC CHARGES
-----------------------
   0 C :    0.318544
   1 C :   -0.302607
   2 C :   -0.307259
   3 C :   -0.001608
   4 O :   -0.493673
   5 H :    0.164973
   6 H :    0.157519
   7 H :    0.143089
   8 H :    0.145170
   9 H :    0.144698
  10 H :    0.149251
  11 H :    0.144046
  12 C :   -0.008449
  13 H :    0.137046
  14 H :    0.108927
  15 O :   -0.518900
  16 C :    0.096472
  17 C :    0.077525
  18 C :   -0.329288
  19 C :   -0.011798
  20 O :   -0.502169
  21 H :    0.173319
  22 H :    0.173895
  23 O :   -0.597826
  24 H :    0.161250
  25 H :    0.130055
  26 H :    0.141392
  27 H :    0.152546
  28 H :    0.353860
Sum of atomic charges:   -0.0000000

LOEWDIN ATOMIC CHARGES
----------------------
   0 C :    0.183802
   1 C :   -0.232802
   2 C :   -0.220927
   3 C :   -0.029743
   4 O :   -0.312591
   5 H :    0.111015
   6 H :    0.123295
   7 H :    0.112315
   8 H :    0.115830
   9 H :    0.107422
  10 H :    0.106033
  11 H :    0.103443
  12 C :   -0.047967
  13 H :    0.097358
  14 H :    0.083480
  15 O :   -0.317594
  16 C :    0.020905
  17 C :    0.033888
  18 C :   -0.244173
  19 C :   -0.031283
  20 O :   -0.311052
  21 H :    0.124032
  22 H :    0.122072
  23 O :   -0.407048
  24 H :    0.123727
  25 H :    0.101814
  26 H :    0.101140
  27 H :    0.107233
  28 H :    0.276377

  Mayer bond orders larger than 0.100000
B(  0-C ,  1-C ) :   0.9321 B(  0-C ,  4-O ) :   0.9125 B(  0-C ,  5-H ) :   0.9298
B(  0-C , 15-O ) :   0.8730 B(  1-C ,  2-C ) :   0.9495 B(  1-C ,  6-H ) :   0.9338
B(  1-C ,  7-H ) :   0.9281 B(  2-C ,  3-C ) :   0.9504 B(  2-C ,  8-H ) :   0.9457
B(  2-C ,  9-H ) :   0.9433 B(  3-C ,  4-O ) :   0.8489 B(  3-C , 10-H ) :   0.9339
B(  3-C , 11-H ) :   0.9392 B( 12-C , 13-H ) :   0.9014 B( 12-C , 14-H ) :   0.9068
B( 12-C , 15-O ) :   0.8548 B( 12-C , 16-C ) :   0.8988 B( 16-C , 17-C ) :   0.8715
B( 16-C , 20-O ) :   0.8710 B( 16-C , 21-H ) :   0.9273 B( 17-C , 18-C ) :   0.9241
B( 17-C , 22-H ) :   0.9311 B( 17-C , 23-O ) :   0.8967 B( 18-C , 19-C ) :   0.9376
B( 18-C , 24-H ) :   0.9408 B( 18-C , 25-H ) :   0.9403 B( 19-C , 20-O ) :   0.8529
B( 19-C , 26-H ) :   0.9317 B( 19-C , 27-H ) :   0.9371 B( 23-O , 28-H ) :   0.7991

FINAL SINGLE POINT ENERGY      -652.846647383545

DIPOLE MOMENT
-------------
                                X             Y             Z
Electronic contribution:     -3.87464      -4.75551       1.29922
Nuclear contribution   :      4.95875       6.46095      -2.07922
                        -----------------------------------------
Total Dipole Moment    :      1.08411       1.70544      -0.78001
                        -----------------------------------------
Magnitude (a.u.)       :      2.16616
Magnitude (Debye)      :      5.50593

Rotational constants in cm-1:     0.051634     0.013315     0.012321
Rotational constants in MHz :  1547.957493   399.169546   369.381788

                             ****ORCA TERMINATED NORMALLY****
TOTAL RUN TIME: 0 days 0 hours 25 minutes 28 seconds 994 msec
