                         Program Version 4.2.0 -  RELEASE  -
|  1> # Test redundant internal optimization
|  2> #
|  3> ! RKS B3LYP  Opt TightSCF SmallPrint
|  4>
|  5> %basis
|  6>         Basis "6-31G"
|  7> end
|  8>
|  9> %geom
| 10> Constraints
| 11> { D 4  0  15  12  255.0   C } # D for Dihedral angle
| 12> { D 0  15  12  16  15.0   C } # D for Dihedral angle
| 13> { D 0  4  3  2   C } # D for Dihedral angle
| 14> { D 4  3  2  1   C } # D for Dihedral angle
| 15> { D 3  2  1  0   C } # D for Dihedral angle
| 16> { D 2  1  0  4   C } # D for Dihedral angle
| 17> { D 1  0  4  3   C } # D for Dihedral angle
| 18> { D 16  20  19  18   C } # D for Dihedral angle
| 19> { D 20  19  18  17   C } # D for Dihedral angle
| 20> { D 19  18  17  16   C } # D for Dihedral angle
| 21> { D 18  17  16  20   C } # D for Dihedral angle
| 22> { D 17  16  20  19   C } # D for Dihedral angle
| 23> { D 15  12  16  20   C } # D for Dihedral angle
| 24> end
| 25> end
| 26>
| 27>
| 28> #%pal
| 29> #nprocs 8
| 30> #end
| 31>
| 32> * xyz 0 1
| 33> C  -21.048   26.222   46.251
| 34> C  -20.361   27.558   45.944
| 35> C  -20.329   28.222   47.341
| 36> C  -20.110   27.022   48.296
| 37> O  -20.473   25.807   47.535
| 38> H  -20.833   25.428   45.533
| 39> H  -19.344   27.382   45.576
| 40> H  -20.898   28.157   45.201
| 41> H  -19.543   28.978   47.434
| 42> H  -21.289   28.710   47.548
| 43> H  -20.733   27.082   49.195
| 44> H  -19.064   26.913   48.597
| 45> C  -23.431   25.260   45.734
| 46> H  -24.238   24.976   46.421
| 47> H  -23.885   25.603   44.795
| 48> O  -22.586   26.394   46.375
| 49> C  -22.592   23.991   45.416
| 50> C  -23.429   22.939   44.681
| 51> C  -23.427   23.491   43.235
| 52> C  -22.018   24.121   43.102
| 53> O  -21.512   24.313   44.477
| 54> H  -22.122   23.634   46.335
| 55> O  -22.723   21.557   44.741
| 56> H  -24.439   22.829   45.092
| 57> H  -23.610   22.715   42.484
| 58> H  -24.204   24.256   43.123
| 59> H  -22.038   25.089   42.588
| 60> H  -21.313   23.462   42.587
| 61> H  -21.709   21.644   44.334
| 62> *
| 63>
| 64>                          ****END OF INPUT****
 Total Charge           Charge          ....    0
 Multiplicity           Mult            ....    1
 Number of Electrons    NEL             ....  102
FINAL SINGLE POINT ENERGY      -652.824548301078
FINAL SINGLE POINT ENERGY      -652.845792957319
FINAL SINGLE POINT ENERGY      -652.856665982687
FINAL SINGLE POINT ENERGY      -652.858752996152
FINAL SINGLE POINT ENERGY      -652.859172979095
FINAL SINGLE POINT ENERGY      -652.859214274233
FINAL SINGLE POINT ENERGY      -652.859220180487
                    ***********************HURRAY********************

CARTESIAN COORDINATES (ANGSTROEM)
---------------------------------
  C    -20.832393   26.254140   46.220219
  C    -20.353952   27.694847   46.031497
  C    -20.500904   28.270432   47.461567
  C    -20.143072   27.061357   48.356177
  O    -20.272896   25.862997   47.495509
  H    -20.494155   25.533868   45.480487
  H    -19.303068   27.688902   45.718618
  H    -20.944753   28.231151   45.286163
  H    -19.847536   29.129446   47.641162
  H    -21.537180   28.578832   47.626971
  H    -20.810654   26.955078   49.215767
  H    -19.106575   27.087259   48.707415
  C    -23.144154   25.279638   45.714478
  H    -23.909983   25.063648   46.469281
  H    -23.644753   25.735206   44.848154
  O    -22.283523   26.296722   46.297737
  C    -22.505852   23.950970   45.298755
  C    -23.499991   22.968107   44.659420
  C    -23.525246   23.459896   43.185738
  C    -22.064516   23.921802   42.944785
  O    -21.454427   24.111547   44.285055
  H    -22.016043   23.499214   46.167513
  O    -23.024860   21.600240   44.764102
  H    -24.483365   22.968275   45.130624
  H    -23.833316   22.653717   42.515636
  H    -24.228587   24.291899   43.074423
  H    -22.004105   24.863459   42.390973
  H    -21.464917   23.169586   42.423202
  H    -22.066224   21.572764   44.559570

 Multiplicity           Mult            ....    1
 Number of Electrons    NEL             ....  102
 Basis Dimension        Dim             ....  149

ORBITAL ENERGIES
----------------

  NO   OCC          E(Eh)            E(eV)
   0   2.0000     -19.154740      -521.2270
   1   2.0000     -19.144930      -520.9600
   2   2.0000     -19.131390      -520.5916
   3   2.0000     -19.124921      -520.4156
   4   2.0000     -10.260610      -279.2054
   5   2.0000     -10.250758      -278.9373
   6   2.0000     -10.241515      -278.6858
   7   2.0000     -10.240112      -278.6476
   8   2.0000     -10.234154      -278.4855
   9   2.0000     -10.213465      -277.9225
  10   2.0000     -10.197196      -277.4798
  11   2.0000     -10.174401      -276.8595
  12   2.0000     -10.173191      -276.8266
  13   2.0000      -1.047757       -28.5109
  14   2.0000      -1.035571       -28.1793
  15   2.0000      -1.014118       -27.5956
  16   2.0000      -0.980927       -26.6924
  17   2.0000      -0.792579       -21.5672
  18   2.0000      -0.777515       -21.1573
  19   2.0000      -0.766803       -20.8658
  20   2.0000      -0.726523       -19.7697
  21   2.0000      -0.673960       -18.3394
  22   2.0000      -0.612569       -16.6688
  23   2.0000      -0.605010       -16.4632
  24   2.0000      -0.586397       -15.9567
  25   2.0000      -0.567020       -15.4294
  26   2.0000      -0.532540       -14.4912
  27   2.0000      -0.508622       -13.8403
  28   2.0000      -0.494237       -13.4489
  29   2.0000      -0.482000       -13.1159
  30   2.0000      -0.474817       -12.9204
  31   2.0000      -0.455621       -12.3981
  32   2.0000      -0.448241       -12.1973
  33   2.0000      -0.437041       -11.8925
  34   2.0000      -0.423523       -11.5246
  35   2.0000      -0.409593       -11.1456
  36   2.0000      -0.401277       -10.9193
  37   2.0000      -0.392199       -10.6723
  38   2.0000      -0.381703       -10.3867
  39   2.0000      -0.367889       -10.0108
  40   2.0000      -0.363846        -9.9007
  41   2.0000      -0.345256        -9.3949
  42   2.0000      -0.339483        -9.2378
  43   2.0000      -0.333713        -9.0808
  44   2.0000      -0.324726        -8.8363
  45   2.0000      -0.308275        -8.3886
  46   2.0000      -0.293893        -7.9972
  47   2.0000      -0.279026        -7.5927
  48   2.0000      -0.256254        -6.9730
  49   2.0000      -0.252923        -6.8824
  50   2.0000      -0.232308        -6.3214
  51   0.0000       0.058657         1.5961
  52   0.0000       0.081518         2.2182
  53   0.0000       0.087625         2.3844
  54   0.0000       0.097395         2.6502
  55   0.0000       0.104977         2.8566

MULLIKEN ATOMIC CHARGES
-----------------------
   0 C :    0.251943
   1 C :   -0.248604
   2 C :   -0.295933
   3 C :    0.000886
   4 O :   -0.510518
   5 H :    0.203091
   6 H :    0.139322
   7 H :    0.142639
   8 H :    0.133469
   9 H :    0.159482
  10 H :    0.143460
  11 H :    0.136193
  12 C :    0.032682
  13 H :    0.147796
  14 H :    0.126917
  15 O :   -0.545390
  16 C :    0.026228
  17 C :    0.082022
  18 C :   -0.298366
  19 C :   -0.030578
  20 O :   -0.527327
  21 H :    0.185870
  22 O :   -0.598894
  23 H :    0.157109
  24 H :    0.165977
  25 H :    0.149074
  26 H :    0.151788
  27 H :    0.152783
  28 H :    0.366880
Sum of atomic charges:   -0.0000000

LOEWDIN ATOMIC CHARGES
----------------------
   0 C :    0.162638
   1 C :   -0.215697
   2 C :   -0.216673
   3 C :   -0.028359
   4 O :   -0.326688
   5 H :    0.125285
   6 H :    0.110390
   7 H :    0.116929
   8 H :    0.109764
   9 H :    0.117782
  10 H :    0.103173
  11 H :    0.099120
  12 C :   -0.032862
  13 H :    0.111721
  14 H :    0.093592
  15 O :   -0.336034
  16 C :    0.000167
  17 C :    0.041271
  18 C :   -0.240852
  19 C :   -0.038260
  20 O :   -0.331600
  21 H :    0.126290
  22 O :   -0.410631
  23 H :    0.118462
  24 H :    0.128428
  25 H :    0.115125
  26 H :    0.106842
  27 H :    0.105731
  28 H :    0.284947

  Mayer bond orders larger than 0.100000
B(  0-C ,  1-C ) :   0.9435 B(  0-C ,  4-O ) :   0.9078 B(  0-C ,  5-H ) :   0.8843
B(  0-C , 15-O ) :   0.8268 B(  1-C ,  2-C ) :   0.9569 B(  1-C ,  6-H ) :   0.9408
B(  1-C ,  7-H ) :   0.9400 B(  2-C ,  3-C ) :   0.9552 B(  2-C ,  8-H ) :   0.9465
B(  2-C ,  9-H ) :   0.9442 B(  3-C ,  4-O ) :   0.8443 B(  3-C , 10-H ) :   0.9358
B(  3-C , 11-H ) :   0.9405 B( 12-C , 13-H ) :   0.9200 B( 12-C , 14-H ) :   0.9242
B( 12-C , 15-O ) :   0.8581 B( 12-C , 16-C ) :   0.9044 B( 16-C , 17-C ) :   0.8953
B( 16-C , 20-O ) :   0.8288 B( 16-C , 21-H ) :   0.9162 B( 17-C , 18-C ) :   0.9104
B( 17-C , 22-O ) :   0.8970 B( 17-C , 23-H ) :   0.9334 B( 18-C , 19-C ) :   0.9420
B( 18-C , 24-H ) :   0.9368 B( 18-C , 25-H ) :   0.9325 B( 19-C , 20-O ) :   0.8348
B( 19-C , 26-H ) :   0.9347 B( 19-C , 27-H ) :   0.9376 B( 22-O , 28-H ) :   0.7936

FINAL SINGLE POINT ENERGY      -652.859220612339

DIPOLE MOMENT
-------------
                                X             Y             Z
Electronic contribution:      0.31521      -4.44432       1.10250
Nuclear contribution   :     -0.61975       5.00331      -2.06296
                        -----------------------------------------
Total Dipole Moment    :     -0.30455       0.55899      -0.96046
                        -----------------------------------------
Magnitude (a.u.)       :      1.15226
Magnitude (Debye)      :      2.92880

Rotational constants in cm-1:     0.064658     0.012618     0.012112
Rotational constants in MHz :  1938.412250   378.287230   363.113264

                             ****ORCA TERMINATED NORMALLY****
TOTAL RUN TIME: 0 days 0 hours 29 minutes 50 seconds 726 msec
