                         Program Version 4.2.0 -  RELEASE  -
|  1> # Test redundant internal optimization
|  2> #
|  3> ! RKS B3LYP  Opt TightSCF SmallPrint
|  4>
|  5> %basis
|  6>         Basis "6-31G"
|  7> end
|  8>
|  9> %geom
| 10> Constraints
| 11> { D 4  0  15  12  120.0   C } # D for Dihedral angle
| 12> { D 0  15  12  16  120.0   C } # D for Dihedral angle
| 13> { D 0  4  3  2   C } # D for Dihedral angle
| 14> { D 4  3  2  1   C } # D for Dihedral angle
| 15> { D 3  2  1  0   C } # D for Dihedral angle
| 16> { D 2  1  0  4   C } # D for Dihedral angle
| 17> { D 1  0  4  3   C } # D for Dihedral angle
| 18> { D 16  20  19  18   C } # D for Dihedral angle
| 19> { D 20  19  18  17   C } # D for Dihedral angle
| 20> { D 19  18  17  16   C } # D for Dihedral angle
| 21> { D 18  17  16  20   C } # D for Dihedral angle
| 22> { D 17  16  20  19   C } # D for Dihedral angle
| 23> { D 15  12  16  20   C } # D for Dihedral angle
| 24> end
| 25> end
| 26>
| 27>
| 28> #%pal
| 29> #nprocs 8
| 30> #end
| 31>
| 32> * xyz 0 1
| 33> C  -21.048   26.222   46.251
| 34> C  -20.361   27.558   45.944
| 35> C  -20.329   28.222   47.341
| 36> C  -20.110   27.022   48.296
| 37> O  -20.473   25.807   47.535
| 38> H  -20.833   25.428   45.533
| 39> H  -19.344   27.382   45.576
| 40> H  -20.898   28.157   45.201
| 41> H  -19.543   28.978   47.434
| 42> H  -21.289   28.710   47.548
| 43> H  -20.733   27.082   49.195
| 44> H  -19.064   26.913   48.597
| 45> C  -23.119   27.818   46.058
| 46> H  -23.624   28.221   46.944
| 47> H  -22.290   28.490   45.800
| 48> O  -22.586   26.394   46.375
| 49> C  -24.125   27.833   44.874
| 50> C  -25.399   27.053   45.217
| 51> C  -26.169   28.076   46.085
| 52> C  -25.806   29.434   45.434
| 53> O  -24.596   29.198   44.618
| 54> H  -23.618   27.495   43.969
| 55> O  -26.190   26.729   43.920
| 56> H  -25.201   26.113   45.743
| 57> H  -27.249   27.895   46.098
| 58> H  -25.811   28.035   47.121
| 59> H  -25.593   30.211   46.176
| 60> H  -26.586   29.795   44.758
| 61> H  -26.402   27.657   43.376
| 62> *
| 63>
| 64>                          ****END OF INPUT****
 Total Charge           Charge          ....    0
 Multiplicity           Mult            ....    1
 Number of Electrons    NEL             ....  102
FINAL SINGLE POINT ENERGY      -652.820619454082
FINAL SINGLE POINT ENERGY      -652.844692552427
FINAL SINGLE POINT ENERGY      -652.853614231714
FINAL SINGLE POINT ENERGY      -652.855550271282
FINAL SINGLE POINT ENERGY      -652.855871232637
FINAL SINGLE POINT ENERGY      -652.855920169159
                    ***********************HURRAY********************

CARTESIAN COORDINATES (ANGSTROEM)
---------------------------------
  C    -21.210971   26.369319   46.266907
  C    -20.236010   27.501646   45.931419
  C    -20.036714   28.178506   47.314919
  C    -20.096387   26.977248   48.288182
  O    -20.741885   25.875178   47.536507
  H    -21.167751   25.516973   45.587050
  H    -19.299244   27.047952   45.590919
  H    -20.577609   28.184196   45.149220
  H    -19.086578   28.717171   47.379647
  H    -20.841029   28.892814   47.520184
  H    -20.681361   27.182893   49.188935
  H    -19.103353   26.622728   48.578724
  C    -23.168909   28.037069   46.111629
  H    -23.667480   28.370882   47.030044
  H    -22.405526   28.776024   45.855158
  O    -22.621970   26.712012   46.353762
  C    -24.160850   27.943980   44.951010
  C    -25.379829   27.047496   45.207633
  C    -26.288277   27.986588   46.038325
  C    -26.012284   29.383116   45.427876
  O    -24.733329   29.268654   44.680327
  H    -23.632785   27.630191   44.044972
  O    -26.007066   26.655805   43.954167
  H    -25.122774   26.118496   45.713752
  H    -27.335592   27.684980   45.956860
  H    -26.003790   27.950266   47.095861
  H    -25.912902   30.167923   46.184162
  H    -26.778663   29.687110   44.708145
  H    -26.078081   27.440783   43.370704

 Multiplicity           Mult            ....    1
 Number of Electrons    NEL             ....  102
 Basis Dimension        Dim             ....  149

ORBITAL ENERGIES
----------------

  NO   OCC          E(Eh)            E(eV)
   0   2.0000     -19.145919      -520.9869
   1   2.0000     -19.142962      -520.9065
   2   2.0000     -19.139827      -520.8212
   3   2.0000     -19.133727      -520.6552
   4   2.0000     -10.283103      -279.8174
   5   2.0000     -10.234790      -278.5028
   6   2.0000     -10.233807      -278.4761
   7   2.0000     -10.232470      -278.4397
   8   2.0000     -10.232336      -278.4360
   9   2.0000     -10.228915      -278.3429
  10   2.0000     -10.197073      -277.4765
  11   2.0000     -10.196118      -277.4505
  12   2.0000     -10.186958      -277.2012
  13   2.0000      -1.051927       -28.6244
  14   2.0000      -1.035554       -28.1789
  15   2.0000      -1.003393       -27.3037
  16   2.0000      -0.995570       -27.0908
  17   2.0000      -0.793092       -21.5811
  18   2.0000      -0.781066       -21.2539
  19   2.0000      -0.770051       -20.9541
  20   2.0000      -0.734667       -19.9913
  21   2.0000      -0.681167       -18.5355
  22   2.0000      -0.607055       -16.5188
  23   2.0000      -0.602946       -16.4070
  24   2.0000      -0.600217       -16.3327
  25   2.0000      -0.573122       -15.5954
  26   2.0000      -0.526367       -14.3232
  27   2.0000      -0.515001       -14.0139
  28   2.0000      -0.504301       -13.7227
  29   2.0000      -0.491604       -13.3772
  30   2.0000      -0.473987       -12.8978
  31   2.0000      -0.460503       -12.5309
  32   2.0000      -0.450657       -12.2630
  33   2.0000      -0.438905       -11.9432
  34   2.0000      -0.429438       -11.6856
  35   2.0000      -0.412938       -11.2366
  36   2.0000      -0.407180       -11.0799
  37   2.0000      -0.391677       -10.6581
  38   2.0000      -0.385475       -10.4893
  39   2.0000      -0.366583        -9.9752
  40   2.0000      -0.366071        -9.9613
  41   2.0000      -0.359355        -9.7785
  42   2.0000      -0.356573        -9.7028
  43   2.0000      -0.330236        -8.9862
  44   2.0000      -0.317076        -8.6281
  45   2.0000      -0.307227        -8.3601
  46   2.0000      -0.293442        -7.9850
  47   2.0000      -0.277278        -7.5451
  48   2.0000      -0.266339        -7.2474
  49   2.0000      -0.257540        -7.0080
  50   2.0000      -0.240571        -6.5463
  51   0.0000       0.063816         1.7365
  52   0.0000       0.070393         1.9155
  53   0.0000       0.092140         2.5073
  54   0.0000       0.095827         2.6076
  55   0.0000       0.103008         2.8030

MULLIKEN ATOMIC CHARGES
-----------------------
   0 C :    0.318680
   1 C :   -0.310024
   2 C :   -0.307679
   3 C :   -0.004072
   4 O :   -0.494199
   5 H :    0.162453
   6 H :    0.159882
   7 H :    0.153122
   8 H :    0.147477
   9 H :    0.152865
  10 H :    0.148802
  11 H :    0.146081
  12 C :   -0.013560
  13 H :    0.139110
  14 H :    0.146214
  15 O :   -0.534412
  16 C :    0.062143
  17 C :    0.093947
  18 C :   -0.303606
  19 C :   -0.033327
  20 O :   -0.529724
  21 H :    0.155150
  22 O :   -0.603403
  23 H :    0.181442
  24 H :    0.163108
  25 H :    0.149783
  26 H :    0.146616
  27 H :    0.147067
  28 H :    0.360063
Sum of atomic charges:    0.0000000

LOEWDIN ATOMIC CHARGES
----------------------
   0 C :    0.182217
   1 C :   -0.234028
   2 C :   -0.220902
   3 C :   -0.029526
   4 O :   -0.312449
   5 H :    0.109113
   6 H :    0.124801
   7 H :    0.117442
   8 H :    0.117160
   9 H :    0.110972
  10 H :    0.105877
  11 H :    0.104435
  12 C :   -0.040076
  13 H :    0.100207
  14 H :    0.105737
  15 O :   -0.333350
  16 C :    0.010950
  17 C :    0.039199
  18 C :   -0.242004
  19 C :   -0.039207
  20 O :   -0.334655
  21 H :    0.112995
  22 O :   -0.414791
  23 H :    0.130799
  24 H :    0.127039
  25 H :    0.115730
  26 H :    0.103708
  27 H :    0.102646
  28 H :    0.279958

  Mayer bond orders larger than 0.100000
B(  0-C ,  1-C ) :   0.9334 B(  0-C ,  4-O ) :   0.9196 B(  0-C ,  5-H ) :   0.9309
B(  0-C , 15-O ) :   0.8610 B(  1-C ,  2-C ) :   0.9497 B(  1-C ,  6-H ) :   0.9329
B(  1-C ,  7-H ) :   0.9272 B(  2-C ,  3-C ) :   0.9491 B(  2-C ,  8-H ) :   0.9455
B(  2-C ,  9-H ) :   0.9417 B(  3-C ,  4-O ) :   0.8452 B(  3-C , 10-H ) :   0.9344
B(  3-C , 11-H ) :   0.9393 B( 12-C , 13-H ) :   0.9301 B( 12-C , 14-H ) :   0.9059
B( 12-C , 15-O ) :   0.8332 B( 12-C , 16-C ) :   0.8868 B( 16-C , 17-C ) :   0.9141
B( 16-C , 20-O ) :   0.8421 B( 16-C , 21-H ) :   0.9280 B( 17-C , 18-C ) :   0.9146
B( 17-C , 22-O ) :   0.8870 B( 17-C , 23-H ) :   0.9226 B( 18-C , 19-C ) :   0.9409
B( 18-C , 24-H ) :   0.9377 B( 18-C , 25-H ) :   0.9333 B( 19-C , 20-O ) :   0.8435
B( 19-C , 26-H ) :   0.9354 B( 19-C , 27-H ) :   0.9378 B( 22-O , 28-H ) :   0.7976

FINAL SINGLE POINT ENERGY      -652.855927013874

DIPOLE MOMENT
-------------
                                X             Y             Z
Electronic contribution:     -1.97853      -3.82551      -2.58842
Nuclear contribution   :      2.53221       5.17078       2.92222
                        -----------------------------------------
Total Dipole Moment    :      0.55367       1.34527       0.33380
                        -----------------------------------------
Magnitude (a.u.)       :      1.49255
Magnitude (Debye)      :      3.79377

Rotational constants in cm-1:     0.059401     0.012201     0.011574
Rotational constants in MHz :  1780.796249   365.763946   346.973227

                             ****ORCA TERMINATED NORMALLY****
TOTAL RUN TIME: 0 days 1 hours 2 minutes 3 seconds 953 msec
