                         Program Version 4.2.0 -  RELEASE  -
|  1> # Test redundant internal optimization
|  2> #
|  3> ! RKS B3LYP  Opt TightSCF SmallPrint
|  4>
|  5> %basis
|  6>         Basis "6-31G"
|  7> end
|  8>
|  9> %geom
| 10> Constraints
| 11> { D 4  0  15  12  75.0   C } # D for Dihedral angle
| 12> { D 0  15  12  16  90.0   C } # D for Dihedral angle
| 13> { D 0  4  3  2   C } # D for Dihedral angle
| 14> { D 4  3  2  1   C } # D for Dihedral angle
| 15> { D 3  2  1  0   C } # D for Dihedral angle
| 16> { D 2  1  0  4   C } # D for Dihedral angle
| 17> { D 1  0  4  3   C } # D for Dihedral angle
| 18> { D 16  20  19  18   C } # D for Dihedral angle
| 19> { D 20  19  18  17   C } # D for Dihedral angle
| 20> { D 19  18  17  16   C } # D for Dihedral angle
| 21> { D 18  17  16  20   C } # D for Dihedral angle
| 22> { D 17  16  20  19   C } # D for Dihedral angle
| 23> { D 15  12  16  20   C } # D for Dihedral angle
| 24> end
| 25> end
| 26>
| 27>
| 28> #%pal
| 29> #nprocs 8
| 30> #end
| 31>
| 32> * xyz 0 1
| 33> C  -21.048   26.222   46.251
| 34> C  -20.361   27.558   45.944
| 35> C  -20.329   28.222   47.341
| 36> C  -20.110   27.022   48.296
| 37> O  -20.473   25.807   47.535
| 38> H  -20.833   25.428   45.533
| 39> H  -19.344   27.382   45.576
| 40> H  -20.898   28.157   45.201
| 41> H  -19.543   28.978   47.434
| 42> H  -21.289   28.710   47.548
| 43> H  -20.733   27.082   49.195
| 44> H  -19.064   26.913   48.597
| 45> C  -23.049   27.675   47.122
| 46> H  -24.002   27.474   47.628
| 47> H  -22.311   27.964   47.881
| 48> O  -22.586   26.394   46.375
| 49> C  -23.248   28.886   46.170
| 50> C  -23.592   30.159   46.952
| 51> C  -22.200   30.595   47.468
| 52> C  -21.254   30.192   46.309
| 53> O  -21.993   29.212   45.485
| 54> H  -23.974   28.620   45.399
| 55> H  -24.009   30.915   46.278
| 56> O  -24.609   29.913   48.100
| 57> H  -22.148   31.665   47.696
| 58> H  -21.947   30.045   48.382
| 59> H  -20.325   29.732   46.667
| 60> H  -21.004   31.037   45.661
| 61> H  -24.213   29.159   48.790
| 62> *
| 63>
| 64>                          ****END OF INPUT****
 Total Charge           Charge          ....    0
 Multiplicity           Mult            ....    1
 Number of Electrons    NEL             ....  102
FINAL SINGLE POINT ENERGY      -652.696314608067
FINAL SINGLE POINT ENERGY      -652.808321799485
FINAL SINGLE POINT ENERGY      -652.834353069944
FINAL SINGLE POINT ENERGY      -652.843976287311
FINAL SINGLE POINT ENERGY      -652.845741360976
FINAL SINGLE POINT ENERGY      -652.846431339244
FINAL SINGLE POINT ENERGY      -652.846599821474
FINAL SINGLE POINT ENERGY      -652.846668639018
FINAL SINGLE POINT ENERGY      -652.846689278461
FINAL SINGLE POINT ENERGY      -652.846694924273
                    ***********************HURRAY********************

CARTESIAN COORDINATES (ANGSTROEM)
---------------------------------
  C    -21.132514   26.178579   46.370050
  C    -20.070160   27.185506   45.914327
  C    -19.648327   27.840740   47.257585
  C    -19.747661   26.657342   48.254032
  O    -20.590860   25.636202   47.599333
  H    -21.231740   25.329826   45.692686
  H    -19.235432   26.623575   45.480862
  H    -20.451104   27.907730   45.193301
  H    -18.642399   28.270345   47.224802
  H    -20.347593   28.631971   47.527459
  H    -20.199906   26.935940   49.211774
  H    -18.774932   26.194118   48.446835
  C    -23.070457   27.753765   47.141706
  H    -24.083164   27.453853   47.423874
  H    -22.513969   27.981832   48.065735
  O    -22.513294   26.584604   46.488621
  C    -23.209513   28.991745   46.239444
  C    -23.881373   30.206019   46.908556
  C    -22.652727   30.967383   47.496666
  C    -21.556695   30.715765   46.438332
  O    -22.006810   29.546404   45.629481
  H    -23.804802   28.655117   45.382199
  H    -24.372876   30.811950   46.145147
  O    -24.927452   29.901285   47.860020
  H    -22.857631   32.029189   47.653913
  H    -22.382024   30.526077   48.465493
  H    -20.577194   30.505014   46.872092
  H    -21.458477   31.553336   45.741429
  H    -24.547914   29.542789   48.688246

 Multiplicity           Mult            ....    1
 Number of Electrons    NEL             ....  102
 Basis Dimension        Dim             ....  149

ORBITAL ENERGIES
----------------

  NO   OCC          E(Eh)            E(eV)
   0   2.0000     -19.156511      -521.2752
   1   2.0000     -19.153683      -521.1982
   2   2.0000     -19.135988      -520.7167
   3   2.0000     -19.134188      -520.6677
   4   2.0000     -10.272503      -279.5290
   5   2.0000     -10.253055      -278.9998
   6   2.0000     -10.240879      -278.6685
   7   2.0000     -10.236598      -278.5520
   8   2.0000     -10.236162      -278.5401
   9   2.0000     -10.224024      -278.2098
  10   2.0000     -10.204257      -277.6720
  11   2.0000     -10.186489      -277.1884
  12   2.0000     -10.175232      -276.8821
  13   2.0000      -1.046129       -28.4666
  14   2.0000      -1.039848       -28.2957
  15   2.0000      -1.025594       -27.9078
  16   2.0000      -0.989112       -26.9151
  17   2.0000      -0.791484       -21.5374
  18   2.0000      -0.781591       -21.2682
  19   2.0000      -0.775065       -21.0906
  20   2.0000      -0.733903       -19.9705
  21   2.0000      -0.686122       -18.6703
  22   2.0000      -0.621112       -16.9013
  23   2.0000      -0.604410       -16.4468
  24   2.0000      -0.597177       -16.2500
  25   2.0000      -0.567343       -15.4382
  26   2.0000      -0.529809       -14.4168
  27   2.0000      -0.517863       -14.0918
  28   2.0000      -0.502305       -13.6684
  29   2.0000      -0.486086       -13.2271
  30   2.0000      -0.468090       -12.7374
  31   2.0000      -0.463378       -12.6092
  32   2.0000      -0.448477       -12.2037
  33   2.0000      -0.439717       -11.9653
  34   2.0000      -0.435235       -11.8433
  35   2.0000      -0.418951       -11.4002
  36   2.0000      -0.409218       -11.1354
  37   2.0000      -0.404511       -11.0073
  38   2.0000      -0.388957       -10.5841
  39   2.0000      -0.372972       -10.1491
  40   2.0000      -0.362286        -9.8583
  41   2.0000      -0.353651        -9.6233
  42   2.0000      -0.342260        -9.3134
  43   2.0000      -0.336008        -9.1432
  44   2.0000      -0.323632        -8.8065
  45   2.0000      -0.309140        -8.4121
  46   2.0000      -0.291500        -7.9321
  47   2.0000      -0.277529        -7.5519
  48   2.0000      -0.273928        -7.4540
  49   2.0000      -0.253097        -6.8871
  50   2.0000      -0.238962        -6.5025
  51   0.0000       0.043402         1.1810
  52   0.0000       0.059373         1.6156
  53   0.0000       0.081167         2.2087
  54   0.0000       0.090995         2.4761
  55   0.0000       0.096887         2.6364

MULLIKEN ATOMIC CHARGES
-----------------------
   0 C :    0.307556
   1 C :   -0.282546
   2 C :   -0.318610
   3 C :   -0.007569
   4 O :   -0.506026
   5 H :    0.166197
   6 H :    0.143129
   7 H :    0.191746
   8 H :    0.138299
   9 H :    0.142992
  10 H :    0.133583
  11 H :    0.143872
  12 C :   -0.017716
  13 H :    0.167913
  14 H :    0.109757
  15 O :   -0.529919
  16 C :    0.098072
  17 C :    0.076323
  18 C :   -0.320689
  19 C :   -0.018050
  20 O :   -0.518259
  21 H :    0.167416
  22 H :    0.174518
  23 O :   -0.595544
  24 H :    0.162993
  25 H :    0.132742
  26 H :    0.144422
  27 H :    0.155283
  28 H :    0.358116
Sum of atomic charges:   -0.0000000

LOEWDIN ATOMIC CHARGES
----------------------
   0 C :    0.183002
   1 C :   -0.234219
   2 C :   -0.223256
   3 C :   -0.034895
   4 O :   -0.322322
   5 H :    0.114311
   6 H :    0.115456
   7 H :    0.138505
   8 H :    0.113495
   9 H :    0.104527
  10 H :    0.095901
  11 H :    0.102163
  12 C :   -0.044615
  13 H :    0.124502
  14 H :    0.082859
  15 O :   -0.322711
  16 C :    0.006113
  17 C :    0.035783
  18 C :   -0.240987
  19 C :   -0.034100
  20 O :   -0.316190
  21 H :    0.118880
  22 H :    0.121930
  23 O :   -0.403524
  24 H :    0.125628
  25 H :    0.103897
  26 H :    0.101694
  27 H :    0.108698
  28 H :    0.279476

  Mayer bond orders larger than 0.100000
B(  0-C ,  1-C ) :   0.9239 B(  0-C ,  4-O ) :   0.8995 B(  0-C ,  5-H ) :   0.9357
B(  0-C , 15-O ) :   0.8859 B(  1-C ,  2-C ) :   0.9591 B(  1-C ,  6-H ) :   0.9315
B(  1-C ,  7-H ) :   0.9094 B(  2-C ,  3-C ) :   0.9447 B(  2-C ,  8-H ) :   0.9466
B(  2-C ,  9-H ) :   0.9315 B(  3-C ,  4-O ) :   0.8506 B(  3-C , 10-H ) :   0.9351
B(  3-C , 11-H ) :   0.9387 B( 12-C , 13-H ) :   0.9172 B( 12-C , 14-H ) :   0.9203
B( 12-C , 15-O ) :   0.8570 B( 12-C , 16-C ) :   0.8900 B( 16-C , 17-C ) :   0.8651
B( 16-C , 20-O ) :   0.8527 B( 16-C , 21-H ) :   0.9278 B( 17-C , 18-C ) :   0.9244
B( 17-C , 22-H ) :   0.9320 B( 17-C , 23-O ) :   0.9027 B( 18-C , 19-C ) :   0.9414
B( 18-C , 24-H ) :   0.9405 B( 18-C , 25-H ) :   0.9409 B( 19-C , 20-O ) :   0.8371
B( 19-C , 26-H ) :   0.9198 B( 19-C , 27-H ) :   0.9381 B( 23-O , 28-H ) :   0.7971

FINAL SINGLE POINT ENERGY      -652.846695647079

DIPOLE MOMENT
-------------
                                X             Y             Z
Electronic contribution:     -4.40288      -4.00762      -1.91084
Nuclear contribution   :      5.25632       5.48692       2.51931
                        -----------------------------------------
Total Dipole Moment    :      0.85344       1.47930       0.60847
                        -----------------------------------------
Magnitude (a.u.)       :      1.81299
Magnitude (Debye)      :      4.60826

Rotational constants in cm-1:     0.045642     0.017140     0.015311
Rotational constants in MHz :  1368.308251   513.848487   459.002126

                             ****ORCA TERMINATED NORMALLY****
TOTAL RUN TIME: 0 days 0 hours 37 minutes 42 seconds 433 msec
