                         Program Version 4.2.0 -  RELEASE  -
|  1> # Test redundant internal optimization
|  2> #
|  3> ! RKS B3LYP  Opt TightSCF SmallPrint
|  4>
|  5> %basis
|  6>         Basis "6-31G"
|  7> end
|  8>
|  9> %geom
| 10> Constraints
| 11> { D 4  0  15  12  30.0   C } # D for Dihedral angle
| 12> { D 0  15  12  16  210.0   C } # D for Dihedral angle
| 13> { D 0  4  3  2   C } # D for Dihedral angle
| 14> { D 4  3  2  1   C } # D for Dihedral angle
| 15> { D 3  2  1  0   C } # D for Dihedral angle
| 16> { D 2  1  0  4   C } # D for Dihedral angle
| 17> { D 1  0  4  3   C } # D for Dihedral angle
| 18> { D 16  20  19  18   C } # D for Dihedral angle
| 19> { D 20  19  18  17   C } # D for Dihedral angle
| 20> { D 19  18  17  16   C } # D for Dihedral angle
| 21> { D 18  17  16  20   C } # D for Dihedral angle
| 22> { D 17  16  20  19   C } # D for Dihedral angle
| 23> { D 15  12  16  20   C } # D for Dihedral angle
| 24> end
| 25> end
| 26>
| 27>
| 28> #%pal
| 29> #nprocs 8
| 30> #end
| 31>
| 32> * xyz 0 1
| 33> C  -21.048   26.222   46.251
| 34> C  -20.361   27.558   45.944
| 35> C  -20.329   28.222   47.341
| 36> C  -20.110   27.022   48.296
| 37> O  -20.473   25.807   47.535
| 38> H  -20.833   25.428   45.533
| 39> H  -19.344   27.382   45.576
| 40> H  -20.898   28.157   45.201
| 41> H  -19.543   28.978   47.434
| 42> H  -21.289   28.710   47.548
| 43> H  -20.733   27.082   49.195
| 44> H  -19.064   26.913   48.597
| 45> C  -23.091   26.824   47.779
| 46> H  -22.404   26.441   48.544
| 47> H  -23.118   27.918   47.860
| 48> O  -22.586   26.394   46.375
| 49> C  -24.517   26.292   48.093
| 50> C  -24.536   24.761   48.171
| 51> C  -23.963   24.512   49.586
| 52> C  -24.525   25.701   50.407
| 53> O  -24.944   26.726   49.428
| 54> H  -25.223   26.718   47.378
| 55> O  -25.996   24.241   48.069
| 56> H  -23.944   24.283   47.382
| 57> H  -24.260   23.543   49.999
| 58> H  -22.868   24.543   49.560
| 59> H  -23.779   26.133   51.082
| 60> H  -25.410   25.426   50.986
| 61> H  -26.608   24.707   48.851
| 62> *
| 63>
| 64>                          ****END OF INPUT****
 Total Charge           Charge          ....    0
 Multiplicity           Mult            ....    1
 Number of Electrons    NEL             ....  102
FINAL SINGLE POINT ENERGY      -652.831154108995
FINAL SINGLE POINT ENERGY      -652.855033415892
FINAL SINGLE POINT ENERGY      -652.859194226488
FINAL SINGLE POINT ENERGY      -652.861913515793
FINAL SINGLE POINT ENERGY      -652.862102024023
FINAL SINGLE POINT ENERGY      -652.862144364571
FINAL SINGLE POINT ENERGY      -652.862149438627
                    ***********************HURRAY********************

CARTESIAN COORDINATES (ANGSTROEM)
---------------------------------
  C    -21.174171   26.272514   46.426882
  C    -20.471040   27.535952   45.918773
  C    -20.158525   28.283043   47.242898
  C    -19.852416   27.129069   48.226145
  O    -20.423637   25.902161   47.604997
  H    -21.111047   25.429681   45.736947
  H    -19.546978   27.248512   45.404602
  H    -21.098457   28.109075   45.232735
  H    -19.314374   28.972706   47.147146
  H    -21.027928   28.862788   47.569168
  H    -20.300260   27.269715   49.213904
  H    -18.780074   26.947135   48.341639
  C    -23.105884   26.869181   47.936977
  H    -22.435720   26.533040   48.733629
  H    -23.193274   27.961840   47.979200
  O    -22.601753   26.432539   46.642227
  C    -24.491683   26.250021   48.118079
  C    -24.510652   24.715709   48.175272
  C    -24.059894   24.452136   49.633813
  C    -24.693694   25.626399   50.419313
  O    -25.034355   26.668680   49.417045
  H    -25.171947   26.620225   47.346283
  O    -25.850909   24.207462   47.923426
  H    -23.872262   24.253817   47.425215
  H    -24.409467   23.475042   49.975406
  H    -22.966093   24.468668   49.699201
  H    -24.016677   26.057423   51.163787
  H    -25.625978   25.344658   50.918341
  H    -26.497849   24.744808   48.427949

 Multiplicity           Mult            ....    1
 Number of Electrons    NEL             ....  102
 Basis Dimension        Dim             ....  149

ORBITAL ENERGIES
----------------

  NO   OCC          E(Eh)            E(eV)
   0   2.0000     -19.154722      -521.2265
   1   2.0000     -19.144756      -520.9553
   2   2.0000     -19.142261      -520.8874
   3   2.0000     -19.130730      -520.5736
   4   2.0000     -10.283317      -279.8233
   5   2.0000     -10.237471      -278.5758
   6   2.0000     -10.230599      -278.3888
   7   2.0000     -10.229285      -278.3530
   8   2.0000     -10.229238      -278.3517
   9   2.0000     -10.229005      -278.3454
  10   2.0000     -10.196688      -277.4660
  11   2.0000     -10.190383      -277.2944
  12   2.0000     -10.182889      -277.0905
  13   2.0000      -1.059154       -28.8211
  14   2.0000      -1.032515       -28.0962
  15   2.0000      -1.001050       -27.2400
  16   2.0000      -0.997656       -27.1476
  17   2.0000      -0.794216       -21.6117
  18   2.0000      -0.778307       -21.1788
  19   2.0000      -0.767991       -20.8981
  20   2.0000      -0.734485       -19.9864
  21   2.0000      -0.675042       -18.3688
  22   2.0000      -0.608633       -16.5617
  23   2.0000      -0.600250       -16.3336
  24   2.0000      -0.595135       -16.1945
  25   2.0000      -0.576223       -15.6798
  26   2.0000      -0.520535       -14.1645
  27   2.0000      -0.516515       -14.0551
  28   2.0000      -0.505270       -13.7491
  29   2.0000      -0.488174       -13.2839
  30   2.0000      -0.473317       -12.8796
  31   2.0000      -0.461053       -12.5459
  32   2.0000      -0.451194       -12.2776
  33   2.0000      -0.436001       -11.8642
  34   2.0000      -0.420665       -11.4469
  35   2.0000      -0.414978       -11.2921
  36   2.0000      -0.407679       -11.0935
  37   2.0000      -0.388487       -10.5713
  38   2.0000      -0.381524       -10.3818
  39   2.0000      -0.365546        -9.9470
  40   2.0000      -0.363755        -9.8983
  41   2.0000      -0.357436        -9.7263
  42   2.0000      -0.353542        -9.6204
  43   2.0000      -0.330152        -8.9839
  44   2.0000      -0.327362        -8.9080
  45   2.0000      -0.313835        -8.5399
  46   2.0000      -0.302423        -8.2294
  47   2.0000      -0.272370        -7.4116
  48   2.0000      -0.264748        -7.2042
  49   2.0000      -0.256625        -6.9831
  50   2.0000      -0.241779        -6.5791
  51   0.0000       0.067202         1.8287
  52   0.0000       0.068227         1.8565
  53   0.0000       0.092022         2.5041
  54   0.0000       0.095818         2.6073
  55   0.0000       0.101482         2.7615

MULLIKEN ATOMIC CHARGES
-----------------------
   0 C :    0.297678
   1 C :   -0.259513
   2 C :   -0.314541
   3 C :   -0.021193
   4 O :   -0.512123
   5 H :    0.164952
   6 H :    0.148822
   7 H :    0.159277
   8 H :    0.149859
   9 H :    0.155972
  10 H :    0.144266
  11 H :    0.153946
  12 C :   -0.014618
  13 H :    0.149705
  14 H :    0.144408
  15 O :   -0.534139
  16 C :    0.054259
  17 C :    0.096091
  18 C :   -0.305064
  19 C :   -0.033548
  20 O :   -0.528137
  21 H :    0.166134
  22 O :   -0.603837
  23 H :    0.173905
  24 H :    0.157386
  25 H :    0.159418
  26 H :    0.143225
  27 H :    0.146662
  28 H :    0.360749
Sum of atomic charges:   -0.0000000

LOEWDIN ATOMIC CHARGES
----------------------
   0 C :    0.179593
   1 C :   -0.225318
   2 C :   -0.222103
   3 C :   -0.034723
   4 O :   -0.321082
   5 H :    0.111879
   6 H :    0.116940
   7 H :    0.124576
   8 H :    0.118594
   9 H :    0.113569
  10 H :    0.101404
  11 H :    0.108011
  12 C :   -0.044678
  13 H :    0.104541
  14 H :    0.100619
  15 O :   -0.333491
  16 C :    0.017545
  17 C :    0.039857
  18 C :   -0.243094
  19 C :   -0.039331
  20 O :   -0.332610
  21 H :    0.118167
  22 O :   -0.415387
  23 H :    0.127006
  24 H :    0.125229
  25 H :    0.119471
  26 H :    0.102033
  27 H :    0.102505
  28 H :    0.280279

  Mayer bond orders larger than 0.100000
B(  0-C ,  1-C ) :   0.9189 B(  0-C ,  4-O ) :   0.9083 B(  0-C ,  5-H ) :   0.9338
B(  0-C , 15-O ) :   0.8665 B(  1-C ,  2-C ) :   0.9545 B(  1-C ,  6-H ) :   0.9345
B(  1-C ,  7-H ) :   0.9367 B(  2-C ,  3-C ) :   0.9498 B(  2-C ,  8-H ) :   0.9444
B(  2-C ,  9-H ) :   0.9425 B(  3-C ,  4-O ) :   0.8327 B(  3-C , 10-H ) :   0.9317
B(  3-C , 11-H ) :   0.9400 B( 12-C , 13-H ) :   0.9079 B( 12-C , 14-H ) :   0.9155
B( 12-C , 15-O ) :   0.8253 B( 12-C , 16-C ) :   0.9027 B( 16-C , 17-C ) :   0.9119
B( 16-C , 20-O ) :   0.8442 B( 16-C , 21-H ) :   0.9257 B( 17-C , 18-C ) :   0.9131
B( 17-C , 22-O ) :   0.8884 B( 17-C , 23-H ) :   0.9240 B( 18-C , 19-C ) :   0.9402
B( 18-C , 24-H ) :   0.9390 B( 18-C , 25-H ) :   0.9314 B( 19-C , 20-O ) :   0.8437
B( 19-C , 26-H ) :   0.9360 B( 19-C , 27-H ) :   0.9383 B( 22-O , 28-H ) :   0.7968

FINAL SINGLE POINT ENERGY      -652.862150034359

DIPOLE MOMENT
-------------
                                X             Y             Z
Electronic contribution:     -4.39493      -2.56553      -1.90509
Nuclear contribution   :      5.51038       3.38668       2.41284
                        -----------------------------------------
Total Dipole Moment    :      1.11545       0.82115       0.50774
                        -----------------------------------------
Magnitude (a.u.)       :      1.47524
Magnitude (Debye)      :      3.74975

Rotational constants in cm-1:     0.054277     0.013892     0.013237
Rotational constants in MHz :  1627.176113   416.476368   396.840656

                             ****ORCA TERMINATED NORMALLY****
TOTAL RUN TIME: 0 days 0 hours 35 minutes 45 seconds 855 msec
