                         Program Version 4.2.1 -  RELEASE  -
|  1> # Test redundant internal optimization
|  2> #
|  3> ! RKS B3LYP  Opt TightSCF SmallPrint
|  4>
|  5> %basis
|  6>         Basis "6-31G"
|  7> end
|  8>
|  9> %geom
| 10> Constraints
| 11> { D 4  0  19  14  210.0   C } # D for Dihedral angle
| 12> { D 0  19  14  12  0.0   C } # D for Dihedral angle
| 13> { D 0  4  3  2   C } # D for Dihedral angle
| 14> { D 4  3  2  1   C } # D for Dihedral angle
| 15> { D 3  2  1  0   C } # D for Dihedral angle
| 16> { D 2  1  0  4   C } # D for Dihedral angle
| 17> { D 1  0  4  3   C } # D for Dihedral angle
| 18> { D 14  15  16  17   C } # D for Dihedral angle
| 19> { D 15  16  17  12   C } # D for Dihedral angle
| 20> { D 16  17  12  14   C } # D for Dihedral angle
| 21> { D 17  12  14  15   C } # D for Dihedral angle
| 22> { D 12  14  15  16   C } # D for Dihedral angle
| 23> end
| 24> end
| 25>
| 26>
| 27> #%pal
| 28> #nprocs 8
| 29> #end
| 30>
| 31> * xyz 0 1
| 32> C  -21.048   26.222   46.251
| 33> C  -20.361   27.558   45.944
| 34> C  -20.329   28.222   47.341
| 35> C  -20.110   27.022   48.296
| 36> O  -20.473   25.807   47.535
| 37> H  -20.833   25.428   45.533
| 38> H  -19.344   27.382   45.576
| 39> H  -20.898   28.157   45.201
| 40> H  -19.543   28.978   47.434
| 41> H  -21.289   28.710   47.548
| 42> H  -20.733   27.082   49.195
| 43> H  -19.064   26.913   48.597
| 44> C  -22.226   25.721   44.036
| 45> H  -22.704   25.794   43.046
| 46> C  -23.197   26.114   45.155
| 47> C  -24.048   24.831   45.299
| 48> C  -23.026   23.699   45.024
| 49> O  -21.878   24.327   44.334
| 50> H  -21.294   26.288   44.026
| 51> O  -22.472   26.381   46.366
| 52> H  -23.799   26.997   44.911
| 53> H  -24.517   24.740   46.283
| 54> H  -24.846   24.820   44.546
| 55> H  -23.436   22.906   44.389
| 56> H  -22.641   23.251   45.946
| 57> *
| 58>
| 59>                          ****END OF INPUT****
 Total Charge           Charge          ....    0
 Multiplicity           Mult            ....    1
 Number of Electrons    NEL             ....   86
FINAL SINGLE POINT ENERGY      -538.413927543326
FINAL SINGLE POINT ENERGY      -538.427320225671
FINAL SINGLE POINT ENERGY      -538.428913990604
FINAL SINGLE POINT ENERGY      -538.429298163317
FINAL SINGLE POINT ENERGY      -538.429351792568
FINAL SINGLE POINT ENERGY      -538.429367835981
FINAL SINGLE POINT ENERGY      -538.429369634905
                    ***********************HURRAY********************

CARTESIAN COORDINATES (ANGSTROEM)
---------------------------------
  C    -20.865887   26.220901   46.247807
  C    -20.201071   27.576346   46.011668
  C    -20.357945   28.256295   47.393991
  C    -20.207952   27.074104   48.375491
  O    -20.438372   25.848885   47.569057
  H    -20.576014   25.412132   45.575266
  H    -19.142194   27.425474   45.768290
  H    -20.667781   28.144107   45.201941
  H    -19.614552   29.040430   47.565498
  H    -21.355636   28.697629   47.474059
  H    -20.934514   27.098314   49.192009
  H    -19.198688   26.991432   48.790425
  C    -22.382924   25.657905   43.841734
  H    -23.037483   25.751703   42.963193
  C    -23.142111   26.087458   45.098929
  C    -23.995643   24.836730   45.388794
  C    -23.079304   23.666514   44.963491
  O    -22.033962   24.255904   44.084731
  H    -21.456357   26.201061   43.648125
  O    -22.319575   26.357514   46.281696
  H    -23.749732   26.982566   44.929694
  H    -24.269380   24.803824   46.444893
  H    -24.911976   24.859110   44.787324
  H    -23.610831   22.890533   44.403351
  H    -22.559115   23.213128   45.810544

 Multiplicity           Mult            ....    1
 Number of Electrons    NEL             ....   86
 Basis Dimension        Dim             ....  127

ORBITAL ENERGIES
----------------

  NO   OCC          E(Eh)            E(eV)
   0   2.0000     -19.139034      -520.7996
   1   2.0000     -19.133108      -520.6384
   2   2.0000     -19.132074      -520.6102
   3   2.0000     -10.269993      -279.4607
   4   2.0000     -10.242587      -278.7150
   5   2.0000     -10.232320      -278.4356
   6   2.0000     -10.223319      -278.1907
   7   2.0000     -10.219297      -278.0812
   8   2.0000     -10.183232      -277.0998
   9   2.0000     -10.181496      -277.0526
  10   2.0000     -10.181378      -277.0494
  11   2.0000      -1.045864       -28.4594
  12   2.0000      -1.019407       -27.7395
  13   2.0000      -0.982651       -26.7393
  14   2.0000      -0.787093       -21.4179
  15   2.0000      -0.775935       -21.1143
  16   2.0000      -0.740807       -20.1584
  17   2.0000      -0.722633       -19.6638
  18   2.0000      -0.617652       -16.8072
  19   2.0000      -0.600276       -16.3343
  20   2.0000      -0.591856       -16.1052
  21   2.0000      -0.562549       -15.3077
  22   2.0000      -0.523595       -14.2478
  23   2.0000      -0.501291       -13.6408
  24   2.0000      -0.482217       -13.1218
  25   2.0000      -0.480311       -13.0699
  26   2.0000      -0.451706       -12.2916
  27   2.0000      -0.447982       -12.1902
  28   2.0000      -0.423399       -11.5213
  29   2.0000      -0.414330       -11.2745
  30   2.0000      -0.400201       -10.8900
  31   2.0000      -0.384895       -10.4735
  32   2.0000      -0.372369       -10.1327
  33   2.0000      -0.367601       -10.0029
  34   2.0000      -0.359182        -9.7738
  35   2.0000      -0.352011        -9.5787
  36   2.0000      -0.345968        -9.4143
  37   2.0000      -0.318097        -8.6558
  38   2.0000      -0.306120        -8.3299
  39   2.0000      -0.294978        -8.0268
  40   2.0000      -0.255896        -6.9633
  41   2.0000      -0.243576        -6.6280
  42   2.0000      -0.241249        -6.5647
  43   0.0000       0.078394         2.1332
  44   0.0000       0.096760         2.6330
  45   0.0000       0.098240         2.6732
  46   0.0000       0.107668         2.9298
  47   0.0000       0.118632         3.2282

MULLIKEN ATOMIC CHARGES
-----------------------
   0 C :    0.277016
   1 C :   -0.259932
   2 C :   -0.299143
   3 C :   -0.000811
   4 O :   -0.507555
   5 H :    0.180391
   6 H :    0.143517
   7 H :    0.135465
   8 H :    0.138910
   9 H :    0.159044
  10 H :    0.150318
  11 H :    0.139312
  12 C :   -0.046413
  13 H :    0.137437
  14 C :    0.088175
  15 C :   -0.280240
  16 C :   -0.014024
  17 O :   -0.520967
  18 H :    0.157803
  19 O :   -0.529590
  20 H :    0.139627
  21 H :    0.171741
  22 H :    0.135260
  23 H :    0.140191
  24 H :    0.164471
Sum of atomic charges:    0.0000000

LOEWDIN ATOMIC CHARGES
----------------------
   0 C :    0.172019
   1 C :   -0.228872
   2 C :   -0.217063
   3 C :   -0.026382
   4 O :   -0.306547
   5 H :    0.115318
   6 H :    0.112916
   7 H :    0.110485
   8 H :    0.112738
   9 H :    0.117688
  10 H :    0.107014
  11 H :    0.100879
  12 C :   -0.055780
  13 H :    0.101080
  14 C :    0.043065
  15 C :   -0.228110
  16 C :   -0.031319
  17 O :   -0.334740
  18 H :    0.112943
  19 O :   -0.338965
  20 H :    0.105276
  21 H :    0.132297
  22 H :    0.108983
  23 H :    0.101750
  24 H :    0.113327

  Mayer bond orders larger than 0.100000
B(  0-C ,  1-C ) :   0.9305 B(  0-C ,  4-O ) :   0.9189 B(  0-C ,  5-H ) :   0.8969
B(  0-C , 19-O ) :   0.8186 B(  1-C ,  2-C ) :   0.9525 B(  1-C ,  6-H ) :   0.9348
B(  1-C ,  7-H ) :   0.9388 B(  2-C ,  3-C ) :   0.9555 B(  2-C ,  8-H ) :   0.9453
B(  2-C ,  9-H ) :   0.9442 B(  3-C ,  4-O ) :   0.8402 B(  3-C , 10-H ) :   0.9349
B(  3-C , 11-H ) :   0.9399 B( 12-C , 13-H ) :   0.9152 B( 12-C , 14-C ) :   0.9242
B( 12-C , 17-O ) :   0.8553 B( 12-C , 18-H ) :   0.9268 B( 14-C , 15-C ) :   0.9342
B( 14-C , 19-O ) :   0.8561 B( 14-C , 20-H ) :   0.9284 B( 15-C , 16-C ) :   0.9494
B( 15-C , 21-H ) :   0.9352 B( 15-C , 22-H ) :   0.9374 B( 16-C , 17-O ) :   0.8387
B( 16-C , 23-H ) :   0.9352 B( 16-C , 24-H ) :   0.9348

FINAL SINGLE POINT ENERGY      -538.429370130660

DIPOLE MOMENT
-------------
                                X             Y             Z
Electronic contribution:      0.40398      -2.73261       0.09914
Nuclear contribution   :     -0.86987       3.64915      -0.47112
                        -----------------------------------------
Total Dipole Moment    :     -0.46589       0.91654      -0.37198
                        -----------------------------------------
Magnitude (a.u.)       :      1.09337
Magnitude (Debye)      :      2.77913

Rotational constants in cm-1:     0.080720     0.021948     0.021201
Rotational constants in MHz :  2419.933358   657.972242   635.576800

                             ****ORCA TERMINATED NORMALLY****
TOTAL RUN TIME: 0 days 0 hours 8 minutes 4 seconds 575 msec
