                         Program Version 4.2.0 -  RELEASE  -
|  1> # Test redundant internal optimization
|  2> #
|  3> ! RKS B3LYP  Opt TightSCF SmallPrint
|  4>
|  5> %basis
|  6>         Basis "6-31G"
|  7> end
|  8>
|  9> %geom
| 10> Constraints
| 11> { D 4  0  15  12  330.0   C } # D for Dihedral angle
| 12> { D 0  15  12  16  105.0   C } # D for Dihedral angle
| 13> { D 0  4  3  2   C } # D for Dihedral angle
| 14> { D 4  3  2  1   C } # D for Dihedral angle
| 15> { D 3  2  1  0   C } # D for Dihedral angle
| 16> { D 2  1  0  4   C } # D for Dihedral angle
| 17> { D 1  0  4  3   C } # D for Dihedral angle
| 18> { D 16  20  19  18   C } # D for Dihedral angle
| 19> { D 20  19  18  17   C } # D for Dihedral angle
| 20> { D 19  18  17  16   C } # D for Dihedral angle
| 21> { D 18  17  16  20   C } # D for Dihedral angle
| 22> { D 17  16  20  19   C } # D for Dihedral angle
| 23> { D 15  12  16  20   C } # D for Dihedral angle
| 24> end
| 25> end
| 26>
| 27>
| 28> #%pal
| 29> #nprocs 8
| 30> #end
| 31>
| 32> * xyz 0 1
| 33> C  -21.048   26.222   46.251
| 34> C  -20.361   27.558   45.944
| 35> C  -20.329   28.222   47.341
| 36> C  -20.110   27.022   48.296
| 37> O  -20.473   25.807   47.535
| 38> H  -20.833   25.428   45.533
| 39> H  -19.344   27.382   45.576
| 40> H  -20.898   28.157   45.201
| 41> H  -19.543   28.978   47.434
| 42> H  -21.289   28.710   47.548
| 43> H  -20.733   27.082   49.195
| 44> H  -19.064   26.913   48.597
| 45> C  -23.271   25.476   47.424
| 46> H  -24.174   25.035   46.984
| 47> H  -22.598   24.659   47.717
| 48> O  -22.586   26.394   46.375
| 49> C  -23.678   26.238   48.715
| 50> C  -24.751   27.293   48.423
| 51> C  -26.031   26.427   48.347
| 52> C  -25.774   25.326   49.407
| 53> O  -24.319   25.326   49.668
| 54> H  -22.780   26.628   49.199
| 55> H  -24.815   28.004   49.255
| 56> O  -24.484   28.091   47.117
| 57> H  -26.942   26.997   48.549
| 58> H  -26.127   25.986   47.347
| 59> H  -26.076   24.333   49.062
| 60> H  -26.272   25.538   50.357
| 61> H  -24.416   27.398   46.271
| 62> *
| 63>
| 64>                          ****END OF INPUT****
 Total Charge           Charge          ....    0
 Multiplicity           Mult            ....    1
 Number of Electrons    NEL             ....  102
FINAL SINGLE POINT ENERGY      -652.835007581241
FINAL SINGLE POINT ENERGY      -652.859340776674
FINAL SINGLE POINT ENERGY      -652.865659718774
FINAL SINGLE POINT ENERGY      -652.867769993691
FINAL SINGLE POINT ENERGY      -652.868834528615
FINAL SINGLE POINT ENERGY      -652.869311574079
FINAL SINGLE POINT ENERGY      -652.869420352493
FINAL SINGLE POINT ENERGY      -652.869443767277
FINAL SINGLE POINT ENERGY      -652.869444921308
                    ***********************HURRAY********************

CARTESIAN COORDINATES (ANGSTROEM)
---------------------------------
  C    -21.082064   26.158622   46.317247
  C    -20.554502   27.549166   45.968380
  C    -20.496065   28.221010   47.358000
  C    -20.098519   27.064733   48.298709
  O    -20.400335   25.811510   47.537789
  H    -20.841341   25.365945   45.603890
  H    -19.555416   27.448506   45.529821
  H    -21.199517   28.076003   45.261665
  H    -19.780449   29.047700   47.394159
  H    -21.485924   28.613127   47.613189
  H    -20.653906   27.050308   49.238691
  H    -19.027077   27.036435   48.514453
  C    -23.213217   25.367781   47.434380
  H    -24.070302   24.929892   46.914599
  H    -22.546741   24.569694   47.770080
  O    -22.533718   26.225057   46.449189
  C    -23.655456   26.193082   48.647251
  C    -24.687048   27.293163   48.350892
  C    -26.006904   26.475937   48.284581
  C    -25.796873   25.375782   49.344844
  O    -24.326395   25.315268   49.605654
  H    -22.773437   26.583615   49.159473
  H    -24.729172   27.979003   49.203944
  O    -24.408433   28.100228   47.186666
  H    -26.881446   27.099518   48.488084
  H    -26.121909   26.059531   47.277648
  H    -26.136893   24.388346   49.018711
  H    -26.272357   25.614455   50.300843
  H    -23.783585   27.616585   46.595171

 Multiplicity           Mult            ....    1
 Number of Electrons    NEL             ....  102
 Basis Dimension        Dim             ....  149

ORBITAL ENERGIES
----------------

  NO   OCC          E(Eh)            E(eV)
   0   2.0000     -19.159905      -521.3675
   1   2.0000     -19.157647      -521.3061
   2   2.0000     -19.139335      -520.8078
   3   2.0000     -19.119619      -520.2713
   4   2.0000     -10.290851      -280.0283
   5   2.0000     -10.236222      -278.5418
   6   2.0000     -10.232993      -278.4539
   7   2.0000     -10.231706      -278.4189
   8   2.0000     -10.231417      -278.4110
   9   2.0000     -10.226524      -278.2779
  10   2.0000     -10.194062      -277.3945
  11   2.0000     -10.192688      -277.3571
  12   2.0000     -10.180153      -277.0160
  13   2.0000      -1.065380       -28.9905
  14   2.0000      -1.024806       -27.8864
  15   2.0000      -1.005626       -27.3645
  16   2.0000      -0.994569       -27.0636
  17   2.0000      -0.798060       -21.7163
  18   2.0000      -0.773668       -21.0526
  19   2.0000      -0.768498       -20.9119
  20   2.0000      -0.736266       -20.0348
  21   2.0000      -0.678989       -18.4762
  22   2.0000      -0.608418       -16.5559
  23   2.0000      -0.598548       -16.2873
  24   2.0000      -0.596574       -16.2336
  25   2.0000      -0.580194       -15.7879
  26   2.0000      -0.529381       -14.4052
  27   2.0000      -0.516390       -14.0517
  28   2.0000      -0.502370       -13.6702
  29   2.0000      -0.486491       -13.2381
  30   2.0000      -0.476920       -12.9777
  31   2.0000      -0.460345       -12.5266
  32   2.0000      -0.445664       -12.1271
  33   2.0000      -0.427568       -11.6347
  34   2.0000      -0.424457       -11.5501
  35   2.0000      -0.415462       -11.3053
  36   2.0000      -0.410421       -11.1681
  37   2.0000      -0.390621       -10.6293
  38   2.0000      -0.381363       -10.3774
  39   2.0000      -0.368578       -10.0295
  40   2.0000      -0.366999        -9.9865
  41   2.0000      -0.359271        -9.7763
  42   2.0000      -0.350899        -9.5484
  43   2.0000      -0.345913        -9.4128
  44   2.0000      -0.329170        -8.9572
  45   2.0000      -0.314622        -8.5613
  46   2.0000      -0.291123        -7.9219
  47   2.0000      -0.277393        -7.5482
  48   2.0000      -0.272104        -7.4043
  49   2.0000      -0.251692        -6.8489
  50   2.0000      -0.239712        -6.5229
  51   0.0000       0.058652         1.5960
  52   0.0000       0.074540         2.0283
  53   0.0000       0.091045         2.4775
  54   0.0000       0.094527         2.5722
  55   0.0000       0.102754         2.7961

MULLIKEN ATOMIC CHARGES
-----------------------
   0 C :    0.306983
   1 C :   -0.268432
   2 C :   -0.312162
   3 C :   -0.021396
   4 O :   -0.510131
   5 H :    0.159263
   6 H :    0.151821
   7 H :    0.163458
   8 H :    0.149656
   9 H :    0.169338
  10 H :    0.154701
  11 H :    0.154034
  12 C :   -0.033148
  13 H :    0.150652
  14 H :    0.184027
  15 O :   -0.569287
  16 C :    0.051095
  17 C :    0.115421
  18 C :   -0.300119
  19 C :   -0.019205
  20 O :   -0.520730
  21 H :    0.155880
  22 H :    0.148044
  23 O :   -0.640707
  24 H :    0.150742
  25 H :    0.144262
  26 H :    0.142516
  27 H :    0.148654
  28 H :    0.394769
Sum of atomic charges:    0.0000000

LOEWDIN ATOMIC CHARGES
----------------------
   0 C :    0.182052
   1 C :   -0.216398
   2 C :   -0.221178
   3 C :   -0.031228
   4 O :   -0.319619
   5 H :    0.104023
   6 H :    0.117810
   7 H :    0.126579
   8 H :    0.119045
   9 H :    0.121069
  10 H :    0.105607
  11 H :    0.108821
  12 C :   -0.048092
  13 H :    0.108492
  14 H :    0.127216
  15 O :   -0.349051
  16 C :    0.009940
  17 C :    0.039503
  18 C :   -0.236824
  19 C :   -0.031386
  20 O :   -0.323770
  21 H :    0.110582
  22 H :    0.105848
  23 O :   -0.434546
  24 H :    0.120929
  25 H :    0.111003
  26 H :    0.102299
  27 H :    0.105606
  28 H :    0.285668

  Mayer bond orders larger than 0.100000
B(  0-C ,  1-C ) :   0.9448 B(  0-C ,  4-O ) :   0.9220 B(  0-C ,  5-H ) :   0.9254
B(  0-C , 15-O ) :   0.8096 B(  1-C ,  2-C ) :   0.9510 B(  1-C ,  6-H ) :   0.9371
B(  1-C ,  7-H ) :   0.9349 B(  2-C ,  3-C ) :   0.9545 B(  2-C ,  8-H ) :   0.9436
B(  2-C ,  9-H ) :   0.9331 B(  3-C ,  4-O ) :   0.8235 B(  3-C , 10-H ) :   0.9257
B(  3-C , 11-H ) :   0.9393 B( 12-C , 13-H ) :   0.9344 B( 12-C , 14-H ) :   0.9199
B( 12-C , 15-O ) :   0.7834 B( 12-C , 16-C ) :   0.8952 B( 16-C , 17-C ) :   0.9120
B( 16-C , 20-O ) :   0.8522 B( 16-C , 21-H ) :   0.9222 B( 17-C , 18-C ) :   0.9024
B( 17-C , 22-H ) :   0.9328 B( 17-C , 23-O ) :   0.9293 B( 18-C , 19-C ) :   0.9381
B( 18-C , 24-H ) :   0.9449 B( 18-C , 25-H ) :   0.9437 B( 19-C , 20-O ) :   0.8330
B( 19-C , 26-H ) :   0.9344 B( 19-C , 27-H ) :   0.9384 B( 23-O , 28-H ) :   0.7204

FINAL SINGLE POINT ENERGY      -652.869445306442

DIPOLE MOMENT
-------------
                                X             Y             Z
Electronic contribution:      0.33354      -2.42052      -0.19426
Nuclear contribution   :      0.06088       2.52334      -0.06419
                        -----------------------------------------
Total Dipole Moment    :      0.39443       0.10282      -0.25845
                        -----------------------------------------
Magnitude (a.u.)       :      0.48264
Magnitude (Debye)      :      1.22677

Rotational constants in cm-1:     0.051686     0.016239     0.014990
Rotational constants in MHz :  1549.492616   486.819772   449.387628

                             ****ORCA TERMINATED NORMALLY****
TOTAL RUN TIME: 0 days 1 hours 36 minutes 28 seconds 639 msec
