                         Program Version 4.2.0 -  RELEASE  -
|  1> # Test redundant internal optimization
|  2> #
|  3> ! RKS B3LYP  Opt TightSCF SmallPrint
|  4>
|  5> %basis
|  6>         Basis "6-31G"
|  7> end
|  8>
|  9> %geom
| 10> Constraints
| 11> { D 4  0  15  12  0.0   C } # D for Dihedral angle
| 12> { D 0  15  12  16  225.0   C } # D for Dihedral angle
| 13> { D 0  4  3  2   C } # D for Dihedral angle
| 14> { D 4  3  2  1   C } # D for Dihedral angle
| 15> { D 3  2  1  0   C } # D for Dihedral angle
| 16> { D 2  1  0  4   C } # D for Dihedral angle
| 17> { D 1  0  4  3   C } # D for Dihedral angle
| 18> { D 16  20  19  18   C } # D for Dihedral angle
| 19> { D 20  19  18  17   C } # D for Dihedral angle
| 20> { D 19  18  17  16   C } # D for Dihedral angle
| 21> { D 18  17  16  20   C } # D for Dihedral angle
| 22> { D 17  16  20  19   C } # D for Dihedral angle
| 23> { D 15  12  16  20   C } # D for Dihedral angle
| 24> end
| 25> end
| 26>
| 27>
| 28> #%pal
| 29> #nprocs 8
| 30> #end
| 31>
| 32> * xyz 0 1
| 33> C  -21.048   26.222   46.251
| 34> C  -20.361   27.558   45.944
| 35> C  -20.329   28.222   47.341
| 36> C  -20.110   27.022   48.296
| 37> O  -20.473   25.807   47.535
| 38> H  -20.833   25.428   45.533
| 39> H  -19.344   27.382   45.576
| 40> H  -20.898   28.157   45.201
| 41> H  -19.543   28.978   47.434
| 42> H  -21.289   28.710   47.548
| 43> H  -20.733   27.082   49.195
| 44> H  -19.064   26.913   48.597
| 45> C  -23.172   26.101   47.783
| 46> H  -22.422   25.572   48.385
| 47> H  -23.425   27.037   48.297
| 48> O  -22.586   26.394   46.375
| 49> C  -24.457   25.229   47.730
| 50> C  -24.159   23.830   47.179
| 51> C  -23.550   23.130   48.416
| 52> C  -24.346   23.743   49.595
| 53> O  -24.967   24.984   49.083
| 54> H  -25.235   25.772   47.189
| 55> H  -25.090   23.339   46.876
| 56> O  -23.195   23.847   45.960
| 57> H  -23.640   22.040   48.374
| 58> H  -22.484   23.374   48.500
| 59> H  -23.707   23.988   50.450
| 60> H  -25.157   23.093   49.935
| 61> H  -22.255   24.335   46.241
| 62> *
| 63>
| 64>                          ****END OF INPUT****
 Total Charge           Charge          ....    0
 Multiplicity           Mult            ....    1
 Number of Electrons    NEL             ....  102
FINAL SINGLE POINT ENERGY      -652.823443857511
FINAL SINGLE POINT ENERGY      -652.848789052772
FINAL SINGLE POINT ENERGY      -652.855106609201
FINAL SINGLE POINT ENERGY      -652.857427402264
FINAL SINGLE POINT ENERGY      -652.858462821554
FINAL SINGLE POINT ENERGY      -652.859462177110
FINAL SINGLE POINT ENERGY      -652.860483374158
FINAL SINGLE POINT ENERGY      -652.861248436409
FINAL SINGLE POINT ENERGY      -652.861808203379
FINAL SINGLE POINT ENERGY      -652.862028333263
FINAL SINGLE POINT ENERGY      -652.862141540761
FINAL SINGLE POINT ENERGY      -652.862185957405
FINAL SINGLE POINT ENERGY      -652.862189695077
FINAL SINGLE POINT ENERGY      -652.862190542993
                    ***********************HURRAY********************

CARTESIAN COORDINATES (ANGSTROEM)
---------------------------------
  C    -21.019294   26.193169   46.390158
  C    -20.423739   27.537753   45.976940
  C    -20.317932   28.267627   47.335336
  C    -19.972288   27.133086   48.321838
  O    -20.345923   25.867344   47.617990
  H    -20.831529   25.364416   45.705437
  H    -19.433277   27.372244   45.537567
  H    -21.052823   28.060752   45.253768
  H    -19.559030   29.055862   47.330729
  H    -21.279338   28.726495   47.588031
  H    -20.527882   27.185806   49.261399
  H    -18.903060   27.058109   48.535107
  C    -23.109370   26.090379   47.832261
  H    -22.380414   25.628417   48.501987
  H    -23.417123   27.056799   48.245158
  O    -22.488028   26.309322   46.515290
  C    -24.344224   25.194414   47.675478
  C    -24.077489   23.770874   47.160920
  C    -23.568884   23.062862   48.446602
  C    -24.398594   23.726746   49.565745
  O    -24.938646   24.995858   48.996824
  H    -25.095558   25.710201   47.069496
  H    -25.033905   23.329183   46.852323
  O    -23.147282   23.674310   46.058971
  H    -23.711357   21.979201   48.402025
  H    -22.496699   23.259826   48.549800
  H    -23.809407   23.962454   50.457538
  H    -25.263726   23.127069   49.863403
  H    -22.925181   24.588418   45.770879

 Multiplicity           Mult            ....    1
 Number of Electrons    NEL             ....  102
 Basis Dimension        Dim             ....  149

ORBITAL ENERGIES
----------------

  NO   OCC          E(Eh)            E(eV)
   0   2.0000     -19.162799      -521.4463
   1   2.0000     -19.155900      -521.2585
   2   2.0000     -19.137910      -520.7690
   3   2.0000     -19.117916      -520.2249
   4   2.0000     -10.290857      -280.0285
   5   2.0000     -10.241073      -278.6738
   6   2.0000     -10.230607      -278.3890
   7   2.0000     -10.229575      -278.3609
   8   2.0000     -10.229157      -278.3495
   9   2.0000     -10.224227      -278.2154
  10   2.0000     -10.198647      -277.5193
  11   2.0000     -10.194345      -277.4022
  12   2.0000     -10.176410      -276.9142
  13   2.0000      -1.065935       -29.0056
  14   2.0000      -1.024305       -27.8728
  15   2.0000      -1.004498       -27.3338
  16   2.0000      -0.993144       -27.0248
  17   2.0000      -0.799760       -21.7626
  18   2.0000      -0.773266       -21.0416
  19   2.0000      -0.766050       -20.8453
  20   2.0000      -0.737211       -20.0605
  21   2.0000      -0.675160       -18.3720
  22   2.0000      -0.612287       -16.6612
  23   2.0000      -0.600572       -16.3424
  24   2.0000      -0.593245       -16.1430
  25   2.0000      -0.572388       -15.5755
  26   2.0000      -0.524872       -14.2825
  27   2.0000      -0.519519       -14.1368
  28   2.0000      -0.503903       -13.7119
  29   2.0000      -0.489636       -13.3237
  30   2.0000      -0.473213       -12.8768
  31   2.0000      -0.460423       -12.5288
  32   2.0000      -0.443269       -12.0620
  33   2.0000      -0.432189       -11.7605
  34   2.0000      -0.426353       -11.6017
  35   2.0000      -0.414204       -11.2711
  36   2.0000      -0.408083       -11.1045
  37   2.0000      -0.383792       -10.4435
  38   2.0000      -0.383277       -10.4295
  39   2.0000      -0.370419       -10.0796
  40   2.0000      -0.367275        -9.9941
  41   2.0000      -0.357847        -9.7375
  42   2.0000      -0.351664        -9.5693
  43   2.0000      -0.339011        -9.2250
  44   2.0000      -0.331821        -9.0293
  45   2.0000      -0.316575        -8.6144
  46   2.0000      -0.290231        -7.8976
  47   2.0000      -0.278007        -7.5650
  48   2.0000      -0.268899        -7.3171
  49   2.0000      -0.247638        -6.7386
  50   2.0000      -0.239602        -6.5199
  51   0.0000       0.058656         1.5961
  52   0.0000       0.073047         1.9877
  53   0.0000       0.093168         2.5352
  54   0.0000       0.100297         2.7292
  55   0.0000       0.100729         2.7410

MULLIKEN ATOMIC CHARGES
-----------------------
   0 C :    0.289302
   1 C :   -0.255422
   2 C :   -0.311010
   3 C :   -0.019599
   4 O :   -0.506133
   5 H :    0.167860
   6 H :    0.149952
   7 H :    0.163326
   8 H :    0.152102
   9 H :    0.160626
  10 H :    0.150182
  11 H :    0.157032
  12 C :   -0.017169
  13 H :    0.172832
  14 H :    0.147635
  15 O :   -0.564924
  16 C :    0.038301
  17 C :    0.119378
  18 C :   -0.311664
  19 C :   -0.019469
  20 O :   -0.520433
  21 H :    0.157223
  22 H :    0.140661
  23 O :   -0.638496
  24 H :    0.153328
  25 H :    0.166217
  26 H :    0.140953
  27 H :    0.148179
  28 H :    0.389231
Sum of atomic charges:   -0.0000000

LOEWDIN ATOMIC CHARGES
----------------------
   0 C :    0.178700
   1 C :   -0.218443
   2 C :   -0.218817
   3 C :   -0.031572
   4 O :   -0.310389
   5 H :    0.109968
   6 H :    0.116583
   7 H :    0.127177
   8 H :    0.119928
   9 H :    0.117242
  10 H :    0.106085
  11 H :    0.110810
  12 C :   -0.050660
  13 H :    0.116461
  14 H :    0.105736
  15 O :   -0.355739
  16 C :    0.014282
  17 C :    0.041098
  18 C :   -0.235987
  19 C :   -0.031850
  20 O :   -0.323645
  21 H :    0.112308
  22 H :    0.099812
  23 O :   -0.433407
  24 H :    0.121391
  25 H :    0.121104
  26 H :    0.101445
  27 H :    0.105313
  28 H :    0.285069

  Mayer bond orders larger than 0.100000
B(  0-C ,  1-C ) :   0.9343 B(  0-C ,  4-O ) :   0.9263 B(  0-C ,  5-H ) :   0.9238
B(  0-C , 15-O ) :   0.8027 B(  1-C ,  2-C ) :   0.9527 B(  1-C ,  6-H ) :   0.9347
B(  1-C ,  7-H ) :   0.9353 B(  2-C ,  3-C ) :   0.9533 B(  2-C ,  8-H ) :   0.9442
B(  2-C ,  9-H ) :   0.9446 B(  3-C ,  4-O ) :   0.8214 B(  3-C , 10-H ) :   0.9333
B(  3-C , 11-H ) :   0.9401 B( 12-C , 13-H ) :   0.9047 B( 12-C , 14-H ) :   0.9284
B( 12-C , 15-O ) :   0.7909 B( 12-C , 16-C ) :   0.9046 B( 16-C , 17-C ) :   0.9173
B( 16-C , 20-O ) :   0.8564 B( 16-C , 21-H ) :   0.9302 B( 17-C , 18-C ) :   0.9126
B( 17-C , 22-H ) :   0.9254 B( 17-C , 23-O ) :   0.9229 B( 18-C , 19-C ) :   0.9415
B( 18-C , 24-H ) :   0.9436 B( 18-C , 25-H ) :   0.9371 B( 19-C , 20-O ) :   0.8333
B( 19-C , 26-H ) :   0.9345 B( 19-C , 27-H ) :   0.9383 B( 23-O , 28-H ) :   0.7291

FINAL SINGLE POINT ENERGY      -652.862190567248

DIPOLE MOMENT
-------------
                                X             Y             Z
Electronic contribution:     -2.76098      -1.98975      -2.01735
Nuclear contribution   :      3.61487       3.01117       2.37550
                        -----------------------------------------
Total Dipole Moment    :      0.85390       1.02142       0.35815
                        -----------------------------------------
Magnitude (a.u.)       :      1.37866
Magnitude (Debye)      :      3.50428

Rotational constants in cm-1:     0.051358     0.015402     0.014360
Rotational constants in MHz :  1539.670136   461.731289   430.498791

                             ****ORCA TERMINATED NORMALLY****
TOTAL RUN TIME: 0 days 1 hours 54 minutes 49 seconds 647 msec
