                         Program Version 4.2.0 -  RELEASE  -
|  1> # Test redundant internal optimization
|  2> #
|  3> ! RKS B3LYP  Opt TightSCF SmallPrint
|  4>
|  5> %basis
|  6>         Basis "6-31G"
|  7> end
|  8>
|  9> %geom
| 10> Constraints
| 11> { D 4  0  15  12  90.0   C } # D for Dihedral angle
| 12> { D 0  15  12  16  195.0   C } # D for Dihedral angle
| 13> { D 0  4  3  2   C } # D for Dihedral angle
| 14> { D 4  3  2  1   C } # D for Dihedral angle
| 15> { D 3  2  1  0   C } # D for Dihedral angle
| 16> { D 2  1  0  4   C } # D for Dihedral angle
| 17> { D 1  0  4  3   C } # D for Dihedral angle
| 18> { D 16  20  19  18   C } # D for Dihedral angle
| 19> { D 20  19  18  17   C } # D for Dihedral angle
| 20> { D 19  18  17  16   C } # D for Dihedral angle
| 21> { D 18  17  16  20   C } # D for Dihedral angle
| 22> { D 17  16  20  19   C } # D for Dihedral angle
| 23> { D 15  12  16  20   C } # D for Dihedral angle
| 24> end
| 25> end
| 26>
| 27>
| 28> #%pal
| 29> #nprocs 8
| 30> #end
| 31>
| 32> * xyz 0 1
| 33> C  -21.048   26.222   46.251
| 34> C  -20.361   27.558   45.944
| 35> C  -20.329   28.222   47.341
| 36> C  -20.110   27.022   48.296
| 37> O  -20.473   25.807   47.535
| 38> H  -20.833   25.428   45.533
| 39> H  -19.344   27.382   45.576
| 40> H  -20.898   28.157   45.201
| 41> H  -19.543   28.978   47.434
| 42> H  -21.289   28.710   47.548
| 43> H  -20.733   27.082   49.195
| 44> H  -19.064   26.913   48.597
| 45> C  -23.061   27.816   46.783
| 46> H  -22.434   28.185   47.604
| 47> H  -22.964   28.510   45.939
| 48> O  -22.586   26.394   46.375
| 49> C  -24.543   27.843   47.250
| 50> C  -25.473   27.255   46.183
| 51> C  -25.274   25.735   46.396
| 52> C  -25.079   25.617   47.929
| 53> O  -24.730   26.970   48.414
| 54> H  -24.800   28.856   47.565
| 55> H  -26.510   27.541   46.390
| 56> O  -25.117   27.712   44.742
| 57> H  -26.119   25.140   46.036
| 58> H  -24.375   25.395   45.866
| 59> H  -24.278   24.921   48.198
| 60> H  -25.997   25.318   48.444
| 61> H  -24.082   27.435   44.514
| 62> *
| 63>
| 64>                          ****END OF INPUT****
 Total Charge           Charge          ....    0
 Multiplicity           Mult            ....    1
 Number of Electrons    NEL             ....  102
FINAL SINGLE POINT ENERGY      -652.803280340869
FINAL SINGLE POINT ENERGY      -652.835302479687
FINAL SINGLE POINT ENERGY      -652.852439832852
FINAL SINGLE POINT ENERGY      -652.855973115958
FINAL SINGLE POINT ENERGY      -652.856445861379
FINAL SINGLE POINT ENERGY      -652.856525608854
FINAL SINGLE POINT ENERGY      -652.856538756362
FINAL SINGLE POINT ENERGY      -652.856540587068
                    ***********************HURRAY********************

CARTESIAN COORDINATES (ANGSTROEM)
---------------------------------
  C    -21.168074   26.397706   46.418930
  C    -20.263637   27.553152   45.967940
  C    -19.962954   28.276738   47.313356
  C    -19.894630   27.098592   48.318219
  O    -20.568563   25.954813   47.654485
  H    -21.121400   25.532291   45.755528
  H    -19.347626   27.129166   45.545096
  H    -20.725037   28.201461   45.217324
  H    -19.020630   28.832563   47.277363
  H    -20.752292   28.986213   47.570154
  H    -20.400683   27.307660   49.264853
  H    -18.867100   26.784699   48.522385
  C    -23.162296   27.920306   46.870273
  H    -22.658905   28.325919   47.753301
  H    -23.071429   28.635525   46.041376
  O    -22.592599   26.628928   46.506171
  C    -24.636698   27.754910   47.234994
  C    -25.533425   27.189545   46.121139
  C    -25.339333   25.651862   46.299443
  C    -25.195283   25.505659   47.829403
  O    -24.861919   26.856544   48.355047
  H    -24.987790   28.743296   47.556076
  H    -26.571243   27.482369   46.293303
  O    -25.215714   27.683253   44.795364
  H    -26.183027   25.082533   45.898016
  H    -24.419733   25.348736   45.794692
  H    -24.395173   24.817414   48.112818
  H    -26.128700   25.202135   48.313276
  H    -24.401108   27.240015   44.478672

 Multiplicity           Mult            ....    1
 Number of Electrons    NEL             ....  102
 Basis Dimension        Dim             ....  149

ORBITAL ENERGIES
----------------

  NO   OCC          E(Eh)            E(eV)
   0   2.0000     -19.152035      -521.1534
   1   2.0000     -19.143321      -520.9163
   2   2.0000     -19.138617      -520.7883
   3   2.0000     -19.130091      -520.5562
   4   2.0000     -10.284983      -279.8686
   5   2.0000     -10.234070      -278.4832
   6   2.0000     -10.233590      -278.4701
   7   2.0000     -10.230955      -278.3984
   8   2.0000     -10.229328      -278.3542
   9   2.0000     -10.216450      -278.0037
  10   2.0000     -10.198779      -277.5229
  11   2.0000     -10.197119      -277.4777
  12   2.0000     -10.175581      -276.8916
  13   2.0000      -1.055994       -28.7350
  14   2.0000      -1.024994       -27.8915
  15   2.0000      -1.007660       -27.4198
  16   2.0000      -0.998566       -27.1724
  17   2.0000      -0.793540       -21.5933
  18   2.0000      -0.775982       -21.1155
  19   2.0000      -0.763990       -20.7892
  20   2.0000      -0.734612       -19.9898
  21   2.0000      -0.681080       -18.5331
  22   2.0000      -0.609546       -16.5866
  23   2.0000      -0.602049       -16.3826
  24   2.0000      -0.598465       -16.2851
  25   2.0000      -0.562431       -15.3045
  26   2.0000      -0.526494       -14.3266
  27   2.0000      -0.510243       -13.8844
  28   2.0000      -0.503412       -13.6985
  29   2.0000      -0.487181       -13.2569
  30   2.0000      -0.472758       -12.8644
  31   2.0000      -0.458437       -12.4747
  32   2.0000      -0.442020       -12.0280
  33   2.0000      -0.431070       -11.7300
  34   2.0000      -0.423720       -11.5300
  35   2.0000      -0.417508       -11.3610
  36   2.0000      -0.404200       -10.9989
  37   2.0000      -0.398084       -10.8324
  38   2.0000      -0.388649       -10.5757
  39   2.0000      -0.369672       -10.0593
  40   2.0000      -0.364742        -9.9251
  41   2.0000      -0.356731        -9.7071
  42   2.0000      -0.345361        -9.3978
  43   2.0000      -0.323634        -8.8065
  44   2.0000      -0.316090        -8.6012
  45   2.0000      -0.307123        -8.3572
  46   2.0000      -0.299711        -8.1556
  47   2.0000      -0.276074        -7.5124
  48   2.0000      -0.259743        -7.0680
  49   2.0000      -0.258023        -7.0212
  50   2.0000      -0.236036        -6.4229
  51   0.0000       0.059943         1.6311
  52   0.0000       0.083636         2.2759
  53   0.0000       0.089555         2.4369
  54   0.0000       0.094677         2.5763
  55   0.0000       0.101278         2.7559

MULLIKEN ATOMIC CHARGES
-----------------------
   0 C :    0.309218
   1 C :   -0.290128
   2 C :   -0.313514
   3 C :   -0.009635
   4 O :   -0.496657
   5 H :    0.160500
   6 H :    0.159779
   7 H :    0.146746
   8 H :    0.147414
   9 H :    0.150534
  10 H :    0.154186
  11 H :    0.147592
  12 C :   -0.014095
  13 H :    0.148044
  14 H :    0.135360
  15 O :   -0.538087
  16 C :    0.093162
  17 C :    0.085676
  18 C :   -0.310134
  19 C :   -0.002519
  20 O :   -0.520590
  21 H :    0.145123
  22 H :    0.158897
  23 O :   -0.609866
  24 H :    0.141288
  25 H :    0.165823
  26 H :    0.157574
  27 H :    0.137490
  28 H :    0.360819
Sum of atomic charges:   -0.0000000

LOEWDIN ATOMIC CHARGES
----------------------
   0 C :    0.174567
   1 C :   -0.229956
   2 C :   -0.223191
   3 C :   -0.032047
   4 O :   -0.316408
   5 H :    0.109291
   6 H :    0.124573
   7 H :    0.116442
   8 H :    0.116720
   9 H :    0.110402
  10 H :    0.107981
  11 H :    0.105239
  12 C :   -0.049100
  13 H :    0.104929
  14 H :    0.098225
  15 O :   -0.328540
  16 C :    0.020995
  17 C :    0.037438
  18 C :   -0.242035
  19 C :   -0.023784
  20 O :   -0.321579
  21 H :    0.112496
  22 H :    0.115035
  23 O :   -0.414517
  24 H :    0.113651
  25 H :    0.122339
  26 H :    0.111100
  27 H :    0.099408
  28 H :    0.280327

  Mayer bond orders larger than 0.100000
B(  0-C ,  1-C ) :   0.9247 B(  0-C ,  4-O ) :   0.9159 B(  0-C ,  5-H ) :   0.9367
B(  0-C , 15-O ) :   0.8851 B(  1-C ,  2-C ) :   0.9534 B(  1-C ,  6-H ) :   0.9349
B(  1-C ,  7-H ) :   0.9351 B(  2-C ,  3-C ) :   0.9478 B(  2-C ,  8-H ) :   0.9448
B(  2-C ,  9-H ) :   0.9389 B(  3-C ,  4-O ) :   0.8437 B(  3-C , 10-H ) :   0.9330
B(  3-C , 11-H ) :   0.9388 B( 12-C , 13-H ) :   0.9108 B( 12-C , 14-H ) :   0.9044
B( 12-C , 15-O ) :   0.8275 B( 12-C , 16-C ) :   0.9066 B( 16-C , 17-C ) :   0.8865
B( 16-C , 20-O ) :   0.8890 B( 16-C , 21-H ) :   0.9290 B( 17-C , 18-C ) :   0.9361
B( 17-C , 22-H ) :   0.9366 B( 17-C , 23-O ) :   0.8973 B( 18-C , 19-C ) :   0.9467
B( 18-C , 24-H ) :   0.9411 B( 18-C , 25-H ) :   0.9258 B( 19-C , 20-O ) :   0.8328
B( 19-C , 26-H ) :   0.9310 B( 19-C , 27-H ) :   0.9380 B( 23-O , 28-H ) :   0.7940

FINAL SINGLE POINT ENERGY      -652.856539946687

DIPOLE MOMENT
-------------
                                X             Y             Z
Electronic contribution:     -3.03902      -1.73504       0.31590
Nuclear contribution   :      4.03842       2.19118      -0.75978
                        -----------------------------------------
Total Dipole Moment    :      0.99940       0.45614      -0.44388
                        -----------------------------------------
Magnitude (a.u.)       :      1.18486
Magnitude (Debye)      :      3.01167

Rotational constants in cm-1:     0.049204     0.015741     0.014361
Rotational constants in MHz :  1475.096157   471.901997   430.540465

                             ****ORCA TERMINATED NORMALLY****
TOTAL RUN TIME: 0 days 0 hours 34 minutes 52 seconds 730 msec
