                         Program Version 4.2.0 -  RELEASE  -
|  1> # Test redundant internal optimization
|  2> #
|  3> ! RKS B3LYP  Opt TightSCF SmallPrint
|  4>
|  5> %basis
|  6>         Basis "6-31G"
|  7> end
|  8>
|  9> %geom
| 10> Constraints
| 11> { D 4  0  15  12  75.0   C } # D for Dihedral angle
| 12> { D 0  15  12  16  225.0   C } # D for Dihedral angle
| 13> { D 0  4  3  2   C } # D for Dihedral angle
| 14> { D 4  3  2  1   C } # D for Dihedral angle
| 15> { D 3  2  1  0   C } # D for Dihedral angle
| 16> { D 2  1  0  4   C } # D for Dihedral angle
| 17> { D 1  0  4  3   C } # D for Dihedral angle
| 18> { D 16  20  19  18   C } # D for Dihedral angle
| 19> { D 20  19  18  17   C } # D for Dihedral angle
| 20> { D 19  18  17  16   C } # D for Dihedral angle
| 21> { D 18  17  16  20   C } # D for Dihedral angle
| 22> { D 17  16  20  19   C } # D for Dihedral angle
| 23> { D 15  12  16  20   C } # D for Dihedral angle
| 24> end
| 25> end
| 26>
| 27>
| 28> #%pal
| 29> #nprocs 8
| 30> #end
| 31>
| 32> * xyz 0 1
| 33> C  -21.048   26.222   46.251
| 34> C  -20.361   27.558   45.944
| 35> C  -20.329   28.222   47.341
| 36> C  -20.110   27.022   48.296
| 37> O  -20.473   25.807   47.535
| 38> H  -20.833   25.428   45.533
| 39> H  -19.344   27.382   45.576
| 40> H  -20.898   28.157   45.201
| 41> H  -19.543   28.978   47.434
| 42> H  -21.289   28.710   47.548
| 43> H  -20.733   27.082   49.195
| 44> H  -19.064   26.913   48.597
| 45> C  -23.049   27.675   47.122
| 46> H  -22.197   28.109   47.659
| 47> H  -23.422   28.421   46.409
| 48> O  -22.586   26.394   46.375
| 49> C  -24.181   27.395   48.149
| 50> C  -25.377   26.702   47.484
| 51> C  -24.882   25.238   47.399
| 52> C  -24.044   25.073   48.691
| 53> O  -23.728   26.439   49.164
| 54> H  -24.429   28.321   48.670
| 55> H  -26.259   26.775   48.130
| 56> O  -25.734   27.299   46.096
| 57> H  -25.703   24.515   47.338
| 58> H  -24.253   25.105   46.511
| 59> H  -23.111   24.527   48.519
| 60> H  -24.603   24.577   49.490
| 61> H  -24.864   27.236   45.433
| 62> *
| 63>
| 64>                          ****END OF INPUT****
 Total Charge           Charge          ....    0
 Multiplicity           Mult            ....    1
 Number of Electrons    NEL             ....  102
FINAL SINGLE POINT ENERGY      -652.790045852926
FINAL SINGLE POINT ENERGY      -652.832037865072
FINAL SINGLE POINT ENERGY      -652.851546186661
FINAL SINGLE POINT ENERGY      -652.855700976158
FINAL SINGLE POINT ENERGY      -652.856452982226
FINAL SINGLE POINT ENERGY      -652.856609178224
FINAL SINGLE POINT ENERGY      -652.856644616429
FINAL SINGLE POINT ENERGY      -652.856650655264
FINAL SINGLE POINT ENERGY      -652.856650448219
                    ***********************HURRAY********************

CARTESIAN COORDINATES (ANGSTROEM)
---------------------------------
  C    -21.156746   26.419474   46.411332
  C    -20.265163   27.581909   45.949107
  C    -19.924522   28.288953   47.295575
  C    -19.827033   27.096151   48.282035
  O    -20.520469   25.961247   47.622980
  H    -21.128061   25.569600   45.727034
  H    -19.361350   27.165675   45.493254
  H    -20.756778   28.235715   45.223246
  H    -18.980696   28.841061   47.239492
  H    -20.700031   29.002079   47.582421
  H    -20.308343   27.288367   49.244822
  H    -18.793490   26.781190   48.450939
  C    -23.181069   27.777770   47.210941
  H    -22.455987   28.280018   47.853735
  H    -23.548741   28.492299   46.463516
  O    -22.577247   26.636673   46.528981
  C    -24.333448   27.326243   48.107840
  C    -25.484873   26.599112   47.391014
  C    -24.953330   25.133502   47.334029
  C    -24.176774   25.003632   48.662102
  O    -23.915019   26.388820   49.136182
  H    -24.698255   28.221161   48.627073
  H    -26.397192   26.668933   47.987142
  O    -25.833013   27.160817   46.100868
  H    -25.766889   24.406878   47.247675
  H    -24.281362   25.032427   46.478980
  H    -23.216023   24.497030   48.544964
  H    -24.761651   24.508950   49.444285
  H    -25.143443   26.916314   45.448438

 Multiplicity           Mult            ....    1
 Number of Electrons    NEL             ....  102
 Basis Dimension        Dim             ....  149

ORBITAL ENERGIES
----------------

  NO   OCC          E(Eh)            E(eV)
   0   2.0000     -19.149412      -521.0820
   1   2.0000     -19.143473      -520.9204
   2   2.0000     -19.135877      -520.7137
   3   2.0000     -19.128077      -520.5014
   4   2.0000     -10.284203      -279.8474
   5   2.0000     -10.232007      -278.4271
   6   2.0000     -10.231948      -278.4255
   7   2.0000     -10.229987      -278.3721
   8   2.0000     -10.226656      -278.2815
   9   2.0000     -10.213983      -277.9366
  10   2.0000     -10.196436      -277.4591
  11   2.0000     -10.196150      -277.4513
  12   2.0000     -10.173591      -276.8375
  13   2.0000      -1.054900       -28.7053
  14   2.0000      -1.022696       -27.8290
  15   2.0000      -1.005476       -27.3604
  16   2.0000      -0.996472       -27.1154
  17   2.0000      -0.791851       -21.5474
  18   2.0000      -0.774490       -21.0749
  19   2.0000      -0.761885       -20.7319
  20   2.0000      -0.732832       -19.9414
  21   2.0000      -0.679260       -18.4836
  22   2.0000      -0.608387       -16.5551
  23   2.0000      -0.601657       -16.3719
  24   2.0000      -0.595968       -16.2171
  25   2.0000      -0.560822       -15.2607
  26   2.0000      -0.526434       -14.3250
  27   2.0000      -0.508184       -13.8284
  28   2.0000      -0.498073       -13.5533
  29   2.0000      -0.488260       -13.2862
  30   2.0000      -0.469145       -12.7661
  31   2.0000      -0.458562       -12.4781
  32   2.0000      -0.439759       -11.9665
  33   2.0000      -0.428378       -11.6568
  34   2.0000      -0.422747       -11.5035
  35   2.0000      -0.415449       -11.3049
  36   2.0000      -0.402661       -10.9570
  37   2.0000      -0.394728       -10.7411
  38   2.0000      -0.387417       -10.5422
  39   2.0000      -0.367964       -10.0128
  40   2.0000      -0.362942        -9.8762
  41   2.0000      -0.354285        -9.6406
  42   2.0000      -0.344274        -9.3682
  43   2.0000      -0.321692        -8.7537
  44   2.0000      -0.314692        -8.5632
  45   2.0000      -0.306428        -8.3383
  46   2.0000      -0.299933        -8.1616
  47   2.0000      -0.273806        -7.4506
  48   2.0000      -0.258366        -7.0305
  49   2.0000      -0.255936        -6.9644
  50   2.0000      -0.232557        -6.3282
  51   0.0000       0.063040         1.7154
  52   0.0000       0.086691         2.3590
  53   0.0000       0.092275         2.5109
  54   0.0000       0.096435         2.6241
  55   0.0000       0.106540         2.8991

MULLIKEN ATOMIC CHARGES
-----------------------
   0 C :    0.309139
   1 C :   -0.278993
   2 C :   -0.320123
   3 C :   -0.011339
   4 O :   -0.500211
   5 H :    0.161930
   6 H :    0.157910
   7 H :    0.147755
   8 H :    0.146893
   9 H :    0.151898
  10 H :    0.160435
  11 H :    0.147460
  12 C :   -0.029827
  13 H :    0.148193
  14 H :    0.141383
  15 O :   -0.541176
  16 C :    0.102101
  17 C :    0.085744
  18 C :   -0.311290
  19 C :   -0.010665
  20 O :   -0.522371
  21 H :    0.142594
  22 H :    0.158851
  23 O :   -0.609102
  24 H :    0.141585
  25 H :    0.165691
  26 H :    0.164770
  27 H :    0.137494
  28 H :    0.363269
Sum of atomic charges:    0.0000000

LOEWDIN ATOMIC CHARGES
----------------------
   0 C :    0.175948
   1 C :   -0.228475
   2 C :   -0.224848
   3 C :   -0.032881
   4 O :   -0.317947
   5 H :    0.110612
   6 H :    0.123296
   7 H :    0.117881
   8 H :    0.116345
   9 H :    0.109746
  10 H :    0.110940
  11 H :    0.105332
  12 C :   -0.050509
  13 H :    0.107067
  14 H :    0.103456
  15 O :   -0.331059
  16 C :    0.017988
  17 C :    0.037070
  18 C :   -0.242904
  19 C :   -0.026471
  20 O :   -0.323464
  21 H :    0.111222
  22 H :    0.114716
  23 O :   -0.413938
  24 H :    0.113598
  25 H :    0.122253
  26 H :    0.114142
  27 H :    0.098867
  28 H :    0.282016

  Mayer bond orders larger than 0.100000
B(  0-C ,  1-C ) :   0.9218 B(  0-C ,  4-O ) :   0.9108 B(  0-C ,  5-H ) :   0.9367
B(  0-C , 15-O ) :   0.8866 B(  1-C ,  2-C ) :   0.9550 B(  1-C ,  6-H ) :   0.9349
B(  1-C ,  7-H ) :   0.9372 B(  2-C ,  3-C ) :   0.9463 B(  2-C ,  8-H ) :   0.9444
B(  2-C ,  9-H ) :   0.9372 B(  3-C ,  4-O ) :   0.8409 B(  3-C , 10-H ) :   0.9313
B(  3-C , 11-H ) :   0.9387 B( 12-C , 13-H ) :   0.9108 B( 12-C , 14-H ) :   0.9144
B( 12-C , 15-O ) :   0.8285 B( 12-C , 16-C ) :   0.8980 B( 16-C , 17-C ) :   0.8884
B( 16-C , 20-O ) :   0.8874 B( 16-C , 21-H ) :   0.9264 B( 17-C , 18-C ) :   0.9361
B( 17-C , 22-H ) :   0.9367 B( 17-C , 23-O ) :   0.8973 B( 18-C , 19-C ) :   0.9470
B( 18-C , 24-H ) :   0.9410 B( 18-C , 25-H ) :   0.9264 B( 19-C , 20-O ) :   0.8290
B( 19-C , 26-H ) :   0.9276 B( 19-C , 27-H ) :   0.9379 B( 23-O , 28-H ) :   0.7939

FINAL SINGLE POINT ENERGY      -652.856649081665

DIPOLE MOMENT
-------------
                                X             Y             Z
Electronic contribution:     -3.13586      -1.72906       0.40198
Nuclear contribution   :      4.11957       2.25666      -0.92672
                        -----------------------------------------
Total Dipole Moment    :      0.98371       0.52760      -0.52473
                        -----------------------------------------
Magnitude (a.u.)       :      1.23345
Magnitude (Debye)      :      3.13519

Rotational constants in cm-1:     0.049384     0.016763     0.015198
Rotational constants in MHz :  1480.499472   502.533264   455.623266

                             ****ORCA TERMINATED NORMALLY****
TOTAL RUN TIME: 0 days 0 hours 48 minutes 25 seconds 471 msec
