                         Program Version 4.2.0 -  RELEASE  -
|  1> # Test redundant internal optimization
|  2> #
|  3> ! RKS B3LYP  Opt TightSCF SmallPrint
|  4>
|  5> %basis
|  6>         Basis "6-31G"
|  7> end
|  8>
|  9> %geom
| 10> Constraints
| 11> { D 4  0  15  12  90.0   C } # D for Dihedral angle
| 12> { D 0  15  12  16  150.0   C } # D for Dihedral angle
| 13> { D 0  4  3  2   C } # D for Dihedral angle
| 14> { D 4  3  2  1   C } # D for Dihedral angle
| 15> { D 3  2  1  0   C } # D for Dihedral angle
| 16> { D 2  1  0  4   C } # D for Dihedral angle
| 17> { D 1  0  4  3   C } # D for Dihedral angle
| 18> { D 16  20  19  18   C } # D for Dihedral angle
| 19> { D 20  19  18  17   C } # D for Dihedral angle
| 20> { D 19  18  17  16   C } # D for Dihedral angle
| 21> { D 18  17  16  20   C } # D for Dihedral angle
| 22> { D 17  16  20  19   C } # D for Dihedral angle
| 23> { D 15  12  16  20   C } # D for Dihedral angle
| 24> end
| 25> end
| 26>
| 27>
| 28> #%pal
| 29> #nprocs 8
| 30> #end
| 31>
| 32> * xyz 0 1
| 33> C  -21.048   26.222   46.251
| 34> C  -20.361   27.558   45.944
| 35> C  -20.329   28.222   47.341
| 36> C  -20.110   27.022   48.296
| 37> O  -20.473   25.807   47.535
| 38> H  -20.833   25.428   45.533
| 39> H  -19.344   27.382   45.576
| 40> H  -20.898   28.157   45.201
| 41> H  -19.543   28.978   47.434
| 42> H  -21.289   28.710   47.548
| 43> H  -20.733   27.082   49.195
| 44> H  -19.064   26.913   48.597
| 45> C  -23.061   27.816   46.783
| 46> H  -23.113   27.880   47.877
| 47> H  -22.351   28.574   46.428
| 48> O  -22.586   26.394   46.375
| 49> C  -24.459   28.170   46.206
| 50> C  -24.489   28.015   44.681
| 51> C  -24.643   26.483   44.526
| 52> C  -25.540   26.095   45.728
| 53> O  -25.468   27.220   46.686
| 54> H  -24.754   29.158   46.565
| 55> O  -25.723   28.752   44.095
| 56> H  -23.589   28.403   44.191
| 57> H  -25.084   26.195   43.566
| 58> H  -23.663   25.996   44.603
| 59> H  -25.205   25.178   46.224
| 60> H  -26.591   25.981   45.445
| 61> H  -26.636   28.378   44.571
| 62> *
| 63>
| 64>                          ****END OF INPUT****
 Total Charge           Charge          ....    0
 Multiplicity           Mult            ....    1
 Number of Electrons    NEL             ....  102
FINAL SINGLE POINT ENERGY      -652.811627553933
FINAL SINGLE POINT ENERGY      -652.839315887852
FINAL SINGLE POINT ENERGY      -652.852858737751
FINAL SINGLE POINT ENERGY      -652.855338268654
FINAL SINGLE POINT ENERGY      -652.855707855428
FINAL SINGLE POINT ENERGY      -652.855760875359
FINAL SINGLE POINT ENERGY      -652.855765714387
                    ***********************HURRAY********************

CARTESIAN COORDINATES (ANGSTROEM)
---------------------------------
  C    -21.209202   26.354172   46.437075
  C    -20.309773   27.512822   45.981942
  C    -20.017973   28.248501   47.324328
  C    -19.946732   27.074626   48.335084
  O    -20.609473   25.924591   47.678620
  H    -21.162696   25.482888   45.782395
  H    -19.388816   27.091856   45.567346
  H    -20.768786   28.152240   45.222169
  H    -19.080217   28.811642   47.289048
  H    -20.814928   28.949582   47.582796
  H    -20.456330   27.288914   49.279006
  H    -18.917866   26.769813   48.547002
  C    -23.210632   27.881571   46.869753
  H    -23.341738   27.939014   47.956963
  H    -22.570913   28.710829   46.544017
  O    -22.632629   26.591968   46.523458
  C    -24.572850   28.053910   46.197730
  C    -24.602532   28.010023   44.662623
  C    -24.679649   26.482771   44.390636
  C    -25.550407   25.966025   45.562528
  O    -25.527129   27.023928   46.601153
  H    -24.979787   29.011119   46.547895
  O    -25.765334   28.722174   44.154672
  H    -23.745278   28.491360   44.190381
  H    -25.124011   26.287179   43.410526
  H    -23.680452   26.048900   44.434936
  H    -25.156154   25.044620   45.996834
  H    -26.597956   25.814820   45.281941
  H    -26.559756   28.427143   44.648142

 Multiplicity           Mult            ....    1
 Number of Electrons    NEL             ....  102
 Basis Dimension        Dim             ....  149

ORBITAL ENERGIES
----------------

  NO   OCC          E(Eh)            E(eV)
   0   2.0000     -19.149663      -521.0888
   1   2.0000     -19.143074      -520.9095
   2   2.0000     -19.136262      -520.7241
   3   2.0000     -19.135964      -520.7161
   4   2.0000     -10.285355      -279.8787
   5   2.0000     -10.237861      -278.5864
   6   2.0000     -10.236829      -278.5583
   7   2.0000     -10.234413      -278.4925
   8   2.0000     -10.231971      -278.4261
   9   2.0000     -10.220344      -278.1097
  10   2.0000     -10.199803      -277.5508
  11   2.0000     -10.198785      -277.5230
  12   2.0000     -10.176369      -276.9131
  13   2.0000      -1.055819       -28.7303
  14   2.0000      -1.032446       -28.0943
  15   2.0000      -1.005272       -27.3548
  16   2.0000      -0.997001       -27.1298
  17   2.0000      -0.794393       -21.6165
  18   2.0000      -0.781647       -21.2697
  19   2.0000      -0.765619       -20.8335
  20   2.0000      -0.736948       -20.0534
  21   2.0000      -0.680578       -18.5195
  22   2.0000      -0.610690       -16.6177
  23   2.0000      -0.605119       -16.4661
  24   2.0000      -0.597143       -16.2491
  25   2.0000      -0.569320       -15.4920
  26   2.0000      -0.524338       -14.2680
  27   2.0000      -0.515319       -14.0225
  28   2.0000      -0.506354       -13.7786
  29   2.0000      -0.488628       -13.2963
  30   2.0000      -0.473788       -12.8924
  31   2.0000      -0.455995       -12.4083
  32   2.0000      -0.451973       -12.2988
  33   2.0000      -0.437801       -11.9132
  34   2.0000      -0.424136       -11.5413
  35   2.0000      -0.423389       -11.5210
  36   2.0000      -0.404233       -10.9997
  37   2.0000      -0.388755       -10.5786
  38   2.0000      -0.385626       -10.4934
  39   2.0000      -0.367709       -10.0059
  40   2.0000      -0.366141        -9.9632
  41   2.0000      -0.363349        -9.8872
  42   2.0000      -0.352698        -9.5974
  43   2.0000      -0.327357        -8.9078
  44   2.0000      -0.319701        -8.6995
  45   2.0000      -0.305133        -8.3031
  46   2.0000      -0.299613        -8.1529
  47   2.0000      -0.273485        -7.4419
  48   2.0000      -0.265114        -7.2141
  49   2.0000      -0.258536        -7.0351
  50   2.0000      -0.239617        -6.5203
  51   0.0000       0.062747         1.7074
  52   0.0000       0.074214         2.0195
  53   0.0000       0.085100         2.3157
  54   0.0000       0.098214         2.6725
  55   0.0000       0.108046         2.9401

MULLIKEN ATOMIC CHARGES
-----------------------
   0 C :    0.314029
   1 C :   -0.299289
   2 C :   -0.314031
   3 C :   -0.007528
   4 O :   -0.498483
   5 H :    0.162397
   6 H :    0.161271
   7 H :    0.148773
   8 H :    0.148425
   9 H :    0.151097
  10 H :    0.148639
  11 H :    0.147936
  12 C :    0.000026
  13 H :    0.156353
  14 H :    0.124928
  15 O :   -0.526563
  16 C :    0.073993
  17 C :    0.078750
  18 C :   -0.279049
  19 C :   -0.017628
  20 O :   -0.525250
  21 H :    0.149630
  22 O :   -0.605507
  23 H :    0.140362
  24 H :    0.144934
  25 H :    0.163425
  26 H :    0.158162
  27 H :    0.135779
  28 H :    0.364420
Sum of atomic charges:   -0.0000000

LOEWDIN ATOMIC CHARGES
----------------------
   0 C :    0.175873
   1 C :   -0.232580
   2 C :   -0.224246
   3 C :   -0.031428
   4 O :   -0.317106
   5 H :    0.110593
   6 H :    0.125815
   7 H :    0.115680
   8 H :    0.117221
   9 H :    0.109699
  10 H :    0.105115
  11 H :    0.104968
  12 C :   -0.039215
  13 H :    0.110135
  14 H :    0.095359
  15 O :   -0.319647
  16 C :    0.014088
  17 C :    0.039123
  18 C :   -0.239003
  19 C :   -0.031642
  20 O :   -0.328350
  21 H :    0.113457
  22 O :   -0.417705
  23 H :    0.110466
  24 H :    0.116855
  25 H :    0.124990
  26 H :    0.112248
  27 H :    0.096215
  28 H :    0.283022

  Mayer bond orders larger than 0.100000
B(  0-C ,  1-C ) :   0.9248 B(  0-C ,  4-O ) :   0.9096 B(  0-C ,  5-H ) :   0.9357
B(  0-C , 15-O ) :   0.8845 B(  1-C ,  2-C ) :   0.9532 B(  1-C ,  6-H ) :   0.9339
B(  1-C ,  7-H ) :   0.9325 B(  2-C ,  3-C ) :   0.9463 B(  2-C ,  8-H ) :   0.9454
B(  2-C ,  9-H ) :   0.9387 B(  3-C ,  4-O ) :   0.8472 B(  3-C , 10-H ) :   0.9338
B(  3-C , 11-H ) :   0.9388 B( 12-C , 13-H ) :   0.9194 B( 12-C , 14-H ) :   0.8982
B( 12-C , 15-O ) :   0.8444 B( 12-C , 16-C ) :   0.9009 B( 16-C , 17-C ) :   0.9078
B( 16-C , 20-O ) :   0.8785 B( 16-C , 21-H ) :   0.9223 B( 17-C , 18-C ) :   0.9242
B( 17-C , 22-O ) :   0.8901 B( 17-C , 23-H ) :   0.9365 B( 18-C , 19-C ) :   0.9456
B( 18-C , 24-H ) :   0.9382 B( 18-C , 25-H ) :   0.9216 B( 19-C , 20-O ) :   0.8369
B( 19-C , 26-H ) :   0.9335 B( 19-C , 27-H ) :   0.9372 B( 22-O , 28-H ) :   0.7946

FINAL SINGLE POINT ENERGY      -652.855764210820

DIPOLE MOMENT
-------------
                                X             Y             Z
Electronic contribution:     -4.22443      -1.98633       0.76060
Nuclear contribution   :      5.26855       2.60297      -0.95077
                        -----------------------------------------
Total Dipole Moment    :      1.04412       0.61665      -0.19018
                        -----------------------------------------
Magnitude (a.u.)       :      1.22744
Magnitude (Debye)      :      3.11990

Rotational constants in cm-1:     0.058170     0.013700     0.013071
Rotational constants in MHz :  1743.902428   410.715236   391.861012

                             ****ORCA TERMINATED NORMALLY****
TOTAL RUN TIME: 0 days 0 hours 21 minutes 1 seconds 225 msec
