                         Program Version 4.2.0 -  RELEASE  -
|  1> # Test redundant internal optimization
|  2> #
|  3> ! RKS B3LYP  Opt TightSCF SmallPrint
|  4>
|  5> %basis
|  6>         Basis "6-31G"
|  7> end
|  8>
|  9> %geom
| 10> Constraints
| 11> { D 4  0  15  12  285.0   C } # D for Dihedral angle
| 12> { D 0  15  12  16  30.0   C } # D for Dihedral angle
| 13> { D 0  4  3  2   C } # D for Dihedral angle
| 14> { D 4  3  2  1   C } # D for Dihedral angle
| 15> { D 3  2  1  0   C } # D for Dihedral angle
| 16> { D 2  1  0  4   C } # D for Dihedral angle
| 17> { D 1  0  4  3   C } # D for Dihedral angle
| 18> { D 16  20  19  18   C } # D for Dihedral angle
| 19> { D 20  19  18  17   C } # D for Dihedral angle
| 20> { D 19  18  17  16   C } # D for Dihedral angle
| 21> { D 18  17  16  20   C } # D for Dihedral angle
| 22> { D 17  16  20  19   C } # D for Dihedral angle
| 23> { D 15  12  16  20   C } # D for Dihedral angle
| 24> end
| 25> end
| 26>
| 27>
| 28> #%pal
| 29> #nprocs 8
| 30> #end
| 31>
| 32> * xyz 0 1
| 33> C  -21.048   26.222   46.251
| 34> C  -20.361   27.558   45.944
| 35> C  -20.329   28.222   47.341
| 36> C  -20.110   27.022   48.296
| 37> O  -20.473   25.807   47.535
| 38> H  -20.833   25.428   45.533
| 39> H  -19.344   27.382   45.576
| 40> H  -20.898   28.157   45.201
| 41> H  -19.543   28.978   47.434
| 42> H  -21.289   28.710   47.548
| 43> H  -20.733   27.082   49.195
| 44> H  -19.064   26.913   48.597
| 45> C  -23.396   25.070   46.435
| 46> H  -24.310   25.231   47.021
| 47> H  -23.687   24.752   45.426
| 48> O  -22.586   26.394   46.375
| 49> C  -22.597   23.907   47.086
| 50> C  -23.381   22.591   47.024
| 51> C  -23.135   22.147   45.562
| 52> C  -21.686   22.623   45.290
| 53> O  -21.375   23.635   46.323
| 54> H  -22.289   24.202   48.091
| 55> O  -22.776   21.562   48.018
| 56> H  -24.444   22.712   47.258
| 57> H  -23.253   21.068   45.420
| 58> H  -23.840   22.653   44.892
| 59> H  -21.573   23.077   44.299
| 60> H  -20.954   21.817   45.397
| 61> H  -21.710   21.425   47.803
| 62> *
| 63>
| 64>                          ****END OF INPUT****
 Total Charge           Charge          ....    0
 Multiplicity           Mult            ....    1
 Number of Electrons    NEL             ....  102
FINAL SINGLE POINT ENERGY      -652.827829224190
FINAL SINGLE POINT ENERGY      -652.851273151960
FINAL SINGLE POINT ENERGY      -652.858206996940
FINAL SINGLE POINT ENERGY      -652.860370630092
FINAL SINGLE POINT ENERGY      -652.860711268221
FINAL SINGLE POINT ENERGY      -652.860771834694
                    ***********************HURRAY********************

CARTESIAN COORDINATES (ANGSTROEM)
---------------------------------
  C    -20.899133   26.258878   46.212235
  C    -20.449450   27.702769   45.981089
  C    -20.485834   28.278939   47.416186
  C    -20.047856   27.079166   48.285285
  O    -20.235024   25.871986   47.442217
  H    -20.600755   25.523725   45.466999
  H    -19.428556   27.699501   45.582175
  H    -21.103840   28.232690   45.285997
  H    -19.828062   29.144680   47.540692
  H    -21.507647   28.581078   47.662199
  H    -20.642954   26.973301   49.196630
  H    -18.987098   27.113710   48.552221
  C    -23.138641   25.086511   46.431462
  H    -24.004601   25.359626   47.044448
  H    -23.499786   24.869560   45.415021
  O    -22.335727   26.300066   46.367129
  C    -22.497840   23.825095   47.019183
  C    -23.423782   22.598313   46.993067
  C    -23.223900   22.083579   45.542223
  C    -21.730592   22.389590   45.264289
  O    -21.308930   23.396215   46.270068
  H    -22.143217   24.036331   48.030804
  O    -23.007935   21.613942   47.977453
  H    -24.464863   22.822177   47.230956
  H    -23.462114   21.019241   45.473470
  H    -23.878193   22.628050   44.852718
  H    -21.561766   22.792954   44.260449
  H    -21.089577   21.513169   45.398575
  H    -22.029328   21.552158   47.975760

 Multiplicity           Mult            ....    1
 Number of Electrons    NEL             ....  102
 Basis Dimension        Dim             ....  149

ORBITAL ENERGIES
----------------

  NO   OCC          E(Eh)            E(eV)
   0   2.0000     -19.143928      -520.9328
   1   2.0000     -19.138758      -520.7921
   2   2.0000     -19.135708      -520.7091
   3   2.0000     -19.127932      -520.4975
   4   2.0000     -10.265490      -279.3382
   5   2.0000     -10.244645      -278.7710
   6   2.0000     -10.232952      -278.4528
   7   2.0000     -10.232192      -278.4321
   8   2.0000     -10.231662      -278.4177
   9   2.0000     -10.215930      -277.9896
  10   2.0000     -10.191155      -277.3154
  11   2.0000     -10.176654      -276.9208
  12   2.0000     -10.176325      -276.9119
  13   2.0000      -1.045066       -28.4377
  14   2.0000      -1.034296       -28.1446
  15   2.0000      -1.006539       -27.3893
  16   2.0000      -0.983222       -26.7548
  17   2.0000      -0.787855       -21.4386
  18   2.0000      -0.778403       -21.1814
  19   2.0000      -0.763049       -20.7636
  20   2.0000      -0.726572       -19.7710
  21   2.0000      -0.671648       -18.2765
  22   2.0000      -0.605332       -16.4719
  23   2.0000      -0.599533       -16.3141
  24   2.0000      -0.588865       -16.0238
  25   2.0000      -0.568959       -15.4821
  26   2.0000      -0.523830       -14.2541
  27   2.0000      -0.507914       -13.8210
  28   2.0000      -0.493377       -13.4255
  29   2.0000      -0.477447       -12.9920
  30   2.0000      -0.473307       -12.8793
  31   2.0000      -0.455564       -12.3965
  32   2.0000      -0.444947       -12.1076
  33   2.0000      -0.437447       -11.9035
  34   2.0000      -0.416458       -11.3324
  35   2.0000      -0.408233       -11.1086
  36   2.0000      -0.394973       -10.7478
  37   2.0000      -0.391454       -10.6520
  38   2.0000      -0.375599       -10.2206
  39   2.0000      -0.365922        -9.9573
  40   2.0000      -0.360778        -9.8173
  41   2.0000      -0.348303        -9.4778
  42   2.0000      -0.339513        -9.2386
  43   2.0000      -0.333746        -9.0817
  44   2.0000      -0.321145        -8.7388
  45   2.0000      -0.305277        -8.3070
  46   2.0000      -0.289356        -7.8738
  47   2.0000      -0.273400        -7.4396
  48   2.0000      -0.258544        -7.0353
  49   2.0000      -0.251125        -6.8335
  50   2.0000      -0.234140        -6.3713
  51   0.0000       0.063520         1.7285
  52   0.0000       0.086001         2.3402
  53   0.0000       0.092050         2.5048
  54   0.0000       0.100669         2.7393
  55   0.0000       0.106191         2.8896

MULLIKEN ATOMIC CHARGES
-----------------------
   0 C :    0.299257
   1 C :   -0.258346
   2 C :   -0.295150
   3 C :   -0.005487
   4 O :   -0.506264
   5 H :    0.162486
   6 H :    0.142444
   7 H :    0.151285
   8 H :    0.135110
   9 H :    0.159134
  10 H :    0.139870
  11 H :    0.139878
  12 C :    0.013542
  13 H :    0.149226
  14 H :    0.124830
  15 O :   -0.541163
  16 C :    0.046634
  17 C :    0.077641
  18 C :   -0.293148
  19 C :   -0.031146
  20 O :   -0.511001
  21 H :    0.182741
  22 O :   -0.600471
  23 H :    0.151453
  24 H :    0.161937
  25 H :    0.144502
  26 H :    0.141607
  27 H :    0.151184
  28 H :    0.367414
Sum of atomic charges:    0.0000000

LOEWDIN ATOMIC CHARGES
----------------------
   0 C :    0.174598
   1 C :   -0.215208
   2 C :   -0.215989
   3 C :   -0.031116
   4 O :   -0.322242
   5 H :    0.108189
   6 H :    0.112427
   7 H :    0.121339
   8 H :    0.110324
   9 H :    0.117606
  10 H :    0.101246
  11 H :    0.100961
  12 C :   -0.036994
  13 H :    0.114122
  14 H :    0.091551
  15 O :   -0.332015
  16 C :    0.003551
  17 C :    0.037675
  18 C :   -0.241187
  19 C :   -0.040620
  20 O :   -0.319173
  21 H :    0.126557
  22 O :   -0.412488
  23 H :    0.115510
  24 H :    0.126600
  25 H :    0.112887
  26 H :    0.101835
  27 H :    0.104912
  28 H :    0.285146

  Mayer bond orders larger than 0.100000
B(  0-C ,  1-C ) :   0.9447 B(  0-C ,  4-O ) :   0.8930 B(  0-C ,  5-H ) :   0.9134
B(  0-C , 15-O ) :   0.8400 B(  1-C ,  2-C ) :   0.9558 B(  1-C ,  6-H ) :   0.9417
B(  1-C ,  7-H ) :   0.9374 B(  2-C ,  3-C ) :   0.9543 B(  2-C ,  8-H ) :   0.9462
B(  2-C ,  9-H ) :   0.9446 B(  3-C ,  4-O ) :   0.8460 B(  3-C , 10-H ) :   0.9361
B(  3-C , 11-H ) :   0.9403 B( 12-C , 13-H ) :   0.9268 B( 12-C , 14-H ) :   0.9244
B( 12-C , 15-O ) :   0.8570 B( 12-C , 16-C ) :   0.8991 B( 16-C , 17-C ) :   0.8946
B( 16-C , 20-O ) :   0.8396 B( 16-C , 21-H ) :   0.9154 B( 17-C , 18-C ) :   0.9100
B( 17-C , 22-O ) :   0.8955 B( 17-C , 23-H ) :   0.9340 B( 18-C , 19-C ) :   0.9408
B( 18-C , 24-H ) :   0.9378 B( 18-C , 25-H ) :   0.9325 B( 19-C , 20-O ) :   0.8474
B( 19-C , 26-H ) :   0.9350 B( 19-C , 27-H ) :   0.9374 B( 22-O , 28-H ) :   0.7927

FINAL SINGLE POINT ENERGY      -652.860776795720

DIPOLE MOMENT
-------------
                                X             Y             Z
Electronic contribution:      0.04384      -2.90196       1.67645
Nuclear contribution   :     -0.20015       3.15818      -2.39363
                        -----------------------------------------
Total Dipole Moment    :     -0.15631       0.25622      -0.71718
                        -----------------------------------------
Magnitude (a.u.)       :      0.77745
Magnitude (Debye)      :      1.97612

Rotational constants in cm-1:     0.060702     0.013831     0.013423
Rotational constants in MHz :  1819.788440   414.641899   402.404854

                             ****ORCA TERMINATED NORMALLY****
TOTAL RUN TIME: 0 days 0 hours 23 minutes 47 seconds 492 msec
