                         Program Version 4.2.0 -  RELEASE  -
|  1> # Test redundant internal optimization
|  2> #
|  3> ! RKS B3LYP  Opt TightSCF SmallPrint
|  4>
|  5> %basis
|  6>         Basis "6-31G"
|  7> end
|  8>
|  9> %geom
| 10> Constraints
| 11> { D 4  0  15  12  180.0   C } # D for Dihedral angle
| 12> { D 0  15  12  16  255.0   C } # D for Dihedral angle
| 13> { D 0  4  3  2   C } # D for Dihedral angle
| 14> { D 4  3  2  1   C } # D for Dihedral angle
| 15> { D 3  2  1  0   C } # D for Dihedral angle
| 16> { D 2  1  0  4   C } # D for Dihedral angle
| 17> { D 1  0  4  3   C } # D for Dihedral angle
| 18> { D 16  20  19  18   C } # D for Dihedral angle
| 19> { D 20  19  18  17   C } # D for Dihedral angle
| 20> { D 19  18  17  16   C } # D for Dihedral angle
| 21> { D 18  17  16  20   C } # D for Dihedral angle
| 22> { D 17  16  20  19   C } # D for Dihedral angle
| 23> { D 15  12  16  20   C } # D for Dihedral angle
| 24> end
| 25> end
| 26>
| 27>
| 28> #%pal
| 29> #nprocs 8
| 30> #end
| 31>
| 32> * xyz 0 1
| 33> C  -21.048   26.222   46.251
| 34> C  -20.361   27.558   45.944
| 35> C  -20.329   28.222   47.341
| 36> C  -20.110   27.022   48.296
| 37> O  -20.473   25.807   47.535
| 38> H  -20.833   25.428   45.533
| 39> H  -19.344   27.382   45.576
| 40> H  -20.898   28.157   45.201
| 41> H  -19.543   28.978   47.434
| 42> H  -21.289   28.710   47.548
| 43> H  -20.733   27.082   49.195
| 44> H  -19.064   26.913   48.597
| 45> C  -23.309   26.834   45.072
| 46> H  -22.638   26.681   44.217
| 47> H  -24.212   26.230   44.912
| 48> O  -22.586   26.394   46.375
| 49> C  -23.736   28.327   45.097
| 50> C  -24.546   28.695   43.849
| 51> C  -25.942   28.130   44.203
| 52> C  -26.038   28.362   45.731
| 53> O  -24.657   28.578   46.211
| 54> H  -22.854   28.949   45.264
| 55> O  -24.604   30.239   43.688
| 56> H  -24.135   28.267   42.928
| 57> H  -26.751   28.623   43.654
| 58> H  -25.984   27.059   43.971
| 59> H  -26.471   27.505   46.259
| 60> H  -26.611   29.259   45.982
| 61> H  -25.013   30.689   44.599
| 62> *
| 63>
| 64>                          ****END OF INPUT****
 Total Charge           Charge          ....    0
 Multiplicity           Mult            ....    1
 Number of Electrons    NEL             ....  102
FINAL SINGLE POINT ENERGY      -652.828116611798
FINAL SINGLE POINT ENERGY      -652.850541441497
FINAL SINGLE POINT ENERGY      -652.854486484754
FINAL SINGLE POINT ENERGY      -652.855181307313
FINAL SINGLE POINT ENERGY      -652.855277197900
FINAL SINGLE POINT ENERGY      -652.855287091618
                    ***********************HURRAY********************

CARTESIAN COORDINATES (ANGSTROEM)
---------------------------------
  C    -21.065797   26.266852   46.162416
  C    -20.352408   27.592276   45.902512
  C    -20.416178   28.272423   47.293870
  C    -20.275569   27.079054   48.260606
  O    -20.598143   25.871629   47.455757
  H    -20.823918   25.463338   45.458355
  H    -19.313272   27.381393   45.621938
  H    -20.797538   28.191610   45.104444
  H    -19.627067   29.017809   47.430623
  H    -21.385508   28.762063   47.426565
  H    -20.965714   27.125919   49.105989
  H    -19.254050   26.944646   48.628151
  C    -23.245016   26.796021   45.073855
  H    -22.633913   26.641611   44.170149
  H    -24.110210   26.127565   45.014298
  O    -22.518063   26.398824   46.267256
  C    -23.709314   28.254843   45.126485
  C    -24.530998   28.682374   43.901246
  C    -25.943214   28.150312   44.265365
  C    -26.002939   28.344850   45.801247
  O    -24.602575   28.504360   46.260115
  H    -22.851069   28.917012   45.265679
  O    -24.520351   30.128989   43.751095
  H    -24.154166   28.294414   42.953791
  H    -26.714465   28.711202   43.732266
  H    -26.035512   27.093618   43.991485
  H    -26.452455   27.492980   46.320128
  H    -26.542708   29.252937   46.088811
  H    -24.669869   30.541075   44.628503

 Multiplicity           Mult            ....    1
 Number of Electrons    NEL             ....  102
 Basis Dimension        Dim             ....  149

ORBITAL ENERGIES
----------------

  NO   OCC          E(Eh)            E(eV)
   0   2.0000     -19.143645      -520.9251
   1   2.0000     -19.143378      -520.9178
   2   2.0000     -19.138142      -520.7753
   3   2.0000     -19.136834      -520.7397
   4   2.0000     -10.278807      -279.7005
   5   2.0000     -10.247490      -278.8484
   6   2.0000     -10.237412      -278.5742
   7   2.0000     -10.235511      -278.5224
   8   2.0000     -10.233002      -278.4542
   9   2.0000     -10.222158      -278.1591
  10   2.0000     -10.193467      -277.3783
  11   2.0000     -10.188166      -277.2341
  12   2.0000     -10.184729      -277.1406
  13   2.0000      -1.051736       -28.6192
  14   2.0000      -1.039707       -28.2919
  15   2.0000      -1.010015       -27.4839
  16   2.0000      -0.990741       -26.9594
  17   2.0000      -0.788206       -21.4482
  18   2.0000      -0.784896       -21.3581
  19   2.0000      -0.769823       -20.9479
  20   2.0000      -0.733162       -19.9504
  21   2.0000      -0.677737       -18.4422
  22   2.0000      -0.608540       -16.5592
  23   2.0000      -0.601012       -16.3544
  24   2.0000      -0.596506       -16.2318
  25   2.0000      -0.581519       -15.8239
  26   2.0000      -0.524159       -14.2631
  27   2.0000      -0.513009       -13.9597
  28   2.0000      -0.500415       -13.6170
  29   2.0000      -0.493462       -13.4278
  30   2.0000      -0.473135       -12.8747
  31   2.0000      -0.457733       -12.4556
  32   2.0000      -0.455084       -12.3835
  33   2.0000      -0.444290       -12.0897
  34   2.0000      -0.429352       -11.6833
  35   2.0000      -0.410472       -11.1695
  36   2.0000      -0.403100       -10.9689
  37   2.0000      -0.397360       -10.8127
  38   2.0000      -0.377696       -10.2776
  39   2.0000      -0.375068       -10.2061
  40   2.0000      -0.361559        -9.8385
  41   2.0000      -0.357366        -9.7244
  42   2.0000      -0.352601        -9.5948
  43   2.0000      -0.335257        -9.1228
  44   2.0000      -0.313770        -8.5381
  45   2.0000      -0.308385        -8.3916
  46   2.0000      -0.298592        -8.1251
  47   2.0000      -0.275246        -7.4898
  48   2.0000      -0.264553        -7.1988
  49   2.0000      -0.255906        -6.9636
  50   2.0000      -0.237496        -6.4626
  51   0.0000       0.062431         1.6988
  52   0.0000       0.080766         2.1977
  53   0.0000       0.086333         2.3492
  54   0.0000       0.087163         2.3718
  55   0.0000       0.097034         2.6404

MULLIKEN ATOMIC CHARGES
-----------------------
   0 C :    0.301275
   1 C :   -0.284400
   2 C :   -0.305954
   3 C :    0.000280
   4 O :   -0.500207
   5 H :    0.140726
   6 H :    0.148117
   7 H :    0.138201
   8 H :    0.141805
   9 H :    0.174351
  10 H :    0.159215
  11 H :    0.140547
  12 C :   -0.015869
  13 H :    0.118728
  14 H :    0.151343
  15 O :   -0.493032
  16 C :    0.062875
  17 C :    0.076811
  18 C :   -0.296309
  19 C :   -0.030022
  20 O :   -0.511026
  21 H :    0.161207
  22 O :   -0.600939
  23 H :    0.148628
  24 H :    0.164123
  25 H :    0.144444
  26 H :    0.155031
  27 H :    0.144869
  28 H :    0.365181
Sum of atomic charges:   -0.0000000

LOEWDIN ATOMIC CHARGES
----------------------
   0 C :    0.182052
   1 C :   -0.234627
   2 C :   -0.218770
   3 C :   -0.023499
   4 O :   -0.300756
   5 H :    0.095900
   6 H :    0.116216
   7 H :    0.109903
   8 H :    0.114330
   9 H :    0.122567
  10 H :    0.112230
  11 H :    0.101748
  12 C :   -0.044289
  13 H :    0.093332
  14 H :    0.111006
  15 O :   -0.324270
  16 C :    0.006641
  17 C :    0.034764
  18 C :   -0.240983
  19 C :   -0.038029
  20 O :   -0.322049
  21 H :    0.112243
  22 O :   -0.414254
  23 H :    0.113744
  24 H :    0.127465
  25 H :    0.113328
  26 H :    0.108545
  27 H :    0.102016
  28 H :    0.283496

  Mayer bond orders larger than 0.100000
B(  0-C ,  1-C ) :   0.9263 B(  0-C ,  4-O ) :   0.9430 B(  0-C ,  5-H ) :   0.9202
B(  0-C , 15-O ) :   0.8388 B(  1-C ,  2-C ) :   0.9511 B(  1-C ,  6-H ) :   0.9325
B(  1-C ,  7-H ) :   0.9292 B(  2-C ,  3-C ) :   0.9551 B(  2-C ,  8-H ) :   0.9448
B(  2-C ,  9-H ) :   0.9380 B(  3-C ,  4-O ) :   0.8326 B(  3-C , 10-H ) :   0.9339
B(  3-C , 11-H ) :   0.9400 B( 12-C , 13-H ) :   0.9133 B( 12-C , 14-H ) :   0.9323
B( 12-C , 15-O ) :   0.8647 B( 12-C , 16-C ) :   0.8782 B( 16-C , 17-C ) :   0.8937
B( 16-C , 20-O ) :   0.8651 B( 16-C , 21-H ) :   0.9191 B( 17-C , 18-C ) :   0.9128
B( 17-C , 22-O ) :   0.8936 B( 17-C , 23-H ) :   0.9341 B( 18-C , 19-C ) :   0.9388
B( 18-C , 24-H ) :   0.9371 B( 18-C , 25-H ) :   0.9342 B( 19-C , 20-O ) :   0.8476
B( 19-C , 26-H ) :   0.9331 B( 19-C , 27-H ) :   0.9378 B( 22-O , 28-H ) :   0.7938

FINAL SINGLE POINT ENERGY      -652.855289144450

DIPOLE MOMENT
-------------
                                X             Y             Z
Electronic contribution:     -0.43700      -1.68992       1.19441
Nuclear contribution   :      0.33089       2.10083      -1.87372
                        -----------------------------------------
Total Dipole Moment    :     -0.10611       0.41091      -0.67931
                        -----------------------------------------
Magnitude (a.u.)       :      0.80098
Magnitude (Debye)      :      2.03592

Rotational constants in cm-1:     0.056621     0.013154     0.012685
Rotational constants in MHz :  1697.451629   394.348281   380.290293

                             ****ORCA TERMINATED NORMALLY****
TOTAL RUN TIME: 0 days 0 hours 32 minutes 1 seconds 249 msec
