                         Program Version 4.2.1 -  RELEASE  -
|  1> # Test redundant internal optimization
|  2> #
|  3> ! RKS B3LYP  Opt TightSCF SmallPrint
|  4>
|  5> %basis
|  6>         Basis "6-31G"
|  7> end
|  8>
|  9> %geom
| 10> Constraints
| 11> { D 4  0  19  14  15.0   C } # D for Dihedral angle
| 12> { D 0  19  14  12  120.0   C } # D for Dihedral angle
| 13> { D 0  4  3  2   C } # D for Dihedral angle
| 14> { D 4  3  2  1   C } # D for Dihedral angle
| 15> { D 3  2  1  0   C } # D for Dihedral angle
| 16> { D 2  1  0  4   C } # D for Dihedral angle
| 17> { D 1  0  4  3   C } # D for Dihedral angle
| 18> { D 14  15  16  17   C } # D for Dihedral angle
| 19> { D 15  16  17  12   C } # D for Dihedral angle
| 20> { D 16  17  12  14   C } # D for Dihedral angle
| 21> { D 17  12  14  15   C } # D for Dihedral angle
| 22> { D 12  14  15  16   C } # D for Dihedral angle
| 23> end
| 24> end
| 25>
| 26>
| 27> #%pal
| 28> #nprocs 8
| 29> #end
| 30>
| 31> * xyz 0 1
| 32> C  -21.048   26.222   46.251
| 33> C  -20.361   27.558   45.944
| 34> C  -20.329   28.222   47.341
| 35> C  -20.110   27.022   48.296
| 36> O  -20.473   25.807   47.535
| 37> H  -20.833   25.428   45.533
| 38> H  -19.344   27.382   45.576
| 39> H  -20.898   28.157   45.201
| 40> H  -19.543   28.978   47.434
| 41> H  -21.289   28.710   47.548
| 42> H  -20.733   27.082   49.195
| 43> H  -19.064   26.913   48.597
| 44> C  -23.666   27.777   47.963
| 45> H  -23.786   27.976   49.039
| 46> C  -22.954   26.442   47.718
| 47> C  -24.102   25.429   47.935
| 48> C  -25.341   26.177   47.381
| 49> O  -24.976   27.610   47.324
| 50> H  -23.189   28.638   47.491
| 51> O  -22.472   26.381   46.366
| 52> H  -22.108   26.276   48.394
| 53> H  -23.929   24.475   47.428
| 54> H  -24.225   25.221   49.005
| 55> H  -26.224   26.056   48.016
| 56> H  -25.593   25.869   46.361
| 57> *
| 58>
| 59>                          ****END OF INPUT****
 Total Charge           Charge          ....    0
 Multiplicity           Mult            ....    1
 Number of Electrons    NEL             ....   86
FINAL SINGLE POINT ENERGY      -538.415372461084
FINAL SINGLE POINT ENERGY      -538.426962783405
FINAL SINGLE POINT ENERGY      -538.428589665787
FINAL SINGLE POINT ENERGY      -538.428916922576
FINAL SINGLE POINT ENERGY      -538.428948802110
FINAL SINGLE POINT ENERGY      -538.428961252892
                    ***********************HURRAY********************

CARTESIAN COORDINATES (ANGSTROEM)
---------------------------------
  C    -21.042619   26.250980   46.367262
  C    -20.375319   27.561053   45.938982
  C    -20.135840   28.257727   47.302965
  C    -19.815266   27.075075   48.245777
  O    -20.316820   25.855853   47.552539
  H    -20.917865   25.439761   45.647023
  H    -19.424603   27.334171   45.443203
  H    -21.006338   28.138781   45.260626
  H    -19.321269   28.987504   47.266757
  H    -21.041001   28.783034   47.624211
  H    -20.300376   27.153286   49.223060
  H    -18.741200   26.928615   48.391094
  C    -23.847172   27.757775   48.042952
  H    -24.084606   27.927676   49.104504
  C    -23.086592   26.443457   47.864313
  C    -24.229408   25.410935   47.927699
  C    -25.409118   26.141076   47.244102
  O    -25.066631   27.582606   47.253221
  H    -23.323472   28.625951   47.639928
  O    -22.482673   26.379896   46.536865
  H    -22.328519   26.260402   48.628843
  H    -23.946908   24.485290   47.422588
  H    -24.460085   25.181893   48.974623
  H    -26.358625   25.996500   47.771137
  H    -25.527675   25.848703   46.197724

 Multiplicity           Mult            ....    1
 Number of Electrons    NEL             ....   86
 Basis Dimension        Dim             ....  127

ORBITAL ENERGIES
----------------

  NO   OCC          E(Eh)            E(eV)
   0   2.0000     -19.153430      -521.1913
   1   2.0000     -19.135171      -520.6945
   2   2.0000     -19.124065      -520.3923
   3   2.0000     -10.280320      -279.7417
   4   2.0000     -10.236195      -278.5410
   5   2.0000     -10.236037      -278.5367
   6   2.0000     -10.219346      -278.0826
   7   2.0000     -10.215021      -277.9649
   8   2.0000     -10.194802      -277.4147
   9   2.0000     -10.186969      -277.2015
  10   2.0000     -10.179082      -276.9869
  11   2.0000      -1.055775       -28.7291
  12   2.0000      -1.011724       -27.5304
  13   2.0000      -0.987435       -26.8695
  14   2.0000      -0.793602       -21.5950
  15   2.0000      -0.779745       -21.2179
  16   2.0000      -0.739539       -20.1239
  17   2.0000      -0.721926       -19.6446
  18   2.0000      -0.616336       -16.7713
  19   2.0000      -0.605043       -16.4641
  20   2.0000      -0.594343       -16.1729
  21   2.0000      -0.564218       -15.3532
  22   2.0000      -0.523264       -14.2387
  23   2.0000      -0.503420       -13.6988
  24   2.0000      -0.489182       -13.3113
  25   2.0000      -0.482110       -13.1189
  26   2.0000      -0.452303       -12.3078
  27   2.0000      -0.436491       -11.8775
  28   2.0000      -0.431836       -11.7509
  29   2.0000      -0.416995       -11.3470
  30   2.0000      -0.410606       -11.1732
  31   2.0000      -0.382373       -10.4049
  32   2.0000      -0.371185       -10.1004
  33   2.0000      -0.363104        -9.8806
  34   2.0000      -0.361148        -9.8273
  35   2.0000      -0.358543        -9.7564
  36   2.0000      -0.345610        -9.4045
  37   2.0000      -0.329506        -8.9663
  38   2.0000      -0.306879        -8.3506
  39   2.0000      -0.297326        -8.0907
  40   2.0000      -0.268363        -7.3025
  41   2.0000      -0.250074        -6.8049
  42   2.0000      -0.227369        -6.1870
  43   0.0000       0.069314         1.8861
  44   0.0000       0.090780         2.4702
  45   0.0000       0.095699         2.6041
  46   0.0000       0.103199         2.8082
  47   0.0000       0.112601         3.0640

MULLIKEN ATOMIC CHARGES
-----------------------
   0 C :    0.301680
   1 C :   -0.257845
   2 C :   -0.313639
   3 C :   -0.022862
   4 O :   -0.511266
   5 H :    0.159453
   6 H :    0.145674
   7 H :    0.163891
   8 H :    0.150183
   9 H :    0.151648
  10 H :    0.142895
  11 H :    0.153866
  12 C :    0.008954
  13 H :    0.119744
  14 C :    0.050790
  15 C :   -0.278887
  16 C :    0.003416
  17 O :   -0.523016
  18 H :    0.152219
  19 O :   -0.529541
  20 H :    0.153602
  21 H :    0.158716
  22 H :    0.136244
  23 H :    0.130670
  24 H :    0.153412
Sum of atomic charges:   -0.0000000

LOEWDIN ATOMIC CHARGES
----------------------
   0 C :    0.183846
   1 C :   -0.223583
   2 C :   -0.221670
   3 C :   -0.034930
   4 O :   -0.319341
   5 H :    0.107366
   6 H :    0.114987
   7 H :    0.127134
   8 H :    0.118893
   9 H :    0.111055
  10 H :    0.100227
  11 H :    0.108138
  12 C :   -0.043578
  13 H :    0.089138
  14 C :    0.034991
  15 C :   -0.225269
  16 C :   -0.027751
  17 O :   -0.331692
  18 H :    0.111527
  19 O :   -0.331770
  20 H :    0.111100
  21 H :    0.126491
  22 H :    0.110009
  23 H :    0.096249
  24 H :    0.108434

  Mayer bond orders larger than 0.100000
B(  0-C ,  1-C ) :   0.9218 B(  0-C ,  4-O ) :   0.9055 B(  0-C ,  5-H ) :   0.9327
B(  0-C , 19-O ) :   0.8659 B(  1-C ,  2-C ) :   0.9542 B(  1-C ,  6-H ) :   0.9344
B(  1-C ,  7-H ) :   0.9353 B(  2-C ,  3-C ) :   0.9506 B(  2-C ,  8-H ) :   0.9444
B(  2-C ,  9-H ) :   0.9381 B(  3-C ,  4-O ) :   0.8321 B(  3-C , 10-H ) :   0.9315
B(  3-C , 11-H ) :   0.9403 B( 12-C , 13-H ) :   0.9119 B( 12-C , 14-C ) :   0.9220
B( 12-C , 17-O ) :   0.8701 B( 12-C , 18-H ) :   0.9283 B( 14-C , 15-C ) :   0.9470
B( 14-C , 19-O ) :   0.8250 B( 14-C , 20-H ) :   0.9071 B( 15-C , 16-C ) :   0.9488
B( 15-C , 21-H ) :   0.9399 B( 15-C , 22-H ) :   0.9405 B( 16-C , 17-O ) :   0.8538
B( 16-C , 23-H ) :   0.9343 B( 16-C , 24-H ) :   0.9366

FINAL SINGLE POINT ENERGY      -538.428961917388

DIPOLE MOMENT
-------------
                                X             Y             Z
Electronic contribution:     -1.15651      -1.74147      -1.66511
Nuclear contribution   :      2.02524       1.88404       2.24636
                        -----------------------------------------
Total Dipole Moment    :      0.86873       0.14257       0.58124
                        -----------------------------------------
Magnitude (a.u.)       :      1.05492
Magnitude (Debye)      :      2.68140

Rotational constants in cm-1:     0.077777     0.022352     0.021329
Rotational constants in MHz :  2331.697948   670.085144   639.422561

                             ****ORCA TERMINATED NORMALLY****
TOTAL RUN TIME: 0 days 0 hours 7 minutes 52 seconds 162 msec
