                         Program Version 4.2.0 -  RELEASE  -
|  1> # Test redundant internal optimization
|  2> #
|  3> ! RKS B3LYP  Opt TightSCF SmallPrint
|  4>
|  5> %basis
|  6>         Basis "6-31G"
|  7> end
|  8>
|  9> %geom
| 10> Constraints
| 11> { D 4  0  15  12  285.0   C } # D for Dihedral angle
| 12> { D 0  15  12  16  285.0   C } # D for Dihedral angle
| 13> { D 0  4  3  2   C } # D for Dihedral angle
| 14> { D 4  3  2  1   C } # D for Dihedral angle
| 15> { D 3  2  1  0   C } # D for Dihedral angle
| 16> { D 2  1  0  4   C } # D for Dihedral angle
| 17> { D 1  0  4  3   C } # D for Dihedral angle
| 18> { D 16  20  19  18   C } # D for Dihedral angle
| 19> { D 20  19  18  17   C } # D for Dihedral angle
| 20> { D 19  18  17  16   C } # D for Dihedral angle
| 21> { D 18  17  16  20   C } # D for Dihedral angle
| 22> { D 17  16  20  19   C } # D for Dihedral angle
| 23> { D 15  12  16  20   C } # D for Dihedral angle
| 24> end
| 25> end
| 26>
| 27>
| 28> #%pal
| 29> #nprocs 8
| 30> #end
| 31>
| 32> * xyz 0 1
| 33> C  -21.048   26.222   46.251
| 34> C  -20.361   27.558   45.944
| 35> C  -20.329   28.222   47.341
| 36> C  -20.110   27.022   48.296
| 37> O  -20.473   25.807   47.535
| 38> H  -20.833   25.428   45.533
| 39> H  -19.344   27.382   45.576
| 40> H  -20.898   28.157   45.201
| 41> H  -19.543   28.978   47.434
| 42> H  -21.289   28.710   47.548
| 43> H  -20.733   27.082   49.195
| 44> H  -19.064   26.913   48.597
| 45> C  -23.396   25.070   46.435
| 46> H  -22.909   24.379   47.135
| 47> H  -24.416   25.259   46.795
| 48> O  -22.586   26.394   46.375
| 49> C  -23.505   24.369   45.053
| 50> C  -24.097   25.310   43.997
| 51> C  -22.871   26.181   43.631
| 52> C  -21.688   25.185   43.735
| 53> O  -22.171   24.041   44.538
| 54> H  -24.043   23.427   45.171
| 55> H  -24.434   24.734   43.128
| 56> O  -25.293   26.146   44.526
| 57> H  -22.951   26.630   42.636
| 58> H  -22.756   26.994   44.358
| 59> H  -20.812   25.624   44.226
| 60> H  -21.387   24.790   42.761
| 61> H  -24.977   26.731   45.396
| 62> *
| 63>
| 64>                          ****END OF INPUT****
 Total Charge           Charge          ....    0
 Multiplicity           Mult            ....    1
 Number of Electrons    NEL             ....  102
FINAL SINGLE POINT ENERGY      -652.808961921461
FINAL SINGLE POINT ENERGY      -652.844837219083
FINAL SINGLE POINT ENERGY      -652.860610356409
FINAL SINGLE POINT ENERGY      -652.863742961610
FINAL SINGLE POINT ENERGY      -652.864231897374
FINAL SINGLE POINT ENERGY      -652.864331594517
FINAL SINGLE POINT ENERGY      -652.864350826319
FINAL SINGLE POINT ENERGY      -652.864355427908
                    ***********************HURRAY********************

CARTESIAN COORDINATES (ANGSTROEM)
---------------------------------
  C    -20.963303   26.277673   46.342749
  C    -20.351744   27.665723   46.151297
  C    -20.385493   28.227646   47.591085
  C    -20.116055   26.979078   48.460353
  O    -20.397951   25.809010   47.590372
  H    -20.722044   25.511923   45.609860
  H    -19.321026   27.558569   45.794341
  H    -20.912809   28.275292   45.439483
  H    -19.642656   29.014600   47.753023
  H    -21.377660   28.637174   47.801656
  H    -20.757084   26.926694   49.344032
  H    -19.069730   26.893982   48.768594
  C    -23.193307   25.224961   46.460527
  H    -22.749467   24.531999   47.185847
  H    -24.182924   25.518139   46.821527
  O    -22.401988   26.454988   46.457299
  C    -23.377953   24.499493   45.123279
  C    -24.151993   25.281387   44.044396
  C    -23.000259   26.031378   43.304919
  C    -21.840363   25.014966   43.359134
  O    -22.178295   24.036229   44.431415
  H    -23.926628   23.583814   45.382120
  H    -24.661984   24.586911   43.373605
  O    -25.194473   26.142960   44.554014
  H    -23.271079   26.311319   42.283987
  H    -22.757168   26.938901   43.868677
  H    -20.873716   25.476684   43.579463
  H    -21.747190   24.437830   42.434653
  H    -24.790659   26.895678   45.035291

 Multiplicity           Mult            ....    1
 Number of Electrons    NEL             ....  102
 Basis Dimension        Dim             ....  149

ORBITAL ENERGIES
----------------

  NO   OCC          E(Eh)            E(eV)
   0   2.0000     -19.148079      -521.0457
   1   2.0000     -19.146366      -520.9991
   2   2.0000     -19.144069      -520.9366
   3   2.0000     -19.138459      -520.7839
   4   2.0000     -10.275122      -279.6003
   5   2.0000     -10.241715      -278.6912
   6   2.0000     -10.233437      -278.4660
   7   2.0000     -10.233087      -278.4565
   8   2.0000     -10.227490      -278.3042
   9   2.0000     -10.224087      -278.2116
  10   2.0000     -10.190061      -277.2857
  11   2.0000     -10.187891      -277.2266
  12   2.0000     -10.185975      -277.1745
  13   2.0000      -1.053576       -28.6693
  14   2.0000      -1.032543       -28.0969
  15   2.0000      -1.015997       -27.6467
  16   2.0000      -0.992219       -26.9997
  17   2.0000      -0.789881       -21.4938
  18   2.0000      -0.778415       -21.1818
  19   2.0000      -0.768597       -20.9146
  20   2.0000      -0.731511       -19.9054
  21   2.0000      -0.680306       -18.5121
  22   2.0000      -0.609996       -16.5988
  23   2.0000      -0.602126       -16.3847
  24   2.0000      -0.597983       -16.2720
  25   2.0000      -0.567542       -15.4436
  26   2.0000      -0.529438       -14.4067
  27   2.0000      -0.509176       -13.8554
  28   2.0000      -0.502623       -13.6771
  29   2.0000      -0.486408       -13.2358
  30   2.0000      -0.464154       -12.6303
  31   2.0000      -0.459546       -12.5049
  32   2.0000      -0.443806       -12.0766
  33   2.0000      -0.440533       -11.9875
  34   2.0000      -0.427875       -11.6431
  35   2.0000      -0.411499       -11.1975
  36   2.0000      -0.403983       -10.9929
  37   2.0000      -0.397112       -10.8060
  38   2.0000      -0.383983       -10.4487
  39   2.0000      -0.365436        -9.9440
  40   2.0000      -0.362955        -9.8765
  41   2.0000      -0.356208        -9.6929
  42   2.0000      -0.346000        -9.4151
  43   2.0000      -0.333121        -9.0647
  44   2.0000      -0.328274        -8.9328
  45   2.0000      -0.313870        -8.5408
  46   2.0000      -0.303300        -8.2532
  47   2.0000      -0.278523        -7.5790
  48   2.0000      -0.266443        -7.2503
  49   2.0000      -0.253389        -6.8951
  50   2.0000      -0.241001        -6.5580
  51   0.0000       0.066437         1.8078
  52   0.0000       0.073912         2.0113
  53   0.0000       0.085819         2.3352
  54   0.0000       0.096926         2.6375
  55   0.0000       0.102384         2.7860

MULLIKEN ATOMIC CHARGES
-----------------------
   0 C :    0.270541
   1 C :   -0.266582
   2 C :   -0.298178
   3 C :   -0.002622
   4 O :   -0.512596
   5 H :    0.181901
   6 H :    0.146381
   7 H :    0.149473
   8 H :    0.140993
   9 H :    0.161135
  10 H :    0.147714
  11 H :    0.142148
  12 C :   -0.053746
  13 H :    0.169523
  14 H :    0.155691
  15 O :   -0.534169
  16 C :    0.090561
  17 C :    0.093149
  18 C :   -0.315679
  19 C :   -0.019987
  20 O :   -0.517918
  21 H :    0.154090
  22 H :    0.165086
  23 O :   -0.605338
  24 H :    0.150891
  25 H :    0.153908
  26 H :    0.134212
  27 H :    0.151995
  28 H :    0.367422
Sum of atomic charges:    0.0000000

LOEWDIN ATOMIC CHARGES
----------------------
   0 C :    0.165280
   1 C :   -0.217285
   2 C :   -0.215681
   3 C :   -0.027822
   4 O :   -0.323834
   5 H :    0.115234
   6 H :    0.114780
   7 H :    0.118139
   8 H :    0.113227
   9 H :    0.118497
  10 H :    0.105702
  11 H :    0.102588
  12 C :   -0.057318
  13 H :    0.116299
  14 H :    0.119399
  15 O :   -0.340811
  16 C :    0.006650
  17 C :    0.036685
  18 C :   -0.242281
  19 C :   -0.031995
  20 O :   -0.323499
  21 H :    0.117171
  22 H :    0.117297
  23 O :   -0.408124
  24 H :    0.120029
  25 H :    0.114352
  26 H :    0.096011
  27 H :    0.106810
  28 H :    0.284497

  Mayer bond orders larger than 0.100000
B(  0-C ,  1-C ) :   0.9457 B(  0-C ,  4-O ) :   0.8990 B(  0-C ,  5-H ) :   0.8951
B(  0-C , 15-O ) :   0.8377 B(  1-C ,  2-C ) :   0.9542 B(  1-C ,  6-H ) :   0.9405
B(  1-C ,  7-H ) :   0.9362 B(  2-C ,  3-C ) :   0.9556 B(  2-C ,  8-H ) :   0.9453
B(  2-C ,  9-H ) :   0.9444 B(  3-C ,  4-O ) :   0.8393 B(  3-C , 10-H ) :   0.9357
B(  3-C , 11-H ) :   0.9402 B( 12-C , 13-H ) :   0.9192 B( 12-C , 14-H ) :   0.9213
B( 12-C , 15-O ) :   0.8527 B( 12-C , 16-C ) :   0.8973 B( 16-C , 17-C ) :   0.8808
B( 16-C , 20-O ) :   0.8644 B( 16-C , 21-H ) :   0.9211 B( 17-C , 18-C ) :   0.9285
B( 17-C , 22-H ) :   0.9360 B( 17-C , 23-O ) :   0.9058 B( 18-C , 19-C ) :   0.9411
B( 18-C , 24-H ) :   0.9411 B( 18-C , 25-H ) :   0.9314 B( 19-C , 20-O ) :   0.8371
B( 19-C , 26-H ) :   0.9232 B( 19-C , 27-H ) :   0.9405 B( 23-O , 28-H ) :   0.7901

FINAL SINGLE POINT ENERGY      -652.864355363431

DIPOLE MOMENT
-------------
                                X             Y             Z
Electronic contribution:     -2.72565      -4.20424       0.20594
Nuclear contribution   :      3.21521       5.18766      -0.47128
                        -----------------------------------------
Total Dipole Moment    :      0.48956       0.98342      -0.26534
                        -----------------------------------------
Magnitude (a.u.)       :      1.13013
Magnitude (Debye)      :      2.87256

Rotational constants in cm-1:     0.049453     0.015821     0.015302
Rotational constants in MHz :  1482.560968   474.289708   458.750126

                             ****ORCA TERMINATED NORMALLY****
TOTAL RUN TIME: 0 days 0 hours 43 minutes 41 seconds 832 msec
