                         Program Version 4.2.0 -  RELEASE  -
|  1> # Test redundant internal optimization
|  2> #
|  3> ! RKS B3LYP  Opt TightSCF SmallPrint
|  4>
|  5> %basis
|  6>         Basis "6-31G"
|  7> end
|  8>
|  9> %geom
| 10> Constraints
| 11> { D 4  0  15  12  0.0   C } # D for Dihedral angle
| 12> { D 0  15  12  16  285.0   C } # D for Dihedral angle
| 13> { D 0  4  3  2   C } # D for Dihedral angle
| 14> { D 4  3  2  1   C } # D for Dihedral angle
| 15> { D 3  2  1  0   C } # D for Dihedral angle
| 16> { D 2  1  0  4   C } # D for Dihedral angle
| 17> { D 1  0  4  3   C } # D for Dihedral angle
| 18> { D 16  20  19  18   C } # D for Dihedral angle
| 19> { D 20  19  18  17   C } # D for Dihedral angle
| 20> { D 19  18  17  16   C } # D for Dihedral angle
| 21> { D 18  17  16  20   C } # D for Dihedral angle
| 22> { D 17  16  20  19   C } # D for Dihedral angle
| 23> { D 15  12  16  20   C } # D for Dihedral angle
| 24> end
| 25> end
| 26>
| 27>
| 28> #%pal
| 29> #nprocs 8
| 30> #end
| 31>
| 32> * xyz 0 1
| 33> C  -21.048   26.222   46.251
| 34> C  -20.361   27.558   45.944
| 35> C  -20.329   28.222   47.341
| 36> C  -20.110   27.022   48.296
| 37> O  -20.473   25.807   47.535
| 38> H  -20.833   25.428   45.533
| 39> H  -19.344   27.382   45.576
| 40> H  -20.898   28.157   45.201
| 41> H  -19.543   28.978   47.434
| 42> H  -21.289   28.710   47.548
| 43> H  -20.733   27.082   49.195
| 44> H  -19.064   26.913   48.597
| 45> C  -23.172   26.101   47.783
| 46> H  -22.548   26.588   48.543
| 47> H  -24.190   26.502   47.867
| 48> O  -22.586   26.394   46.375
| 49> C  -23.235   24.581   48.103
| 50> C  -23.923   24.324   49.448
| 51> C  -25.416   24.463   49.069
| 52> C  -25.470   23.883   47.633
| 53> O  -24.081   23.887   47.127
| 54> H  -22.233   24.156   48.019
| 55> H  -23.705   23.307   49.795
| 56> O  -23.488   25.322   50.557
| 57> H  -26.081   23.932   49.758
| 58> H  -25.708   25.520   49.069
| 59> H  -26.098   24.480   46.963
| 60> H  -25.817   22.846   47.615
| 61> H  -23.697   26.347   50.233
| 62> *
| 63>
| 64>                          ****END OF INPUT****
 Total Charge           Charge          ....    0
 Multiplicity           Mult            ....    1
 Number of Electrons    NEL             ....  102
FINAL SINGLE POINT ENERGY      -652.825290080712
FINAL SINGLE POINT ENERGY      -652.848470046385
FINAL SINGLE POINT ENERGY      -652.853694950629
FINAL SINGLE POINT ENERGY      -652.854550705655
FINAL SINGLE POINT ENERGY      -652.854723622733
FINAL SINGLE POINT ENERGY      -652.854761076837
FINAL SINGLE POINT ENERGY      -652.854766011980
                    ***********************HURRAY********************

CARTESIAN COORDINATES (ANGSTROEM)
---------------------------------
  C    -21.075344   26.224577   46.325972
  C    -20.433250   27.561532   45.950188
  C    -20.264894   28.232653   47.334596
  C    -19.943116   27.041086   48.265792
  O    -20.382252   25.822799   47.529060
  H    -20.920708   25.423743   45.600117
  H    -19.460189   27.376352   45.480715
  H    -21.059122   28.135575   45.264006
  H    -19.474349   28.989253   47.344696
  H    -21.201583   28.717757   47.629681
  H    -20.465831   27.079605   49.225657
  H    -18.871006   26.923040   48.447668
  C    -23.140061   26.131270   47.764618
  H    -22.603635   26.643354   48.572229
  H    -24.131061   26.583266   47.656348
  O    -22.517536   26.379037   46.475840
  C    -23.252159   24.643879   48.115691
  C    -23.966562   24.385489   49.453877
  C    -25.467293   24.459340   49.037112
  C    -25.453185   23.849849   47.617032
  O    -24.048607   23.899475   47.143892
  H    -22.252373   24.205952   48.094510
  H    -23.717079   23.383494   49.810248
  O    -23.594564   25.264307   50.546224
  H    -26.117193   23.916746   49.728597
  H    -25.791603   25.508901   49.020855
  H    -26.088195   24.396575   46.912456
  H    -25.754808   22.798048   47.617502
  H    -24.025442   26.137046   50.442822

 Multiplicity           Mult            ....    1
 Number of Electrons    NEL             ....  102
 Basis Dimension        Dim             ....  149

ORBITAL ENERGIES
----------------

  NO   OCC          E(Eh)            E(eV)
   0   2.0000     -19.148876      -521.0674
   1   2.0000     -19.147267      -521.0236
   2   2.0000     -19.133185      -520.6404
   3   2.0000     -19.130516      -520.5678
   4   2.0000     -10.274691      -279.5886
   5   2.0000     -10.240871      -278.6683
   6   2.0000     -10.230912      -278.3973
   7   2.0000     -10.226358      -278.2733
   8   2.0000     -10.226003      -278.2637
   9   2.0000     -10.219501      -278.0867
  10   2.0000     -10.193028      -277.3664
  11   2.0000     -10.190381      -277.2944
  12   2.0000     -10.183544      -277.1083
  13   2.0000      -1.052050       -28.6277
  14   2.0000      -1.029556       -28.0156
  15   2.0000      -1.010588       -27.4995
  16   2.0000      -0.988099       -26.8875
  17   2.0000      -0.789288       -21.4776
  18   2.0000      -0.778248       -21.1772
  19   2.0000      -0.763051       -20.7637
  20   2.0000      -0.732135       -19.9224
  21   2.0000      -0.675947       -18.3934
  22   2.0000      -0.607796       -16.5390
  23   2.0000      -0.602145       -16.3852
  24   2.0000      -0.597776       -16.2663
  25   2.0000      -0.561566       -15.2810
  26   2.0000      -0.521192       -14.1824
  27   2.0000      -0.512061       -13.9339
  28   2.0000      -0.499353       -13.5881
  29   2.0000      -0.491746       -13.3811
  30   2.0000      -0.464857       -12.6494
  31   2.0000      -0.456959       -12.4345
  32   2.0000      -0.436500       -11.8778
  33   2.0000      -0.429893       -11.6980
  34   2.0000      -0.423674       -11.5287
  35   2.0000      -0.415262       -11.2999
  36   2.0000      -0.407892       -11.0993
  37   2.0000      -0.396485       -10.7889
  38   2.0000      -0.376401       -10.2424
  39   2.0000      -0.369834       -10.0637
  40   2.0000      -0.359271        -9.7762
  41   2.0000      -0.353861        -9.6290
  42   2.0000      -0.348028        -9.4703
  43   2.0000      -0.327822        -8.9205
  44   2.0000      -0.324592        -8.8326
  45   2.0000      -0.312130        -8.4935
  46   2.0000      -0.303413        -8.2563
  47   2.0000      -0.267682        -7.2840
  48   2.0000      -0.260179        -7.0798
  49   2.0000      -0.255575        -6.9546
  50   2.0000      -0.226443        -6.1618
  51   0.0000       0.052293         1.4230
  52   0.0000       0.075018         2.0413
  53   0.0000       0.087070         2.3693
  54   0.0000       0.093253         2.5375
  55   0.0000       0.105476         2.8702

MULLIKEN ATOMIC CHARGES
-----------------------
   0 C :    0.297536
   1 C :   -0.254536
   2 C :   -0.308576
   3 C :   -0.020571
   4 O :   -0.514544
   5 H :    0.164310
   6 H :    0.143919
   7 H :    0.160601
   8 H :    0.147558
   9 H :    0.151622
  10 H :    0.151578
  11 H :    0.151517
  12 C :   -0.015180
  13 H :    0.127105
  14 H :    0.138921
  15 O :   -0.526012
  16 C :    0.082812
  17 C :    0.082904
  18 C :   -0.326505
  19 C :   -0.009196
  20 O :   -0.508020
  21 H :    0.184953
  22 H :    0.165832
  23 O :   -0.601162
  24 H :    0.157218
  25 H :    0.129649
  26 H :    0.145183
  27 H :    0.147743
  28 H :    0.353340
Sum of atomic charges:   -0.0000000

LOEWDIN ATOMIC CHARGES
----------------------
   0 C :    0.181406
   1 C :   -0.218999
   2 C :   -0.220331
   3 C :   -0.034129
   4 O :   -0.319991
   5 H :    0.108834
   6 H :    0.113491
   7 H :    0.125749
   8 H :    0.117377
   9 H :    0.112654
  10 H :    0.104021
  11 H :    0.107325
  12 C :   -0.047272
  13 H :    0.095195
  14 H :    0.105893
  15 O :   -0.327708
  16 C :    0.006663
  17 C :    0.035107
  18 C :   -0.242325
  19 C :   -0.030540
  20 O :   -0.316718
  21 H :    0.127317
  22 H :    0.118606
  23 O :   -0.409393
  24 H :    0.122077
  25 H :    0.101947
  26 H :    0.103067
  27 H :    0.105037
  28 H :    0.275638

  Mayer bond orders larger than 0.100000
B(  0-C ,  1-C ) :   0.9317 B(  0-C ,  4-O ) :   0.8983 B(  0-C ,  5-H ) :   0.9283
B(  0-C , 15-O ) :   0.8477 B(  1-C ,  2-C ) :   0.9517 B(  1-C ,  6-H ) :   0.9357
B(  1-C ,  7-H ) :   0.9364 B(  2-C ,  3-C ) :   0.9525 B(  2-C ,  8-H ) :   0.9449
B(  2-C ,  9-H ) :   0.9458 B(  3-C ,  4-O ) :   0.8288 B(  3-C , 10-H ) :   0.9287
B(  3-C , 11-H ) :   0.9399 B( 12-C , 13-H ) :   0.9002 B( 12-C , 14-H ) :   0.9401
B( 12-C , 15-O ) :   0.8617 B( 12-C , 16-C ) :   0.8834 B( 16-C , 17-C ) :   0.8704
B( 16-C , 20-O ) :   0.8586 B( 16-C , 21-H ) :   0.9184 B( 17-C , 18-C ) :   0.9238
B( 17-C , 22-H ) :   0.9337 B( 17-C , 23-O ) :   0.8915 B( 18-C , 19-C ) :   0.9412
B( 18-C , 24-H ) :   0.9416 B( 18-C , 25-H ) :   0.9416 B( 19-C , 20-O ) :   0.8534
B( 19-C , 26-H ) :   0.9309 B( 19-C , 27-H ) :   0.9379 B( 23-O , 28-H ) :   0.7997

FINAL SINGLE POINT ENERGY      -652.854766802101

DIPOLE MOMENT
-------------
                                X             Y             Z
Electronic contribution:      0.15387      -3.83502      -1.04143
Nuclear contribution   :     -0.49418       4.93703       1.45170
                        -----------------------------------------
Total Dipole Moment    :     -0.34031       1.10202       0.41027
                        -----------------------------------------
Magnitude (a.u.)       :      1.22416
Magnitude (Debye)      :      3.11157

Rotational constants in cm-1:     0.052939     0.014992     0.013130
Rotational constants in MHz :  1587.068383   449.446675   393.626479

                             ****ORCA TERMINATED NORMALLY****
TOTAL RUN TIME: 0 days 0 hours 25 minutes 4 seconds 41 msec
