                         Program Version 4.2.0 -  RELEASE  -
|  1> # Test redundant internal optimization
|  2> #
|  3> ! RKS B3LYP  Opt TightSCF SmallPrint
|  4>
|  5> %basis
|  6>         Basis "6-31G"
|  7> end
|  8>
|  9> %geom
| 10> Constraints
| 11> { D 4  0  15  12  330.0   C } # D for Dihedral angle
| 12> { D 0  15  12  16  120.0   C } # D for Dihedral angle
| 13> { D 0  4  3  2   C } # D for Dihedral angle
| 14> { D 4  3  2  1   C } # D for Dihedral angle
| 15> { D 3  2  1  0   C } # D for Dihedral angle
| 16> { D 2  1  0  4   C } # D for Dihedral angle
| 17> { D 1  0  4  3   C } # D for Dihedral angle
| 18> { D 16  20  19  18   C } # D for Dihedral angle
| 19> { D 20  19  18  17   C } # D for Dihedral angle
| 20> { D 19  18  17  16   C } # D for Dihedral angle
| 21> { D 18  17  16  20   C } # D for Dihedral angle
| 22> { D 17  16  20  19   C } # D for Dihedral angle
| 23> { D 15  12  16  20   C } # D for Dihedral angle
| 24> end
| 25> end
| 26>
| 27>
| 28> #%pal
| 29> #nprocs 8
| 30> #end
| 31>
| 32> * xyz 0 1
| 33> C  -21.048   26.222   46.251
| 34> C  -20.361   27.558   45.944
| 35> C  -20.329   28.222   47.341
| 36> C  -20.110   27.022   48.296
| 37> O  -20.473   25.807   47.535
| 38> H  -20.833   25.428   45.533
| 39> H  -19.344   27.382   45.576
| 40> H  -20.898   28.157   45.201
| 41> H  -19.543   28.978   47.434
| 42> H  -21.289   28.710   47.548
| 43> H  -20.733   27.082   49.195
| 44> H  -19.064   26.913   48.597
| 45> C  -23.271   25.476   47.424
| 46> H  -24.005   24.835   46.920
| 47> H  -22.529   24.830   47.912
| 48> O  -22.586   26.394   46.375
| 49> C  -24.004   26.276   48.536
| 50> C  -23.057   27.264   49.227
| 51> C  -23.014   28.425   48.205
| 52> C  -24.452   28.439   47.628
| 53> O  -25.048   27.125   47.952
| 54> H  -24.500   25.578   49.212
| 55> O  -23.673   27.740   50.571
| 56> H  -22.067   26.841   49.431
| 57> H  -22.738   29.382   48.660
| 58> H  -22.284   28.206   47.417
| 59> H  -24.467   28.583   46.543
| 60> H  -25.082   29.202   48.095
| 61> H  -24.665   28.168   50.391
| 62> *
| 63>
| 64>                          ****END OF INPUT****
 Total Charge           Charge          ....    0
 Multiplicity           Mult            ....    1
 Number of Electrons    NEL             ....  102
FINAL SINGLE POINT ENERGY      -652.772952845741
FINAL SINGLE POINT ENERGY      -652.828380642343
FINAL SINGLE POINT ENERGY      -652.847749305372
FINAL SINGLE POINT ENERGY      -652.852982046897
FINAL SINGLE POINT ENERGY      -652.853757732029
FINAL SINGLE POINT ENERGY      -652.853908829546
FINAL SINGLE POINT ENERGY      -652.853916474163
FINAL SINGLE POINT ENERGY      -652.853914844835
                    ***********************HURRAY********************

CARTESIAN COORDINATES (ANGSTROEM)
---------------------------------
  C    -21.011099   26.152349   46.353330
  C    -20.224374   27.336500   45.784578
  C    -19.981130   28.192965   47.051720
  C    -19.792346   27.134868   48.163085
  O    -20.366676   25.868576   47.615078
  H    -20.835844   25.239279   45.769374
  H    -19.283280   26.956968   45.376158
  H    -20.770702   27.866511   45.001084
  H    -19.096104   28.830543   46.952288
  H    -20.831297   28.846175   47.246804
  H    -20.302140   27.388548   49.095911
  H    -18.740612   26.926131   48.374695
  C    -23.199096   25.574956   47.395048
  H    -23.902378   24.947912   46.835424
  H    -22.504128   24.926296   47.940532
  O    -22.459200   26.324278   46.369133
  C    -24.033643   26.347266   48.420571
  C    -23.345551   27.314954   49.390404
  C    -23.309877   28.622314   48.562517
  C    -24.636040   28.560884   47.760830
  O    -25.082350   27.155048   47.796301
  H    -24.548331   25.569034   48.999546
  O    -24.134066   27.463755   50.605962
  H    -22.366918   26.974145   49.724837
  H    -23.229294   29.501771   49.206167
  H    -22.470946   28.591474   47.871771
  H    -24.505205   28.864341   46.718494
  H    -25.430925   29.166627   48.209687
  H    -25.073445   27.600532   50.358672

 Multiplicity           Mult            ....    1
 Number of Electrons    NEL             ....  102
 Basis Dimension        Dim             ....  149

ORBITAL ENERGIES
----------------

  NO   OCC          E(Eh)            E(eV)
   0   2.0000     -19.156506      -521.2750
   1   2.0000     -19.146193      -520.9944
   2   2.0000     -19.137358      -520.7540
   3   2.0000     -19.135830      -520.7124
   4   2.0000     -10.282165      -279.7919
   5   2.0000     -10.238299      -278.5983
   6   2.0000     -10.237378      -278.5732
   7   2.0000     -10.232893      -278.4512
   8   2.0000     -10.226688      -278.2823
   9   2.0000     -10.225000      -278.2364
  10   2.0000     -10.196140      -277.4511
  11   2.0000     -10.194262      -277.4000
  12   2.0000     -10.182800      -277.0881
  13   2.0000      -1.056140       -28.7390
  14   2.0000      -1.034263       -28.1437
  15   2.0000      -1.004103       -27.3230
  16   2.0000      -0.995471       -27.0881
  17   2.0000      -0.797168       -21.6920
  18   2.0000      -0.778795       -21.1921
  19   2.0000      -0.767030       -20.8720
  20   2.0000      -0.738508       -20.0958
  21   2.0000      -0.676070       -18.3968
  22   2.0000      -0.611529       -16.6405
  23   2.0000      -0.600460       -16.3394
  24   2.0000      -0.599135       -16.3033
  25   2.0000      -0.572544       -15.5797
  26   2.0000      -0.523030       -14.2324
  27   2.0000      -0.511948       -13.9308
  28   2.0000      -0.503781       -13.7086
  29   2.0000      -0.490625       -13.3506
  30   2.0000      -0.470562       -12.8047
  31   2.0000      -0.462352       -12.5812
  32   2.0000      -0.451366       -12.2823
  33   2.0000      -0.440396       -11.9838
  34   2.0000      -0.421708       -11.4752
  35   2.0000      -0.414881       -11.2895
  36   2.0000      -0.407928       -11.1003
  37   2.0000      -0.389232       -10.5915
  38   2.0000      -0.377213       -10.2645
  39   2.0000      -0.372085       -10.1250
  40   2.0000      -0.366756        -9.9799
  41   2.0000      -0.357717        -9.7340
  42   2.0000      -0.350939        -9.5495
  43   2.0000      -0.340428        -9.2635
  44   2.0000      -0.327206        -8.9037
  45   2.0000      -0.305858        -8.3228
  46   2.0000      -0.302615        -8.2346
  47   2.0000      -0.271639        -7.3917
  48   2.0000      -0.266357        -7.2479
  49   2.0000      -0.263668        -7.1748
  50   2.0000      -0.236401        -6.4328
  51   0.0000       0.062678         1.7056
  52   0.0000       0.075557         2.0560
  53   0.0000       0.088495         2.4081
  54   0.0000       0.099696         2.7129
  55   0.0000       0.102601         2.7919

MULLIKEN ATOMIC CHARGES
-----------------------
   0 C :    0.306376
   1 C :   -0.268234
   2 C :   -0.313266
   3 C :   -0.020342
   4 O :   -0.515695
   5 H :    0.149822
   6 H :    0.154009
   7 H :    0.160918
   8 H :    0.146472
   9 H :    0.161567
  10 H :    0.146773
  11 H :    0.154814
  12 C :   -0.013418
  13 H :    0.155964
  14 H :    0.158260
  15 O :   -0.532400
  16 C :    0.071319
  17 C :    0.066061
  18 C :   -0.305708
  19 C :   -0.019619
  20 O :   -0.524458
  21 H :    0.156264
  22 O :   -0.602469
  23 H :    0.158871
  24 H :    0.149696
  25 H :    0.162334
  26 H :    0.153949
  27 H :    0.138633
  28 H :    0.363507
Sum of atomic charges:   -0.0000000

LOEWDIN ATOMIC CHARGES
----------------------
   0 C :    0.175598
   1 C :   -0.212607
   2 C :   -0.221285
   3 C :   -0.032713
   4 O :   -0.324056
   5 H :    0.092994
   6 H :    0.120176
   7 H :    0.126995
   8 H :    0.117214
   9 H :    0.114316
  10 H :    0.102330
  11 H :    0.109219
  12 C :   -0.042524
  13 H :    0.113951
  14 H :    0.115884
  15 O :   -0.339390
  16 C :    0.009511
  17 C :    0.036081
  18 C :   -0.243770
  19 C :   -0.033445
  20 O :   -0.328977
  21 H :    0.117836
  22 O :   -0.416484
  23 H :    0.116260
  24 H :    0.121129
  25 H :    0.118173
  26 H :    0.108664
  27 H :    0.096819
  28 H :    0.282102

  Mayer bond orders larger than 0.100000
B(  0-C ,  1-C ) :   0.9364 B(  0-C ,  4-O ) :   0.8911 B(  0-C ,  5-H ) :   0.9275
B(  0-C , 15-O ) :   0.8644 B(  1-C ,  2-C ) :   0.9592 B(  1-C ,  6-H ) :   0.9376
B(  1-C ,  7-H ) :   0.9357 B(  2-C ,  3-C ) :   0.9537 B(  2-C ,  8-H ) :   0.9427
B(  2-C ,  9-H ) :   0.9251 B(  3-C ,  4-O ) :   0.8337 B(  3-C , 10-H ) :   0.9243
B(  3-C , 11-H ) :   0.9397 B( 12-C , 13-H ) :   0.9277 B( 12-C , 14-H ) :   0.9040
B( 12-C , 15-O ) :   0.8452 B( 12-C , 16-C ) :   0.9035 B( 16-C , 17-C ) :   0.9082
B( 16-C , 20-O ) :   0.8623 B( 16-C , 21-H ) :   0.9146 B( 17-C , 18-C ) :   0.9241
B( 17-C , 22-O ) :   0.8874 B( 17-C , 23-H ) :   0.9257 B( 18-C , 19-C ) :   0.9439
B( 18-C , 24-H ) :   0.9400 B( 18-C , 25-H ) :   0.8962 B( 19-C , 20-O ) :   0.8440
B( 19-C , 26-H ) :   0.9331 B( 19-C , 27-H ) :   0.9369 B( 22-O , 28-H ) :   0.7949

FINAL SINGLE POINT ENERGY      -652.853912471691

DIPOLE MOMENT
-------------
                                X             Y             Z
Electronic contribution:     -4.07644      -3.96425       0.81892
Nuclear contribution   :      4.97062       4.66650      -1.19402
                        -----------------------------------------
Total Dipole Moment    :      0.89418       0.70225      -0.37510
                        -----------------------------------------
Magnitude (a.u.)       :      1.19725
Magnitude (Debye)      :      3.04317

Rotational constants in cm-1:     0.043594     0.017904     0.016753
Rotational constants in MHz :  1306.914347   536.744254   502.246775

                             ****ORCA TERMINATED NORMALLY****
TOTAL RUN TIME: 0 days 0 hours 27 minutes 10 seconds 960 msec
