                         Program Version 4.2.0 -  RELEASE  -
|  1> # Test redundant internal optimization
|  2> #
|  3> ! RKS B3LYP  Opt TightSCF SmallPrint
|  4>
|  5> %basis
|  6>         Basis "6-31G"
|  7> end
|  8>
|  9> %geom
| 10> Constraints
| 11> { D 4  0  15  12  240.0   C } # D for Dihedral angle
| 12> { D 0  15  12  16  165.0   C } # D for Dihedral angle
| 13> { D 0  4  3  2   C } # D for Dihedral angle
| 14> { D 4  3  2  1   C } # D for Dihedral angle
| 15> { D 3  2  1  0   C } # D for Dihedral angle
| 16> { D 2  1  0  4   C } # D for Dihedral angle
| 17> { D 1  0  4  3   C } # D for Dihedral angle
| 18> { D 16  20  19  18   C } # D for Dihedral angle
| 19> { D 20  19  18  17   C } # D for Dihedral angle
| 20> { D 19  18  17  16   C } # D for Dihedral angle
| 21> { D 18  17  16  20   C } # D for Dihedral angle
| 22> { D 17  16  20  19   C } # D for Dihedral angle
| 23> { D 15  12  16  20   C } # D for Dihedral angle
| 24> end
| 25> end
| 26>
| 27>
| 28> #%pal
| 29> #nprocs 8
| 30> #end
| 31>
| 32> * xyz 0 1
| 33> C  -21.048   26.222   46.251
| 34> C  -20.361   27.558   45.944
| 35> C  -20.329   28.222   47.341
| 36> C  -20.110   27.022   48.296
| 37> O  -20.473   25.807   47.535
| 38> H  -20.833   25.428   45.533
| 39> H  -19.344   27.382   45.576
| 40> H  -20.898   28.157   45.201
| 41> H  -19.543   28.978   47.434
| 42> H  -21.289   28.710   47.548
| 43> H  -20.733   27.082   49.195
| 44> H  -19.064   26.913   48.597
| 45> C  -23.430   25.483   45.442
| 46> H  -23.372   25.864   44.415
| 47> H  -23.038   24.457   45.450
| 48> O  -22.586   26.394   46.375
| 49> C  -24.926   25.420   45.857
| 50> C  -25.602   26.788   45.711
| 51> C  -25.867   26.846   44.188
| 52> C  -26.188   25.373   43.831
| 53> O  -25.674   24.548   44.945
| 54> H  -25.003   24.981   46.853
| 55> H  -26.545   26.802   46.269
| 56> O  -24.718   27.962   46.215
| 57> H  -26.683   27.527   43.925
| 58> H  -24.966   27.184   43.662
| 59> H  -25.711   25.054   42.898
| 60> H  -27.263   25.186   43.760
| 61> H  -23.768   27.967   45.670
| 62> *
| 63>
| 64>                          ****END OF INPUT****
 Total Charge           Charge          ....    0
 Multiplicity           Mult            ....    1
 Number of Electrons    NEL             ....  102
FINAL SINGLE POINT ENERGY      -652.830917089140
FINAL SINGLE POINT ENERGY      -652.855208159773
FINAL SINGLE POINT ENERGY      -652.861455259022
FINAL SINGLE POINT ENERGY      -652.863917134878
FINAL SINGLE POINT ENERGY      -652.865370202857
FINAL SINGLE POINT ENERGY      -652.866233632715
FINAL SINGLE POINT ENERGY      -652.866574575590
FINAL SINGLE POINT ENERGY      -652.866647485510
FINAL SINGLE POINT ENERGY      -652.866658169449
                    ***********************HURRAY********************

CARTESIAN COORDINATES (ANGSTROEM)
---------------------------------
  C    -21.072729   26.159185   46.193948
  C    -20.429585   27.511879   45.893453
  C    -20.512605   28.218192   47.268071
  C    -20.301920   27.059201   48.265564
  O    -20.571551   25.814337   47.494938
  H    -20.808756   25.342959   45.516784
  H    -19.385750   27.357552   45.596805
  H    -20.945359   28.053994   45.097114
  H    -19.761132   29.005444   47.379166
  H    -21.500193   28.671439   47.399700
  H    -20.982536   27.093865   49.119380
  H    -19.271268   26.985415   48.623603
  C    -23.311809   25.421565   45.362639
  H    -23.220063   25.742946   44.316023
  H    -22.951963   24.389366   45.446564
  O    -22.523436   26.304589   46.226965
  C    -24.766289   25.490013   45.838579
  C    -25.430795   26.871685   45.712676
  C    -25.799406   26.908556   44.200750
  C    -26.165933   25.441594   43.894802
  O    -25.584733   24.619532   44.998638
  H    -24.822152   25.097476   46.857430
  H    -26.348693   26.871512   46.310808
  O    -24.633773   27.996585   46.133991
  H    -26.619524   27.602994   43.999505
  H    -24.926549   27.245795   43.631435
  H    -25.764097   25.082753   42.942482
  H    -27.245310   25.263556   43.911358
  H    -23.707090   27.693022   46.283827

 Multiplicity           Mult            ....    1
 Number of Electrons    NEL             ....  102
 Basis Dimension        Dim             ....  149

ORBITAL ENERGIES
----------------

  NO   OCC          E(Eh)            E(eV)
   0   2.0000     -19.163952      -521.4776
   1   2.0000     -19.148770      -521.0645
   2   2.0000     -19.140630      -520.8430
   3   2.0000     -19.113360      -520.1010
   4   2.0000     -10.292955      -280.0856
   5   2.0000     -10.241452      -278.6841
   6   2.0000     -10.234560      -278.4965
   7   2.0000     -10.231842      -278.4226
   8   2.0000     -10.230250      -278.3793
   9   2.0000     -10.227123      -278.2942
  10   2.0000     -10.195299      -277.4282
  11   2.0000     -10.193554      -277.3807
  12   2.0000     -10.179882      -277.0087
  13   2.0000      -1.065396       -28.9909
  14   2.0000      -1.026275       -27.9264
  15   2.0000      -1.008636       -27.4464
  16   2.0000      -0.992368       -27.0037
  17   2.0000      -0.796363       -21.6701
  18   2.0000      -0.774004       -21.0617
  19   2.0000      -0.768461       -20.9109
  20   2.0000      -0.736146       -20.0316
  21   2.0000      -0.679767       -18.4974
  22   2.0000      -0.607286       -16.5251
  23   2.0000      -0.603295       -16.4165
  24   2.0000      -0.594074       -16.1656
  25   2.0000      -0.582498       -15.8506
  26   2.0000      -0.529004       -14.3949
  27   2.0000      -0.523413       -14.2428
  28   2.0000      -0.500708       -13.6250
  29   2.0000      -0.487591       -13.2680
  30   2.0000      -0.474328       -12.9071
  31   2.0000      -0.460165       -12.5217
  32   2.0000      -0.443360       -12.0645
  33   2.0000      -0.437406       -11.9024
  34   2.0000      -0.427336       -11.6284
  35   2.0000      -0.421833       -11.4787
  36   2.0000      -0.407109       -11.0780
  37   2.0000      -0.388523       -10.5723
  38   2.0000      -0.382435       -10.4066
  39   2.0000      -0.369383       -10.0514
  40   2.0000      -0.364454        -9.9173
  41   2.0000      -0.360772        -9.8171
  42   2.0000      -0.347967        -9.4687
  43   2.0000      -0.343394        -9.3442
  44   2.0000      -0.324830        -8.8391
  45   2.0000      -0.319720        -8.7000
  46   2.0000      -0.290404        -7.9023
  47   2.0000      -0.278276        -7.5723
  48   2.0000      -0.260782        -7.0962
  49   2.0000      -0.249866        -6.7992
  50   2.0000      -0.242843        -6.6081
  51   0.0000       0.053110         1.4452
  52   0.0000       0.079941         2.1753
  53   0.0000       0.092001         2.5035
  54   0.0000       0.096975         2.6388
  55   0.0000       0.100367         2.7311

MULLIKEN ATOMIC CHARGES
-----------------------
   0 C :    0.297871
   1 C :   -0.260762
   2 C :   -0.308786
   3 C :   -0.005150
   4 O :   -0.498232
   5 H :    0.149739
   6 H :    0.150853
   7 H :    0.150479
   8 H :    0.148868
   9 H :    0.167696
  10 H :    0.158131
  11 H :    0.146567
  12 C :   -0.015413
  13 H :    0.137840
  14 H :    0.164603
  15 O :   -0.560365
  16 C :    0.049794
  17 C :    0.121272
  18 C :   -0.305896
  19 C :   -0.018629
  20 O :   -0.521261
  21 H :    0.166258
  22 H :    0.147733
  23 O :   -0.648214
  24 H :    0.153337
  25 H :    0.143998
  26 H :    0.138900
  27 H :    0.150630
  28 H :    0.398142
Sum of atomic charges:   -0.0000000

LOEWDIN ATOMIC CHARGES
----------------------
   0 C :    0.179879
   1 C :   -0.221406
   2 C :   -0.217342
   3 C :   -0.026377
   4 O :   -0.310891
   5 H :    0.105025
   6 H :    0.117027
   7 H :    0.119930
   8 H :    0.117980
   9 H :    0.119996
  10 H :    0.111250
  11 H :    0.105202
  12 C :   -0.041697
  13 H :    0.095308
  14 H :    0.113908
  15 O :   -0.343726
  16 C :    0.018907
  17 C :    0.042599
  18 C :   -0.237554
  19 C :   -0.032307
  20 O :   -0.323289
  21 H :    0.118839
  22 H :    0.105505
  23 O :   -0.439700
  24 H :    0.121798
  25 H :    0.110273
  26 H :    0.100749
  27 H :    0.106560
  28 H :    0.283556

  Mayer bond orders larger than 0.100000
B(  0-C ,  1-C ) :   0.9450 B(  0-C ,  4-O ) :   0.9453 B(  0-C ,  5-H ) :   0.9209
B(  0-C , 15-O ) :   0.8012 B(  1-C ,  2-C ) :   0.9540 B(  1-C ,  6-H ) :   0.9357
B(  1-C ,  7-H ) :   0.9371 B(  2-C ,  3-C ) :   0.9523 B(  2-C ,  8-H ) :   0.9445
B(  2-C ,  9-H ) :   0.9421 B(  3-C ,  4-O ) :   0.8312 B(  3-C , 10-H ) :   0.9341
B(  3-C , 11-H ) :   0.9395 B( 12-C , 13-H ) :   0.9216 B( 12-C , 14-H ) :   0.9216
B( 12-C , 15-O ) :   0.7854 B( 12-C , 16-C ) :   0.9078 B( 16-C , 17-C ) :   0.9147
B( 16-C , 20-O ) :   0.8557 B( 16-C , 21-H ) :   0.9279 B( 17-C , 18-C ) :   0.9025
B( 17-C , 22-H ) :   0.9286 B( 17-C , 23-O ) :   0.9352 B( 18-C , 19-C ) :   0.9395
B( 18-C , 24-H ) :   0.9444 B( 18-C , 25-H ) :   0.9431 B( 19-C , 20-O ) :   0.8329
B( 19-C , 26-H ) :   0.9348 B( 19-C , 27-H ) :   0.9383 B( 23-O , 28-H ) :   0.7134

FINAL SINGLE POINT ENERGY      -652.866659864560

DIPOLE MOMENT
-------------
                                X             Y             Z
Electronic contribution:     -1.32501      -3.63576       2.12088
Nuclear contribution   :      2.20052       4.04331      -2.82444
                        -----------------------------------------
Total Dipole Moment    :      0.87550       0.40755      -0.70356
                        -----------------------------------------
Magnitude (a.u.)       :      1.19483
Magnitude (Debye)      :      3.03700

Rotational constants in cm-1:     0.060364     0.013164     0.012178
Rotational constants in MHz :  1809.663114   394.635247   365.081151

                             ****ORCA TERMINATED NORMALLY****
TOTAL RUN TIME: 0 days 0 hours 30 minutes 4 seconds 974 msec
