                         Program Version 4.2.0 -  RELEASE  -
|  1> # Test redundant internal optimization
|  2> #
|  3> ! RKS B3LYP  Opt TightSCF SmallPrint
|  4>
|  5> %basis
|  6>         Basis "6-31G"
|  7> end
|  8>
|  9> %geom
| 10> Constraints
| 11> { D 4  0  15  12  165.0   C } # D for Dihedral angle
| 12> { D 0  15  12  16  15.0   C } # D for Dihedral angle
| 13> { D 0  4  3  2   C } # D for Dihedral angle
| 14> { D 4  3  2  1   C } # D for Dihedral angle
| 15> { D 3  2  1  0   C } # D for Dihedral angle
| 16> { D 2  1  0  4   C } # D for Dihedral angle
| 17> { D 1  0  4  3   C } # D for Dihedral angle
| 18> { D 16  20  19  18   C } # D for Dihedral angle
| 19> { D 20  19  18  17   C } # D for Dihedral angle
| 20> { D 19  18  17  16   C } # D for Dihedral angle
| 21> { D 18  17  16  20   C } # D for Dihedral angle
| 22> { D 17  16  20  19   C } # D for Dihedral angle
| 23> { D 15  12  16  20   C } # D for Dihedral angle
| 24> end
| 25> end
| 26>
| 27>
| 28> #%pal
| 29> #nprocs 8
| 30> #end
| 31>
| 32> * xyz 0 1
| 33> C  -21.048   26.222   46.251
| 34> C  -20.361   27.558   45.944
| 35> C  -20.329   28.222   47.341
| 36> C  -20.110   27.022   48.296
| 37> O  -20.473   25.807   47.535
| 38> H  -20.833   25.428   45.533
| 39> H  -19.344   27.382   45.576
| 40> H  -20.898   28.157   45.201
| 41> H  -19.543   28.978   47.434
| 42> H  -21.289   28.710   47.548
| 43> H  -20.733   27.082   49.195
| 44> H  -19.064   26.913   48.597
| 45> C  -23.260   27.170   45.210
| 46> H  -24.173   26.644   44.906
| 47> H  -23.538   28.182   45.533
| 48> O  -22.586   26.394   46.375
| 49> C  -22.338   27.307   43.967
| 50> C  -22.036   25.939   43.345
| 51> C  -23.332   25.665   42.545
| 52> C  -23.745   27.075   42.052
| 53> O  -23.022   28.046   42.901
| 54> H  -21.453   27.885   44.240
| 55> H  -21.174   26.015   42.671
| 56> O  -21.736   24.841   44.402
| 57> H  -23.181   24.962   41.721
| 58> H  -24.100   25.246   43.207
| 59> H  -24.822   27.251   42.142
| 60> H  -23.441   27.261   41.018
| 61> H  -22.585   24.748   45.087
| 62> *
| 63>
| 64>                          ****END OF INPUT****
 Total Charge           Charge          ....    0
 Multiplicity           Mult            ....    1
 Number of Electrons    NEL             ....  102
FINAL SINGLE POINT ENERGY      -652.766260933852
FINAL SINGLE POINT ENERGY      -652.823762541169
FINAL SINGLE POINT ENERGY      -652.841738526999
FINAL SINGLE POINT ENERGY      -652.844091797358
FINAL SINGLE POINT ENERGY      -652.844504962415
FINAL SINGLE POINT ENERGY      -652.844649548126
FINAL SINGLE POINT ENERGY      -652.844657637449
FINAL SINGLE POINT ENERGY      -652.844661077989
FINAL SINGLE POINT ENERGY      -652.844661986327
                    ***********************HURRAY********************

CARTESIAN COORDINATES (ANGSTROEM)
---------------------------------
  C    -20.933850   26.209162   46.425577
  C    -19.999663   27.392909   46.172868
  C    -20.211436   28.253895   47.447754
  C    -20.420688   27.183076   48.539611
  O    -20.765080   25.934056   47.821219
  H    -20.687185   25.307018   45.872930
  H    -18.970863   27.015784   46.129709
  H    -20.192930   27.941318   45.251655
  H    -19.358309   28.905786   47.657966
  H    -21.103830   28.877389   47.337124
  H    -21.232860   27.425119   49.229903
  H    -19.509989   26.974958   49.110188
  C    -23.029148   27.183985   45.140782
  H    -23.966522   26.628374   45.025726
  H    -23.296011   28.201343   45.451186
  O    -22.358659   26.538203   46.274975
  C    -22.366285   27.328388   43.752323
  C    -22.077674   26.013699   43.000273
  C    -23.498858   25.623008   42.474504
  C    -24.128290   26.999426   42.165373
  O    -23.329959   28.015500   42.896941
  H    -21.490288   27.976361   43.792147
  H    -21.400830   26.211932   42.166309
  O    -21.439429   24.955545   43.749934
  H    -23.444386   24.971892   41.598525
  H    -24.047065   25.092126   43.262094
  H    -25.173087   27.076488   42.481834
  H    -24.063731   27.254147   41.103097
  H    -22.050097   24.621113   44.440473

 Multiplicity           Mult            ....    1
 Number of Electrons    NEL             ....  102
 Basis Dimension        Dim             ....  149

ORBITAL ENERGIES
----------------

  NO   OCC          E(Eh)            E(eV)
   0   2.0000     -19.154396      -521.2176
   1   2.0000     -19.150336      -521.1071
   2   2.0000     -19.135301      -520.6980
   3   2.0000     -19.133228      -520.6416
   4   2.0000     -10.274547      -279.5846
   5   2.0000     -10.250969      -278.9430
   6   2.0000     -10.242252      -278.7059
   7   2.0000     -10.238104      -278.5930
   8   2.0000     -10.232661      -278.4449
   9   2.0000     -10.221474      -278.1404
  10   2.0000     -10.199467      -277.5416
  11   2.0000     -10.185074      -277.1499
  12   2.0000     -10.184454      -277.1331
  13   2.0000      -1.047219       -28.4963
  14   2.0000      -1.040086       -28.3022
  15   2.0000      -1.025375       -27.9019
  16   2.0000      -0.981470       -26.7071
  17   2.0000      -0.786039       -21.3892
  18   2.0000      -0.782692       -21.2981
  19   2.0000      -0.770737       -20.9728
  20   2.0000      -0.734473       -19.9860
  21   2.0000      -0.683042       -18.5865
  22   2.0000      -0.617884       -16.8135
  23   2.0000      -0.605560       -16.4781
  24   2.0000      -0.597247       -16.2519
  25   2.0000      -0.567134       -15.4325
  26   2.0000      -0.535861       -14.5815
  27   2.0000      -0.513938       -13.9850
  28   2.0000      -0.499172       -13.5832
  29   2.0000      -0.484623       -13.1873
  30   2.0000      -0.468937       -12.7604
  31   2.0000      -0.458349       -12.4723
  32   2.0000      -0.443246       -12.0613
  33   2.0000      -0.441460       -12.0127
  34   2.0000      -0.433111       -11.7856
  35   2.0000      -0.417364       -11.3570
  36   2.0000      -0.412296       -11.2191
  37   2.0000      -0.401008       -10.9120
  38   2.0000      -0.383255       -10.4289
  39   2.0000      -0.372193       -10.1279
  40   2.0000      -0.362837        -9.8733
  41   2.0000      -0.354848        -9.6559
  42   2.0000      -0.350826        -9.5464
  43   2.0000      -0.340490        -9.2652
  44   2.0000      -0.322367        -8.7721
  45   2.0000      -0.310352        -8.4451
  46   2.0000      -0.297267        -8.0891
  47   2.0000      -0.273060        -7.4303
  48   2.0000      -0.255571        -6.9545
  49   2.0000      -0.251198        -6.8354
  50   2.0000      -0.244502        -6.6532
  51   0.0000       0.049308         1.3418
  52   0.0000       0.068708         1.8696
  53   0.0000       0.078368         2.1325
  54   0.0000       0.093291         2.5386
  55   0.0000       0.101683         2.7669

MULLIKEN ATOMIC CHARGES
-----------------------
   0 C :    0.302371
   1 C :   -0.282501
   2 C :   -0.300051
   3 C :   -0.000689
   4 O :   -0.498976
   5 H :    0.158632
   6 H :    0.150231
   7 H :    0.138832
   8 H :    0.141102
   9 H :    0.156415
  10 H :    0.151671
  11 H :    0.143034
  12 C :   -0.004420
  13 H :    0.141911
  14 H :    0.155212
  15 O :   -0.546809
  16 C :    0.042270
  17 C :    0.096630
  18 C :   -0.327193
  19 C :   -0.017148
  20 O :   -0.517657
  21 H :    0.162924
  22 H :    0.167163
  23 O :   -0.597143
  24 H :    0.163291
  25 H :    0.145604
  26 H :    0.150296
  27 H :    0.153956
  28 H :    0.371040
Sum of atomic charges:   -0.0000000

LOEWDIN ATOMIC CHARGES
----------------------
   0 C :    0.181669
   1 C :   -0.229199
   2 C :   -0.217585
   3 C :   -0.026702
   4 O :   -0.302102
   5 H :    0.104953
   6 H :    0.118261
   7 H :    0.110513
   8 H :    0.113962
   9 H :    0.115007
  10 H :    0.108073
  11 H :    0.102415
  12 C :   -0.049751
  13 H :    0.104874
  14 H :    0.110473
  15 O :   -0.356924
  16 C :    0.004527
  17 C :    0.034288
  18 C :   -0.241679
  19 C :   -0.031507
  20 O :   -0.316471
  21 H :    0.110793
  22 H :    0.118920
  23 O :   -0.401543
  24 H :    0.125795
  25 H :    0.109987
  26 H :    0.105433
  27 H :    0.108042
  28 H :    0.285480

  Mayer bond orders larger than 0.100000
B(  0-C ,  1-C ) :   0.9340 B(  0-C ,  4-O ) :   0.9264 B(  0-C ,  5-H ) :   0.9023
B(  0-C , 15-O ) :   0.8146 B(  1-C ,  2-C ) :   0.9492 B(  1-C ,  6-H ) :   0.9338
B(  1-C ,  7-H ) :   0.9238 B(  2-C ,  3-C ) :   0.9553 B(  2-C ,  8-H ) :   0.9451
B(  2-C ,  9-H ) :   0.9458 B(  3-C ,  4-O ) :   0.8358 B(  3-C , 10-H ) :   0.9349
B(  3-C , 11-H ) :   0.9394 B( 12-C , 13-H ) :   0.9318 B( 12-C , 14-H ) :   0.9218
B( 12-C , 15-O ) :   0.8411 B( 12-C , 16-C ) :   0.8880 B( 16-C , 17-C ) :   0.8804
B( 16-C , 20-O ) :   0.8287 B( 16-C , 21-H ) :   0.9177 B( 17-C , 18-C ) :   0.9226
B( 17-C , 22-H ) :   0.9322 B( 17-C , 23-O ) :   0.9047 B( 18-C , 19-C ) :   0.9396
B( 18-C , 24-H ) :   0.9406 B( 18-C , 25-H ) :   0.9396 B( 19-C , 20-O ) :   0.8328
B( 19-C , 26-H ) :   0.9322 B( 19-C , 27-H ) :   0.9382 B( 23-O , 28-H ) :   0.7823

FINAL SINGLE POINT ENERGY      -652.844662485314

DIPOLE MOMENT
-------------
                                X             Y             Z
Electronic contribution:     -0.45340      -2.35162       0.43246
Nuclear contribution   :      0.30698       2.71612      -1.13178
                        -----------------------------------------
Total Dipole Moment    :     -0.14643       0.36450      -0.69932
                        -----------------------------------------
Magnitude (a.u.)       :      0.80209
Magnitude (Debye)      :      2.03875

Rotational constants in cm-1:     0.059990     0.014232     0.013212
Rotational constants in MHz :  1798.446629   426.652977   396.076782

                             ****ORCA TERMINATED NORMALLY****
TOTAL RUN TIME: 0 days 0 hours 27 minutes 39 seconds 530 msec
