                         Program Version 4.2.0 -  RELEASE  -
|  1> # Test redundant internal optimization
|  2> #
|  3> ! RKS B3LYP  Opt TightSCF SmallPrint
|  4>
|  5> %basis
|  6>         Basis "6-31G"
|  7> end
|  8>
|  9> %geom
| 10> Constraints
| 11> { D 4  0  15  12  240.0   C } # D for Dihedral angle
| 12> { D 0  15  12  16  120.0   C } # D for Dihedral angle
| 13> { D 0  4  3  2   C } # D for Dihedral angle
| 14> { D 4  3  2  1   C } # D for Dihedral angle
| 15> { D 3  2  1  0   C } # D for Dihedral angle
| 16> { D 2  1  0  4   C } # D for Dihedral angle
| 17> { D 1  0  4  3   C } # D for Dihedral angle
| 18> { D 16  20  19  18   C } # D for Dihedral angle
| 19> { D 20  19  18  17   C } # D for Dihedral angle
| 20> { D 19  18  17  16   C } # D for Dihedral angle
| 21> { D 18  17  16  20   C } # D for Dihedral angle
| 22> { D 17  16  20  19   C } # D for Dihedral angle
| 23> { D 15  12  16  20   C } # D for Dihedral angle
| 24> end
| 25> end
| 26>
| 27>
| 28> #%pal
| 29> #nprocs 8
| 30> #end
| 31>
| 32> * xyz 0 1
| 33> C  -21.048   26.222   46.251
| 34> C  -20.361   27.558   45.944
| 35> C  -20.329   28.222   47.341
| 36> C  -20.110   27.022   48.296
| 37> O  -20.473   25.807   47.535
| 38> H  -20.833   25.428   45.533
| 39> H  -19.344   27.382   45.576
| 40> H  -20.898   28.157   45.201
| 41> H  -19.543   28.978   47.434
| 42> H  -21.289   28.710   47.548
| 43> H  -20.733   27.082   49.195
| 44> H  -19.064   26.913   48.597
| 45> C  -23.430   25.483   45.442
| 46> H  -24.035   26.109   44.775
| 47> H  -22.775   24.855   44.823
| 48> O  -22.586   26.394   46.375
| 49> C  -24.384   24.540   46.226
| 50> C  -25.114   23.578   45.283
| 51> C  -24.026   22.510   45.021
| 52> C  -23.279   22.429   46.376
| 53> O  -23.619   23.662   47.117
| 54> H  -25.043   25.142   46.857
| 55> O  -26.337   22.948   46.006
| 56> H  -25.467   24.060   44.365
| 57> H  -24.443   21.544   44.716
| 58> H  -23.350   22.849   44.227
| 59> H  -22.192   22.373   46.252
| 60> H  -23.611   21.583   46.985
| 61> H  -26.007   22.459   46.929
| 62> *
| 63>
| 64>                          ****END OF INPUT****
 Total Charge           Charge          ....    0
 Multiplicity           Mult            ....    1
 Number of Electrons    NEL             ....  102
FINAL SINGLE POINT ENERGY      -652.831236165344
FINAL SINGLE POINT ENERGY      -652.853929993600
FINAL SINGLE POINT ENERGY      -652.857821032480
FINAL SINGLE POINT ENERGY      -652.858515532517
FINAL SINGLE POINT ENERGY      -652.858599143938
FINAL SINGLE POINT ENERGY      -652.858612074102
FINAL SINGLE POINT ENERGY      -652.858613969250
                    ***********************HURRAY********************

CARTESIAN COORDINATES (ANGSTROEM)
---------------------------------
  C    -21.029414   26.184840   46.179276
  C    -20.440838   27.577692   45.958647
  C    -20.499008   28.180175   47.383705
  C    -20.216286   26.957405   48.284055
  O    -20.470784   25.765478   47.437125
  H    -20.752245   25.429834   45.436804
  H    -19.402076   27.485498   45.618656
  H    -21.004762   28.154446   45.222119
  H    -19.774257   28.986219   47.531446
  H    -21.501965   28.573940   47.573802
  H    -20.867840   26.908309   49.159650
  H    -19.171646   26.897816   48.604621
  C    -23.284190   25.475754   45.380945
  H    -23.898490   26.142890   44.761269
  H    -22.639741   24.884779   44.713580
  O    -22.472878   26.293953   46.258415
  C    -24.196367   24.561869   46.199455
  C    -25.064554   23.620669   45.352410
  C    -24.078392   22.458398   45.060297
  C    -23.242466   22.374452   46.362224
  O    -23.436726   23.663295   47.070110
  H    -24.808996   25.182188   46.859788
  O    -26.222356   23.166111   46.105167
  H    -25.470619   24.079858   44.449797
  H    -24.624151   21.537534   44.841000
  H    -23.449296   22.699097   44.195632
  H    -22.174374   22.229831   46.174580
  H    -23.588047   21.581819   47.033375
  H    -25.940237   22.944850   47.018048

 Multiplicity           Mult            ....    1
 Number of Electrons    NEL             ....  102
 Basis Dimension        Dim             ....  149

ORBITAL ENERGIES
----------------

  NO   OCC          E(Eh)            E(eV)
   0   2.0000     -19.138407      -520.7825
   1   2.0000     -19.138206      -520.7771
   2   2.0000     -19.137786      -520.7656
   3   2.0000     -19.132054      -520.6097
   4   2.0000     -10.276735      -279.6442
   5   2.0000     -10.242546      -278.7138
   6   2.0000     -10.235264      -278.5157
   7   2.0000     -10.230758      -278.3931
   8   2.0000     -10.228306      -278.3263
   9   2.0000     -10.218433      -278.0577
  10   2.0000     -10.189791      -277.2783
  11   2.0000     -10.181154      -277.0433
  12   2.0000     -10.180784      -277.0332
  13   2.0000      -1.048389       -28.5281
  14   2.0000      -1.034040       -28.1377
  15   2.0000      -1.004783       -27.3415
  16   2.0000      -0.990362       -26.9491
  17   2.0000      -0.786817       -21.4104
  18   2.0000      -0.779327       -21.2066
  19   2.0000      -0.765431       -20.8284
  20   2.0000      -0.727696       -19.8016
  21   2.0000      -0.673562       -18.3285
  22   2.0000      -0.603102       -16.4113
  23   2.0000      -0.594202       -16.1690
  24   2.0000      -0.590718       -16.0743
  25   2.0000      -0.584361       -15.9013
  26   2.0000      -0.524859       -14.2821
  27   2.0000      -0.509899       -13.8751
  28   2.0000      -0.493245       -13.4219
  29   2.0000      -0.484505       -13.1841
  30   2.0000      -0.473388       -12.8815
  31   2.0000      -0.456718       -12.4279
  32   2.0000      -0.452059       -12.3012
  33   2.0000      -0.438171       -11.9232
  34   2.0000      -0.423926       -11.5356
  35   2.0000      -0.408423       -11.1138
  36   2.0000      -0.395190       -10.7537
  37   2.0000      -0.392903       -10.6914
  38   2.0000      -0.372869       -10.1463
  39   2.0000      -0.369736       -10.0610
  40   2.0000      -0.353795        -9.6272
  41   2.0000      -0.352345        -9.5878
  42   2.0000      -0.346358        -9.4249
  43   2.0000      -0.332517        -9.0482
  44   2.0000      -0.310601        -8.4519
  45   2.0000      -0.304614        -8.2890
  46   2.0000      -0.303135        -8.2487
  47   2.0000      -0.270515        -7.3611
  48   2.0000      -0.263847        -7.1797
  49   2.0000      -0.248172        -6.7531
  50   2.0000      -0.234884        -6.3915
  51   0.0000       0.064140         1.7453
  52   0.0000       0.083927         2.2838
  53   0.0000       0.086900         2.3647
  54   0.0000       0.101020         2.7489
  55   0.0000       0.109430         2.9778

MULLIKEN ATOMIC CHARGES
-----------------------
   0 C :    0.293161
   1 C :   -0.253838
   2 C :   -0.300268
   3 C :    0.000017
   4 O :   -0.494456
   5 H :    0.134307
   6 H :    0.140029
   7 H :    0.143678
   8 H :    0.138768
   9 H :    0.162706
  10 H :    0.154239
  11 H :    0.137834
  12 C :   -0.002533
  13 H :    0.137215
  14 H :    0.118136
  15 O :   -0.511758
  16 C :    0.076112
  17 C :    0.076998
  18 C :   -0.292356
  19 C :   -0.035724
  20 O :   -0.503155
  21 H :    0.168360
  22 O :   -0.602454
  23 H :    0.147854
  24 H :    0.162313
  25 H :    0.137760
  26 H :    0.152846
  27 H :    0.147620
  28 H :    0.366593
Sum of atomic charges:   -0.0000000

LOEWDIN ATOMIC CHARGES
----------------------
   0 C :    0.179823
   1 C :   -0.222472
   2 C :   -0.216750
   3 C :   -0.026150
   4 O :   -0.309733
   5 H :    0.094726
   6 H :    0.110972
   7 H :    0.116757
   8 H :    0.112537
   9 H :    0.119417
  10 H :    0.109227
  11 H :    0.100307
  12 C :   -0.036069
  13 H :    0.102481
  14 H :    0.091154
  15 O :   -0.324567
  16 C :    0.011279
  17 C :    0.034063
  18 C :   -0.240955
  19 C :   -0.040015
  20 O :   -0.317025
  21 H :    0.120718
  22 O :   -0.414438
  23 H :    0.113687
  24 H :    0.126705
  25 H :    0.109759
  26 H :    0.107107
  27 H :    0.103196
  28 H :    0.284259

  Mayer bond orders larger than 0.100000
B(  0-C ,  1-C ) :   0.9408 B(  0-C ,  4-O ) :   0.9367 B(  0-C ,  5-H ) :   0.9184
B(  0-C , 15-O ) :   0.8404 B(  1-C ,  2-C ) :   0.9585 B(  1-C ,  6-H ) :   0.9371
B(  1-C ,  7-H ) :   0.9390 B(  2-C ,  3-C ) :   0.9537 B(  2-C ,  8-H ) :   0.9455
B(  2-C ,  9-H ) :   0.9437 B(  3-C ,  4-O ) :   0.8402 B(  3-C , 10-H ) :   0.9342
B(  3-C , 11-H ) :   0.9398 B( 12-C , 13-H ) :   0.9218 B( 12-C , 14-H ) :   0.9188
B( 12-C , 15-O ) :   0.8620 B( 12-C , 16-C ) :   0.8890 B( 16-C , 17-C ) :   0.8965
B( 16-C , 20-O ) :   0.8720 B( 16-C , 21-H ) :   0.9245 B( 17-C , 18-C ) :   0.9103
B( 17-C , 22-O ) :   0.8924 B( 17-C , 23-H ) :   0.9331 B( 18-C , 19-C ) :   0.9398
B( 18-C , 24-H ) :   0.9377 B( 18-C , 25-H ) :   0.9349 B( 19-C , 20-O ) :   0.8526
B( 19-C , 26-H ) :   0.9331 B( 19-C , 27-H ) :   0.9374 B( 22-O , 28-H ) :   0.7930

FINAL SINGLE POINT ENERGY      -652.858613860595

DIPOLE MOMENT
-------------
                                X             Y             Z
Electronic contribution:     -3.03711      -2.03486       2.09078
Nuclear contribution   :      3.66274       2.29621      -2.97416
                        -----------------------------------------
Total Dipole Moment    :      0.62562       0.26135      -0.88339
                        -----------------------------------------
Magnitude (a.u.)       :      1.11359
Magnitude (Debye)      :      2.83051

Rotational constants in cm-1:     0.065797     0.012167     0.011635
Rotational constants in MHz :  1972.532827   364.761420   348.806242

                             ****ORCA TERMINATED NORMALLY****
TOTAL RUN TIME: 0 days 0 hours 21 minutes 33 seconds 426 msec
