                         Program Version 4.2.0 -  RELEASE  -
|  1> # Test redundant internal optimization
|  2> #
|  3> ! RKS B3LYP  Opt TightSCF SmallPrint
|  4>
|  5> %basis
|  6>         Basis "6-31G"
|  7> end
|  8>
|  9> %geom
| 10> Constraints
| 11> { D 4  0  15  12  75.0   C } # D for Dihedral angle
| 12> { D 0  15  12  16  285.0   C } # D for Dihedral angle
| 13> { D 0  4  3  2   C } # D for Dihedral angle
| 14> { D 4  3  2  1   C } # D for Dihedral angle
| 15> { D 3  2  1  0   C } # D for Dihedral angle
| 16> { D 2  1  0  4   C } # D for Dihedral angle
| 17> { D 1  0  4  3   C } # D for Dihedral angle
| 18> { D 16  20  19  18   C } # D for Dihedral angle
| 19> { D 20  19  18  17   C } # D for Dihedral angle
| 20> { D 19  18  17  16   C } # D for Dihedral angle
| 21> { D 18  17  16  20   C } # D for Dihedral angle
| 22> { D 17  16  20  19   C } # D for Dihedral angle
| 23> { D 15  12  16  20   C } # D for Dihedral angle
| 24> end
| 25> end
| 26>
| 27>
| 28> #%pal
| 29> #nprocs 8
| 30> #end
| 31>
| 32> * xyz 0 1
| 33> C  -21.048   26.222   46.251
| 34> C  -20.361   27.558   45.944
| 35> C  -20.329   28.222   47.341
| 36> C  -20.110   27.022   48.296
| 37> O  -20.473   25.807   47.535
| 38> H  -20.833   25.428   45.533
| 39> H  -19.344   27.382   45.576
| 40> H  -20.898   28.157   45.201
| 41> H  -19.543   28.978   47.434
| 42> H  -21.289   28.710   47.548
| 43> H  -20.733   27.082   49.195
| 44> H  -19.064   26.913   48.597
| 45> C  -23.049   27.675   47.122
| 46> H  -22.475   28.535   46.756
| 47> H  -24.113   27.867   46.931
| 48> O  -22.586   26.394   46.375
| 49> C  -22.855   27.576   48.660
| 50> C  -23.428   28.806   49.374
| 51> C  -24.941   28.484   49.389
| 52> C  -24.971   26.946   49.571
| 53> O  -23.626   26.453   49.203
| 54> H  -21.803   27.377   48.876
| 55> H  -23.035   28.866   50.395
| 56> O  -23.103   30.139   48.646
| 57> H  -25.479   29.009   50.185
| 58> H  -25.396   28.768   48.433
| 59> H  -25.717   26.462   48.931
| 60> H  -25.150   26.651   50.609
| 61> H  -23.488   30.103   47.621
| 62> *
| 63>
| 64>                          ****END OF INPUT****
 Total Charge           Charge          ....    0
 Multiplicity           Mult            ....    1
 Number of Electrons    NEL             ....  102
FINAL SINGLE POINT ENERGY      -652.763087292279
FINAL SINGLE POINT ENERGY      -652.816183638045
FINAL SINGLE POINT ENERGY      -652.839110285091
FINAL SINGLE POINT ENERGY      -652.845502180573
FINAL SINGLE POINT ENERGY      -652.846592628728
FINAL SINGLE POINT ENERGY      -652.846927592040
FINAL SINGLE POINT ENERGY      -652.846977928351
FINAL SINGLE POINT ENERGY      -652.846994971306
FINAL SINGLE POINT ENERGY      -652.846996609239
FINAL SINGLE POINT ENERGY      -652.846996190861
                    ***********************HURRAY********************

CARTESIAN COORDINATES (ANGSTROEM)
---------------------------------
  C    -21.107733   26.326832   46.370017
  C    -20.232195   27.487772   45.872918
  C    -19.805142   28.171704   47.207393
  C    -19.663194   26.960894   48.167569
  O    -20.404109   25.844735   47.536716
  H    -21.117798   25.480188   45.681696
  H    -19.360173   27.072644   45.357426
  H    -20.758866   28.157147   45.187143
  H    -18.864831   28.723195   47.111112
  H    -20.566642   28.876248   47.555190
  H    -20.064345   27.147349   49.168139
  H    -18.624351   26.631317   48.265688
  C    -23.095568   27.718146   47.188444
  H    -22.629167   28.652900   46.847673
  H    -24.136608   27.714382   46.849764
  O    -22.525609   26.574195   46.498861
  C    -23.043436   27.659874   48.717761
  C    -23.717142   28.868325   49.391262
  C    -25.218754   28.453250   49.367036
  C    -25.151161   26.924434   49.578908
  O    -23.761370   26.510565   49.260058
  H    -22.013749   27.542245   49.051694
  H    -23.362805   28.950412   50.421172
  O    -23.416673   30.156320   48.796225
  H    -25.802274   28.965227   50.136610
  H    -25.653602   28.704486   48.390222
  H    -25.844165   26.373581   48.936107
  H    -25.337370   26.643687   50.619537
  H    -23.961170   30.299944   47.995657

 Multiplicity           Mult            ....    1
 Number of Electrons    NEL             ....  102
 Basis Dimension        Dim             ....  149

ORBITAL ENERGIES
----------------

  NO   OCC          E(Eh)            E(eV)
   0   2.0000     -19.155027      -521.2348
   1   2.0000     -19.139649      -520.8163
   2   2.0000     -19.137896      -520.7686
   3   2.0000     -19.135601      -520.7062
   4   2.0000     -10.273786      -279.5639
   5   2.0000     -10.248214      -278.8681
   6   2.0000     -10.231506      -278.4134
   7   2.0000     -10.230094      -278.3750
   8   2.0000     -10.229736      -278.3653
   9   2.0000     -10.226128      -278.2671
  10   2.0000     -10.198314      -277.5102
  11   2.0000     -10.190261      -277.2911
  12   2.0000     -10.188222      -277.2356
  13   2.0000      -1.046233       -28.4694
  14   2.0000      -1.036151       -28.1951
  15   2.0000      -1.016090       -27.6492
  16   2.0000      -0.993368       -27.0309
  17   2.0000      -0.785704       -21.3801
  18   2.0000      -0.784473       -21.3466
  19   2.0000      -0.771383       -20.9904
  20   2.0000      -0.731944       -19.9172
  21   2.0000      -0.685073       -18.6418
  22   2.0000      -0.613890       -16.7048
  23   2.0000      -0.606581       -16.5059
  24   2.0000      -0.600320       -16.3355
  25   2.0000      -0.563811       -15.3421
  26   2.0000      -0.525578       -14.3017
  27   2.0000      -0.511199       -13.9104
  28   2.0000      -0.504713       -13.7339
  29   2.0000      -0.494195       -13.4477
  30   2.0000      -0.465390       -12.6639
  31   2.0000      -0.452501       -12.3132
  32   2.0000      -0.447290       -12.1714
  33   2.0000      -0.433021       -11.7831
  34   2.0000      -0.430562       -11.7162
  35   2.0000      -0.421122       -11.4593
  36   2.0000      -0.413199       -11.2437
  37   2.0000      -0.401322       -10.9205
  38   2.0000      -0.379901       -10.3376
  39   2.0000      -0.377138       -10.2624
  40   2.0000      -0.360226        -9.8022
  41   2.0000      -0.358163        -9.7461
  42   2.0000      -0.341758        -9.2997
  43   2.0000      -0.332093        -9.0367
  44   2.0000      -0.318779        -8.6744
  45   2.0000      -0.311025        -8.4634
  46   2.0000      -0.298420        -8.1204
  47   2.0000      -0.274213        -7.4617
  48   2.0000      -0.263380        -7.1669
  49   2.0000      -0.254546        -6.9265
  50   2.0000      -0.234823        -6.3899
  51   0.0000       0.046998         1.2789
  52   0.0000       0.075937         2.0664
  53   0.0000       0.079725         2.1694
  54   0.0000       0.087437         2.3793
  55   0.0000       0.098133         2.6703

MULLIKEN ATOMIC CHARGES
-----------------------
   0 C :    0.304195
   1 C :   -0.283043
   2 C :   -0.321433
   3 C :   -0.017365
   4 O :   -0.497287
   5 H :    0.167647
   6 H :    0.155753
   7 H :    0.145434
   8 H :    0.146240
   9 H :    0.159602
  10 H :    0.148639
  11 H :    0.147183
  12 C :   -0.019375
  13 H :    0.122267
  14 H :    0.145794
  15 O :   -0.510541
  16 C :    0.082716
  17 C :    0.082278
  18 C :   -0.326551
  19 C :   -0.006852
  20 O :   -0.498997
  21 H :    0.164255
  22 H :    0.166555
  23 O :   -0.601929
  24 H :    0.159437
  25 H :    0.131496
  26 H :    0.149802
  27 H :    0.147395
  28 H :    0.356686
Sum of atomic charges:   -0.0000000

LOEWDIN ATOMIC CHARGES
----------------------
   0 C :    0.174576
   1 C :   -0.230096
   2 C :   -0.226429
   3 C :   -0.036486
   4 O :   -0.314567
   5 H :    0.114109
   6 H :    0.121866
   7 H :    0.116110
   8 H :    0.116373
   9 H :    0.112447
  10 H :    0.100173
  11 H :    0.104727
  12 C :   -0.050352
  13 H :    0.091635
  14 H :    0.109057
  15 O :   -0.307452
  16 C :    0.008893
  17 C :    0.033365
  18 C :   -0.241190
  19 C :   -0.029087
  20 O :   -0.309085
  21 H :    0.116849
  22 H :    0.118754
  23 O :   -0.410100
  24 H :    0.123186
  25 H :    0.102986
  26 H :    0.105778
  27 H :    0.105760
  28 H :    0.278197

  Mayer bond orders larger than 0.100000
B(  0-C ,  1-C ) :   0.9176 B(  0-C ,  4-O ) :   0.9022 B(  0-C ,  5-H ) :   0.9375
B(  0-C , 15-O ) :   0.9026 B(  1-C ,  2-C ) :   0.9537 B(  1-C ,  6-H ) :   0.9360
B(  1-C ,  7-H ) :   0.9367 B(  2-C ,  3-C ) :   0.9465 B(  2-C ,  8-H ) :   0.9455
B(  2-C ,  9-H ) :   0.9363 B(  3-C ,  4-O ) :   0.8472 B(  3-C , 10-H ) :   0.9191
B(  3-C , 11-H ) :   0.9383 B( 12-C , 13-H ) :   0.8990 B( 12-C , 14-H ) :   0.9405
B( 12-C , 15-O ) :   0.8704 B( 12-C , 16-C ) :   0.8805 B( 16-C , 17-C ) :   0.8683
B( 16-C , 20-O ) :   0.8717 B( 16-C , 21-H ) :   0.9158 B( 17-C , 18-C ) :   0.9259
B( 17-C , 22-H ) :   0.9324 B( 17-C , 23-O ) :   0.8940 B( 18-C , 19-C ) :   0.9371
B( 18-C , 24-H ) :   0.9413 B( 18-C , 25-H ) :   0.9410 B( 19-C , 20-O ) :   0.8532
B( 19-C , 26-H ) :   0.9305 B( 19-C , 27-H ) :   0.9379 B( 23-O , 28-H ) :   0.7982

FINAL SINGLE POINT ENERGY      -652.846994961482

DIPOLE MOMENT
-------------
                                X             Y             Z
Electronic contribution:     -0.72806      -3.84776       0.08252
Nuclear contribution   :      0.35795       5.21640      -0.34751
                        -----------------------------------------
Total Dipole Moment    :     -0.37011       1.36864      -0.26499
                        -----------------------------------------
Magnitude (a.u.)       :      1.44235
Magnitude (Debye)      :      3.66617

Rotational constants in cm-1:     0.046424     0.016527     0.014974
Rotational constants in MHz :  1391.765268   495.458032   448.911300

                             ****ORCA TERMINATED NORMALLY****
TOTAL RUN TIME: 0 days 1 hours 40 minutes 57 seconds 122 msec
