                         Program Version 4.2.0 -  RELEASE  -
|  1> # Test redundant internal optimization
|  2> #
|  3> ! RKS B3LYP  Opt TightSCF SmallPrint
|  4>
|  5> %basis
|  6>         Basis "6-31G"
|  7> end
|  8>
|  9> %geom
| 10> Constraints
| 11> { D 4  0  15  12  135.0   C } # D for Dihedral angle
| 12> { D 0  15  12  16  180.0   C } # D for Dihedral angle
| 13> { D 0  4  3  2   C } # D for Dihedral angle
| 14> { D 4  3  2  1   C } # D for Dihedral angle
| 15> { D 3  2  1  0   C } # D for Dihedral angle
| 16> { D 2  1  0  4   C } # D for Dihedral angle
| 17> { D 1  0  4  3   C } # D for Dihedral angle
| 18> { D 16  20  19  18   C } # D for Dihedral angle
| 19> { D 20  19  18  17   C } # D for Dihedral angle
| 20> { D 19  18  17  16   C } # D for Dihedral angle
| 21> { D 18  17  16  20   C } # D for Dihedral angle
| 22> { D 17  16  20  19   C } # D for Dihedral angle
| 23> { D 15  12  16  20   C } # D for Dihedral angle
| 24> end
| 25> end
| 26>
| 27>
| 28> #%pal
| 29> #nprocs 8
| 30> #end
| 31>
| 32> * xyz 0 1
| 33> C  -21.048   26.222   46.251
| 34> C  -20.361   27.558   45.944
| 35> C  -20.329   28.222   47.341
| 36> C  -20.110   27.022   48.296
| 37> O  -20.473   25.807   47.535
| 38> H  -20.833   25.428   45.533
| 39> H  -19.344   27.382   45.576
| 40> H  -20.898   28.157   45.201
| 41> H  -19.543   28.978   47.434
| 42> H  -21.289   28.710   47.548
| 43> H  -20.733   27.082   49.195
| 44> H  -19.064   26.913   48.597
| 45> C  -23.162   27.680   45.721
| 46> H  -22.701   28.560   46.186
| 47> H  -22.933   27.700   44.647
| 48> O  -22.586   26.394   46.375
| 49> C  -24.703   27.795   45.878
| 50> C  -25.103   27.945   47.350
| 51> C  -24.810   29.443   47.603
| 52> C  -25.174   30.106   46.251
| 53> O  -25.192   29.024   45.244
| 54> H  -25.179   26.958   45.363
| 55> O  -26.617   27.645   47.524
| 56> H  -24.542   27.283   48.018
| 57> H  -25.388   29.853   48.438
| 58> H  -23.747   29.585   47.830
| 59> H  -24.447   30.866   45.947
| 60> H  -26.171   30.554   46.261
| 61> H  -27.200   28.297   46.863
| 62> *
| 63>
| 64>                          ****END OF INPUT****
 Total Charge           Charge          ....    0
 Multiplicity           Mult            ....    1
 Number of Electrons    NEL             ....  102
FINAL SINGLE POINT ENERGY      -652.827563578181
FINAL SINGLE POINT ENERGY      -652.851313063598
FINAL SINGLE POINT ENERGY      -652.855555240668
FINAL SINGLE POINT ENERGY      -652.856874855124
FINAL SINGLE POINT ENERGY      -652.857016086440
FINAL SINGLE POINT ENERGY      -652.857046554900
                    ***********************HURRAY********************

CARTESIAN COORDINATES (ANGSTROEM)
---------------------------------
  C    -21.197953   26.305367   46.267976
  C    -20.241874   27.451212   45.928305
  C    -20.145696   28.205991   47.281914
  C    -20.224350   27.056883   48.312595
  O    -20.789707   25.895762   47.584385
  H    -21.098245   25.423482   45.631467
  H    -19.271309   27.020631   45.659873
  H    -20.570166   28.083199   45.099158
  H    -19.220177   28.782514   47.371081
  H    -20.985811   28.898281   47.400524
  H    -20.867651   27.286622   49.166078
  H    -19.239777   26.749889   48.676467
  C    -23.126549   27.845482   45.651660
  H    -22.672281   28.755936   46.063338
  H    -22.945492   27.833510   44.568982
  O    -22.615823   26.646813   46.294535
  C    -24.634669   27.848005   45.898660
  C    -25.053929   27.942298   47.372429
  C    -24.896784   29.459549   47.645523
  C    -25.311879   30.107250   46.300953
  O    -25.228427   29.036875   45.275315
  H    -25.082035   26.971759   45.423216
  O    -26.432721   27.510729   47.543332
  H    -24.458052   27.306818   48.024488
  H    -25.528733   29.770265   48.481067
  H    -23.857055   29.696813   47.897244
  H    -24.659119   30.934450   46.005636
  H    -26.346017   30.465080   46.308503
  H    -26.977718   27.877534   46.815296

 Multiplicity           Mult            ....    1
 Number of Electrons    NEL             ....  102
 Basis Dimension        Dim             ....  149

ORBITAL ENERGIES
----------------

  NO   OCC          E(Eh)            E(eV)
   0   2.0000     -19.145831      -520.9846
   1   2.0000     -19.144297      -520.9428
   2   2.0000     -19.142836      -520.9030
   3   2.0000     -19.132828      -520.6307
   4   2.0000     -10.283676      -279.8331
   5   2.0000     -10.235654      -278.5263
   6   2.0000     -10.233684      -278.4727
   7   2.0000     -10.233051      -278.4555
   8   2.0000     -10.232863      -278.4504
   9   2.0000     -10.230945      -278.3982
  10   2.0000     -10.198245      -277.5084
  11   2.0000     -10.197753      -277.4950
  12   2.0000     -10.188299      -277.2377
  13   2.0000      -1.054908       -28.7055
  14   2.0000      -1.036039       -28.1920
  15   2.0000      -1.003154       -27.2972
  16   2.0000      -0.997453       -27.1421
  17   2.0000      -0.794844       -21.6288
  18   2.0000      -0.781549       -21.2670
  19   2.0000      -0.770951       -20.9786
  20   2.0000      -0.734733       -19.9931
  21   2.0000      -0.680526       -18.5180
  22   2.0000      -0.609330       -16.5807
  23   2.0000      -0.603976       -16.4350
  24   2.0000      -0.596190       -16.2232
  25   2.0000      -0.577143       -15.7049
  26   2.0000      -0.525374       -14.2962
  27   2.0000      -0.515436       -14.0257
  28   2.0000      -0.505828       -13.7643
  29   2.0000      -0.494846       -13.4655
  30   2.0000      -0.475378       -12.9357
  31   2.0000      -0.455739       -12.4013
  32   2.0000      -0.453187       -12.3318
  33   2.0000      -0.443620       -12.0715
  34   2.0000      -0.429869       -11.6973
  35   2.0000      -0.413886       -11.2624
  36   2.0000      -0.409022       -11.1301
  37   2.0000      -0.392172       -10.6715
  38   2.0000      -0.386684       -10.5222
  39   2.0000      -0.370100       -10.0709
  40   2.0000      -0.364971        -9.9314
  41   2.0000      -0.361583        -9.8392
  42   2.0000      -0.355906        -9.6847
  43   2.0000      -0.332995        -9.0613
  44   2.0000      -0.318150        -8.6573
  45   2.0000      -0.306413        -8.3379
  46   2.0000      -0.297375        -8.0920
  47   2.0000      -0.272351        -7.4111
  48   2.0000      -0.266434        -7.2500
  49   2.0000      -0.254630        -6.9288
  50   2.0000      -0.247350        -6.7307
  51   0.0000       0.052740         1.4351
  52   0.0000       0.066120         1.7992
  53   0.0000       0.089475         2.4347
  54   0.0000       0.097525         2.6538
  55   0.0000       0.102110         2.7786

MULLIKEN ATOMIC CHARGES
-----------------------
   0 C :    0.322553
   1 C :   -0.300233
   2 C :   -0.308248
   3 C :   -0.002365
   4 O :   -0.494586
   5 H :    0.157220
   6 H :    0.156690
   7 H :    0.149635
   8 H :    0.147678
   9 H :    0.150727
  10 H :    0.150483
  11 H :    0.146791
  12 C :   -0.003172
  13 H :    0.119825
  14 H :    0.146510
  15 O :   -0.533223
  16 C :    0.057443
  17 C :    0.090886
  18 C :   -0.297253
  19 C :   -0.031079
  20 O :   -0.530178
  21 H :    0.169749
  22 O :   -0.602636
  23 H :    0.183661
  24 H :    0.163120
  25 H :    0.135566
  26 H :    0.144388
  27 H :    0.148030
  28 H :    0.362019
Sum of atomic charges:   -0.0000000

LOEWDIN ATOMIC CHARGES
----------------------
   0 C :    0.184483
   1 C :   -0.232491
   2 C :   -0.219388
   3 C :   -0.028592
   4 O :   -0.307279
   5 H :    0.105736
   6 H :    0.122946
   7 H :    0.117133
   8 H :    0.117271
   9 H :    0.108433
  10 H :    0.106849
  11 H :    0.105099
  12 C :   -0.039166
  13 H :    0.086768
  14 H :    0.101616
  15 O :   -0.337741
  16 C :    0.020219
  17 C :    0.038849
  18 C :   -0.240901
  19 C :   -0.038686
  20 O :   -0.332113
  21 H :    0.120799
  22 O :   -0.413802
  23 H :    0.131410
  24 H :    0.127030
  25 H :    0.108699
  26 H :    0.102468
  27 H :    0.103481
  28 H :    0.280869

  Mayer bond orders larger than 0.100000
B(  0-C ,  1-C ) :   0.9325 B(  0-C ,  4-O ) :   0.9280 B(  0-C ,  5-H ) :   0.9279
B(  0-C , 15-O ) :   0.8438 B(  1-C ,  2-C ) :   0.9508 B(  1-C ,  6-H ) :   0.9338
B(  1-C ,  7-H ) :   0.9281 B(  2-C ,  3-C ) :   0.9502 B(  2-C ,  8-H ) :   0.9453
B(  2-C ,  9-H ) :   0.9395 B(  3-C ,  4-O ) :   0.8421 B(  3-C , 10-H ) :   0.9343
B(  3-C , 11-H ) :   0.9391 B( 12-C , 13-H ) :   0.9061 B( 12-C , 14-H ) :   0.9155
B( 12-C , 15-O ) :   0.8326 B( 12-C , 16-C ) :   0.9012 B( 16-C , 17-C ) :   0.9138
B( 16-C , 20-O ) :   0.8427 B( 16-C , 21-H ) :   0.9244 B( 17-C , 18-C ) :   0.9109
B( 17-C , 22-O ) :   0.8890 B( 17-C , 23-H ) :   0.9209 B( 18-C , 19-C ) :   0.9418
B( 18-C , 24-H ) :   0.9379 B( 18-C , 25-H ) :   0.9360 B( 19-C , 20-O ) :   0.8436
B( 19-C , 26-H ) :   0.9358 B( 19-C , 27-H ) :   0.9379 B( 22-O , 28-H ) :   0.7959

FINAL SINGLE POINT ENERGY      -652.857049567283

DIPOLE MOMENT
-------------
                                X             Y             Z
Electronic contribution:     -4.29052      -5.27678      -1.24441
Nuclear contribution   :      5.41850       6.77786       0.97744
                        -----------------------------------------
Total Dipole Moment    :      1.12798       1.50108      -0.26697
                        -----------------------------------------
Magnitude (a.u.)       :      1.89654
Magnitude (Debye)      :      4.82061

Rotational constants in cm-1:     0.050119     0.013746     0.013401
Rotational constants in MHz :  1502.524792   412.089348   401.739270

                             ****ORCA TERMINATED NORMALLY****
TOTAL RUN TIME: 0 days 0 hours 21 minutes 53 seconds 435 msec
