                         Program Version 4.2.0 -  RELEASE  -
|  1> # Test redundant internal optimization
|  2> #
|  3> ! RKS B3LYP  Opt TightSCF SmallPrint
|  4>
|  5> %basis
|  6>         Basis "6-31G"
|  7> end
|  8>
|  9> %geom
| 10> Constraints
| 11> { D 4  0  15  12  45.0   C } # D for Dihedral angle
| 12> { D 0  15  12  16  180.0   C } # D for Dihedral angle
| 13> { D 0  4  3  2   C } # D for Dihedral angle
| 14> { D 4  3  2  1   C } # D for Dihedral angle
| 15> { D 3  2  1  0   C } # D for Dihedral angle
| 16> { D 2  1  0  4   C } # D for Dihedral angle
| 17> { D 1  0  4  3   C } # D for Dihedral angle
| 18> { D 16  20  19  18   C } # D for Dihedral angle
| 19> { D 20  19  18  17   C } # D for Dihedral angle
| 20> { D 19  18  17  16   C } # D for Dihedral angle
| 21> { D 18  17  16  20   C } # D for Dihedral angle
| 22> { D 17  16  20  19   C } # D for Dihedral angle
| 23> { D 15  12  16  20   C } # D for Dihedral angle
| 24> end
| 25> end
| 26>
| 27>
| 28> #%pal
| 29> #nprocs 8
| 30> #end
| 31>
| 32> * xyz 0 1
| 33> C  -21.048   26.222   46.251
| 34> C  -20.361   27.558   45.944
| 35> C  -20.329   28.222   47.341
| 36> C  -20.110   27.022   48.296
| 37> O  -20.473   25.807   47.535
| 38> H  -20.833   25.428   45.533
| 39> H  -19.344   27.382   45.576
| 40> H  -20.898   28.157   45.201
| 41> H  -19.543   28.978   47.434
| 42> H  -21.289   28.710   47.548
| 43> H  -20.733   27.082   49.195
| 44> H  -19.064   26.913   48.597
| 45> C  -23.065   27.161   47.638
| 46> H  -22.727   26.628   48.535
| 47> H  -22.637   28.172   47.658
| 48> O  -22.586   26.394   46.375
| 49> C  -24.611   27.301   47.705
| 50> C  -25.167   27.960   46.437
| 51> C  -25.163   26.775   45.441
| 52> C  -25.508   25.560   46.339
| 53> O  -25.244   25.979   47.733
| 54> H  -24.885   27.806   48.633
| 55> O  -26.615   28.460   46.687
| 56> H  -24.564   28.806   46.091
| 57> H  -25.878   26.905   44.623
| 58> H  -24.166   26.657   44.999
| 59> H  -24.899   24.680   46.107
| 60> H  -26.565   25.284   46.280
| 61> H  -27.238   27.628   47.034
| 62> *
| 63>
| 64>                          ****END OF INPUT****
 Total Charge           Charge          ....    0
 Multiplicity           Mult            ....    1
 Number of Electrons    NEL             ....  102
FINAL SINGLE POINT ENERGY      -652.819766840621
FINAL SINGLE POINT ENERGY      -652.845147691048
FINAL SINGLE POINT ENERGY      -652.857029973298
FINAL SINGLE POINT ENERGY      -652.859153876936
FINAL SINGLE POINT ENERGY      -652.859481290798
FINAL SINGLE POINT ENERGY      -652.859532587821
FINAL SINGLE POINT ENERGY      -652.859536424149
                    ***********************HURRAY********************

CARTESIAN COORDINATES (ANGSTROEM)
---------------------------------
  C    -21.173730   26.312418   46.450215
  C    -20.377139   27.538337   45.982392
  C    -20.076997   28.263127   47.326622
  C    -19.879968   27.082330   48.309127
  O    -20.493199   25.897432   47.654947
  H    -21.106379   25.473315   45.755730
  H    -19.450065   27.194678   45.511663
  H    -20.931118   28.153067   45.268529
  H    -19.182744   28.891757   47.267398
  H    -20.910497   28.905580   47.622191
  H    -20.360238   27.239543   49.279118
  H    -18.824683   26.842734   48.466971
  C    -23.162593   27.180119   47.735510
  H    -22.877493   26.651619   48.651670
  H    -22.803037   28.216478   47.793561
  O    -22.604611   26.479558   46.588678
  C    -24.686292   27.212782   47.633015
  C    -25.282005   27.911220   46.401729
  C    -25.249265   26.773730   45.345244
  C    -25.540235   25.508343   46.190035
  O    -25.271420   25.874557   47.601563
  H    -25.056289   27.695664   48.545818
  O    -26.634613   28.371229   46.680741
  H    -24.735114   28.803324   46.093909
  H    -25.996766   26.948608   44.566109
  H    -24.255692   26.717954   44.899737
  H    -24.893052   24.670645   45.919436
  H    -26.586334   25.189128   46.135283
  H    -27.141431   27.637724   47.089059

 Multiplicity           Mult            ....    1
 Number of Electrons    NEL             ....  102
 Basis Dimension        Dim             ....  149

ORBITAL ENERGIES
----------------

  NO   OCC          E(Eh)            E(eV)
   0   2.0000     -19.149788      -521.0922
   1   2.0000     -19.148634      -521.0608
   2   2.0000     -19.134702      -520.6817
   3   2.0000     -19.132900      -520.6327
   4   2.0000     -10.283917      -279.8396
   5   2.0000     -10.235402      -278.5194
   6   2.0000     -10.234970      -278.5077
   7   2.0000     -10.233285      -278.4618
   8   2.0000     -10.232665      -278.4450
   9   2.0000     -10.219101      -278.0759
  10   2.0000     -10.198284      -277.5094
  11   2.0000     -10.194354      -277.4025
  12   2.0000     -10.173624      -276.8384
  13   2.0000      -1.058662       -28.8077
  14   2.0000      -1.030506       -28.0415
  15   2.0000      -1.003904       -27.3176
  16   2.0000      -0.995482       -27.0884
  17   2.0000      -0.794124       -21.6092
  18   2.0000      -0.780193       -21.2301
  19   2.0000      -0.763165       -20.7668
  20   2.0000      -0.736165       -20.0321
  21   2.0000      -0.676134       -18.3985
  22   2.0000      -0.609491       -16.5851
  23   2.0000      -0.604186       -16.4407
  24   2.0000      -0.594653       -16.1813
  25   2.0000      -0.569086       -15.4856
  26   2.0000      -0.523376       -14.2418
  27   2.0000      -0.514050       -13.9880
  28   2.0000      -0.500515       -13.6197
  29   2.0000      -0.488119       -13.2824
  30   2.0000      -0.474311       -12.9067
  31   2.0000      -0.456451       -12.4207
  32   2.0000      -0.450548       -12.2600
  33   2.0000      -0.438837       -11.9414
  34   2.0000      -0.424162       -11.5420
  35   2.0000      -0.413188       -11.2434
  36   2.0000      -0.404474       -11.0063
  37   2.0000      -0.384768       -10.4701
  38   2.0000      -0.383557       -10.4371
  39   2.0000      -0.367808       -10.0086
  40   2.0000      -0.366179        -9.9642
  41   2.0000      -0.360452        -9.8084
  42   2.0000      -0.349226        -9.5029
  43   2.0000      -0.329775        -8.9736
  44   2.0000      -0.322745        -8.7823
  45   2.0000      -0.311828        -8.4853
  46   2.0000      -0.298887        -8.1331
  47   2.0000      -0.270192        -7.3523
  48   2.0000      -0.263097        -7.1592
  49   2.0000      -0.255713        -6.9583
  50   2.0000      -0.240043        -6.5319
  51   0.0000       0.064102         1.7443
  52   0.0000       0.076177         2.0729
  53   0.0000       0.087211         2.3731
  54   0.0000       0.103194         2.8080
  55   0.0000       0.106594         2.9006

MULLIKEN ATOMIC CHARGES
-----------------------
   0 C :    0.304753
   1 C :   -0.267245
   2 C :   -0.317427
   3 C :   -0.013236
   4 O :   -0.506149
   5 H :    0.164643
   6 H :    0.154123
   7 H :    0.150995
   8 H :    0.148808
   9 H :    0.151186
  10 H :    0.146103
  11 H :    0.152079
  12 C :    0.004660
  13 H :    0.162514
  14 H :    0.117605
  15 O :   -0.531170
  16 C :    0.068815
  17 C :    0.075951
  18 C :   -0.286688
  19 C :   -0.015231
  20 O :   -0.525554
  21 H :    0.153081
  22 O :   -0.603678
  23 H :    0.144460
  24 H :    0.146946
  25 H :    0.170159
  26 H :    0.154099
  27 H :    0.132950
  28 H :    0.362446
Sum of atomic charges:    0.0000000

LOEWDIN ATOMIC CHARGES
----------------------
   0 C :    0.177640
   1 C :   -0.227333
   2 C :   -0.223510
   3 C :   -0.033332
   4 O :   -0.317283
   5 H :    0.112494
   6 H :    0.120576
   7 H :    0.119953
   8 H :    0.117295
   9 H :    0.109044
  10 H :    0.103362
  11 H :    0.107389
  12 C :   -0.039798
  13 H :    0.114017
  14 H :    0.088993
  15 O :   -0.324871
  16 C :    0.016895
  17 C :    0.038559
  18 C :   -0.242174
  19 C :   -0.031747
  20 O :   -0.328108
  21 H :    0.114631
  22 O :   -0.417619
  23 H :    0.112397
  24 H :    0.117466
  25 H :    0.128269
  26 H :    0.109800
  27 H :    0.095190
  28 H :    0.281806

  Mayer bond orders larger than 0.100000
B(  0-C ,  1-C ) :   0.9167 B(  0-C ,  4-O ) :   0.9077 B(  0-C ,  5-H ) :   0.9365
B(  0-C , 15-O ) :   0.8755 B(  1-C ,  2-C ) :   0.9553 B(  1-C ,  6-H ) :   0.9343
B(  1-C ,  7-H ) :   0.9373 B(  2-C ,  3-C ) :   0.9480 B(  2-C ,  8-H ) :   0.9444
B(  2-C ,  9-H ) :   0.9392 B(  3-C ,  4-O ) :   0.8396 B(  3-C , 10-H ) :   0.9329
B(  3-C , 11-H ) :   0.9392 B( 12-C , 13-H ) :   0.9145 B( 12-C , 14-H ) :   0.8970
B( 12-C , 15-O ) :   0.8365 B( 12-C , 16-C ) :   0.9086 B( 16-C , 17-C ) :   0.9076
B( 16-C , 20-O ) :   0.8778 B( 16-C , 21-H ) :   0.9239 B( 17-C , 18-C ) :   0.9240
B( 17-C , 22-O ) :   0.8902 B( 17-C , 23-H ) :   0.9367 B( 18-C , 19-C ) :   0.9461
B( 18-C , 24-H ) :   0.9372 B( 18-C , 25-H ) :   0.9193 B( 19-C , 20-O ) :   0.8388
B( 19-C , 26-H ) :   0.9339 B( 19-C , 27-H ) :   0.9378 B( 22-O , 28-H ) :   0.7959

FINAL SINGLE POINT ENERGY      -652.859534675234

DIPOLE MOMENT
-------------
                                X             Y             Z
Electronic contribution:     -3.72774      -3.07024       1.47703
Nuclear contribution   :      4.76914       3.76257      -1.78931
                        -----------------------------------------
Total Dipole Moment    :      1.04140       0.69234      -0.31229
                        -----------------------------------------
Magnitude (a.u.)       :      1.28894
Magnitude (Debye)      :      3.27623

Rotational constants in cm-1:     0.057320     0.013696     0.013286
Rotational constants in MHz :  1718.423508   410.595193   398.301862

                             ****ORCA TERMINATED NORMALLY****
TOTAL RUN TIME: 0 days 0 hours 51 minutes 35 seconds 689 msec
