                         Program Version 4.2.0 -  RELEASE  -
|  1> # Test redundant internal optimization
|  2> #
|  3> ! RKS B3LYP  Opt TightSCF SmallPrint
|  4>
|  5> %basis
|  6>         Basis "6-31G"
|  7> end
|  8>
|  9> %geom
| 10> Constraints
| 11> { D 4  0  15  12  135.0   C } # D for Dihedral angle
| 12> { D 0  15  12  16  90.0   C } # D for Dihedral angle
| 13> { D 0  4  3  2   C } # D for Dihedral angle
| 14> { D 4  3  2  1   C } # D for Dihedral angle
| 15> { D 3  2  1  0   C } # D for Dihedral angle
| 16> { D 2  1  0  4   C } # D for Dihedral angle
| 17> { D 1  0  4  3   C } # D for Dihedral angle
| 18> { D 16  20  19  18   C } # D for Dihedral angle
| 19> { D 20  19  18  17   C } # D for Dihedral angle
| 20> { D 19  18  17  16   C } # D for Dihedral angle
| 21> { D 18  17  16  20   C } # D for Dihedral angle
| 22> { D 17  16  20  19   C } # D for Dihedral angle
| 23> { D 15  12  16  20   C } # D for Dihedral angle
| 24> end
| 25> end
| 26>
| 27>
| 28> #%pal
| 29> #nprocs 8
| 30> #end
| 31>
| 32> * xyz 0 1
| 33> C  -21.048   26.222   46.251
| 34> C  -20.361   27.558   45.944
| 35> C  -20.329   28.222   47.341
| 36> C  -20.110   27.022   48.296
| 37> O  -20.473   25.807   47.535
| 38> H  -20.833   25.428   45.533
| 39> H  -19.344   27.382   45.576
| 40> H  -20.898   28.157   45.201
| 41> H  -19.543   28.978   47.434
| 42> H  -21.289   28.710   47.548
| 43> H  -20.733   27.082   49.195
| 44> H  -19.064   26.913   48.597
| 45> C  -23.162   27.680   45.721
| 46> H  -24.052   28.001   46.276
| 47> H  -22.424   28.492   45.755
| 48> O  -22.586   26.394   46.375
| 49> C  -23.563   27.469   44.234
| 50> C  -24.017   28.783   43.589
| 51> C  -22.663   29.468   43.287
| 52> C  -21.741   28.279   42.920
| 53> O  -22.398   27.061   43.442
| 54> H  -24.292   26.659   44.172
| 55> O  -24.789   28.492   42.273
| 56> H  -24.660   29.383   44.242
| 57> H  -22.731   30.207   42.482
| 58> H  -22.293   29.982   44.182
| 59> H  -20.744   28.368   43.366
| 60> H  -21.635   28.150   41.839
| 61> H  -24.163   27.892   41.604
| 62> *
| 63>
| 64>                          ****END OF INPUT****
 Total Charge           Charge          ....    0
 Multiplicity           Mult            ....    1
 Number of Electrons    NEL             ....  102
FINAL SINGLE POINT ENERGY      -652.818962483957
FINAL SINGLE POINT ENERGY      -652.843808734638
FINAL SINGLE POINT ENERGY      -652.851882741502
FINAL SINGLE POINT ENERGY      -652.854043288838
FINAL SINGLE POINT ENERGY      -652.854395591451
FINAL SINGLE POINT ENERGY      -652.854447045621
FINAL SINGLE POINT ENERGY      -652.854452186188
                    ***********************HURRAY********************

CARTESIAN COORDINATES (ANGSTROEM)
---------------------------------
  C    -21.064804   26.281433   46.258687
  C    -20.144525   27.485129   46.043590
  C    -20.150958   28.154960   47.444856
  C    -20.231169   26.937068   48.394043
  O    -20.705245   25.806173   47.567554
  H    -20.904528   25.454408   45.567514
  H    -19.144354   27.106017   45.806680
  H    -20.448786   28.147169   45.233652
  H    -19.257812   28.762102   47.621608
  H    -21.027350   28.801539   47.563345
  H    -20.926758   27.085814   49.224527
  H    -19.252950   26.650473   48.791648
  C    -23.095809   27.749039   45.701689
  H    -24.016721   27.908431   46.272968
  H    -22.458492   28.633233   45.832119
  O    -22.499515   26.557405   46.263197
  C    -23.450717   27.535488   44.227723
  C    -24.085065   28.738880   43.513672
  C    -22.832687   29.555334   43.101396
  C    -21.787958   28.459117   42.774114
  O    -22.274170   27.208842   43.410882
  H    -24.103114   26.658474   44.168481
  O    -24.857836   28.315841   42.358288
  H    -24.781292   29.305404   44.134438
  H    -23.056324   30.200413   42.248093
  H    -22.501606   30.187202   43.933721
  H    -20.790816   28.695866   43.157481
  H    -21.708273   28.261686   41.700742
  H    -24.378364   27.598058   41.893293

 Multiplicity           Mult            ....    1
 Number of Electrons    NEL             ....  102
 Basis Dimension        Dim             ....  149

ORBITAL ENERGIES
----------------

  NO   OCC          E(Eh)            E(eV)
   0   2.0000     -19.151943      -521.1509
   1   2.0000     -19.143356      -520.9172
   2   2.0000     -19.134723      -520.6823
   3   2.0000     -19.134383      -520.6730
   4   2.0000     -10.274530      -279.5842
   5   2.0000     -10.248702      -278.8814
   6   2.0000     -10.239071      -278.6193
   7   2.0000     -10.236902      -278.5603
   8   2.0000     -10.236516      -278.5498
   9   2.0000     -10.224187      -278.2143
  10   2.0000     -10.196973      -277.4737
  11   2.0000     -10.191745      -277.3315
  12   2.0000     -10.189605      -277.2733
  13   2.0000      -1.049242       -28.5513
  14   2.0000      -1.040675       -28.3182
  15   2.0000      -1.012311       -27.5464
  16   2.0000      -0.988733       -26.9048
  17   2.0000      -0.790270       -21.5043
  18   2.0000      -0.787295       -21.4234
  19   2.0000      -0.773240       -21.0409
  20   2.0000      -0.733256       -19.9529
  21   2.0000      -0.682828       -18.5807
  22   2.0000      -0.610573       -16.6145
  23   2.0000      -0.605147       -16.4669
  24   2.0000      -0.600031       -16.3277
  25   2.0000      -0.572955       -15.5909
  26   2.0000      -0.531275       -14.4567
  27   2.0000      -0.513329       -13.9684
  28   2.0000      -0.504622       -13.7315
  29   2.0000      -0.489421       -13.3178
  30   2.0000      -0.478844       -13.0300
  31   2.0000      -0.462061       -12.5733
  32   2.0000      -0.454991       -12.3809
  33   2.0000      -0.440874       -11.9968
  34   2.0000      -0.432617       -11.7721
  35   2.0000      -0.411038       -11.1849
  36   2.0000      -0.405276       -11.0281
  37   2.0000      -0.399286       -10.8651
  38   2.0000      -0.379821       -10.3354
  39   2.0000      -0.378789       -10.3074
  40   2.0000      -0.364085        -9.9072
  41   2.0000      -0.359031        -9.7697
  42   2.0000      -0.354673        -9.6512
  43   2.0000      -0.338468        -9.2102
  44   2.0000      -0.314961        -8.5705
  45   2.0000      -0.310166        -8.4400
  46   2.0000      -0.288158        -7.8412
  47   2.0000      -0.278380        -7.5751
  48   2.0000      -0.271567        -7.3897
  49   2.0000      -0.254527        -6.9260
  50   2.0000      -0.238670        -6.4945
  51   0.0000       0.053403         1.4532
  52   0.0000       0.074805         2.0356
  53   0.0000       0.084791         2.3073
  54   0.0000       0.094845         2.5809
  55   0.0000       0.100732         2.7411

MULLIKEN ATOMIC CHARGES
-----------------------
   0 C :    0.328288
   1 C :   -0.304511
   2 C :   -0.308097
   3 C :    0.001661
   4 O :   -0.496143
   5 H :    0.165578
   6 H :    0.154055
   7 H :    0.150883
   8 H :    0.143217
   9 H :    0.147191
  10 H :    0.149309
  11 H :    0.142331
  12 C :   -0.012083
  13 H :    0.154389
  14 H :    0.116609
  15 O :   -0.521037
  16 C :    0.063591
  17 C :    0.078120
  18 C :   -0.294789
  19 C :   -0.033008
  20 O :   -0.521617
  21 H :    0.173613
  22 O :   -0.600642
  23 H :    0.153973
  24 H :    0.167258
  25 H :    0.141317
  26 H :    0.141374
  27 H :    0.152291
  28 H :    0.366879
Sum of atomic charges:    0.0000000

LOEWDIN ATOMIC CHARGES
----------------------
   0 C :    0.189267
   1 C :   -0.231708
   2 C :   -0.221503
   3 C :   -0.027913
   4 O :   -0.308720
   5 H :    0.111136
   6 H :    0.122332
   7 H :    0.114867
   8 H :    0.114631
   9 H :    0.107682
  10 H :    0.106151
  11 H :    0.102660
  12 C :   -0.040313
  13 H :    0.116361
  14 H :    0.088717
  15 O :   -0.327015
  16 C :    0.004715
  17 C :    0.034944
  18 C :   -0.240895
  19 C :   -0.040565
  20 O :   -0.329514
  21 H :    0.121675
  22 O :   -0.412858
  23 H :    0.116443
  24 H :    0.129059
  25 H :    0.111233
  26 H :    0.099144
  27 H :    0.105452
  28 H :    0.284533

  Mayer bond orders larger than 0.100000
B(  0-C ,  1-C ) :   0.9348 B(  0-C ,  4-O ) :   0.9181 B(  0-C ,  5-H ) :   0.9269
B(  0-C , 15-O ) :   0.8397 B(  1-C ,  2-C ) :   0.9468 B(  1-C ,  6-H ) :   0.9356
B(  1-C ,  7-H ) :   0.9193 B(  2-C ,  3-C ) :   0.9506 B(  2-C ,  8-H ) :   0.9456
B(  2-C ,  9-H ) :   0.9425 B(  3-C ,  4-O ) :   0.8452 B(  3-C , 10-H ) :   0.9345
B(  3-C , 11-H ) :   0.9396 B( 12-C , 13-H ) :   0.9267 B( 12-C , 14-H ) :   0.9099
B( 12-C , 15-O ) :   0.8739 B( 12-C , 16-C ) :   0.8828 B( 16-C , 17-C ) :   0.8938
B( 16-C , 20-O ) :   0.8558 B( 16-C , 21-H ) :   0.9231 B( 17-C , 18-C ) :   0.9100
B( 17-C , 22-O ) :   0.8936 B( 17-C , 23-H ) :   0.9334 B( 18-C , 19-C ) :   0.9416
B( 18-C , 24-H ) :   0.9361 B( 18-C , 25-H ) :   0.9343 B( 19-C , 20-O ) :   0.8482
B( 19-C , 26-H ) :   0.9260 B( 19-C , 27-H ) :   0.9376 B( 22-O , 28-H ) :   0.7937

FINAL SINGLE POINT ENERGY      -652.854451600778

DIPOLE MOMENT
-------------
                                X             Y             Z
Electronic contribution:     -3.75444      -5.90851      -1.05732
Nuclear contribution   :      4.62707       7.51609       0.84242
                        -----------------------------------------
Total Dipole Moment    :      0.87264       1.60759      -0.21490
                        -----------------------------------------
Magnitude (a.u.)       :      1.84174
Magnitude (Debye)      :      4.68134

Rotational constants in cm-1:     0.063119     0.013632     0.012933
Rotational constants in MHz :  1892.258859   408.678438   387.736010

                             ****ORCA TERMINATED NORMALLY****
TOTAL RUN TIME: 0 days 1 hours 46 minutes 6 seconds 493 msec
