                         Program Version 4.2.0 -  RELEASE  -
|  1> # Test redundant internal optimization
|  2> #
|  3> ! RKS B3LYP  Opt TightSCF SmallPrint
|  4>
|  5> %basis
|  6>         Basis "6-31G"
|  7> end
|  8>
|  9> %geom
| 10> Constraints
| 11> { D 4  0  15  12  45.0   C } # D for Dihedral angle
| 12> { D 0  15  12  16  135.0   C } # D for Dihedral angle
| 13> { D 0  4  3  2   C } # D for Dihedral angle
| 14> { D 4  3  2  1   C } # D for Dihedral angle
| 15> { D 3  2  1  0   C } # D for Dihedral angle
| 16> { D 2  1  0  4   C } # D for Dihedral angle
| 17> { D 1  0  4  3   C } # D for Dihedral angle
| 18> { D 16  20  19  18   C } # D for Dihedral angle
| 19> { D 20  19  18  17   C } # D for Dihedral angle
| 20> { D 19  18  17  16   C } # D for Dihedral angle
| 21> { D 18  17  16  20   C } # D for Dihedral angle
| 22> { D 17  16  20  19   C } # D for Dihedral angle
| 23> { D 15  12  16  20   C } # D for Dihedral angle
| 24> end
| 25> end
| 26>
| 27>
| 28> #%pal
| 29> #nprocs 8
| 30> #end
| 31>
| 32> * xyz 0 1
| 33> C  -21.048   26.222   46.251
| 34> C  -20.361   27.558   45.944
| 35> C  -20.329   28.222   47.341
| 36> C  -20.110   27.022   48.296
| 37> O  -20.473   25.807   47.535
| 38> H  -20.833   25.428   45.533
| 39> H  -19.344   27.382   45.576
| 40> H  -20.898   28.157   45.201
| 41> H  -19.543   28.978   47.434
| 42> H  -21.289   28.710   47.548
| 43> H  -20.733   27.082   49.195
| 44> H  -19.064   26.913   48.597
| 45> C  -23.065   27.161   47.638
| 46> H  -23.479   26.447   48.360
| 47> H  -22.223   27.682   48.113
| 48> O  -22.586   26.394   46.375
| 49> C  -24.156   28.221   47.319
| 50> C  -25.440   27.560   46.805
| 51> C  -26.086   27.066   48.121
| 52> C  -25.702   28.170   49.138
| 53> O  -24.571   28.914   48.543
| 54> H  -23.737   28.976   46.650
| 55> H  -26.078   28.307   46.318
| 56> O  -25.173   26.410   45.795
| 57> H  -27.170   26.934   48.038
| 58> H  -25.653   26.102   48.414
| 59> H  -25.392   27.760   50.105
| 60> H  -26.510   28.887   49.301
| 61> H  -24.536   25.651   46.262
| 62> *
| 63>
| 64>                          ****END OF INPUT****
 Total Charge           Charge          ....    0
 Multiplicity           Mult            ....    1
 Number of Electrons    NEL             ....  102
FINAL SINGLE POINT ENERGY      -652.812733016815
FINAL SINGLE POINT ENERGY      -652.840909097571
FINAL SINGLE POINT ENERGY      -652.854701235615
FINAL SINGLE POINT ENERGY      -652.858228678904
FINAL SINGLE POINT ENERGY      -652.859860016056
FINAL SINGLE POINT ENERGY      -652.860850679957
FINAL SINGLE POINT ENERGY      -652.861295366161
FINAL SINGLE POINT ENERGY      -652.861412018856
FINAL SINGLE POINT ENERGY      -652.861435690384
                    ***********************HURRAY********************

CARTESIAN COORDINATES (ANGSTROEM)
---------------------------------
  C    -21.191167   26.307413   46.444672
  C    -20.420261   27.529616   45.931833
  C    -20.016461   28.236710   47.256686
  C    -19.758932   27.047178   48.212534
  O    -20.432282   25.873215   47.589530
  H    -21.193081   25.475864   45.738268
  H    -19.534500   27.180012   45.390830
  H    -21.018624   28.156406   45.266206
  H    -19.123897   28.858932   47.138096
  H    -20.820738   28.886240   47.613223
  H    -20.164716   27.194238   49.217338
  H    -18.697875   26.793718   48.288322
  C    -23.128645   27.190981   47.878775
  H    -23.516152   26.434414   48.569946
  H    -22.357010   27.758150   48.399749
  O    -22.608724   26.494959   46.695069
  C    -24.231952   28.148831   47.416914
  C    -25.460300   27.469572   46.786709
  C    -26.235885   26.989162   48.048094
  C    -25.961130   28.105533   49.075776
  O    -24.766967   28.855758   48.578490
  H    -23.798226   28.906017   46.756226
  H    -26.052088   28.232342   46.268046
  O    -25.188870   26.422313   45.836814
  H    -27.300874   26.855736   47.840408
  H    -25.833555   26.022572   48.368201
  H    -25.743438   27.728983   50.079782
  H    -26.777235   28.831403   49.140230
  H    -24.248414   26.136729   45.919232

 Multiplicity           Mult            ....    1
 Number of Electrons    NEL             ....  102
 Basis Dimension        Dim             ....  149

ORBITAL ENERGIES
----------------

  NO   OCC          E(Eh)            E(eV)
   0   2.0000     -19.162406      -521.4356
   1   2.0000     -19.156529      -521.2757
   2   2.0000     -19.141513      -520.8670
   3   2.0000     -19.112114      -520.0671
   4   2.0000     -10.292789      -280.0810
   5   2.0000     -10.240293      -278.6525
   6   2.0000     -10.239075      -278.6194
   7   2.0000     -10.234808      -278.5033
   8   2.0000     -10.229980      -278.3719
   9   2.0000     -10.226744      -278.2839
  10   2.0000     -10.201666      -277.6014
  11   2.0000     -10.198472      -277.5145
  12   2.0000     -10.178091      -276.9599
  13   2.0000      -1.065679       -28.9986
  14   2.0000      -1.026225       -27.9250
  15   2.0000      -1.008699       -27.4481
  16   2.0000      -0.991406       -26.9775
  17   2.0000      -0.798638       -21.7320
  18   2.0000      -0.779656       -21.2155
  19   2.0000      -0.768382       -20.9087
  20   2.0000      -0.738854       -20.1052
  21   2.0000      -0.682736       -18.5782
  22   2.0000      -0.614107       -16.7107
  23   2.0000      -0.602476       -16.3942
  24   2.0000      -0.595857       -16.2141
  25   2.0000      -0.578189       -15.7333
  26   2.0000      -0.537336       -14.6217
  27   2.0000      -0.511393       -13.9157
  28   2.0000      -0.509718       -13.8701
  29   2.0000      -0.488975       -13.3057
  30   2.0000      -0.476047       -12.9539
  31   2.0000      -0.460019       -12.5178
  32   2.0000      -0.445074       -12.1111
  33   2.0000      -0.433127       -11.7860
  34   2.0000      -0.426222       -11.5981
  35   2.0000      -0.426018       -11.5925
  36   2.0000      -0.410525       -11.1709
  37   2.0000      -0.390090       -10.6149
  38   2.0000      -0.388430       -10.5697
  39   2.0000      -0.370647       -10.0858
  40   2.0000      -0.368321       -10.0225
  41   2.0000      -0.357294        -9.7225
  42   2.0000      -0.353617        -9.6224
  43   2.0000      -0.341899        -9.3036
  44   2.0000      -0.329336        -8.9617
  45   2.0000      -0.321249        -8.7416
  46   2.0000      -0.288989        -7.8638
  47   2.0000      -0.273181        -7.4336
  48   2.0000      -0.271603        -7.3907
  49   2.0000      -0.248483        -6.7616
  50   2.0000      -0.240282        -6.5384
  51   0.0000       0.055688         1.5153
  52   0.0000       0.068293         1.8583
  53   0.0000       0.090426         2.4606
  54   0.0000       0.094668         2.5761
  55   0.0000       0.102413         2.7868

MULLIKEN ATOMIC CHARGES
-----------------------
   0 C :    0.310934
   1 C :   -0.268209
   2 C :   -0.323346
   3 C :   -0.021158
   4 O :   -0.502744
   5 H :    0.170388
   6 H :    0.157588
   7 H :    0.156890
   8 H :    0.152718
   9 H :    0.160667
  10 H :    0.153129
  11 H :    0.155639
  12 C :   -0.023702
  13 H :    0.158107
  14 H :    0.155521
  15 O :   -0.569462
  16 C :    0.061175
  17 C :    0.115500
  18 C :   -0.298281
  19 C :   -0.024307
  20 O :   -0.524468
  21 H :    0.150581
  22 H :    0.147397
  23 O :   -0.638940
  24 H :    0.152666
  25 H :    0.145901
  26 H :    0.142633
  27 H :    0.150945
  28 H :    0.396238
Sum of atomic charges:    0.0000000

LOEWDIN ATOMIC CHARGES
----------------------
   0 C :    0.181969
   1 C :   -0.226073
   2 C :   -0.224821
   3 C :   -0.035142
   4 O :   -0.314925
   5 H :    0.115420
   6 H :    0.122168
   7 H :    0.122878
   8 H :    0.119822
   9 H :    0.113910
  10 H :    0.105927
  11 H :    0.109378
  12 C :   -0.043514
  13 H :    0.109250
  14 H :    0.111438
  15 O :   -0.339250
  16 C :    0.014786
  17 C :    0.041376
  18 C :   -0.236770
  19 C :   -0.033124
  20 O :   -0.327550
  21 H :    0.109990
  22 H :    0.105185
  23 O :   -0.433715
  24 H :    0.121942
  25 H :    0.112127
  26 H :    0.102292
  27 H :    0.106438
  28 H :    0.288590

  Mayer bond orders larger than 0.100000
B(  0-C ,  1-C ) :   0.9215 B(  0-C ,  4-O ) :   0.9260 B(  0-C ,  5-H ) :   0.9348
B(  0-C , 15-O ) :   0.8348 B(  1-C ,  2-C ) :   0.9530 B(  1-C ,  6-H ) :   0.9334
B(  1-C ,  7-H ) :   0.9359 B(  2-C ,  3-C ) :   0.9476 B(  2-C ,  8-H ) :   0.9436
B(  2-C ,  9-H ) :   0.9385 B(  3-C ,  4-O ) :   0.8339 B(  3-C , 10-H ) :   0.9310
B(  3-C , 11-H ) :   0.9377 B( 12-C , 13-H ) :   0.9292 B( 12-C , 14-H ) :   0.9151
B( 12-C , 15-O ) :   0.7730 B( 12-C , 16-C ) :   0.8962 B( 16-C , 17-C ) :   0.9135
B( 16-C , 20-O ) :   0.8544 B( 16-C , 21-H ) :   0.9296 B( 17-C , 18-C ) :   0.9019
B( 17-C , 22-H ) :   0.9306 B( 17-C , 23-O ) :   0.9375 B( 18-C , 19-C ) :   0.9387
B( 18-C , 24-H ) :   0.9437 B( 18-C , 25-H ) :   0.9431 B( 19-C , 20-O ) :   0.8312
B( 19-C , 26-H ) :   0.9346 B( 19-C , 27-H ) :   0.9380 B( 23-O , 28-H ) :   0.7230

FINAL SINGLE POINT ENERGY      -652.861437711124

DIPOLE MOMENT
-------------
                                X             Y             Z
Electronic contribution:     -1.25421      -2.33716      -1.66812
Nuclear contribution   :      2.24996       2.96692       2.07190
                        -----------------------------------------
Total Dipole Moment    :      0.99575       0.62976       0.40378
                        -----------------------------------------
Magnitude (a.u.)       :      1.24546
Magnitude (Debye)      :      3.16570

Rotational constants in cm-1:     0.051994     0.014542     0.013101
Rotational constants in MHz :  1558.741356   435.949466   392.758897

                             ****ORCA TERMINATED NORMALLY****
TOTAL RUN TIME: 0 days 0 hours 30 minutes 55 seconds 114 msec
