                         Program Version 4.2.0 -  RELEASE  -
|  1> # Test redundant internal optimization
|  2> #
|  3> ! RKS B3LYP  Opt TightSCF SmallPrint
|  4>
|  5> %basis
|  6>         Basis "6-31G"
|  7> end
|  8>
|  9> %geom
| 10> Constraints
| 11> { D 4  0  15  12  330.0   C } # D for Dihedral angle
| 12> { D 0  15  12  16  270.0   C } # D for Dihedral angle
| 13> { D 0  4  3  2   C } # D for Dihedral angle
| 14> { D 4  3  2  1   C } # D for Dihedral angle
| 15> { D 3  2  1  0   C } # D for Dihedral angle
| 16> { D 2  1  0  4   C } # D for Dihedral angle
| 17> { D 1  0  4  3   C } # D for Dihedral angle
| 18> { D 16  20  19  18   C } # D for Dihedral angle
| 19> { D 20  19  18  17   C } # D for Dihedral angle
| 20> { D 19  18  17  16   C } # D for Dihedral angle
| 21> { D 18  17  16  20   C } # D for Dihedral angle
| 22> { D 17  16  20  19   C } # D for Dihedral angle
| 23> { D 15  12  16  20   C } # D for Dihedral angle
| 24> end
| 25> end
| 26>
| 27>
| 28> #%pal
| 29> #nprocs 8
| 30> #end
| 31>
| 32> * xyz 0 1
| 33> C  -21.048   26.222   46.251
| 34> C  -20.361   27.558   45.944
| 35> C  -20.329   28.222   47.341
| 36> C  -20.110   27.022   48.296
| 37> O  -20.473   25.807   47.535
| 38> H  -20.833   25.428   45.533
| 39> H  -19.344   27.382   45.576
| 40> H  -20.898   28.157   45.201
| 41> H  -19.543   28.978   47.434
| 42> H  -21.289   28.710   47.548
| 43> H  -20.733   27.082   49.195
| 44> H  -19.064   26.913   48.597
| 45> C  -23.271   25.476   47.424
| 46> H  -22.568   25.273   48.241
| 47> H  -24.155   25.969   47.847
| 48> O  -22.586   26.394   46.375
| 49> C  -23.729   24.117   46.825
| 50> C  -24.501   23.286   47.856
| 51> C  -25.897   23.952   47.812
| 52> C  -26.052   24.347   46.323
| 53> O  -24.693   24.334   45.741
| 54> H  -22.866   23.609   46.390
| 55> O  -24.585   21.806   47.393
| 56> H  -24.050   23.311   48.854
| 57> H  -26.696   23.285   48.152
| 58> H  -25.910   24.843   48.452
| 59> H  -26.486   25.346   46.197
| 60> H  -26.651   23.626   45.759
| 61> H  -25.034   21.757   46.395
| 62> *
| 63>
| 64>                          ****END OF INPUT****
 Total Charge           Charge          ....    0
 Multiplicity           Mult            ....    1
 Number of Electrons    NEL             ....  102
FINAL SINGLE POINT ENERGY      -652.835291032506
FINAL SINGLE POINT ENERGY      -652.857960901479
FINAL SINGLE POINT ENERGY      -652.862020296096
FINAL SINGLE POINT ENERGY      -652.862798139959
FINAL SINGLE POINT ENERGY      -652.862913520297
FINAL SINGLE POINT ENERGY      -652.862929835396
                    ***********************HURRAY********************

CARTESIAN COORDINATES (ANGSTROEM)
---------------------------------
  C    -21.096932   26.150745   46.294830
  C    -20.484344   27.510930   45.962765
  C    -20.389602   28.161877   47.359879
  C    -20.065926   26.970900   48.287547
  O    -20.437980   25.748285   47.518291
  H    -20.897353   25.354348   45.572131
  H    -19.491100   27.362208   45.524154
  H    -21.103799   28.077119   45.264280
  H    -19.625154   28.943517   47.409335
  H    -21.354143   28.606144   47.623009
  H    -20.631504   26.984405   49.223088
  H    -18.999570   26.880071   48.512325
  C    -23.225960   25.516927   47.426372
  H    -22.563801   25.316797   48.275866
  H    -24.066479   26.135527   47.754590
  O    -22.534183   26.329890   46.436714
  C    -23.722812   24.191669   46.843236
  C    -24.505752   23.335001   47.849273
  C    -25.919213   23.971252   47.771895
  C    -26.039876   24.372262   46.280228
  O    -24.662738   24.393507   45.736048
  H    -22.876084   23.632493   46.432369
  O    -24.524635   21.938050   47.444313
  H    -24.083919   23.335741   48.855121
  H    -26.681854   23.254088   48.085926
  H    -25.979242   24.846921   48.427833
  H    -26.493679   25.358898   46.142992
  H    -26.609427   23.643719   45.694120
  H    -24.687941   21.888711   46.478470

 Multiplicity           Mult            ....    1
 Number of Electrons    NEL             ....  102
 Basis Dimension        Dim             ....  149

ORBITAL ENERGIES
----------------

  NO   OCC          E(Eh)            E(eV)
   0   2.0000     -19.148680      -521.0621
   1   2.0000     -19.137833      -520.7669
   2   2.0000     -19.136759      -520.7377
   3   2.0000     -19.136138      -520.7208
   4   2.0000     -10.276967      -279.6505
   5   2.0000     -10.240139      -278.6483
   6   2.0000     -10.230856      -278.3957
   7   2.0000     -10.229027      -278.3460
   8   2.0000     -10.227639      -278.3082
   9   2.0000     -10.225061      -278.2380
  10   2.0000     -10.187875      -277.2262
  11   2.0000     -10.187861      -277.2258
  12   2.0000     -10.184500      -277.1343
  13   2.0000      -1.054290       -28.6887
  14   2.0000      -1.032880       -28.1061
  15   2.0000      -1.003336       -27.3022
  16   2.0000      -0.989985       -26.9389
  17   2.0000      -0.791354       -21.5338
  18   2.0000      -0.779870       -21.2213
  19   2.0000      -0.763682       -20.7808
  20   2.0000      -0.733537       -19.9605
  21   2.0000      -0.670576       -18.2473
  22   2.0000      -0.603331       -16.4175
  23   2.0000      -0.601277       -16.3616
  24   2.0000      -0.598033       -16.2733
  25   2.0000      -0.569347       -15.4927
  26   2.0000      -0.523365       -14.2415
  27   2.0000      -0.509465       -13.8632
  28   2.0000      -0.496011       -13.4971
  29   2.0000      -0.491427       -13.3724
  30   2.0000      -0.472994       -12.8708
  31   2.0000      -0.457889       -12.4598
  32   2.0000      -0.450378       -12.2554
  33   2.0000      -0.436712       -11.8835
  34   2.0000      -0.422663       -11.5013
  35   2.0000      -0.409569       -11.1449
  36   2.0000      -0.397468       -10.8156
  37   2.0000      -0.390957       -10.6385
  38   2.0000      -0.373020       -10.1504
  39   2.0000      -0.368635       -10.0311
  40   2.0000      -0.359503        -9.7826
  41   2.0000      -0.355723        -9.6797
  42   2.0000      -0.349228        -9.5030
  43   2.0000      -0.333516        -9.0754
  44   2.0000      -0.329146        -8.9565
  45   2.0000      -0.306695        -8.3456
  46   2.0000      -0.295625        -8.0444
  47   2.0000      -0.268328        -7.3016
  48   2.0000      -0.265849        -7.2341
  49   2.0000      -0.262417        -7.1407
  50   2.0000      -0.232883        -6.3371
  51   0.0000       0.068588         1.8664
  52   0.0000       0.082981         2.2580
  53   0.0000       0.089447         2.4340
  54   0.0000       0.098739         2.6868
  55   0.0000       0.107601         2.9280

MULLIKEN ATOMIC CHARGES
-----------------------
   0 C :    0.291512
   1 C :   -0.259102
   2 C :   -0.301397
   3 C :   -0.012874
   4 O :   -0.515697
   5 H :    0.154241
   6 H :    0.144123
   7 H :    0.164879
   8 H :    0.144498
   9 H :    0.159117
  10 H :    0.142828
  11 H :    0.149666
  12 C :   -0.020480
  13 H :    0.155278
  14 H :    0.141939
  15 O :   -0.516686
  16 C :    0.061474
  17 C :    0.076629
  18 C :   -0.295275
  19 C :   -0.029594
  20 O :   -0.511321
  21 H :    0.165071
  22 O :   -0.601299
  23 H :    0.151345
  24 H :    0.160935
  25 H :    0.142978
  26 H :    0.147087
  27 H :    0.145845
  28 H :    0.364278
Sum of atomic charges:    0.0000000

LOEWDIN ATOMIC CHARGES
----------------------
   0 C :    0.177135
   1 C :   -0.214624
   2 C :   -0.217504
   3 C :   -0.030559
   4 O :   -0.325398
   5 H :    0.099983
   6 H :    0.113489
   7 H :    0.128279
   8 H :    0.115544
   9 H :    0.117557
  10 H :    0.102260
  11 H :    0.106393
  12 C :   -0.049120
  13 H :    0.110910
  14 H :    0.107256
  15 O :   -0.324985
  16 C :    0.007228
  17 C :    0.035241
  18 C :   -0.241434
  19 C :   -0.038866
  20 O :   -0.324035
  21 H :    0.116833
  22 O :   -0.414386
  23 H :    0.115224
  24 H :    0.125833
  25 H :    0.112137
  26 H :    0.104666
  27 H :    0.102014
  28 H :    0.282927

  Mayer bond orders larger than 0.100000
B(  0-C ,  1-C ) :   0.9444 B(  0-C ,  4-O ) :   0.8972 B(  0-C ,  5-H ) :   0.9212
B(  0-C , 15-O ) :   0.8523 B(  1-C ,  2-C ) :   0.9536 B(  1-C ,  6-H ) :   0.9380
B(  1-C ,  7-H ) :   0.9347 B(  2-C ,  3-C ) :   0.9556 B(  2-C ,  8-H ) :   0.9449
B(  2-C ,  9-H ) :   0.9447 B(  3-C ,  4-O ) :   0.8304 B(  3-C , 10-H ) :   0.9352
B(  3-C , 11-H ) :   0.9407 B( 12-C , 13-H ) :   0.9013 B( 12-C , 14-H ) :   0.9380
B( 12-C , 15-O ) :   0.8575 B( 12-C , 16-C ) :   0.8821 B( 16-C , 17-C ) :   0.8993
B( 16-C , 20-O ) :   0.8619 B( 16-C , 21-H ) :   0.9258 B( 17-C , 18-C ) :   0.9125
B( 17-C , 22-O ) :   0.8933 B( 17-C , 23-H ) :   0.9331 B( 18-C , 19-C ) :   0.9393
B( 18-C , 24-H ) :   0.9379 B( 18-C , 25-H ) :   0.9346 B( 19-C , 20-O ) :   0.8524
B( 19-C , 26-H ) :   0.9344 B( 19-C , 27-H ) :   0.9374 B( 22-O , 28-H ) :   0.7943

FINAL SINGLE POINT ENERGY      -652.862931935722

DIPOLE MOMENT
-------------
                                X             Y             Z
Electronic contribution:     -0.31428      -4.30838      -2.37985
Nuclear contribution   :      0.30240       5.28014       2.86874
                        -----------------------------------------
Total Dipole Moment    :     -0.01188       0.97176       0.48889
                        -----------------------------------------
Magnitude (a.u.)       :      1.08788
Magnitude (Debye)      :      2.76517

Rotational constants in cm-1:     0.062473     0.012241     0.011526
Rotational constants in MHz :  1872.888211   366.973726   345.539276

                             ****ORCA TERMINATED NORMALLY****
TOTAL RUN TIME: 0 days 1 hours 29 minutes 22 seconds 550 msec
