                         Program Version 4.2.0 -  RELEASE  -
|  1> # Test redundant internal optimization
|  2> #
|  3> ! RKS B3LYP  Opt TightSCF SmallPrint
|  4>
|  5> %basis
|  6>         Basis "6-31G"
|  7> end
|  8>
|  9> %geom
| 10> Constraints
| 11> { D 4  0  15  12  180.0   C } # D for Dihedral angle
| 12> { D 0  15  12  16  60.0   C } # D for Dihedral angle
| 13> { D 0  4  3  2   C } # D for Dihedral angle
| 14> { D 4  3  2  1   C } # D for Dihedral angle
| 15> { D 3  2  1  0   C } # D for Dihedral angle
| 16> { D 2  1  0  4   C } # D for Dihedral angle
| 17> { D 1  0  4  3   C } # D for Dihedral angle
| 18> { D 16  20  19  18   C } # D for Dihedral angle
| 19> { D 20  19  18  17   C } # D for Dihedral angle
| 20> { D 19  18  17  16   C } # D for Dihedral angle
| 21> { D 18  17  16  20   C } # D for Dihedral angle
| 22> { D 17  16  20  19   C } # D for Dihedral angle
| 23> { D 15  12  16  20   C } # D for Dihedral angle
| 24> end
| 25> end
| 26>
| 27>
| 28> #%pal
| 29> #nprocs 8
| 30> #end
| 31>
| 32> * xyz 0 1
| 33> C  -21.048   26.222   46.251
| 34> C  -20.361   27.558   45.944
| 35> C  -20.329   28.222   47.341
| 36> C  -20.110   27.022   48.296
| 37> O  -20.473   25.807   47.535
| 38> H  -20.833   25.428   45.533
| 39> H  -19.344   27.382   45.576
| 40> H  -20.898   28.157   45.201
| 41> H  -19.543   28.978   47.434
| 42> H  -21.289   28.710   47.548
| 43> H  -20.733   27.082   49.195
| 44> H  -19.064   26.913   48.597
| 45> C  -23.309   26.834   45.072
| 46> H  -24.383   26.934   45.270
| 47> H  -22.930   27.807   44.733
| 48> O  -22.586   26.394   46.375
| 49> C  -23.119   25.821   43.909
| 50> C  -23.745   26.341   42.611
| 51> C  -22.670   27.340   42.121
| 52> C  -21.343   26.669   42.556
| 53> O  -21.695   25.670   43.588
| 54> H  -23.481   24.841   44.225
| 55> O  -23.914   25.176   41.596
| 56> H  -24.723   26.810   42.763
| 57> H  -22.714   27.516   41.042
| 58> H  -22.797   28.306   42.624
| 59> H  -20.630   27.385   42.979
| 60> H  -20.860   26.129   41.736
| 61> H  -22.946   24.692   41.428
| 62> *
| 63>
| 64>                          ****END OF INPUT****
 Total Charge           Charge          ....    0
 Multiplicity           Mult            ....    1
 Number of Electrons    NEL             ....  102
FINAL SINGLE POINT ENERGY      -652.830688954210
FINAL SINGLE POINT ENERGY      -652.853509042280
FINAL SINGLE POINT ENERGY      -652.857986693509
FINAL SINGLE POINT ENERGY      -652.859184310015
FINAL SINGLE POINT ENERGY      -652.859358032212
FINAL SINGLE POINT ENERGY      -652.859387046236
                    ***********************HURRAY********************

CARTESIAN COORDINATES (ANGSTROEM)
---------------------------------
  C    -20.941675   26.231624   46.224921
  C    -20.222853   27.564740   46.025598
  C    -20.378083   28.226724   47.417764
  C    -20.289432   27.021509   48.377931
  O    -20.551955   25.822539   47.542792
  H    -20.673796   25.440698   45.528793
  H    -19.168372   27.369605   45.797946
  H    -20.636540   28.172566   45.216106
  H    -19.605851   28.976293   47.615861
  H    -21.356995   28.709315   47.493268
  H    -21.027865   27.056785   49.183171
  H    -19.290876   26.892403   48.806658
  C    -23.127889   26.812267   45.087595
  H    -24.173777   26.839305   45.409725
  H    -22.836417   27.834414   44.796715
  O    -22.400561   26.398813   46.269827
  C    -23.002107   25.872329   43.884282
  C    -23.757188   26.345575   42.633086
  C    -22.737858   27.331818   42.002807
  C    -21.369779   26.678852   42.329251
  O    -21.614371   25.712854   43.429918
  H    -23.332767   24.873060   44.185798
  O    -24.054370   25.234682   41.745170
  H    -24.722564   26.805508   42.849664
  H    -22.914834   27.437857   40.929822
  H    -22.828185   28.319798   42.466934
  H    -20.618760   27.406250   42.652460
  H    -20.963359   26.110014   41.487536
  H    -23.270922   24.647803   41.687602

 Multiplicity           Mult            ....    1
 Number of Electrons    NEL             ....  102
 Basis Dimension        Dim             ....  149

ORBITAL ENERGIES
----------------

  NO   OCC          E(Eh)            E(eV)
   0   2.0000     -19.155121      -521.2373
   1   2.0000     -19.145350      -520.9715
   2   2.0000     -19.133989      -520.6623
   3   2.0000     -19.131756      -520.6015
   4   2.0000     -10.266228      -279.3583
   5   2.0000     -10.250955      -278.9427
   6   2.0000     -10.241347      -278.6812
   7   2.0000     -10.240250      -278.6514
   8   2.0000     -10.235414      -278.5198
   9   2.0000     -10.218757      -278.0665
  10   2.0000     -10.198489      -277.5150
  11   2.0000     -10.182553      -277.0813
  12   2.0000     -10.182335      -277.0754
  13   2.0000      -1.049529       -28.5591
  14   2.0000      -1.040825       -28.3223
  15   2.0000      -1.014890       -27.6166
  16   2.0000      -0.985572       -26.8188
  17   2.0000      -0.792560       -21.5666
  18   2.0000      -0.780844       -21.2479
  19   2.0000      -0.771853       -21.0032
  20   2.0000      -0.729631       -19.8543
  21   2.0000      -0.679004       -18.4766
  22   2.0000      -0.612964       -16.6796
  23   2.0000      -0.605352       -16.4725
  24   2.0000      -0.592966       -16.1354
  25   2.0000      -0.570668       -15.5287
  26   2.0000      -0.533330       -14.5127
  27   2.0000      -0.510127       -13.8812
  28   2.0000      -0.498214       -13.5571
  29   2.0000      -0.487266       -13.2592
  30   2.0000      -0.478761       -13.0277
  31   2.0000      -0.459818       -12.5123
  32   2.0000      -0.450371       -12.2552
  33   2.0000      -0.444166       -12.0864
  34   2.0000      -0.429597       -11.6899
  35   2.0000      -0.406342       -11.0571
  36   2.0000      -0.403046       -10.9674
  37   2.0000      -0.400588       -10.9005
  38   2.0000      -0.382101       -10.3975
  39   2.0000      -0.372490       -10.1360
  40   2.0000      -0.365500        -9.9458
  41   2.0000      -0.351890        -9.5754
  42   2.0000      -0.350741        -9.5442
  43   2.0000      -0.337463        -9.1828
  44   2.0000      -0.320802        -8.7295
  45   2.0000      -0.305319        -8.3082
  46   2.0000      -0.297256        -8.0887
  47   2.0000      -0.280479        -7.6322
  48   2.0000      -0.266831        -7.2608
  49   2.0000      -0.250037        -6.8039
  50   2.0000      -0.237766        -6.4699
  51   0.0000       0.051055         1.3893
  52   0.0000       0.074896         2.0380
  53   0.0000       0.088491         2.4080
  54   0.0000       0.092568         2.5189
  55   0.0000       0.100777         2.7423

MULLIKEN ATOMIC CHARGES
-----------------------
   0 C :    0.300388
   1 C :   -0.281665
   2 C :   -0.298651
   3 C :    0.001033
   4 O :   -0.503124
   5 H :    0.181513
   6 H :    0.147582
   7 H :    0.133199
   8 H :    0.138417
   9 H :    0.154613
  10 H :    0.151575
  11 H :    0.139039
  12 C :   -0.007426
  13 H :    0.158139
  14 H :    0.113948
  15 O :   -0.516643
  16 C :    0.056356
  17 C :    0.080843
  18 C :   -0.293171
  19 C :   -0.035322
  20 O :   -0.525933
  21 H :    0.171451
  22 O :   -0.598883
  23 H :    0.155202
  24 H :    0.167070
  25 H :    0.142863
  26 H :    0.149297
  27 H :    0.152475
  28 H :    0.365814
Sum of atomic charges:    0.0000000

LOEWDIN ATOMIC CHARGES
----------------------
   0 C :    0.178915
   1 C :   -0.230123
   2 C :   -0.218228
   3 C :   -0.025774
   4 O :   -0.303461
   5 H :    0.116233
   6 H :    0.116128
   7 H :    0.107476
   8 H :    0.112182
   9 H :    0.114803
  10 H :    0.107825
  11 H :    0.100907
  12 C :   -0.042875
  13 H :    0.119875
  14 H :    0.083631
  15 O :   -0.332425
  16 C :    0.003636
  17 C :    0.037992
  18 C :   -0.239959
  19 C :   -0.039735
  20 O :   -0.329788
  21 H :    0.120901
  22 O :   -0.411271
  23 H :    0.117507
  24 H :    0.128953
  25 H :    0.112766
  26 H :    0.104145
  27 H :    0.105604
  28 H :    0.284159

  Mayer bond orders larger than 0.100000
B(  0-C ,  1-C ) :   0.9323 B(  0-C ,  4-O ) :   0.9220 B(  0-C ,  5-H ) :   0.9069
B(  0-C , 15-O ) :   0.8127 B(  1-C ,  2-C ) :   0.9489 B(  1-C ,  6-H ) :   0.9358
B(  1-C ,  7-H ) :   0.9332 B(  2-C ,  3-C ) :   0.9558 B(  2-C ,  8-H ) :   0.9455
B(  2-C ,  9-H ) :   0.9458 B(  3-C ,  4-O ) :   0.8405 B(  3-C , 10-H ) :   0.9348
B(  3-C , 11-H ) :   0.9401 B( 12-C , 13-H ) :   0.9281 B( 12-C , 14-H ) :   0.9134
B( 12-C , 15-O ) :   0.8785 B( 12-C , 16-C ) :   0.8858 B( 16-C , 17-C ) :   0.8970
B( 16-C , 20-O ) :   0.8407 B( 16-C , 21-H ) :   0.9221 B( 17-C , 18-C ) :   0.9105
B( 17-C , 22-O ) :   0.8955 B( 17-C , 23-H ) :   0.9340 B( 18-C , 19-C ) :   0.9420
B( 18-C , 24-H ) :   0.9365 B( 18-C , 25-H ) :   0.9331 B( 19-C , 20-O ) :   0.8395
B( 19-C , 26-H ) :   0.9310 B( 19-C , 27-H ) :   0.9373 B( 22-O , 28-H ) :   0.7943

FINAL SINGLE POINT ENERGY      -652.859390378252

DIPOLE MOMENT
-------------
                                X             Y             Z
Electronic contribution:     -2.19363      -6.29517       0.30959
Nuclear contribution   :      2.62241       7.76105      -1.07772
                        -----------------------------------------
Total Dipole Moment    :      0.42878       1.46589      -0.76813
                        -----------------------------------------
Magnitude (a.u.)       :      1.70959
Magnitude (Debye)      :      4.34543

Rotational constants in cm-1:     0.066124     0.013194     0.012583
Rotational constants in MHz :  1982.334419   395.536458   377.218956

                             ****ORCA TERMINATED NORMALLY****
TOTAL RUN TIME: 0 days 0 hours 21 minutes 36 seconds 538 msec
