                         Program Version 4.2.0 -  RELEASE  -
|  1> # Test redundant internal optimization
|  2> #
|  3> ! RKS B3LYP  Opt TightSCF SmallPrint
|  4>
|  5> %basis
|  6>         Basis "6-31G"
|  7> end
|  8>
|  9> %geom
| 10> Constraints
| 11> { D 4  0  15  12  285.0   C } # D for Dihedral angle
| 12> { D 0  15  12  16  105.0   C } # D for Dihedral angle
| 13> { D 0  4  3  2   C } # D for Dihedral angle
| 14> { D 4  3  2  1   C } # D for Dihedral angle
| 15> { D 3  2  1  0   C } # D for Dihedral angle
| 16> { D 2  1  0  4   C } # D for Dihedral angle
| 17> { D 1  0  4  3   C } # D for Dihedral angle
| 18> { D 16  20  19  18   C } # D for Dihedral angle
| 19> { D 20  19  18  17   C } # D for Dihedral angle
| 20> { D 19  18  17  16   C } # D for Dihedral angle
| 21> { D 18  17  16  20   C } # D for Dihedral angle
| 22> { D 17  16  20  19   C } # D for Dihedral angle
| 23> { D 15  12  16  20   C } # D for Dihedral angle
| 24> end
| 25> end
| 26>
| 27>
| 28> #%pal
| 29> #nprocs 8
| 30> #end
| 31>
| 32> * xyz 0 1
| 33> C  -21.048   26.222   46.251
| 34> C  -20.361   27.558   45.944
| 35> C  -20.329   28.222   47.341
| 36> C  -20.110   27.022   48.296
| 37> O  -20.473   25.807   47.535
| 38> H  -20.833   25.428   45.533
| 39> H  -19.344   27.382   45.576
| 40> H  -20.898   28.157   45.201
| 41> H  -19.543   28.978   47.434
| 42> H  -21.289   28.710   47.548
| 43> H  -20.733   27.082   49.195
| 44> H  -19.064   26.913   48.597
| 45> C  -23.396   25.070   46.435
| 46> H  -24.260   25.144   45.764
| 47> H  -22.777   24.226   46.106
| 48> O  -22.586   26.394   46.375
| 49> C  -23.913   24.747   47.864
| 50> C  -24.925   25.796   48.340
| 51> C  -26.211   25.347   47.606
| 52> C  -26.090   23.802   47.598
| 53> O  -24.669   23.490   47.864
| 54> H  -23.060   24.607   48.531
| 55> H  -25.056   25.726   49.426
| 56> O  -24.507   27.250   47.989
| 57> H  -27.124   25.691   48.100
| 58> H  -26.216   25.739   46.582
| 59> H  -26.380   23.363   46.638
| 60> H  -26.677   23.333   48.393
| 61> H  -24.371   27.342   46.906
| 62> *
| 63>
| 64>                          ****END OF INPUT****
 Total Charge           Charge          ....    0
 Multiplicity           Mult            ....    1
 Number of Electrons    NEL             ....  102
FINAL SINGLE POINT ENERGY      -652.836854219191
FINAL SINGLE POINT ENERGY      -652.862212179907
FINAL SINGLE POINT ENERGY      -652.868475892479
FINAL SINGLE POINT ENERGY      -652.870610373991
FINAL SINGLE POINT ENERGY      -652.871743989824
FINAL SINGLE POINT ENERGY      -652.872288922814
FINAL SINGLE POINT ENERGY      -652.872440345013
FINAL SINGLE POINT ENERGY      -652.872471698284
                    ***********************HURRAY********************

CARTESIAN COORDINATES (ANGSTROEM)
---------------------------------
  C    -21.080179   26.127546   46.241252
  C    -20.511725   27.519860   45.965831
  C    -20.580937   28.172599   47.366111
  C    -20.281861   26.994507   48.318754
  O    -20.516895   25.759404   47.519035
  H    -20.805957   25.337435   45.537130
  H    -19.474244   27.421647   45.627810
  H    -21.083886   28.057204   45.206976
  H    -19.864996   28.991606   47.481846
  H    -21.584869   28.567360   47.549086
  H    -20.936785   26.974521   49.192575
  H    -19.238255   26.958471   48.642741
  C    -23.303492   25.005093   46.352999
  H    -24.115967   25.118150   45.628948
  H    -22.683873   24.149758   46.062789
  O    -22.520678   26.248965   46.298848
  C    -23.832835   24.799122   47.777332
  C    -24.806452   25.884904   48.267238
  C    -26.136698   25.444448   47.590243
  C    -26.049609   23.904658   47.615459
  O    -24.611750   23.563814   47.836925
  H    -22.979217   24.671570   48.448511
  H    -24.908338   25.801129   49.354748
  O    -24.425631   27.248243   47.985619
  H    -27.010152   25.830213   48.122553
  H    -26.167235   25.840026   46.569012
  H    -26.382481   23.435973   46.684040
  H    -26.605100   23.464501   48.448855
  H    -23.742903   27.255272   47.274733

 Multiplicity           Mult            ....    1
 Number of Electrons    NEL             ....  102
 Basis Dimension        Dim             ....  149

ORBITAL ENERGIES
----------------

  NO   OCC          E(Eh)            E(eV)
   0   2.0000     -19.165207      -521.5118
   1   2.0000     -19.149444      -521.0829
   2   2.0000     -19.137662      -520.7622
   3   2.0000     -19.116076      -520.1749
   4   2.0000     -10.291785      -280.0537
   5   2.0000     -10.237349      -278.5724
   6   2.0000     -10.230728      -278.3923
   7   2.0000     -10.229722      -278.3649
   8   2.0000     -10.228642      -278.3355
   9   2.0000     -10.224985      -278.2360
  10   2.0000     -10.193737      -277.3857
  11   2.0000     -10.191283      -277.3189
  12   2.0000     -10.178593      -276.9736
  13   2.0000      -1.067033       -29.0354
  14   2.0000      -1.022865       -27.8336
  15   2.0000      -1.006360       -27.3845
  16   2.0000      -0.993301       -27.0291
  17   2.0000      -0.796577       -21.6760
  18   2.0000      -0.771128       -20.9835
  19   2.0000      -0.766054       -20.8454
  20   2.0000      -0.734617       -19.9899
  21   2.0000      -0.678469       -18.4621
  22   2.0000      -0.605464       -16.4755
  23   2.0000      -0.599678       -16.3181
  24   2.0000      -0.594346       -16.1730
  25   2.0000      -0.582994       -15.8641
  26   2.0000      -0.525960       -14.3121
  27   2.0000      -0.521941       -14.2027
  28   2.0000      -0.497374       -13.5342
  29   2.0000      -0.486448       -13.2369
  30   2.0000      -0.472523       -12.8580
  31   2.0000      -0.458415       -12.4741
  32   2.0000      -0.440343       -11.9823
  33   2.0000      -0.437767       -11.9122
  34   2.0000      -0.423456       -11.5228
  35   2.0000      -0.414235       -11.2719
  36   2.0000      -0.407110       -11.0780
  37   2.0000      -0.388733       -10.5780
  38   2.0000      -0.381159       -10.3719
  39   2.0000      -0.365372        -9.9423
  40   2.0000      -0.363416        -9.8891
  41   2.0000      -0.355211        -9.6658
  42   2.0000      -0.349703        -9.5159
  43   2.0000      -0.343827        -9.3560
  44   2.0000      -0.330133        -8.9834
  45   2.0000      -0.313868        -8.5408
  46   2.0000      -0.293629        -7.9901
  47   2.0000      -0.282246        -7.6803
  48   2.0000      -0.263527        -7.1709
  49   2.0000      -0.248459        -6.7609
  50   2.0000      -0.238850        -6.4994
  51   0.0000       0.056655         1.5417
  52   0.0000       0.083886         2.2826
  53   0.0000       0.092970         2.5298
  54   0.0000       0.097535         2.6541
  55   0.0000       0.104835         2.8527

MULLIKEN ATOMIC CHARGES
-----------------------
   0 C :    0.291146
   1 C :   -0.263695
   2 C :   -0.305883
   3 C :   -0.011309
   4 O :   -0.507141
   5 H :    0.152641
   6 H :    0.151499
   7 H :    0.158781
   8 H :    0.146905
   9 H :    0.167789
  10 H :    0.160017
  11 H :    0.147652
  12 C :   -0.035994
  13 H :    0.154663
  14 H :    0.160998
  15 O :   -0.552529
  16 C :    0.054619
  17 C :    0.110619
  18 C :   -0.299752
  19 C :   -0.020583
  20 O :   -0.519831
  21 H :    0.175535
  22 H :    0.151206
  23 O :   -0.645023
  24 H :    0.149512
  25 H :    0.142462
  26 H :    0.140289
  27 H :    0.149807
  28 H :    0.395600
Sum of atomic charges:   -0.0000000

LOEWDIN ATOMIC CHARGES
----------------------
   0 C :    0.175088
   1 C :   -0.215518
   2 C :   -0.216727
   3 C :   -0.029086
   4 O :   -0.326890
   5 H :    0.103099
   6 H :    0.117760
   7 H :    0.124826
   8 H :    0.116974
   9 H :    0.120480
  10 H :    0.111269
  11 H :    0.105836
  12 C :   -0.044948
  13 H :    0.109499
  14 H :    0.115854
  15 O :   -0.335072
  16 C :    0.008550
  17 C :    0.040106
  18 C :   -0.237352
  19 C :   -0.032740
  20 O :   -0.324439
  21 H :    0.122241
  22 H :    0.107009
  23 O :   -0.436545
  24 H :    0.120664
  25 H :    0.109825
  26 H :    0.101044
  27 H :    0.105982
  28 H :    0.283211

  Mayer bond orders larger than 0.100000
B(  0-C ,  1-C ) :   0.9507 B(  0-C ,  4-O ) :   0.9222 B(  0-C ,  5-H ) :   0.9201
B(  0-C , 15-O ) :   0.8227 B(  1-C ,  2-C ) :   0.9546 B(  1-C ,  6-H ) :   0.9388
B(  1-C ,  7-H ) :   0.9356 B(  2-C ,  3-C ) :   0.9532 B(  2-C ,  8-H ) :   0.9446
B(  2-C ,  9-H ) :   0.9401 B(  3-C ,  4-O ) :   0.8281 B(  3-C , 10-H ) :   0.9330
B(  3-C , 11-H ) :   0.9401 B( 12-C , 13-H ) :   0.9356 B( 12-C , 14-H ) :   0.9258
B( 12-C , 15-O ) :   0.7891 B( 12-C , 16-C ) :   0.8927 B( 16-C , 17-C ) :   0.9133
B( 16-C , 20-O ) :   0.8506 B( 16-C , 21-H ) :   0.9216 B( 17-C , 18-C ) :   0.9021
B( 17-C , 22-H ) :   0.9313 B( 17-C , 23-O ) :   0.9313 B( 18-C , 19-C ) :   0.9380
B( 18-C , 24-H ) :   0.9451 B( 18-C , 25-H ) :   0.9439 B( 19-C , 20-O ) :   0.8346
B( 19-C , 26-H ) :   0.9344 B( 19-C , 27-H ) :   0.9384 B( 23-O , 28-H ) :   0.7185

FINAL SINGLE POINT ENERGY      -652.872473491111

DIPOLE MOMENT
-------------
                                X             Y             Z
Electronic contribution:      0.35578      -2.86023       0.46703
Nuclear contribution   :      0.05114       3.24277      -1.19045
                        -----------------------------------------
Total Dipole Moment    :      0.40692       0.38254      -0.72343
                        -----------------------------------------
Magnitude (a.u.)       :      0.91393
Magnitude (Debye)      :      2.32302

Rotational constants in cm-1:     0.056651     0.014883     0.013937
Rotational constants in MHz :  1698.348306   446.182709   417.832825

                             ****ORCA TERMINATED NORMALLY****
TOTAL RUN TIME: 0 days 0 hours 27 minutes 36 seconds 143 msec
