                         Program Version 4.2.0 -  RELEASE  -
|  1> # Test redundant internal optimization
|  2> #
|  3> ! RKS B3LYP  Opt TightSCF SmallPrint
|  4>
|  5> %basis
|  6>         Basis "6-31G"
|  7> end
|  8>
|  9> %geom
| 10> Constraints
| 11> { D 4  0  15  12  30.0   C } # D for Dihedral angle
| 12> { D 0  15  12  16  285.0   C } # D for Dihedral angle
| 13> { D 0  4  3  2   C } # D for Dihedral angle
| 14> { D 4  3  2  1   C } # D for Dihedral angle
| 15> { D 3  2  1  0   C } # D for Dihedral angle
| 16> { D 2  1  0  4   C } # D for Dihedral angle
| 17> { D 1  0  4  3   C } # D for Dihedral angle
| 18> { D 16  20  19  18   C } # D for Dihedral angle
| 19> { D 20  19  18  17   C } # D for Dihedral angle
| 20> { D 19  18  17  16   C } # D for Dihedral angle
| 21> { D 18  17  16  20   C } # D for Dihedral angle
| 22> { D 17  16  20  19   C } # D for Dihedral angle
| 23> { D 15  12  16  20   C } # D for Dihedral angle
| 24> end
| 25> end
| 26>
| 27>
| 28> #%pal
| 29> #nprocs 8
| 30> #end
| 31>
| 32> * xyz 0 1
| 33> C  -21.048   26.222   46.251
| 34> C  -20.361   27.558   45.944
| 35> C  -20.329   28.222   47.341
| 36> C  -20.110   27.022   48.296
| 37> O  -20.473   25.807   47.535
| 38> H  -20.833   25.428   45.533
| 39> H  -19.344   27.382   45.576
| 40> H  -20.898   28.157   45.201
| 41> H  -19.543   28.978   47.434
| 42> H  -21.289   28.710   47.548
| 43> H  -20.733   27.082   49.195
| 44> H  -19.064   26.913   48.597
| 45> C  -23.091   26.824   47.779
| 46> H  -22.462   27.640   48.157
| 47> H  -24.125   27.188   47.721
| 48> O  -22.586   26.394   46.375
| 49> C  -23.057   25.663   48.812
| 50> C  -23.669   26.090   50.150
| 51> C  -25.183   25.985   49.851
| 52> C  -25.269   24.767   48.897
| 53> O  -23.906   24.554   48.364
| 54> H  -22.038   25.277   48.883
| 55> H  -23.380   25.385   50.939
| 56> O  -23.240   27.517   50.589
| 57> H  -25.786   25.850   50.755
| 58> H  -25.532   26.894   49.348
| 59> H  -25.958   24.936   48.062
| 60> H  -25.559   23.849   49.416
| 61> H  -23.519   28.241   49.816
| 62> *
| 63>
| 64>                          ****END OF INPUT****
 Total Charge           Charge          ....    0
 Multiplicity           Mult            ....    1
 Number of Electrons    NEL             ....  102
FINAL SINGLE POINT ENERGY      -652.816564573769
FINAL SINGLE POINT ENERGY      -652.840488958759
FINAL SINGLE POINT ENERGY      -652.848624802447
FINAL SINGLE POINT ENERGY      -652.851204889797
FINAL SINGLE POINT ENERGY      -652.851695386118
FINAL SINGLE POINT ENERGY      -652.851820809930
FINAL SINGLE POINT ENERGY      -652.851825034294
FINAL SINGLE POINT ENERGY      -652.851826141408
                    ***********************HURRAY********************

CARTESIAN COORDINATES (ANGSTROEM)
---------------------------------
  C    -21.099748   26.287789   46.363312
  C    -20.371082   27.558046   45.907118
  C    -20.075398   28.262016   47.260493
  C    -19.802641   27.073594   48.213507
  O    -20.375973   25.873102   47.544875
  H    -21.022977   25.465038   45.650702
  H    -19.439770   27.274345   45.404171
  H    -20.978058   28.157611   45.225365
  H    -19.217770   28.939674   47.201474
  H    -20.939158   28.850284   47.585023
  H    -20.273060   27.187824   49.194904
  H    -18.735126   26.877381   48.346433
  C    -23.115665   26.845649   47.799383
  H    -22.605286   27.717047   48.229703
  H    -24.134089   27.142618   47.528272
  O    -22.533884   26.450576   46.526870
  C    -23.136919   25.718558   48.842180
  C    -23.811773   26.124622   50.162866
  C    -25.320800   25.928839   49.826176
  C    -25.300895   24.700285   48.888293
  O    -23.909539   24.562778   48.393017
  H    -22.119571   25.354130   48.984192
  H    -23.505301   25.435084   50.952749
  O    -23.453688   27.439120   50.664122
  H    -25.930413   25.774078   50.720100
  H    -25.699518   26.820567   49.308705
  H    -25.977356   24.805976   48.034165
  H    -25.546238   23.774499   49.417794
  H    -23.953305   28.133872   50.189032

 Multiplicity           Mult            ....    1
 Number of Electrons    NEL             ....  102
 Basis Dimension        Dim             ....  149

ORBITAL ENERGIES
----------------

  NO   OCC          E(Eh)            E(eV)
   0   2.0000     -19.149971      -521.0972
   1   2.0000     -19.146742      -521.0094
   2   2.0000     -19.135547      -520.7047
   3   2.0000     -19.129770      -520.5475
   4   2.0000     -10.275271      -279.6043
   5   2.0000     -10.241963      -278.6980
   6   2.0000     -10.230061      -278.3741
   7   2.0000     -10.228490      -278.3314
   8   2.0000     -10.225740      -278.2565
   9   2.0000     -10.218852      -278.0691
  10   2.0000     -10.193665      -277.3837
  11   2.0000     -10.192136      -277.3421
  12   2.0000     -10.185422      -277.1594
  13   2.0000      -1.050538       -28.5866
  14   2.0000      -1.030904       -28.0523
  15   2.0000      -1.010574       -27.4991
  16   2.0000      -0.990079       -26.9414
  17   2.0000      -0.788287       -21.4504
  18   2.0000      -0.779594       -21.2138
  19   2.0000      -0.765274       -20.8242
  20   2.0000      -0.731363       -19.9014
  21   2.0000      -0.678644       -18.4669
  22   2.0000      -0.608612       -16.5612
  23   2.0000      -0.602710       -16.4006
  24   2.0000      -0.599560       -16.3149
  25   2.0000      -0.562928       -15.3180
  26   2.0000      -0.518532       -14.1100
  27   2.0000      -0.514906       -14.0113
  28   2.0000      -0.501062       -13.6346
  29   2.0000      -0.491643       -13.3783
  30   2.0000      -0.463436       -12.6107
  31   2.0000      -0.456238       -12.4149
  32   2.0000      -0.438080       -11.9207
  33   2.0000      -0.429416       -11.6850
  34   2.0000      -0.425500       -11.5784
  35   2.0000      -0.416110       -11.3229
  36   2.0000      -0.409707       -11.1487
  37   2.0000      -0.398717       -10.8496
  38   2.0000      -0.377117       -10.2619
  39   2.0000      -0.375369       -10.2143
  40   2.0000      -0.359490        -9.7822
  41   2.0000      -0.355935        -9.6855
  42   2.0000      -0.344161        -9.3651
  43   2.0000      -0.328537        -8.9399
  44   2.0000      -0.319869        -8.7041
  45   2.0000      -0.313914        -8.5420
  46   2.0000      -0.305743        -8.3197
  47   2.0000      -0.269996        -7.3470
  48   2.0000      -0.257715        -7.0128
  49   2.0000      -0.254855        -6.9350
  50   2.0000      -0.227471        -6.1898
  51   0.0000       0.049999         1.3605
  52   0.0000       0.075921         2.0659
  53   0.0000       0.085349         2.3225
  54   0.0000       0.092499         2.5170
  55   0.0000       0.099789         2.7154

MULLIKEN ATOMIC CHARGES
-----------------------
   0 C :    0.298249
   1 C :   -0.260127
   2 C :   -0.317189
   3 C :   -0.024195
   4 O :   -0.508487
   5 H :    0.168350
   6 H :    0.148110
   7 H :    0.155520
   8 H :    0.147558
   9 H :    0.152508
  10 H :    0.156062
  11 H :    0.152227
  12 C :   -0.021528
  13 H :    0.118320
  14 H :    0.141889
  15 O :   -0.519118
  16 C :    0.079373
  17 C :    0.080980
  18 C :   -0.327631
  19 C :   -0.007144
  20 O :   -0.505808
  21 H :    0.195030
  22 H :    0.166828
  23 O :   -0.602761
  24 H :    0.157724
  25 H :    0.129255
  26 H :    0.146111
  27 H :    0.145792
  28 H :    0.354103
Sum of atomic charges:   -0.0000000

LOEWDIN ATOMIC CHARGES
----------------------
   0 C :    0.180167
   1 C :   -0.224573
   2 C :   -0.222777
   3 C :   -0.037278
   4 O :   -0.317548
   5 H :    0.113723
   6 H :    0.116444
   7 H :    0.122611
   8 H :    0.116985
   9 H :    0.109760
  10 H :    0.107010
  11 H :    0.107836
  12 C :   -0.047878
  13 H :    0.090001
  14 H :    0.107533
  15 O :   -0.319457
  16 C :    0.003995
  17 C :    0.032772
  18 C :   -0.242152
  19 C :   -0.030395
  20 O :   -0.313165
  21 H :    0.131226
  22 H :    0.118801
  23 O :   -0.411731
  24 H :    0.122065
  25 H :    0.101763
  26 H :    0.103502
  27 H :    0.104498
  28 H :    0.276262

  Mayer bond orders larger than 0.100000
B(  0-C ,  1-C ) :   0.9182 B(  0-C ,  4-O ) :   0.8955 B(  0-C ,  5-H ) :   0.9341
B(  0-C , 15-O ) :   0.8758 B(  1-C ,  2-C ) :   0.9535 B(  1-C ,  6-H ) :   0.9350
B(  1-C ,  7-H ) :   0.9377 B(  2-C ,  3-C ) :   0.9500 B(  2-C ,  8-H ) :   0.9446
B(  2-C ,  9-H ) :   0.9409 B(  3-C ,  4-O ) :   0.8327 B(  3-C , 10-H ) :   0.9275
B(  3-C , 11-H ) :   0.9394 B( 12-C , 13-H ) :   0.8948 B( 12-C , 14-H ) :   0.9427
B( 12-C , 15-O ) :   0.8629 B( 12-C , 16-C ) :   0.8835 B( 16-C , 17-C ) :   0.8691
B( 16-C , 20-O ) :   0.8595 B( 16-C , 21-H ) :   0.9096 B( 17-C , 18-C ) :   0.9242
B( 17-C , 22-H ) :   0.9329 B( 17-C , 23-O ) :   0.8897 B( 18-C , 19-C ) :   0.9392
B( 18-C , 24-H ) :   0.9415 B( 18-C , 25-H ) :   0.9410 B( 19-C , 20-O ) :   0.8551
B( 19-C , 26-H ) :   0.9307 B( 19-C , 27-H ) :   0.9381 B( 23-O , 28-H ) :   0.7996

FINAL SINGLE POINT ENERGY      -652.851826483351

DIPOLE MOMENT
-------------
                                X             Y             Z
Electronic contribution:     -0.14120      -4.01566      -0.60060
Nuclear contribution   :     -0.16750       5.30191       0.76231
                        -----------------------------------------
Total Dipole Moment    :     -0.30870       1.28625       0.16171
                        -----------------------------------------
Magnitude (a.u.)       :      1.33262
Magnitude (Debye)      :      3.38726

Rotational constants in cm-1:     0.050109     0.015989     0.014093
Rotational constants in MHz :  1502.222393   479.337846   422.483013

                             ****ORCA TERMINATED NORMALLY****
TOTAL RUN TIME: 0 days 0 hours 26 minutes 35 seconds 307 msec
