                         Program Version 4.2.0 -  RELEASE  -
|  1> # Test redundant internal optimization
|  2> #
|  3> ! RKS B3LYP  Opt TightSCF SmallPrint
|  4>
|  5> %basis
|  6>         Basis "6-31G"
|  7> end
|  8>
|  9> %geom
| 10> Constraints
| 11> { D 4  0  15  12  180.0   C } # D for Dihedral angle
| 12> { D 0  15  12  16  300.0   C } # D for Dihedral angle
| 13> { D 0  4  3  2   C } # D for Dihedral angle
| 14> { D 4  3  2  1   C } # D for Dihedral angle
| 15> { D 3  2  1  0   C } # D for Dihedral angle
| 16> { D 2  1  0  4   C } # D for Dihedral angle
| 17> { D 1  0  4  3   C } # D for Dihedral angle
| 18> { D 16  20  19  18   C } # D for Dihedral angle
| 19> { D 20  19  18  17   C } # D for Dihedral angle
| 20> { D 19  18  17  16   C } # D for Dihedral angle
| 21> { D 18  17  16  20   C } # D for Dihedral angle
| 22> { D 17  16  20  19   C } # D for Dihedral angle
| 23> { D 15  12  16  20   C } # D for Dihedral angle
| 24> end
| 25> end
| 26>
| 27>
| 28> #%pal
| 29> #nprocs 8
| 30> #end
| 31>
| 32> * xyz 0 1
| 33> C  -21.048   26.222   46.251
| 34> C  -20.361   27.558   45.944
| 35> C  -20.329   28.222   47.341
| 36> C  -20.110   27.022   48.296
| 37> O  -20.473   25.807   47.535
| 38> H  -20.833   25.428   45.533
| 39> H  -19.344   27.382   45.576
| 40> H  -20.898   28.157   45.201
| 41> H  -19.543   28.978   47.434
| 42> H  -21.289   28.710   47.548
| 43> H  -20.733   27.082   49.195
| 44> H  -19.064   26.913   48.597
| 45> C  -23.309   26.834   45.072
| 46> H  -23.145   26.077   44.295
| 47> H  -24.389   26.922   45.243
| 48> O  -22.586   26.394   46.375
| 49> C  -22.802   28.201   44.537
| 50> C  -23.614   28.658   43.320
| 51> C  -24.892   29.219   43.988
| 52> C  -24.357   29.845   45.299
| 53> O  -23.022   29.255   45.533
| 54> H  -21.725   28.142   44.365
| 55> H  -23.078   29.450   42.785
| 56> O  -23.913   27.508   42.319
| 57> H  -25.415   29.947   43.360
| 58> H  -25.591   28.403   44.207
| 59> H  -25.000   29.629   46.160
| 60> H  -24.222   30.928   45.220
| 61> H  -24.450   26.703   42.832
| 62> *
| 63>
| 64>                          ****END OF INPUT****
 Total Charge           Charge          ....    0
 Multiplicity           Mult            ....    1
 Number of Electrons    NEL             ....  102
FINAL SINGLE POINT ENERGY      -652.794904020818
FINAL SINGLE POINT ENERGY      -652.824275210890
FINAL SINGLE POINT ENERGY      -652.843253081048
FINAL SINGLE POINT ENERGY      -652.846896978972
FINAL SINGLE POINT ENERGY      -652.847559774586
FINAL SINGLE POINT ENERGY      -652.847710316972
FINAL SINGLE POINT ENERGY      -652.847723099606
FINAL SINGLE POINT ENERGY      -652.847726941527
                    ***********************HURRAY********************

CARTESIAN COORDINATES (ANGSTROEM)
---------------------------------
  C    -20.917213   26.245966   46.189983
  C    -20.079183   27.514233   46.023603
  C    -20.236477   28.193452   47.411713
  C    -20.290781   26.984919   48.367347
  O    -20.617980   25.812175   47.522092
  H    -20.665888   25.430259   45.503054
  H    -19.037794   27.207023   45.861569
  H    -20.367952   28.168394   45.205165
  H    -19.409590   28.872557   47.639383
  H    -21.173375   28.756840   47.428236
  H    -21.058778   27.079804   49.139458
  H    -19.326490   26.770503   48.838746
  C    -23.144260   26.899687   45.058130
  H    -23.083973   26.142930   44.256478
  H    -24.164834   26.897008   45.453805
  O    -22.365752   26.452898   46.198286
  C    -22.836882   28.256698   44.417659
  C    -23.813238   28.596455   43.274948
  C    -25.044484   29.157016   44.057769
  C    -24.380622   29.890160   45.244793
  O    -22.994821   29.366604   45.352376
  H    -21.810283   28.292524   44.055678
  H    -23.374129   29.381833   42.655427
  O    -24.103119   27.525260   42.348061
  H    -25.657608   29.817267   43.438746
  H    -25.676801   28.326547   44.397637
  H    -24.897380   29.721021   46.194474
  H    -24.300330   30.968014   45.073223
  H    -24.704986   26.867952   42.753160

 Multiplicity           Mult            ....    1
 Number of Electrons    NEL             ....  102
 Basis Dimension        Dim             ....  149

ORBITAL ENERGIES
----------------

  NO   OCC          E(Eh)            E(eV)
   0   2.0000     -19.156103      -521.2641
   1   2.0000     -19.146594      -521.0053
   2   2.0000     -19.132198      -520.6136
   3   2.0000     -19.132012      -520.6085
   4   2.0000     -10.275219      -279.6029
   5   2.0000     -10.252222      -278.9771
   6   2.0000     -10.237848      -278.5860
   7   2.0000     -10.237179      -278.5678
   8   2.0000     -10.233082      -278.4563
   9   2.0000     -10.216036      -277.9925
  10   2.0000     -10.201691      -277.6021
  11   2.0000     -10.179197      -276.9900
  12   2.0000     -10.174526      -276.8629
  13   2.0000      -1.046452       -28.4754
  14   2.0000      -1.039679       -28.2911
  15   2.0000      -1.023098       -27.8399
  16   2.0000      -0.983229       -26.7550
  17   2.0000      -0.789039       -21.4708
  18   2.0000      -0.776428       -21.1277
  19   2.0000      -0.771458       -20.9924
  20   2.0000      -0.731923       -19.9166
  21   2.0000      -0.682737       -18.5782
  22   2.0000      -0.618337       -16.8258
  23   2.0000      -0.601069       -16.3559
  24   2.0000      -0.591088       -16.0843
  25   2.0000      -0.571262       -15.5448
  26   2.0000      -0.529415       -14.4061
  27   2.0000      -0.514158       -13.9910
  28   2.0000      -0.493026       -13.4159
  29   2.0000      -0.490910       -13.3583
  30   2.0000      -0.465802       -12.6751
  31   2.0000      -0.452660       -12.3175
  32   2.0000      -0.446985       -12.1631
  33   2.0000      -0.438673       -11.9369
  34   2.0000      -0.433159       -11.7869
  35   2.0000      -0.420603       -11.4452
  36   2.0000      -0.409984       -11.1562
  37   2.0000      -0.403202       -10.9717
  38   2.0000      -0.382131       -10.3983
  39   2.0000      -0.370959       -10.0943
  40   2.0000      -0.360956        -9.8221
  41   2.0000      -0.346465        -9.4278
  42   2.0000      -0.342495        -9.3198
  43   2.0000      -0.335829        -9.1384
  44   2.0000      -0.322252        -8.7689
  45   2.0000      -0.303991        -8.2720
  46   2.0000      -0.288234        -7.8432
  47   2.0000      -0.277732        -7.5575
  48   2.0000      -0.262952        -7.1553
  49   2.0000      -0.250401        -6.8137
  50   2.0000      -0.236778        -6.4431
  51   0.0000       0.048270         1.3135
  52   0.0000       0.072059         1.9608
  53   0.0000       0.079473         2.1626
  54   0.0000       0.093664         2.5487
  55   0.0000       0.103732         2.8227

MULLIKEN ATOMIC CHARGES
-----------------------
   0 C :    0.301922
   1 C :   -0.277050
   2 C :   -0.306171
   3 C :    0.000435
   4 O :   -0.499003
   5 H :    0.136823
   6 H :    0.141776
   7 H :    0.150129
   8 H :    0.135641
   9 H :    0.184488
  10 H :    0.151472
  11 H :    0.137758
  12 C :   -0.007544
  13 H :    0.122340
  14 H :    0.145540
  15 O :   -0.513335
  16 C :    0.074960
  17 C :    0.082821
  18 C :   -0.327457
  19 C :   -0.014253
  20 O :   -0.514154
  21 H :    0.154748
  22 H :    0.169054
  23 O :   -0.597281
  24 H :    0.160831
  25 H :    0.139488
  26 H :    0.151876
  27 H :    0.154537
  28 H :    0.359609
Sum of atomic charges:    0.0000000

LOEWDIN ATOMIC CHARGES
----------------------
   0 C :    0.187019
   1 C :   -0.231831
   2 C :   -0.218982
   3 C :   -0.025849
   4 O :   -0.302198
   5 H :    0.094974
   6 H :    0.113370
   7 H :    0.116774
   8 H :    0.111890
   9 H :    0.128863
  10 H :    0.107898
  11 H :    0.099883
  12 C :   -0.049367
  13 H :    0.092048
  14 H :    0.110287
  15 O :   -0.331042
  16 C :    0.002790
  17 C :    0.036737
  18 C :   -0.242166
  19 C :   -0.029556
  20 O :   -0.322288
  21 H :    0.110528
  22 H :    0.119238
  23 O :   -0.404882
  24 H :    0.124213
  25 H :    0.106676
  26 H :    0.106879
  27 H :    0.108139
  28 H :    0.279957

  Mayer bond orders larger than 0.100000
B(  0-C ,  1-C ) :   0.9287 B(  0-C ,  4-O ) :   0.9397 B(  0-C ,  5-H ) :   0.9209
B(  0-C , 15-O ) :   0.8337 B(  1-C ,  2-C ) :   0.9517 B(  1-C ,  6-H ) :   0.9327
B(  1-C ,  7-H ) :   0.9201 B(  2-C ,  3-C ) :   0.9545 B(  2-C ,  8-H ) :   0.9452
B(  2-C ,  9-H ) :   0.9311 B(  3-C ,  4-O ) :   0.8311 B(  3-C , 10-H ) :   0.9357
B(  3-C , 11-H ) :   0.9399 B( 12-C , 13-H ) :   0.9011 B( 12-C , 14-H ) :   0.9379
B( 12-C , 15-O ) :   0.8798 B( 12-C , 16-C ) :   0.8809 B( 16-C , 17-C ) :   0.8624
B( 16-C , 20-O ) :   0.8595 B( 16-C , 21-H ) :   0.9183 B( 17-C , 18-C ) :   0.9218
B( 17-C , 22-H ) :   0.9334 B( 17-C , 23-O ) :   0.9038 B( 18-C , 19-C ) :   0.9384
B( 18-C , 24-H ) :   0.9414 B( 18-C , 25-H ) :   0.9399 B( 19-C , 20-O ) :   0.8414
B( 19-C , 26-H ) :   0.9311 B( 19-C , 27-H ) :   0.9368 B( 23-O , 28-H ) :   0.7956

FINAL SINGLE POINT ENERGY      -652.847727263339

DIPOLE MOMENT
-------------
                                X             Y             Z
Electronic contribution:     -0.11257      -3.54172      -0.58219
Nuclear contribution   :     -0.48011       4.45181       0.11764
                        -----------------------------------------
Total Dipole Moment    :     -0.59268       0.91009      -0.46454
                        -----------------------------------------
Magnitude (a.u.)       :      1.18124
Magnitude (Debye)      :      3.00248

Rotational constants in cm-1:     0.054131     0.014337     0.012918
Rotational constants in MHz :  1622.795868   429.818790   387.264097

                             ****ORCA TERMINATED NORMALLY****
TOTAL RUN TIME: 0 days 1 hours 37 minutes 46 seconds 996 msec
