                         Program Version 4.2.1 -  RELEASE  -
|  1> # Test redundant internal optimization
|  2> #
|  3> ! RKS B3LYP  Opt TightSCF SmallPrint
|  4>
|  5> %basis
|  6>         Basis "6-31G"
|  7> end
|  8>
|  9> %geom
| 10> Constraints
| 11> { D 4  0  19  14  255.0   C } # D for Dihedral angle
| 12> { D 0  19  14  12  345.0   C } # D for Dihedral angle
| 13> { D 0  4  3  2   C } # D for Dihedral angle
| 14> { D 4  3  2  1   C } # D for Dihedral angle
| 15> { D 3  2  1  0   C } # D for Dihedral angle
| 16> { D 2  1  0  4   C } # D for Dihedral angle
| 17> { D 1  0  4  3   C } # D for Dihedral angle
| 18> { D 14  15  16  17   C } # D for Dihedral angle
| 19> { D 15  16  17  12   C } # D for Dihedral angle
| 20> { D 16  17  12  14   C } # D for Dihedral angle
| 21> { D 17  12  14  15   C } # D for Dihedral angle
| 22> { D 12  14  15  16   C } # D for Dihedral angle
| 23> end
| 24> end
| 25>
| 26>
| 27> #%pal
| 28> #nprocs 8
| 29> #end
| 30>
| 31> * xyz 0 1
| 32> C  -21.048   26.222   46.251
| 33> C  -20.361   27.558   45.944
| 34> C  -20.329   28.222   47.341
| 35> C  -20.110   27.022   48.296
| 36> O  -20.473   25.807   47.535
| 37> H  -20.833   25.428   45.533
| 38> H  -19.344   27.382   45.576
| 39> H  -20.898   28.157   45.201
| 40> H  -19.543   28.978   47.434
| 41> H  -21.289   28.710   47.548
| 42> H  -20.733   27.082   49.195
| 43> H  -19.064   26.913   48.597
| 44> C  -22.344   24.489   44.841
| 45> H  -22.944   23.868   44.157
| 46> C  -23.236   25.322   45.767
| 47> C  -23.649   24.277   46.830
| 48> C  -22.385   23.391   46.962
| 49> O  -21.568   23.641   45.753
| 50> H  -21.627   25.070   44.259
| 51> O  -22.472   26.381   46.366
| 52> H  -24.095   25.766   45.251
| 53> H  -23.942   24.732   47.782
| 54> H  -24.499   23.685   46.467
| 55> H  -22.624   22.324   47.019
| 56> H  -21.772   23.664   47.826
| 57> *
| 58>
| 59>                          ****END OF INPUT****
 Total Charge           Charge          ....    0
 Multiplicity           Mult            ....    1
 Number of Electrons    NEL             ....   86
FINAL SINGLE POINT ENERGY      -538.411147462106
FINAL SINGLE POINT ENERGY      -538.430180831622
FINAL SINGLE POINT ENERGY      -538.432016837568
FINAL SINGLE POINT ENERGY      -538.432391140895
FINAL SINGLE POINT ENERGY      -538.432442136544
FINAL SINGLE POINT ENERGY      -538.432455317673
                    ***********************HURRAY********************

CARTESIAN COORDINATES (ANGSTROEM)
---------------------------------
  C    -20.822038   26.239222   46.230243
  C    -20.294964   27.656161   45.991995
  C    -20.425640   28.285197   47.400601
  C    -20.110510   27.097936   48.339781
  O    -20.277692   25.872598   47.523321
  H    -20.481748   25.474118   45.536235
  H    -19.244358   27.605312   45.682726
  H    -20.867816   28.185054   45.227614
  H    -19.745164   29.128341   47.552133
  H    -21.451594   28.633468   47.551284
  H    -20.782981   27.045925   49.200559
  H    -19.074704   27.102386   48.693342
  C    -22.490664   24.303164   44.755091
  H    -23.269973   23.786033   44.175398
  C    -23.144628   25.282213   45.729604
  C    -23.592846   24.339064   46.863537
  C    -22.475736   23.271431   46.910243
  O    -21.759410   23.368508   45.608456
  H    -21.779393   24.750946   44.057762
  O    -22.265348   26.311402   46.296798
  H    -23.974570   25.834642   45.281296
  H    -23.693632   24.892417   47.799013
  H    -24.561712   23.887829   46.615970
  H    -22.860237   22.253360   47.024560
  H    -21.734643   23.484272   47.683437

 Multiplicity           Mult            ....    1
 Number of Electrons    NEL             ....   86
 Basis Dimension        Dim             ....  127

ORBITAL ENERGIES
----------------

  NO   OCC          E(Eh)            E(eV)
   0   2.0000     -19.135441      -520.7018
   1   2.0000     -19.132831      -520.6308
   2   2.0000     -19.130914      -520.5786
   3   2.0000     -10.270469      -279.4737
   4   2.0000     -10.241146      -278.6758
   5   2.0000     -10.228841      -278.3409
   6   2.0000     -10.218220      -278.0519
   7   2.0000     -10.216102      -277.9943
   8   2.0000     -10.179947      -277.0104
   9   2.0000     -10.179455      -276.9971
  10   2.0000     -10.179084      -276.9870
  11   2.0000      -1.045260       -28.4430
  12   2.0000      -1.013842       -27.5881
  13   2.0000      -0.982903       -26.7461
  14   2.0000      -0.788037       -21.4436
  15   2.0000      -0.771818       -21.0022
  16   2.0000      -0.737453       -20.0671
  17   2.0000      -0.719555       -19.5801
  18   2.0000      -0.616943       -16.7879
  19   2.0000      -0.594954       -16.1895
  20   2.0000      -0.591241       -16.0885
  21   2.0000      -0.562348       -15.3023
  22   2.0000      -0.523315       -14.2401
  23   2.0000      -0.500035       -13.6066
  24   2.0000      -0.478960       -13.0332
  25   2.0000      -0.473975       -12.8975
  26   2.0000      -0.448795       -12.2123
  27   2.0000      -0.445577       -12.1248
  28   2.0000      -0.420328       -11.4377
  29   2.0000      -0.411935       -11.2093
  30   2.0000      -0.395667       -10.7667
  31   2.0000      -0.383824       -10.4444
  32   2.0000      -0.370612       -10.0849
  33   2.0000      -0.364643        -9.9225
  34   2.0000      -0.355979        -9.6867
  35   2.0000      -0.349866        -9.5203
  36   2.0000      -0.340623        -9.2688
  37   2.0000      -0.315560        -8.5868
  38   2.0000      -0.308343        -8.3904
  39   2.0000      -0.292515        -7.9597
  40   2.0000      -0.261953        -7.1281
  41   2.0000      -0.241285        -6.5657
  42   2.0000      -0.235622        -6.4116
  43   0.0000       0.081148         2.2081
  44   0.0000       0.101179         2.7532
  45   0.0000       0.105437         2.8691
  46   0.0000       0.112158         3.0520
  47   0.0000       0.114971         3.1285

MULLIKEN ATOMIC CHARGES
-----------------------
   0 C :    0.278009
   1 C :   -0.250140
   2 C :   -0.297158
   3 C :   -0.001029
   4 O :   -0.506887
   5 H :    0.174081
   6 H :    0.141948
   7 H :    0.145105
   8 H :    0.136972
   9 H :    0.160392
  10 H :    0.143451
  11 H :    0.138962
  12 C :   -0.042592
  13 H :    0.135637
  14 C :    0.094538
  15 C :   -0.278332
  16 C :   -0.016579
  17 O :   -0.522748
  18 H :    0.153518
  19 O :   -0.538359
  20 H :    0.141932
  21 H :    0.165155
  22 H :    0.131225
  23 H :    0.134799
  24 H :    0.178101
Sum of atomic charges:   -0.0000000

LOEWDIN ATOMIC CHARGES
----------------------
   0 C :    0.170834
   1 C :   -0.218209
   2 C :   -0.216035
   3 C :   -0.028951
   4 O :   -0.323261
   5 H :    0.113844
   6 H :    0.111827
   7 H :    0.118142
   8 H :    0.111499
   9 H :    0.118196
  10 H :    0.103185
  11 H :    0.100525
  12 C :   -0.053924
  13 H :    0.099879
  14 C :    0.046173
  15 C :   -0.229593
  16 C :   -0.033221
  17 O :   -0.334501
  18 H :    0.110820
  19 O :   -0.331848
  20 H :    0.109082
  21 H :    0.128742
  22 H :    0.107267
  23 H :    0.099441
  24 H :    0.120085

  Mayer bond orders larger than 0.100000
B(  0-C ,  1-C ) :   0.9422 B(  0-C ,  4-O ) :   0.9024 B(  0-C ,  5-H ) :   0.9032
B(  0-C , 19-O ) :   0.8409 B(  1-C ,  2-C ) :   0.9569 B(  1-C ,  6-H ) :   0.9392
B(  1-C ,  7-H ) :   0.9389 B(  2-C ,  3-C ) :   0.9539 B(  2-C ,  8-H ) :   0.9460
B(  2-C ,  9-H ) :   0.9441 B(  3-C ,  4-O ) :   0.8437 B(  3-C , 10-H ) :   0.9357
B(  3-C , 11-H ) :   0.9400 B( 12-C , 13-H ) :   0.9144 B( 12-C , 14-C ) :   0.9258
B( 12-C , 17-O ) :   0.8608 B( 12-C , 18-H ) :   0.9279 B( 14-C , 15-C ) :   0.9323
B( 14-C , 19-O ) :   0.8537 B( 14-C , 20-H ) :   0.9330 B( 15-C , 16-C ) :   0.9481
B( 15-C , 21-H ) :   0.9373 B( 15-C , 22-H ) :   0.9385 B( 16-C , 17-O ) :   0.8355
B( 16-C , 23-H ) :   0.9352 B( 16-C , 24-H ) :   0.9257

FINAL SINGLE POINT ENERGY      -538.432456420781

DIPOLE MOMENT
-------------
                                X             Y             Z
Electronic contribution:      0.47942      -2.41455      -0.98745
Nuclear contribution   :     -1.05729       3.09874       0.79659
                        -----------------------------------------
Total Dipole Moment    :     -0.57787       0.68419      -0.19086
                        -----------------------------------------
Magnitude (a.u.)       :      0.91569
Magnitude (Debye)      :      2.32749

Rotational constants in cm-1:     0.075024     0.024071     0.022763
Rotational constants in MHz :  2249.158476   721.641782   682.409420

                             ****ORCA TERMINATED NORMALLY****
TOTAL RUN TIME: 0 days 0 hours 7 minutes 39 seconds 358 msec
