                         Program Version 4.2.0 -  RELEASE  -
|  1> # Test redundant internal optimization
|  2> #
|  3> ! RKS B3LYP  Opt TightSCF SmallPrint
|  4>
|  5> %basis
|  6>         Basis "6-31G"
|  7> end
|  8>
|  9> %geom
| 10> Constraints
| 11> { D 4  0  15  12  300.0   C } # D for Dihedral angle
| 12> { D 0  15  12  16  165.0   C } # D for Dihedral angle
| 13> { D 0  4  3  2   C } # D for Dihedral angle
| 14> { D 4  3  2  1   C } # D for Dihedral angle
| 15> { D 3  2  1  0   C } # D for Dihedral angle
| 16> { D 2  1  0  4   C } # D for Dihedral angle
| 17> { D 1  0  4  3   C } # D for Dihedral angle
| 18> { D 16  20  19  18   C } # D for Dihedral angle
| 19> { D 20  19  18  17   C } # D for Dihedral angle
| 20> { D 19  18  17  16   C } # D for Dihedral angle
| 21> { D 18  17  16  20   C } # D for Dihedral angle
| 22> { D 17  16  20  19   C } # D for Dihedral angle
| 23> { D 15  12  16  20   C } # D for Dihedral angle
| 24> end
| 25> end
| 26>
| 27>
| 28> #%pal
| 29> #nprocs 8
| 30> #end
| 31>
| 32> * xyz 0 1
| 33> C  -21.048   26.222   46.251
| 34> C  -20.361   27.558   45.944
| 35> C  -20.329   28.222   47.341
| 36> C  -20.110   27.022   48.296
| 37> O  -20.473   25.807   47.535
| 38> H  -20.833   25.428   45.533
| 39> H  -19.344   27.382   45.576
| 40> H  -20.898   28.157   45.201
| 41> H  -19.543   28.978   47.434
| 42> H  -21.289   28.710   47.548
| 43> H  -20.733   27.082   49.195
| 44> H  -19.064   26.913   48.597
| 45> C  -23.362   25.116   46.798
| 46> H  -23.410   24.424   45.948
| 47> H  -22.846   24.609   47.623
| 48> O  -22.586   26.394   46.375
| 49> C  -24.812   25.421   47.263
| 50> C  -25.508   24.157   47.781
| 51> C  -24.913   24.032   49.204
| 52> C  -24.755   25.508   49.649
| 53> O  -24.801   26.325   48.418
| 54> H  -25.346   25.933   46.460
| 55> O  -27.043   24.381   47.846
| 56> H  -25.314   23.275   47.161
| 57> H  -25.552   23.458   49.882
| 58> H  -23.937   23.534   49.162
| 59> H  -23.805   25.690   50.164
| 60> H  -25.576   25.841   50.289
| 61> H  -27.261   25.260   48.463
| 62> *
| 63>
| 64>                          ****END OF INPUT****
 Total Charge           Charge          ....    0
 Multiplicity           Mult            ....    1
 Number of Electrons    NEL             ....  102
FINAL SINGLE POINT ENERGY      -652.837067901723
FINAL SINGLE POINT ENERGY      -652.862064939860
FINAL SINGLE POINT ENERGY      -652.866387792750
FINAL SINGLE POINT ENERGY      -652.867207072294
FINAL SINGLE POINT ENERGY      -652.867326987186
FINAL SINGLE POINT ENERGY      -652.867338688531
FINAL SINGLE POINT ENERGY      -652.867340853286
                    ***********************HURRAY********************

CARTESIAN COORDINATES (ANGSTROEM)
---------------------------------
  C    -21.113641   26.150313   46.240394
  C    -20.573436   27.556272   45.979486
  C    -20.551052   28.152946   47.403645
  C    -20.181126   26.943933   48.289705
  O    -20.460450   25.735886   47.466752
  H    -20.869709   25.387085   45.493432
  H    -19.563214   27.484176   45.560626
  H    -21.208345   28.115094   45.288914
  H    -19.835918   28.975139   47.504479
  H    -21.548454   28.520943   47.658801
  H    -20.773725   26.890444   49.206231
  H    -19.117186   26.907160   48.542174
  C    -23.220877   25.053390   46.800799
  H    -23.299546   24.365401   45.943571
  H    -22.644530   24.562779   47.593664
  O    -22.540581   26.273440   46.402048
  C    -24.615296   25.437113   47.283492
  C    -25.445113   24.248283   47.790573
  C    -24.919141   24.093443   49.241877
  C    -24.644980   25.555694   49.672423
  O    -24.567457   26.355280   48.425773
  H    -25.133430   25.974251   46.483550
  O    -26.865561   24.556232   47.761738
  H    -25.334724   23.342394   47.192503
  H    -25.661805   23.594122   49.869239
  H    -24.000274   23.497184   49.251289
  H    -23.706047   25.663583   50.224520
  H    -25.455634   25.976315   50.276131
  H    -27.000745   25.470706   48.089170

 Multiplicity           Mult            ....    1
 Number of Electrons    NEL             ....  102
 Basis Dimension        Dim             ....  149

ORBITAL ENERGIES
----------------

  NO   OCC          E(Eh)            E(eV)
   0   2.0000     -19.141383      -520.8635
   1   2.0000     -19.140156      -520.8301
   2   2.0000     -19.140029      -520.8267
   3   2.0000     -19.138425      -520.7830
   4   2.0000     -10.276190      -279.6293
   5   2.0000     -10.242516      -278.7130
   6   2.0000     -10.232813      -278.4490
   7   2.0000     -10.229648      -278.3629
   8   2.0000     -10.227260      -278.2979
   9   2.0000     -10.223234      -278.1884
  10   2.0000     -10.188753      -277.2501
  11   2.0000     -10.182057      -277.0679
  12   2.0000     -10.180336      -277.0210
  13   2.0000      -1.054356       -28.6905
  14   2.0000      -1.034830       -28.1592
  15   2.0000      -1.005424       -27.3590
  16   2.0000      -0.990951       -26.9651
  17   2.0000      -0.789508       -21.4836
  18   2.0000      -0.780024       -21.2255
  19   2.0000      -0.765551       -20.8317
  20   2.0000      -0.728136       -19.8136
  21   2.0000      -0.670999       -18.2588
  22   2.0000      -0.603754       -16.4290
  23   2.0000      -0.596939       -16.2435
  24   2.0000      -0.588018       -16.0008
  25   2.0000      -0.580874       -15.8064
  26   2.0000      -0.526902       -14.3377
  27   2.0000      -0.509310       -13.8590
  28   2.0000      -0.488726       -13.2989
  29   2.0000      -0.487199       -13.2574
  30   2.0000      -0.478178       -13.0119
  31   2.0000      -0.458240       -12.4694
  32   2.0000      -0.448850       -12.2138
  33   2.0000      -0.441553       -12.0153
  34   2.0000      -0.418970       -11.4008
  35   2.0000      -0.402172       -10.9437
  36   2.0000      -0.398960       -10.8562
  37   2.0000      -0.393428       -10.7057
  38   2.0000      -0.373731       -10.1697
  39   2.0000      -0.371143       -10.0993
  40   2.0000      -0.359274        -9.7763
  41   2.0000      -0.353062        -9.6073
  42   2.0000      -0.344449        -9.3729
  43   2.0000      -0.332801        -9.0560
  44   2.0000      -0.325577        -8.8594
  45   2.0000      -0.306462        -8.3393
  46   2.0000      -0.296026        -8.0553
  47   2.0000      -0.270745        -7.3673
  48   2.0000      -0.263459        -7.1691
  49   2.0000      -0.252919        -6.8823
  50   2.0000      -0.244946        -6.6653
  51   0.0000       0.063829         1.7369
  52   0.0000       0.088709         2.4139
  53   0.0000       0.090245         2.4557
  54   0.0000       0.100983         2.7479
  55   0.0000       0.106509         2.8983

MULLIKEN ATOMIC CHARGES
-----------------------
   0 C :    0.289156
   1 C :   -0.262457
   2 C :   -0.299220
   3 C :   -0.005131
   4 O :   -0.516740
   5 H :    0.139771
   6 H :    0.142627
   7 H :    0.159621
   8 H :    0.138369
   9 H :    0.175754
  10 H :    0.147575
  11 H :    0.141647
  12 C :   -0.001794
  13 H :    0.125483
  14 H :    0.154827
  15 O :   -0.515225
  16 C :    0.064668
  17 C :    0.077067
  18 C :   -0.298356
  19 C :   -0.030055
  20 O :   -0.512944
  21 H :    0.167548
  22 O :   -0.603469
  23 H :    0.151823
  24 H :    0.162564
  25 H :    0.148306
  26 H :    0.147663
  27 H :    0.144972
  28 H :    0.365949
Sum of atomic charges:   -0.0000000

LOEWDIN ATOMIC CHARGES
----------------------
   0 C :    0.172949
   1 C :   -0.213994
   2 C :   -0.216102
   3 C :   -0.027471
   4 O :   -0.332616
   5 H :    0.094448
   6 H :    0.112743
   7 H :    0.125691
   8 H :    0.112392
   9 H :    0.125979
  10 H :    0.105311
  11 H :    0.102007
  12 C :   -0.047593
  13 H :    0.094285
  14 H :    0.107307
  15 O :   -0.318447
  16 C :    0.019144
  17 C :    0.035825
  18 C :   -0.242178
  19 C :   -0.038550
  20 O :   -0.323092
  21 H :    0.119760
  22 O :   -0.414706
  23 H :    0.115381
  24 H :    0.126531
  25 H :    0.115022
  26 H :    0.104313
  27 H :    0.101728
  28 H :    0.283931

  Mayer bond orders larger than 0.100000
B(  0-C ,  1-C ) :   0.9512 B(  0-C ,  4-O ) :   0.8988 B(  0-C ,  5-H ) :   0.9194
B(  0-C , 15-O ) :   0.8642 B(  1-C ,  2-C ) :   0.9560 B(  1-C ,  6-H ) :   0.9405
B(  1-C ,  7-H ) :   0.9355 B(  2-C ,  3-C ) :   0.9570 B(  2-C ,  8-H ) :   0.9450
B(  2-C ,  9-H ) :   0.9405 B(  3-C ,  4-O ) :   0.8331 B(  3-C , 10-H ) :   0.9355
B(  3-C , 11-H ) :   0.9405 B( 12-C , 13-H ) :   0.9128 B( 12-C , 14-H ) :   0.9077
B( 12-C , 15-O ) :   0.8331 B( 12-C , 16-C ) :   0.9032 B( 16-C , 17-C ) :   0.9009
B( 16-C , 20-O ) :   0.8655 B( 16-C , 21-H ) :   0.9240 B( 17-C , 18-C ) :   0.9128
B( 17-C , 22-O ) :   0.8949 B( 17-C , 23-H ) :   0.9328 B( 18-C , 19-C ) :   0.9401
B( 18-C , 24-H ) :   0.9371 B( 18-C , 25-H ) :   0.9329 B( 19-C , 20-O ) :   0.8515
B( 19-C , 26-H ) :   0.9338 B( 19-C , 27-H ) :   0.9378 B( 22-O , 28-H ) :   0.7935

FINAL SINGLE POINT ENERGY      -652.867341123104

DIPOLE MOMENT
-------------
                                X             Y             Z
Electronic contribution:     -3.21317      -0.99609      -2.03431
Nuclear contribution   :      3.85408       1.05225       2.35518
                        -----------------------------------------
Total Dipole Moment    :      0.64091       0.05616       0.32086
                        -----------------------------------------
Magnitude (a.u.)       :      0.71894
Magnitude (Debye)      :      1.82740

Rotational constants in cm-1:     0.059178     0.013313     0.012584
Rotational constants in MHz :  1774.109181   399.104290   377.250666

                             ****ORCA TERMINATED NORMALLY****
TOTAL RUN TIME: 0 days 0 hours 24 minutes 0 seconds 9 msec
