                         Program Version 4.2.0 -  RELEASE  -
|  1> # Test redundant internal optimization
|  2> #
|  3> ! RKS B3LYP  Opt TightSCF SmallPrint
|  4>
|  5> %basis
|  6>         Basis "6-31G"
|  7> end
|  8>
|  9> %geom
| 10> Constraints
| 11> { D 4  0  15  12  135.0   C } # D for Dihedral angle
| 12> { D 0  15  12  16  60.0   C } # D for Dihedral angle
| 13> { D 0  4  3  2   C } # D for Dihedral angle
| 14> { D 4  3  2  1   C } # D for Dihedral angle
| 15> { D 3  2  1  0   C } # D for Dihedral angle
| 16> { D 2  1  0  4   C } # D for Dihedral angle
| 17> { D 1  0  4  3   C } # D for Dihedral angle
| 18> { D 16  20  19  18   C } # D for Dihedral angle
| 19> { D 20  19  18  17   C } # D for Dihedral angle
| 20> { D 19  18  17  16   C } # D for Dihedral angle
| 21> { D 18  17  16  20   C } # D for Dihedral angle
| 22> { D 17  16  20  19   C } # D for Dihedral angle
| 23> { D 15  12  16  20   C } # D for Dihedral angle
| 24> end
| 25> end
| 26>
| 27>
| 28> #%pal
| 29> #nprocs 8
| 30> #end
| 31>
| 32> * xyz 0 1
| 33> C  -21.048   26.222   46.251
| 34> C  -20.361   27.558   45.944
| 35> C  -20.329   28.222   47.341
| 36> C  -20.110   27.022   48.296
| 37> O  -20.473   25.807   47.535
| 38> H  -20.833   25.428   45.533
| 39> H  -19.344   27.382   45.576
| 40> H  -20.898   28.157   45.201
| 41> H  -19.543   28.978   47.434
| 42> H  -21.289   28.710   47.548
| 43> H  -20.733   27.082   49.195
| 44> H  -19.064   26.913   48.597
| 45> C  -23.162   27.680   45.721
| 46> H  -24.248   27.708   45.872
| 47> H  -22.727   28.574   46.185
| 48> O  -22.586   26.394   46.375
| 49> C  -22.879   27.755   44.194
| 50> C  -23.358   29.086   43.605
| 51> C  -22.215   30.042   44.020
| 52> C  -20.955   29.144   43.929
| 53> O  -21.435   27.746   43.939
| 54> H  -23.296   26.870   43.709
| 55> O  -23.451   28.981   42.058
| 56> H  -24.335   29.400   43.989
| 57> H  -22.145   30.925   43.376
| 58> H  -22.368   30.389   45.048
| 59> H  -20.272   29.295   44.772
| 60> H  -20.405   29.290   42.995
| 61> H  -22.483   28.668   41.651
| 62> *
| 63>
| 64>                          ****END OF INPUT****
 Total Charge           Charge          ....    0
 Multiplicity           Mult            ....    1
 Number of Electrons    NEL             ....  102
FINAL SINGLE POINT ENERGY      -652.735307154753
FINAL SINGLE POINT ENERGY      -652.819329595454
FINAL SINGLE POINT ENERGY      -652.841253760469
FINAL SINGLE POINT ENERGY      -652.846274207798
FINAL SINGLE POINT ENERGY      -652.847086881136
FINAL SINGLE POINT ENERGY      -652.847246817115
FINAL SINGLE POINT ENERGY      -652.847268870220
FINAL SINGLE POINT ENERGY      -652.847275503104
FINAL SINGLE POINT ENERGY      -652.847266471409
FINAL SINGLE POINT ENERGY      -652.847265404635
                    ***********************HURRAY********************

CARTESIAN COORDINATES (ANGSTROEM)
---------------------------------
  C    -20.975657   26.161736   46.394350
  C    -19.939691   27.268632   46.193438
  C    -20.032056   28.047594   47.532058
  C    -20.312310   26.920794   48.553090
  O    -20.793535   25.767646   47.766126
  H    -20.830325   25.270116   45.784678
  H    -18.955617   26.792533   46.105189
  H    -20.117647   27.856961   45.300013
  H    -19.114244   28.598237   47.760358
  H    -20.859123   28.767235   47.507457
  H    -21.073704   27.188660   49.291134
  H    -19.407211   26.593297   49.074394
  C    -22.993426   27.679609   45.608927
  H    -24.064425   27.508042   45.755270
  H    -22.726556   28.605711   46.146526
  O    -22.382578   26.541326   46.259247
  C    -22.767490   27.888136   44.099364
  C    -23.497125   29.124339   43.550434
  C    -22.446133   30.243305   43.791433
  C    -21.099936   29.518377   43.552775
  O    -21.382782   28.059833   43.655957
  H    -23.118071   26.985508   43.585555
  O    -23.805970   28.970786   42.139452
  H    -24.454096   29.323777   44.034245
  H    -22.609002   31.078176   43.106060
  H    -22.519216   30.617766   44.818350
  H    -20.335956   29.786118   44.289826
  H    -20.695136   29.691865   42.551503
  H    -23.035981   28.571883   41.681792

 Multiplicity           Mult            ....    1
 Number of Electrons    NEL             ....  102
 Basis Dimension        Dim             ....  149

ORBITAL ENERGIES
----------------

  NO   OCC          E(Eh)            E(eV)
   0   2.0000     -19.159775      -521.3640
   1   2.0000     -19.146789      -521.0106
   2   2.0000     -19.130892      -520.5780
   3   2.0000     -19.130286      -520.5615
   4   2.0000     -10.273741      -279.5627
   5   2.0000     -10.252604      -278.9875
   6   2.0000     -10.244485      -278.7666
   7   2.0000     -10.242959      -278.7251
   8   2.0000     -10.240390      -278.6552
   9   2.0000     -10.220683      -278.1189
  10   2.0000     -10.200155      -277.5603
  11   2.0000     -10.186386      -277.1857
  12   2.0000     -10.175398      -276.8866
  13   2.0000      -1.050614       -28.5887
  14   2.0000      -1.041257       -28.3340
  15   2.0000      -1.017201       -27.6795
  16   2.0000      -0.983636       -26.7661
  17   2.0000      -0.795126       -21.6365
  18   2.0000      -0.780655       -21.2427
  19   2.0000      -0.776160       -21.1204
  20   2.0000      -0.733328       -19.9549
  21   2.0000      -0.681736       -18.5510
  22   2.0000      -0.615327       -16.7439
  23   2.0000      -0.609946       -16.5975
  24   2.0000      -0.595963       -16.2170
  25   2.0000      -0.568158       -15.4604
  26   2.0000      -0.530987       -14.4489
  27   2.0000      -0.518262       -14.1026
  28   2.0000      -0.500930       -13.6310
  29   2.0000      -0.483529       -13.1575
  30   2.0000      -0.480555       -13.0766
  31   2.0000      -0.461982       -12.5712
  32   2.0000      -0.450798       -12.2668
  33   2.0000      -0.444234       -12.0882
  34   2.0000      -0.430910       -11.7256
  35   2.0000      -0.414644       -11.2830
  36   2.0000      -0.410444       -11.1688
  37   2.0000      -0.397831       -10.8255
  38   2.0000      -0.383261       -10.4291
  39   2.0000      -0.373583       -10.1657
  40   2.0000      -0.365226        -9.9383
  41   2.0000      -0.356970        -9.7137
  42   2.0000      -0.348663        -9.4876
  43   2.0000      -0.340191        -9.2571
  44   2.0000      -0.320081        -8.7098
  45   2.0000      -0.306180        -8.3316
  46   2.0000      -0.287458        -7.8221
  47   2.0000      -0.280872        -7.6429
  48   2.0000      -0.266157        -7.2425
  49   2.0000      -0.253163        -6.8889
  50   2.0000      -0.237655        -6.4669
  51   0.0000       0.050877         1.3844
  52   0.0000       0.073265         1.9936
  53   0.0000       0.085514         2.3270
  54   0.0000       0.089486         2.4350
  55   0.0000       0.097684         2.6581

MULLIKEN ATOMIC CHARGES
-----------------------
   0 C :    0.323047
   1 C :   -0.306519
   2 C :   -0.312637
   3 C :    0.001432
   4 O :   -0.495279
   5 H :    0.155969
   6 H :    0.142511
   7 H :    0.191242
   8 H :    0.138776
   9 H :    0.142299
  10 H :    0.146419
  11 H :    0.142093
  12 C :    0.006955
  13 H :    0.163765
  14 H :    0.111690
  15 O :   -0.543319
  16 C :    0.059547
  17 C :    0.076977
  18 C :   -0.289638
  19 C :   -0.038496
  20 O :   -0.521035
  21 H :    0.168184
  22 O :   -0.599190
  23 H :    0.157591
  24 H :    0.168218
  25 H :    0.144804
  26 H :    0.145055
  27 H :    0.153728
  28 H :    0.365810
Sum of atomic charges:   -0.0000000

LOEWDIN ATOMIC CHARGES
----------------------
   0 C :    0.194573
   1 C :   -0.239794
   2 C :   -0.222287
   3 C :   -0.029318
   4 O :   -0.308383
   5 H :    0.107431
   6 H :    0.116624
   7 H :    0.134991
   8 H :    0.112701
   9 H :    0.104877
  10 H :    0.104531
  11 H :    0.102047
  12 C :   -0.034360
  13 H :    0.123881
  14 H :    0.082096
  15 O :   -0.342887
  16 C :    0.001044
  17 C :    0.037356
  18 C :   -0.238769
  19 C :   -0.040411
  20 O :   -0.327430
  21 H :    0.117719
  22 O :   -0.410913
  23 H :    0.118225
  24 H :    0.129767
  25 H :    0.113782
  26 H :    0.102435
  27 H :    0.106596
  28 H :    0.283877

  Mayer bond orders larger than 0.100000
B(  0-C ,  1-C ) :   0.9368 B(  0-C ,  4-O ) :   0.9242 B(  0-C ,  5-H ) :   0.9302
B(  0-C , 15-O ) :   0.8280 B(  1-C ,  2-C ) :   0.9487 B(  1-C ,  6-H ) :   0.9352
B(  1-C ,  7-H ) :   0.8928 B(  2-C ,  3-C ) :   0.9513 B(  2-C ,  8-H ) :   0.9463
B(  2-C ,  9-H ) :   0.9440 B(  3-C ,  4-O ) :   0.8443 B(  3-C , 10-H ) :   0.9350
B(  3-C , 11-H ) :   0.9393 B( 12-C , 13-H ) :   0.9251 B( 12-C , 14-H ) :   0.9118
B( 12-C , 15-O ) :   0.8685 B( 12-C , 16-C ) :   0.8833 B( 16-C , 17-C ) :   0.8904
B( 16-C , 20-O ) :   0.8476 B( 16-C , 21-H ) :   0.9232 B( 17-C , 18-C ) :   0.9114
B( 17-C , 22-O ) :   0.8938 B( 17-C , 23-H ) :   0.9333 B( 18-C , 19-C ) :   0.9430
B( 18-C , 24-H ) :   0.9365 B( 18-C , 25-H ) :   0.9330 B( 19-C , 20-O ) :   0.8350
B( 19-C , 26-H ) :   0.9288 B( 19-C , 27-H ) :   0.9388 B( 22-O , 28-H ) :   0.7945

FINAL SINGLE POINT ENERGY      -652.847267356558

DIPOLE MOMENT
-------------
                                X             Y             Z
Electronic contribution:     -2.91207      -5.45928      -2.13387
Nuclear contribution   :      3.60827       7.03830       1.93925
                        -----------------------------------------
Total Dipole Moment    :      0.69620       1.57902      -0.19461
                        -----------------------------------------
Magnitude (a.u.)       :      1.73663
Magnitude (Debye)      :      4.41415

Rotational constants in cm-1:     0.059934     0.014260     0.013147
Rotational constants in MHz :  1796.773817   427.510223   394.149151

                             ****ORCA TERMINATED NORMALLY****
TOTAL RUN TIME: 0 days 1 hours 4 minutes 56 seconds 114 msec
