                         Program Version 4.2.0 -  RELEASE  -
|  1> # Test redundant internal optimization
|  2> #
|  3> ! RKS B3LYP  Opt TightSCF SmallPrint
|  4>
|  5> %basis
|  6>         Basis "6-31G"
|  7> end
|  8>
|  9> %geom
| 10> Constraints
| 11> { D 4  0  15  12  195.0   C } # D for Dihedral angle
| 12> { D 0  15  12  16  210.0   C } # D for Dihedral angle
| 13> { D 0  4  3  2   C } # D for Dihedral angle
| 14> { D 4  3  2  1   C } # D for Dihedral angle
| 15> { D 3  2  1  0   C } # D for Dihedral angle
| 16> { D 2  1  0  4   C } # D for Dihedral angle
| 17> { D 1  0  4  3   C } # D for Dihedral angle
| 18> { D 16  20  19  18   C } # D for Dihedral angle
| 19> { D 20  19  18  17   C } # D for Dihedral angle
| 20> { D 19  18  17  16   C } # D for Dihedral angle
| 21> { D 18  17  16  20   C } # D for Dihedral angle
| 22> { D 17  16  20  19   C } # D for Dihedral angle
| 23> { D 15  12  16  20   C } # D for Dihedral angle
| 24> end
| 25> end
| 26>
| 27>
| 28> #%pal
| 29> #nprocs 8
| 30> #end
| 31>
| 32> * xyz 0 1
| 33> C  -21.048   26.222   46.251
| 34> C  -20.361   27.558   45.944
| 35> C  -20.329   28.222   47.341
| 36> C  -20.110   27.022   48.296
| 37> O  -20.473   25.807   47.535
| 38> H  -20.833   25.428   45.533
| 39> H  -19.344   27.382   45.576
| 40> H  -20.898   28.157   45.201
| 41> H  -19.543   28.978   47.434
| 42> H  -21.289   28.710   47.548
| 43> H  -20.733   27.082   49.195
| 44> H  -19.064   26.913   48.597
| 45> C  -23.353   26.472   45.026
| 46> H  -22.697   26.908   44.262
| 47> H  -23.647   25.469   44.693
| 48> O  -22.586   26.394   46.375
| 49> C  -24.640   27.337   45.117
| 50> C  -24.306   28.803   45.412
| 51> C  -23.875   29.315   44.017
| 52> C  -24.801   28.529   43.054
| 53> O  -25.323   27.377   43.819
| 54> H  -25.330   26.878   45.827
| 55> O  -25.577   29.551   45.902
| 56> H  -23.523   28.923   46.169
| 57> H  -23.985   30.398   43.910
| 58> H  -22.824   29.064   43.833
| 59> H  -24.271   28.162   42.169
| 60> H  -25.663   29.119   42.730
| 61> H  -26.376   29.446   45.159
| 62> *
| 63>
| 64>                          ****END OF INPUT****
 Total Charge           Charge          ....    0
 Multiplicity           Mult            ....    1
 Number of Electrons    NEL             ....  102
FINAL SINGLE POINT ENERGY      -652.833566613381
FINAL SINGLE POINT ENERGY      -652.856277530998
FINAL SINGLE POINT ENERGY      -652.859689983472
FINAL SINGLE POINT ENERGY      -652.860309435987
FINAL SINGLE POINT ENERGY      -652.860401432435
FINAL SINGLE POINT ENERGY      -652.860412056473
                    ***********************HURRAY********************

CARTESIAN COORDINATES (ANGSTROEM)
---------------------------------
  C    -21.126317   26.216730   46.206932
  C    -20.384916   27.511755   45.880451
  C    -20.426061   28.258247   47.237567
  C    -20.306883   27.109927   48.261249
  O    -20.660687   25.872267   47.516743
  H    -20.903041   25.372390   45.546565
  H    -19.353328   27.273888   45.596218
  H    -20.840397   28.081113   45.064817
  H    -19.619142   28.990698   47.335735
  H    -21.380007   28.780652   47.351877
  H    -20.989411   27.212959   49.108030
  H    -19.286359   26.971235   48.629441
  C    -23.273407   26.433696   45.002709
  H    -22.620655   26.807698   44.200169
  H    -23.595987   25.421732   44.729487
  O    -22.570376   26.412070   46.278890
  C    -24.500173   27.336478   45.139695
  C    -24.215607   28.812578   45.450541
  C    -23.842641   29.364293   44.049723
  C    -24.762683   28.557542   43.099272
  O    -25.219590   27.369442   43.861366
  H    -25.180401   26.913507   45.884485
  O    -25.401653   29.464601   45.982063
  H    -23.441716   28.950644   46.202882
  H    -24.020259   30.441838   44.000276
  H    -22.784441   29.181993   43.832489
  H    -24.250894   28.222948   42.191790
  H    -25.657745   29.115665   42.807714
  H    -26.187223   29.167414   45.475822

 Multiplicity           Mult            ....    1
 Number of Electrons    NEL             ....  102
 Basis Dimension        Dim             ....  149

ORBITAL ENERGIES
----------------

  NO   OCC          E(Eh)            E(eV)
   0   2.0000     -19.148188      -521.0487
   1   2.0000     -19.144566      -520.9501
   2   2.0000     -19.143705      -520.9267
   3   2.0000     -19.138486      -520.7847
   4   2.0000     -10.283816      -279.8369
   5   2.0000     -10.240536      -278.6592
   6   2.0000     -10.236058      -278.5373
   7   2.0000     -10.235557      -278.5237
   8   2.0000     -10.234621      -278.4982
   9   2.0000     -10.227775      -278.3119
  10   2.0000     -10.193305      -277.3739
  11   2.0000     -10.192932      -277.3638
  12   2.0000     -10.191334      -277.3203
  13   2.0000      -1.056745       -28.7555
  14   2.0000      -1.039751       -28.2931
  15   2.0000      -1.007684       -27.4205
  16   2.0000      -0.998297       -27.1650
  17   2.0000      -0.791339       -21.5334
  18   2.0000      -0.783305       -21.3148
  19   2.0000      -0.771420       -20.9914
  20   2.0000      -0.734305       -19.9814
  21   2.0000      -0.679083       -18.4788
  22   2.0000      -0.607637       -16.5346
  23   2.0000      -0.605299       -16.4710
  24   2.0000      -0.593044       -16.1375
  25   2.0000      -0.586110       -15.9489
  26   2.0000      -0.527393       -14.3511
  27   2.0000      -0.519148       -14.1267
  28   2.0000      -0.498800       -13.5731
  29   2.0000      -0.496179       -13.5017
  30   2.0000      -0.476564       -12.9680
  31   2.0000      -0.458112       -12.4659
  32   2.0000      -0.455613       -12.3978
  33   2.0000      -0.443296       -12.0627
  34   2.0000      -0.425717       -11.5843
  35   2.0000      -0.419067       -11.4034
  36   2.0000      -0.408489       -11.1156
  37   2.0000      -0.396156       -10.7800
  38   2.0000      -0.378586       -10.3018
  39   2.0000      -0.373396       -10.1606
  40   2.0000      -0.364164        -9.9094
  41   2.0000      -0.360245        -9.8028
  42   2.0000      -0.357513        -9.7284
  43   2.0000      -0.333843        -9.0843
  44   2.0000      -0.317022        -8.6266
  45   2.0000      -0.312118        -8.4932
  46   2.0000      -0.307562        -8.3692
  47   2.0000      -0.274110        -7.4589
  48   2.0000      -0.263172        -7.1613
  49   2.0000      -0.260465        -7.0876
  50   2.0000      -0.245528        -6.6812
  51   0.0000       0.053857         1.4655
  52   0.0000       0.065101         1.7715
  53   0.0000       0.086838         2.3630
  54   0.0000       0.095102         2.5878
  55   0.0000       0.100370         2.7312

MULLIKEN ATOMIC CHARGES
-----------------------
   0 C :    0.303830
   1 C :   -0.276523
   2 C :   -0.307414
   3 C :   -0.002099
   4 O :   -0.501099
   5 H :    0.142386
   6 H :    0.149487
   7 H :    0.137611
   8 H :    0.144944
   9 H :    0.167168
  10 H :    0.158222
  11 H :    0.143747
  12 C :   -0.008734
  13 H :    0.119993
  14 H :    0.155061
  15 O :   -0.515171
  16 C :    0.056504
  17 C :    0.075392
  18 C :   -0.305281
  19 C :   -0.029280
  20 O :   -0.525458
  21 H :    0.174222
  22 O :   -0.601833
  23 H :    0.176006
  24 H :    0.166330
  25 H :    0.142542
  26 H :    0.145634
  27 H :    0.148890
  28 H :    0.364922
Sum of atomic charges:   -0.0000000

LOEWDIN ATOMIC CHARGES
----------------------
   0 C :    0.181509
   1 C :   -0.231092
   2 C :   -0.217384
   3 C :   -0.024344
   4 O :   -0.301414
   5 H :    0.097583
   6 H :    0.116564
   7 H :    0.109374
   8 H :    0.115844
   9 H :    0.116617
  10 H :    0.111509
  11 H :    0.103506
  12 C :   -0.040453
  13 H :    0.089138
  14 H :    0.109403
  15 O :   -0.337772
  16 C :    0.017272
  17 C :    0.036479
  18 C :   -0.243693
  19 C :   -0.037988
  20 O :   -0.329533
  21 H :    0.121828
  22 O :   -0.413440
  23 H :    0.122208
  24 H :    0.128120
  25 H :    0.109575
  26 H :    0.103701
  27 H :    0.104026
  28 H :    0.282857

  Mayer bond orders larger than 0.100000
B(  0-C ,  1-C ) :   0.9278 B(  0-C ,  4-O ) :   0.9411 B(  0-C ,  5-H ) :   0.9214
B(  0-C , 15-O ) :   0.8293 B(  1-C ,  2-C ) :   0.9514 B(  1-C ,  6-H ) :   0.9333
B(  1-C ,  7-H ) :   0.9314 B(  2-C ,  3-C ) :   0.9545 B(  2-C ,  8-H ) :   0.9444
B(  2-C ,  9-H ) :   0.9369 B(  3-C ,  4-O ) :   0.8343 B(  3-C , 10-H ) :   0.9339
B(  3-C , 11-H ) :   0.9395 B( 12-C , 13-H ) :   0.9166 B( 12-C , 14-H ) :   0.9184
B( 12-C , 15-O ) :   0.8312 B( 12-C , 16-C ) :   0.9071 B( 16-C , 17-C ) :   0.9112
B( 16-C , 20-O ) :   0.8416 B( 16-C , 21-H ) :   0.9230 B( 17-C , 18-C ) :   0.9118
B( 17-C , 22-O ) :   0.8917 B( 17-C , 23-H ) :   0.9174 B( 18-C , 19-C ) :   0.9404
B( 18-C , 24-H ) :   0.9368 B( 18-C , 25-H ) :   0.9316 B( 19-C , 20-O ) :   0.8437
B( 19-C , 26-H ) :   0.9357 B( 19-C , 27-H ) :   0.9379 B( 22-O , 28-H ) :   0.7943

FINAL SINGLE POINT ENERGY      -652.860414283074

DIPOLE MOMENT
-------------
                                X             Y             Z
Electronic contribution:     -4.21575      -4.19676       1.88166
Nuclear contribution   :      5.10816       5.01762      -2.90789
                        -----------------------------------------
Total Dipole Moment    :      0.89241       0.82086      -1.02623
                        -----------------------------------------
Magnitude (a.u.)       :      1.58851
Magnitude (Debye)      :      4.03767

Rotational constants in cm-1:     0.051769     0.014051     0.013232
Rotational constants in MHz :  1551.988875   421.252847   396.691200

                             ****ORCA TERMINATED NORMALLY****
TOTAL RUN TIME: 0 days 0 hours 13 minutes 25 seconds 601 msec
