                         Program Version 4.2.0 -  RELEASE  -
|  1> # Test redundant internal optimization
|  2> #
|  3> ! RKS B3LYP  Opt TightSCF SmallPrint
|  4>
|  5> %basis
|  6>         Basis "6-31G"
|  7> end
|  8>
|  9> %geom
| 10> Constraints
| 11> { D 4  0  15  12  270.0   C } # D for Dihedral angle
| 12> { D 0  15  12  16  345.0   C } # D for Dihedral angle
| 13> { D 0  4  3  2   C } # D for Dihedral angle
| 14> { D 4  3  2  1   C } # D for Dihedral angle
| 15> { D 3  2  1  0   C } # D for Dihedral angle
| 16> { D 2  1  0  4   C } # D for Dihedral angle
| 17> { D 1  0  4  3   C } # D for Dihedral angle
| 18> { D 16  20  19  18   C } # D for Dihedral angle
| 19> { D 20  19  18  17   C } # D for Dihedral angle
| 20> { D 19  18  17  16   C } # D for Dihedral angle
| 21> { D 18  17  16  20   C } # D for Dihedral angle
| 22> { D 17  16  20  19   C } # D for Dihedral angle
| 23> { D 15  12  16  20   C } # D for Dihedral angle
| 24> end
| 25> end
| 26>
| 27>
| 28> #%pal
| 29> #nprocs 8
| 30> #end
| 31>
| 32> * xyz 0 1
| 33> C  -21.048   26.222   46.251
| 34> C  -20.361   27.558   45.944
| 35> C  -20.329   28.222   47.341
| 36> C  -20.110   27.022   48.296
| 37> O  -20.473   25.807   47.535
| 38> H  -20.833   25.428   45.533
| 39> H  -19.344   27.382   45.576
| 40> H  -20.898   28.157   45.201
| 41> H  -19.543   28.978   47.434
| 42> H  -21.289   28.710   47.548
| 43> H  -20.733   27.082   49.195
| 44> H  -19.064   26.913   48.597
| 45> C  -23.420   25.119   46.072
| 46> H  -23.799   24.702   47.014
| 47> H  -24.279   25.364   45.435
| 48> O  -22.586   26.394   46.375
| 49> C  -22.594   24.019   45.349
| 50> C  -21.465   23.493   46.242
| 51> C  -22.229   22.523   47.174
| 52> C  -23.318   21.928   46.246
| 53> O  -23.428   22.841   45.088
| 54> H  -22.265   24.399   44.380
| 55> O  -20.423   22.724   45.385
| 56> H  -20.943   24.286   46.789
| 57> H  -21.583   21.752   47.606
| 58> H  -22.687   23.079   48.002
| 59> H  -24.294   21.855   46.739
| 60> H  -23.044   20.944   45.858
| 61> H  -20.923   21.923   44.828
| 62> *
| 63>
| 64>                          ****END OF INPUT****
 Total Charge           Charge          ....    0
 Multiplicity           Mult            ....    1
 Number of Electrons    NEL             ....  102
FINAL SINGLE POINT ENERGY      -652.815908979167
FINAL SINGLE POINT ENERGY      -652.841532333963
FINAL SINGLE POINT ENERGY      -652.856325707425
FINAL SINGLE POINT ENERGY      -652.858297827721
FINAL SINGLE POINT ENERGY      -652.858741041062
FINAL SINGLE POINT ENERGY      -652.858784824181
                    ***********************HURRAY********************

CARTESIAN COORDINATES (ANGSTROEM)
---------------------------------
  C    -20.853723   26.283872   46.245037
  C    -20.395780   27.723286   45.998383
  C    -20.539292   28.349964   47.407800
  C    -20.158367   27.179973   48.344934
  O    -20.278876   25.947204   47.530279
  H    -20.477427   25.558997   45.523606
  H    -19.347925   27.718922   45.676749
  H    -21.001998   28.220311   45.239162
  H    -19.894546   29.222106   47.549604
  H    -21.577472   28.652331   47.570430
  H    -20.818182   27.094629   49.212360
  H    -19.119763   27.229828   48.685446
  C    -23.119870   25.133803   46.019622
  H    -23.556158   24.814718   46.973797
  H    -23.935093   25.488393   45.383366
  O    -22.289473   26.309620   46.291594
  C    -22.493151   23.904882   45.335898
  C    -21.390157   23.156441   46.105999
  C    -22.219752   22.357860   47.155058
  C    -23.508644   22.000731   46.371025
  O    -23.571798   22.916917   45.209170
  H    -22.161324   24.145005   44.321187
  O    -20.658268   22.281935   45.200941
  H    -20.637915   23.778388   46.582898
  H    -21.667814   21.477230   47.491750
  H    -22.430527   22.988392   48.023731
  H    -24.418680   22.121936   46.966657
  H    -23.487513   20.981015   45.973546
  H    -21.295512   21.787312   44.642973

 Multiplicity           Mult            ....    1
 Number of Electrons    NEL             ....  102
 Basis Dimension        Dim             ....  149

ORBITAL ENERGIES
----------------

  NO   OCC          E(Eh)            E(eV)
   0   2.0000     -19.147964      -521.0426
   1   2.0000     -19.141503      -520.8668
   2   2.0000     -19.140277      -520.8334
   3   2.0000     -19.137282      -520.7519
   4   2.0000     -10.279638      -279.7232
   5   2.0000     -10.238608      -278.6067
   6   2.0000     -10.236108      -278.5386
   7   2.0000     -10.232552      -278.4419
   8   2.0000     -10.230484      -278.3856
   9   2.0000     -10.225344      -278.2457
  10   2.0000     -10.186742      -277.1954
  11   2.0000     -10.183610      -277.1101
  12   2.0000     -10.183050      -277.0949
  13   2.0000      -1.052144       -28.6303
  14   2.0000      -1.038796       -28.2671
  15   2.0000      -1.006327       -27.3835
  16   2.0000      -0.992363       -27.0036
  17   2.0000      -0.787552       -21.4304
  18   2.0000      -0.775992       -21.1158
  19   2.0000      -0.766010       -20.8442
  20   2.0000      -0.736120       -20.0308
  21   2.0000      -0.674682       -18.3590
  22   2.0000      -0.606696       -16.5090
  23   2.0000      -0.602871       -16.4050
  24   2.0000      -0.595972       -16.2172
  25   2.0000      -0.573285       -15.5999
  26   2.0000      -0.523616       -14.2483
  27   2.0000      -0.520199       -14.1553
  28   2.0000      -0.498285       -13.5590
  29   2.0000      -0.479231       -13.0405
  30   2.0000      -0.466532       -12.6950
  31   2.0000      -0.459635       -12.5073
  32   2.0000      -0.452476       -12.3125
  33   2.0000      -0.430004       -11.7010
  34   2.0000      -0.424740       -11.5578
  35   2.0000      -0.417915       -11.3720
  36   2.0000      -0.400780       -10.9058
  37   2.0000      -0.392216       -10.6727
  38   2.0000      -0.373583       -10.1657
  39   2.0000      -0.367764       -10.0074
  40   2.0000      -0.363664        -9.8958
  41   2.0000      -0.354480        -9.6459
  42   2.0000      -0.346987        -9.4420
  43   2.0000      -0.331243        -9.0136
  44   2.0000      -0.322436        -8.7739
  45   2.0000      -0.308288        -8.3889
  46   2.0000      -0.304840        -8.2951
  47   2.0000      -0.271251        -7.3811
  48   2.0000      -0.268050        -7.2940
  49   2.0000      -0.248211        -6.7542
  50   2.0000      -0.245429        -6.6785
  51   0.0000       0.063862         1.7378
  52   0.0000       0.075019         2.0414
  53   0.0000       0.093232         2.5370
  54   0.0000       0.099843         2.7169
  55   0.0000       0.105167         2.8617

MULLIKEN ATOMIC CHARGES
-----------------------
   0 C :    0.267721
   1 C :   -0.249819
   2 C :   -0.297217
   3 C :    0.001902
   4 O :   -0.520805
   5 H :    0.158959
   6 H :    0.143858
   7 H :    0.154018
   8 H :    0.138928
   9 H :    0.163859
  10 H :    0.147381
  11 H :    0.143021
  12 C :    0.021882
  13 H :    0.136198
  14 H :    0.163931
  15 O :   -0.534214
  16 C :    0.018000
  17 C :    0.066554
  18 C :   -0.302685
  19 C :   -0.029568
  20 O :   -0.526333
  21 H :    0.158581
  22 O :   -0.605571
  23 H :    0.205513
  24 H :    0.162088
  25 H :    0.159128
  26 H :    0.147287
  27 H :    0.145373
  28 H :    0.362028
Sum of atomic charges:   -0.0000000

LOEWDIN ATOMIC CHARGES
----------------------
   0 C :    0.166073
   1 C :   -0.213285
   2 C :   -0.214920
   3 C :   -0.025583
   4 O :   -0.334921
   5 H :    0.103098
   6 H :    0.112692
   7 H :    0.122783
   8 H :    0.112707
   9 H :    0.120079
  10 H :    0.105341
  11 H :    0.102738
  12 C :   -0.036585
  13 H :    0.100127
  14 H :    0.118344
  15 O :   -0.330740
  16 C :    0.002106
  17 C :    0.026196
  18 C :   -0.239652
  19 C :   -0.039042
  20 O :   -0.325954
  21 H :    0.112124
  22 O :   -0.415599
  23 H :    0.136657
  24 H :    0.127057
  25 H :    0.120570
  26 H :    0.104413
  27 H :    0.102219
  28 H :    0.280961

  Mayer bond orders larger than 0.100000
B(  0-C ,  1-C ) :   0.9473 B(  0-C ,  4-O ) :   0.8879 B(  0-C ,  5-H ) :   0.9115
B(  0-C , 15-O ) :   0.8658 B(  1-C ,  2-C ) :   0.9577 B(  1-C ,  6-H ) :   0.9404
B(  1-C ,  7-H ) :   0.9379 B(  2-C ,  3-C ) :   0.9542 B(  2-C ,  8-H ) :   0.9458
B(  2-C ,  9-H ) :   0.9433 B(  3-C ,  4-O ) :   0.8306 B(  3-C , 10-H ) :   0.9361
B(  3-C , 11-H ) :   0.9404 B( 12-C , 13-H ) :   0.9264 B( 12-C , 14-H ) :   0.9275
B( 12-C , 15-O ) :   0.8311 B( 12-C , 16-C ) :   0.8926 B( 16-C , 17-C ) :   0.9013
B( 16-C , 20-O ) :   0.8298 B( 16-C , 21-H ) :   0.9236 B( 17-C , 18-C ) :   0.9107
B( 17-C , 22-O ) :   0.8780 B( 17-C , 23-H ) :   0.9009 B( 18-C , 19-C ) :   0.9420
B( 18-C , 24-H ) :   0.9376 B( 18-C , 25-H ) :   0.9325 B( 19-C , 20-O ) :   0.8349
B( 19-C , 26-H ) :   0.9359 B( 19-C , 27-H ) :   0.9381 B( 22-O , 28-H ) :   0.7961

FINAL SINGLE POINT ENERGY      -652.858788838007

DIPOLE MOMENT
-------------
                                X             Y             Z
Electronic contribution:     -0.73122      -2.91235      -2.95016
Nuclear contribution   :      0.57713       3.26969       3.33164
                        -----------------------------------------
Total Dipole Moment    :     -0.15409       0.35734       0.38148
                        -----------------------------------------
Magnitude (a.u.)       :      0.54494
Magnitude (Debye)      :      1.38513

Rotational constants in cm-1:     0.054970     0.014270     0.013508
Rotational constants in MHz :  1647.960110   427.806416   404.973155

                             ****ORCA TERMINATED NORMALLY****
TOTAL RUN TIME: 0 days 0 hours 21 minutes 50 seconds 556 msec
