                         Program Version 4.2.1 -  RELEASE  -
|  1> # Test redundant internal optimization
|  2> #
|  3> ! RKS B3LYP  Opt TightSCF SmallPrint
|  4>
|  5> %basis
|  6>         Basis "6-31G"
|  7> end
|  8>
|  9> %geom
| 10> Constraints
| 11> { D 4  0  19  14  45.0   C } # D for Dihedral angle
| 12> { D 0  19  14  12  75.0   C } # D for Dihedral angle
| 13> { D 0  4  3  2   C } # D for Dihedral angle
| 14> { D 4  3  2  1   C } # D for Dihedral angle
| 15> { D 3  2  1  0   C } # D for Dihedral angle
| 16> { D 2  1  0  4   C } # D for Dihedral angle
| 17> { D 1  0  4  3   C } # D for Dihedral angle
| 18> { D 14  15  16  17   C } # D for Dihedral angle
| 19> { D 15  16  17  12   C } # D for Dihedral angle
| 20> { D 16  17  12  14   C } # D for Dihedral angle
| 21> { D 17  12  14  15   C } # D for Dihedral angle
| 22> { D 12  14  15  16   C } # D for Dihedral angle
| 23> end
| 24> end
| 25>
| 26>
| 27> #%pal
| 28> #nprocs 8
| 29> #end
| 30>
| 31> * xyz 0 1
| 32> C  -21.048   26.222   46.251
| 33> C  -20.361   27.558   45.944
| 34> C  -20.329   28.222   47.341
| 35> C  -20.110   27.022   48.296
| 36> O  -20.473   25.807   47.535
| 37> H  -20.833   25.428   45.533
| 38> H  -19.344   27.382   45.576
| 39> H  -20.898   28.157   45.201
| 40> H  -19.543   28.978   47.434
| 41> H  -21.289   28.710   47.548
| 42> H  -20.733   27.082   49.195
| 43> H  -19.064   26.913   48.597
| 44> C  -22.618   28.591   47.375
| 45> H  -22.656   29.115   48.342
| 46> C  -22.896   27.093   47.540
| 47> C  -24.437   27.071   47.666
| 48> C  -24.883   28.214   46.720
| 49> O  -23.693   29.063   46.494
| 50> H  -21.674   28.825   46.879
| 51> O  -22.472   26.381   46.366
| 52> H  -22.392   26.656   48.409
| 53> H  -24.872   26.106   47.389
| 54> H  -24.734   27.288   48.699
| 55> H  -25.684   28.826   47.149
| 56> H  -25.205   27.845   45.741
| 57> *
| 58>
| 59>                          ****END OF INPUT****
 Total Charge           Charge          ....    0
 Multiplicity           Mult            ....    1
 Number of Electrons    NEL             ....   86
FINAL SINGLE POINT ENERGY      -538.223429651625
FINAL SINGLE POINT ENERGY      -538.278255247371
FINAL SINGLE POINT ENERGY      -538.316005783203
FINAL SINGLE POINT ENERGY      -538.343817214027
FINAL SINGLE POINT ENERGY      -538.364658197028
FINAL SINGLE POINT ENERGY      -538.379995700382
FINAL SINGLE POINT ENERGY      -538.391022971603
FINAL SINGLE POINT ENERGY      -538.398951138408
FINAL SINGLE POINT ENERGY      -538.404642134974
FINAL SINGLE POINT ENERGY      -538.408621283848
FINAL SINGLE POINT ENERGY      -538.420921403303
FINAL SINGLE POINT ENERGY      -538.420950143190
FINAL SINGLE POINT ENERGY      -538.420963975415
FINAL SINGLE POINT ENERGY      -538.420973280772
FINAL SINGLE POINT ENERGY      -538.420985460389
FINAL SINGLE POINT ENERGY      -538.421002340351
FINAL SINGLE POINT ENERGY      -538.421022955401
FINAL SINGLE POINT ENERGY      -538.421042843972
FINAL SINGLE POINT ENERGY      -538.421056467698
                    ***********************HURRAY********************

CARTESIAN COORDINATES (ANGSTROEM)
---------------------------------
  C    -21.087768   26.339880   46.461242
  C    -20.188275   27.450526   45.896593
  C    -19.723034   28.187085   47.191927
  C    -19.600452   27.020309   48.207463
  O    -20.380407   25.894930   47.641800
  H    -21.098794   25.477171   45.790179
  H    -19.337975   26.977081   45.396256
  H    -20.710725   28.098209   45.188642
  H    -18.762271   28.693878   47.053265
  H    -20.438718   28.939880   47.514616
  H    -19.994013   27.266357   49.198729
  H    -18.569787   26.669189   48.311985
  C    -23.115478   28.754297   47.735207
  H    -23.459702   29.122548   48.714383
  C    -23.193208   27.228769   47.716167
  C    -24.694723   26.998963   47.468751
  C    -25.089793   28.166558   46.533650
  O    -24.019411   29.182739   46.663146
  H    -22.149106   29.191898   47.511228
  O    -22.508663   26.547132   46.623528
  H    -22.854736   26.792965   48.665035
  H    -24.861391   26.016122   47.024104
  H    -25.235027   27.052202   48.420434
  H    -26.048044   28.620933   46.808202
  H    -25.119500   27.865379   45.483467

 Multiplicity           Mult            ....    1
 Number of Electrons    NEL             ....   86
 Basis Dimension        Dim             ....  127

ORBITAL ENERGIES
----------------

  NO   OCC          E(Eh)            E(eV)
   0   2.0000     -19.144846      -520.9577
   1   2.0000     -19.139083      -520.8009
   2   2.0000     -19.129124      -520.5299
   3   2.0000     -10.278332      -279.6876
   4   2.0000     -10.240908      -278.6693
   5   2.0000     -10.231230      -278.4059
   6   2.0000     -10.223575      -278.1976
   7   2.0000     -10.218679      -278.0644
   8   2.0000     -10.192530      -277.3529
   9   2.0000     -10.188638      -277.2469
  10   2.0000     -10.183110      -277.0965
  11   2.0000      -1.049967       -28.5710
  12   2.0000      -1.014339       -27.6016
  13   2.0000      -0.990077       -26.9414
  14   2.0000      -0.790942       -21.5226
  15   2.0000      -0.783491       -21.3199
  16   2.0000      -0.740266       -20.1437
  17   2.0000      -0.725015       -19.7287
  18   2.0000      -0.624282       -16.9876
  19   2.0000      -0.606170       -16.4947
  20   2.0000      -0.596415       -16.2293
  21   2.0000      -0.562807       -15.3147
  22   2.0000      -0.510923       -13.9029
  23   2.0000      -0.504293       -13.7225
  24   2.0000      -0.494697       -13.4614
  25   2.0000      -0.485062       -13.1992
  26   2.0000      -0.452981       -12.3262
  27   2.0000      -0.441013       -12.0006
  28   2.0000      -0.436771       -11.8851
  29   2.0000      -0.416091       -11.3224
  30   2.0000      -0.410469       -11.1694
  31   2.0000      -0.385470       -10.4892
  32   2.0000      -0.372583       -10.1385
  33   2.0000      -0.364462        -9.9175
  34   2.0000      -0.359127        -9.7723
  35   2.0000      -0.356907        -9.7119
  36   2.0000      -0.345229        -9.3942
  37   2.0000      -0.319167        -8.6850
  38   2.0000      -0.305074        -8.3015
  39   2.0000      -0.300916        -8.1884
  40   2.0000      -0.263272        -7.1640
  41   2.0000      -0.252285        -6.8650
  42   2.0000      -0.233821        -6.3626
  43   0.0000       0.071581         1.9478
  44   0.0000       0.090154         2.4532
  45   0.0000       0.092773         2.5245
  46   0.0000       0.105273         2.8646
  47   0.0000       0.115712         3.1487

MULLIKEN ATOMIC CHARGES
-----------------------
   0 C :    0.315095
   1 C :   -0.271100
   2 C :   -0.319945
   3 C :   -0.011783
   4 O :   -0.513118
   5 H :    0.164079
   6 H :    0.153643
   7 H :    0.162067
   8 H :    0.145955
   9 H :    0.149290
  10 H :    0.140405
  11 H :    0.149670
  12 C :   -0.012715
  13 H :    0.122496
  14 C :    0.086497
  15 C :   -0.291519
  16 C :    0.002741
  17 O :   -0.527089
  18 H :    0.157601
  19 O :   -0.538431
  20 H :    0.138557
  21 H :    0.168161
  22 H :    0.142076
  23 H :    0.132658
  24 H :    0.154706
Sum of atomic charges:   -0.0000000

LOEWDIN ATOMIC CHARGES
----------------------
   0 C :    0.180710
   1 C :   -0.226303
   2 C :   -0.225501
   3 C :   -0.033583
   4 O :   -0.322336
   5 H :    0.110662
   6 H :    0.121566
   7 H :    0.126432
   8 H :    0.116198
   9 H :    0.108766
  10 H :    0.100164
  11 H :    0.105254
  12 C :   -0.051927
  13 H :    0.092806
  14 C :    0.043529
  15 C :   -0.221226
  16 C :   -0.027822
  17 O :   -0.334593
  18 H :    0.112124
  19 O :   -0.326445
  20 H :    0.101948
  21 H :    0.131616
  22 H :    0.112239
  23 H :    0.097005
  24 H :    0.108718

  Mayer bond orders larger than 0.100000
B(  0-C ,  1-C ) :   0.9122 B(  0-C ,  4-O ) :   0.8956 B(  0-C ,  5-H ) :   0.9369
B(  0-C , 19-O ) :   0.8917 B(  1-C ,  2-C ) :   0.9574 B(  1-C ,  6-H ) :   0.9334
B(  1-C ,  7-H ) :   0.9345 B(  2-C ,  3-C ) :   0.9483 B(  2-C ,  8-H ) :   0.9442
B(  2-C ,  9-H ) :   0.9241 B(  3-C ,  4-O ) :   0.8427 B(  3-C , 10-H ) :   0.9345
B(  3-C , 11-H ) :   0.9391 B( 12-C , 13-H ) :   0.9089 B( 12-C , 14-C ) :   0.9087
B( 12-C , 17-O ) :   0.8676 B( 12-C , 18-H ) :   0.9129 B( 14-C , 15-C ) :   0.9568
B( 14-C , 19-O ) :   0.8271 B( 14-C , 20-H ) :   0.9205 B( 15-C , 16-C ) :   0.9459
B( 15-C , 21-H ) :   0.9355 B( 15-C , 22-H ) :   0.9424 B( 16-C , 17-O ) :   0.8526
B( 16-C , 23-H ) :   0.9339 B( 16-C , 24-H ) :   0.9367

FINAL SINGLE POINT ENERGY      -538.421062499353

DIPOLE MOMENT
-------------
                                X             Y             Z
Electronic contribution:     -0.95722      -2.28581      -1.04474
Nuclear contribution   :      1.34404       2.53081       1.51395
                        -----------------------------------------
Total Dipole Moment    :      0.38682       0.24500       0.46921
                        -----------------------------------------
Magnitude (a.u.)       :      0.65560
Magnitude (Debye)      :      1.66640

Rotational constants in cm-1:     0.074335     0.023157     0.021531
Rotational constants in MHz :  2228.510601   694.216837   645.482196

                             ****ORCA TERMINATED NORMALLY****
TOTAL RUN TIME: 0 days 0 hours 37 minutes 10 seconds 403 msec
