                         Program Version 4.2.1 -  RELEASE  -
|  1> # Test redundant internal optimization
|  2> #
|  3> ! RKS B3LYP  Opt TightSCF SmallPrint
|  4>
|  5> %basis
|  6>         Basis "6-31G"
|  7> end
|  8>
|  9> %geom
| 10> Constraints
| 11> { D 4  0  19  14  75.0   C } # D for Dihedral angle
| 12> { D 0  19  14  12  90.0   C } # D for Dihedral angle
| 13> { D 0  4  3  2   C } # D for Dihedral angle
| 14> { D 4  3  2  1   C } # D for Dihedral angle
| 15> { D 3  2  1  0   C } # D for Dihedral angle
| 16> { D 2  1  0  4   C } # D for Dihedral angle
| 17> { D 1  0  4  3   C } # D for Dihedral angle
| 18> { D 14  15  16  17   C } # D for Dihedral angle
| 19> { D 15  16  17  12   C } # D for Dihedral angle
| 20> { D 16  17  12  14   C } # D for Dihedral angle
| 21> { D 17  12  14  15   C } # D for Dihedral angle
| 22> { D 12  14  15  16   C } # D for Dihedral angle
| 23> end
| 24> end
| 25>
| 26>
| 27> #%pal
| 28> #nprocs 8
| 29> #end
| 30>
| 31> * xyz 0 1
| 32> C  -21.048   26.222   46.251
| 33> C  -20.361   27.558   45.944
| 34> C  -20.329   28.222   47.341
| 35> C  -20.110   27.022   48.296
| 36> O  -20.473   25.807   47.535
| 37> H  -20.833   25.428   45.533
| 38> H  -19.344   27.382   45.576
| 39> H  -20.898   28.157   45.201
| 40> H  -19.543   28.978   47.434
| 41> H  -21.289   28.710   47.548
| 42> H  -20.733   27.082   49.195
| 43> H  -19.064   26.913   48.597
| 44> C  -23.051   28.726   46.066
| 45> H  -23.076   29.698   46.583
| 46> C  -22.881   27.571   47.060
| 47> C  -24.318   27.416   47.610
| 48> C  -25.203   27.738   46.380
| 49> O  -24.339   28.458   45.418
| 50> H  -22.298   28.760   45.278
| 51> O  -22.472   26.381   46.366
| 52> H  -22.146   27.783   47.844
| 53> H  -24.513   26.417   48.014
| 54> H  -24.494   28.142   48.414
| 55> H  -26.061   28.370   46.634
| 56> H  -25.564   26.836   45.877
| 57> *
| 58>
| 59>                          ****END OF INPUT****
 Total Charge           Charge          ....    0
 Multiplicity           Mult            ....    1
 Number of Electrons    NEL             ....   86
FINAL SINGLE POINT ENERGY      -538.375454071159
FINAL SINGLE POINT ENERGY      -538.421447905611
FINAL SINGLE POINT ENERGY      -538.425229116366
FINAL SINGLE POINT ENERGY      -538.425932269038
FINAL SINGLE POINT ENERGY      -538.426034992372
FINAL SINGLE POINT ENERGY      -538.426086879106
FINAL SINGLE POINT ENERGY      -538.426092420127
                    ***********************HURRAY********************

CARTESIAN COORDINATES (ANGSTROEM)
---------------------------------
  C    -21.119481   26.328051   46.409357
  C    -20.195196   27.458246   45.931388
  C    -19.865813   28.194868   47.263026
  C    -19.811789   27.029436   48.284639
  O    -20.513751   25.889739   47.650098
  H    -21.096303   25.459463   45.749875
  H    -19.289885   27.002230   45.517430
  H    -20.642017   28.093964   45.165387
  H    -18.915860   28.736037   47.213259
  H    -20.643477   28.920454   47.517417
  H    -20.299856   27.266304   49.235315
  H    -18.787023   26.702969   48.484747
  C    -23.326869   28.910840   46.222553
  H    -23.553711   29.821385   46.799103
  C    -23.114969   27.732516   47.173552
  C    -24.566201   27.343798   47.515305
  C    -25.330116   27.615033   46.198662
  O    -24.465093   28.511663   45.395722
  H    -22.494955   29.111692   45.547994
  O    -22.538087   26.562546   46.515202
  H    -22.544148   27.994897   48.070788
  H    -24.614213   26.300541   47.832882
  H    -24.937544   27.979104   48.327815
  H    -26.295873   28.105106   46.362814
  H    -25.478771   26.706118   45.610669

 Multiplicity           Mult            ....    1
 Number of Electrons    NEL             ....   86
 Basis Dimension        Dim             ....  127

ORBITAL ENERGIES
----------------

  NO   OCC          E(Eh)            E(eV)
   0   2.0000     -19.142218      -520.8862
   1   2.0000     -19.141212      -520.8589
   2   2.0000     -19.128917      -520.5243
   3   2.0000     -10.278598      -279.6949
   4   2.0000     -10.242725      -278.7187
   5   2.0000     -10.231157      -278.4039
   6   2.0000     -10.225191      -278.2416
   7   2.0000     -10.218647      -278.0635
   8   2.0000     -10.196470      -277.4601
   9   2.0000     -10.193159      -277.3700
  10   2.0000     -10.183776      -277.1146
  11   2.0000      -1.052017       -28.6269
  12   2.0000      -1.014947       -27.6181
  13   2.0000      -0.990928       -26.9645
  14   2.0000      -0.791856       -21.5475
  15   2.0000      -0.786579       -21.4039
  16   2.0000      -0.739807       -20.1312
  17   2.0000      -0.726348       -19.7649
  18   2.0000      -0.622402       -16.9364
  19   2.0000      -0.606645       -16.5076
  20   2.0000      -0.598051       -16.2738
  21   2.0000      -0.566971       -15.4281
  22   2.0000      -0.520466       -14.1626
  23   2.0000      -0.504938       -13.7401
  24   2.0000      -0.489679       -13.3248
  25   2.0000      -0.484770       -13.1913
  26   2.0000      -0.453525       -12.3410
  27   2.0000      -0.443026       -12.0554
  28   2.0000      -0.434859       -11.8331
  29   2.0000      -0.417975       -11.3737
  30   2.0000      -0.412020       -11.2116
  31   2.0000      -0.389939       -10.6108
  32   2.0000      -0.371411       -10.1066
  33   2.0000      -0.369895       -10.0654
  34   2.0000      -0.364128        -9.9084
  35   2.0000      -0.362663        -9.8686
  36   2.0000      -0.343007        -9.3337
  37   2.0000      -0.315967        -8.5979
  38   2.0000      -0.306055        -8.3282
  39   2.0000      -0.299430        -8.1479
  40   2.0000      -0.267774        -7.2865
  41   2.0000      -0.253036        -6.8855
  42   2.0000      -0.234578        -6.3832
  43   0.0000       0.065469         1.7815
  44   0.0000       0.087306         2.3757
  45   0.0000       0.093411         2.5419
  46   0.0000       0.102306         2.7839
  47   0.0000       0.113668         3.0931

MULLIKEN ATOMIC CHARGES
-----------------------
   0 C :    0.303905
   1 C :   -0.285757
   2 C :   -0.317667
   3 C :   -0.009092
   4 O :   -0.502824
   5 H :    0.167307
   6 H :    0.157028
   7 H :    0.154908
   8 H :    0.147353
   9 H :    0.145602
  10 H :    0.142545
  11 H :    0.147547
  12 C :    0.005132
  13 H :    0.119890
  14 C :    0.055413
  15 C :   -0.284964
  16 C :   -0.002756
  17 O :   -0.520418
  18 H :    0.154174
  19 O :   -0.512645
  20 H :    0.131980
  21 H :    0.170121
  22 H :    0.138363
  23 H :    0.135387
  24 H :    0.159465
Sum of atomic charges:   -0.0000000

LOEWDIN ATOMIC CHARGES
----------------------
   0 C :    0.175837
   1 C :   -0.229826
   2 C :   -0.224776
   3 C :   -0.034034
   4 O :   -0.321620
   5 H :    0.114475
   6 H :    0.122933
   7 H :    0.119051
   8 H :    0.116761
   9 H :    0.106836
  10 H :    0.100684
  11 H :    0.104796
  12 C :   -0.046568
  13 H :    0.090180
  14 C :    0.034622
  15 C :   -0.222119
  16 C :   -0.027700
  17 O :   -0.330218
  18 H :    0.112205
  19 O :   -0.311920
  20 H :    0.098178
  21 H :    0.132400
  22 H :    0.110603
  23 H :    0.098124
  24 H :    0.111095

  Mayer bond orders larger than 0.100000
B(  0-C ,  1-C ) :   0.9171 B(  0-C ,  4-O ) :   0.8980 B(  0-C ,  5-H ) :   0.9356
B(  0-C , 19-O ) :   0.9093 B(  1-C ,  2-C ) :   0.9543 B(  1-C ,  6-H ) :   0.9337
B(  1-C ,  7-H ) :   0.9292 B(  2-C ,  3-C ) :   0.9455 B(  2-C ,  8-H ) :   0.9451
B(  2-C ,  9-H ) :   0.9408 B(  3-C ,  4-O ) :   0.8497 B(  3-C , 10-H ) :   0.9332
B(  3-C , 11-H ) :   0.9383 B( 12-C , 13-H ) :   0.9093 B( 12-C , 14-C ) :   0.9103
B( 12-C , 17-O ) :   0.8778 B( 12-C , 18-H ) :   0.9274 B( 14-C , 15-C ) :   0.9560
B( 14-C , 19-O ) :   0.8308 B( 14-C , 20-H ) :   0.9141 B( 15-C , 16-C ) :   0.9478
B( 15-C , 21-H ) :   0.9358 B( 15-C , 22-H ) :   0.9425 B( 16-C , 17-O ) :   0.8492
B( 16-C , 23-H ) :   0.9333 B( 16-C , 24-H ) :   0.9358

FINAL SINGLE POINT ENERGY      -538.426093106407

DIPOLE MOMENT
-------------
                                X             Y             Z
Electronic contribution:     -1.34125      -3.31996      -1.72849
Nuclear contribution   :      1.96930       4.14509       2.41653
                        -----------------------------------------
Total Dipole Moment    :      0.62805       0.82513       0.68804
                        -----------------------------------------
Magnitude (a.u.)       :      1.24446
Magnitude (Debye)      :      3.16317

Rotational constants in cm-1:     0.079214     0.022435     0.020985
Rotational constants in MHz :  2374.780078   672.585910   629.126553

                             ****ORCA TERMINATED NORMALLY****
TOTAL RUN TIME: 0 days 0 hours 8 minutes 48 seconds 814 msec
