                         Program Version 4.2.1 -  RELEASE  -
|  1> # Test redundant internal optimization
|  2> #
|  3> ! RKS B3LYP  Opt TightSCF SmallPrint
|  4>
|  5> %basis
|  6>         Basis "6-31G"
|  7> end
|  8>
|  9> %geom
| 10> Constraints
| 11> { D 4  0  19  14  270.0   C } # D for Dihedral angle
| 12> { D 0  19  14  12  180.0   C } # D for Dihedral angle
| 13> { D 0  4  3  2   C } # D for Dihedral angle
| 14> { D 4  3  2  1   C } # D for Dihedral angle
| 15> { D 3  2  1  0   C } # D for Dihedral angle
| 16> { D 2  1  0  4   C } # D for Dihedral angle
| 17> { D 1  0  4  3   C } # D for Dihedral angle
| 18> { D 14  15  16  17   C } # D for Dihedral angle
| 19> { D 15  16  17  12   C } # D for Dihedral angle
| 20> { D 16  17  12  14   C } # D for Dihedral angle
| 21> { D 17  12  14  15   C } # D for Dihedral angle
| 22> { D 12  14  15  16   C } # D for Dihedral angle
| 23> end
| 24> end
| 25>
| 26>
| 27> #%pal
| 28> #nprocs 8
| 29> #end
| 30>
| 31> * xyz 0 1
| 32> C  -21.048   26.222   46.251
| 33> C  -20.361   27.558   45.944
| 34> C  -20.329   28.222   47.341
| 35> C  -20.110   27.022   48.296
| 36> O  -20.473   25.807   47.535
| 37> H  -20.833   25.428   45.533
| 38> H  -19.344   27.382   45.576
| 39> H  -20.898   28.157   45.201
| 40> H  -19.543   28.978   47.434
| 41> H  -21.289   28.710   47.548
| 42> H  -20.733   27.082   49.195
| 43> H  -19.064   26.913   48.597
| 44> C  -24.725   25.471   46.234
| 45> H  -25.302   24.535   46.310
| 46> C  -23.226   25.191   46.082
| 47> C  -23.124   24.824   44.584
| 48> C  -24.183   25.743   43.924
| 49> O  -25.083   26.193   45.008
| 50> H  -24.983   26.119   47.073
| 51> O  -22.472   26.381   46.366
| 52> H  -22.869   24.391   46.741
| 53> H  -22.121   24.982   44.174
| 54> H  -23.383   23.768   44.435
| 55> H  -24.773   25.224   43.160
| 56> H  -23.740   26.640   43.480
| 57> *
| 58>
| 59>                          ****END OF INPUT****
 Total Charge           Charge          ....    0
 Multiplicity           Mult            ....    1
 Number of Electrons    NEL             ....   86
FINAL SINGLE POINT ENERGY      -538.432606615788
FINAL SINGLE POINT ENERGY      -538.435508369404
FINAL SINGLE POINT ENERGY      -538.435824294238
FINAL SINGLE POINT ENERGY      -538.435853361318
FINAL SINGLE POINT ENERGY      -538.435860554137
                    ***********************HURRAY********************

CARTESIAN COORDINATES (ANGSTROEM)
---------------------------------
  C    -20.961452   26.199856   46.222236
  C    -20.389245   27.594545   45.963277
  C    -20.421970   28.218431   47.378418
  C    -20.109238   27.015257   48.296674
  O    -20.368868   25.801820   47.483100
  H    -20.684912   25.430685   45.497441
  H    -19.359423   27.502641   45.598870
  H    -20.980242   28.150689   45.233026
  H    -19.699502   29.031501   47.497518
  H    -21.423031   28.609226   47.581876
  H    -20.739510   26.983971   49.189131
  H    -19.057630   26.972019   48.596287
  C    -24.661068   25.569833   46.238159
  H    -25.307188   24.689254   46.364917
  C    -23.203808   25.149394   46.052804
  C    -23.182611   24.742345   44.568341
  C    -24.169259   25.736976   43.911672
  O    -24.990036   26.293259   45.007406
  H    -24.795453   26.258080   47.073143
  O    -22.392919   26.334676   46.329801
  H    -22.902830   24.335821   46.724315
  H    -22.185464   24.781675   44.121594
  H    -23.542126   23.710149   44.478901
  H    -24.823884   25.253165   43.178146
  H    -23.657331   26.577732   43.434948

 Multiplicity           Mult            ....    1
 Number of Electrons    NEL             ....   86
 Basis Dimension        Dim             ....  127

ORBITAL ENERGIES
----------------

  NO   OCC          E(Eh)            E(eV)
   0   2.0000     -19.142263      -520.8875
   1   2.0000     -19.135858      -520.7132
   2   2.0000     -19.128112      -520.5024
   3   2.0000     -10.277064      -279.6531
   4   2.0000     -10.240084      -278.6468
   5   2.0000     -10.222377      -278.1650
   6   2.0000     -10.221977      -278.1541
   7   2.0000     -10.221293      -278.1355
   8   2.0000     -10.190241      -277.2906
   9   2.0000     -10.182896      -277.0907
  10   2.0000     -10.182029      -277.0671
  11   2.0000      -1.052408       -28.6375
  12   2.0000      -1.013585       -27.5810
  13   2.0000      -0.988450       -26.8971
  14   2.0000      -0.790970       -21.5234
  15   2.0000      -0.775603       -21.1052
  16   2.0000      -0.743862       -20.2415
  17   2.0000      -0.718248       -19.5445
  18   2.0000      -0.611158       -16.6304
  19   2.0000      -0.599676       -16.3180
  20   2.0000      -0.594548       -16.1785
  21   2.0000      -0.570696       -15.5294
  22   2.0000      -0.525627       -14.3030
  23   2.0000      -0.500437       -13.6176
  24   2.0000      -0.484425       -13.1819
  25   2.0000      -0.476961       -12.9788
  26   2.0000      -0.456499       -12.4220
  27   2.0000      -0.436764       -11.8850
  28   2.0000      -0.426566       -11.6075
  29   2.0000      -0.419452       -11.4139
  30   2.0000      -0.399832       -10.8800
  31   2.0000      -0.382406       -10.4058
  32   2.0000      -0.378554       -10.3010
  33   2.0000      -0.366732        -9.9793
  34   2.0000      -0.359352        -9.7785
  35   2.0000      -0.353396        -9.6164
  36   2.0000      -0.342471        -9.3191
  37   2.0000      -0.322263        -8.7692
  38   2.0000      -0.302670        -8.2361
  39   2.0000      -0.296859        -8.0779
  40   2.0000      -0.268298        -7.3007
  41   2.0000      -0.247541        -6.7359
  42   2.0000      -0.234409        -6.3786
  43   0.0000       0.078806         2.1444
  44   0.0000       0.094921         2.5829
  45   0.0000       0.100933         2.7465
  46   0.0000       0.111959         3.0465
  47   0.0000       0.117374         3.1939

MULLIKEN ATOMIC CHARGES
-----------------------
   0 C :    0.284367
   1 C :   -0.256194
   2 C :   -0.298602
   3 C :   -0.001179
   4 O :   -0.512728
   5 H :    0.137358
   6 H :    0.141767
   7 H :    0.155660
   8 H :    0.139585
   9 H :    0.166187
  10 H :    0.147213
  11 H :    0.139941
  12 C :   -0.000055
  13 H :    0.126854
  14 C :    0.070744
  15 C :   -0.310262
  16 C :    0.010422
  17 O :   -0.520147
  18 H :    0.168363
  19 O :   -0.514199
  20 H :    0.147004
  21 H :    0.150117
  22 H :    0.145714
  23 H :    0.135702
  24 H :    0.146369
Sum of atomic charges:   -0.0000000

LOEWDIN ATOMIC CHARGES
----------------------
   0 C :    0.170304
   1 C :   -0.216056
   2 C :   -0.215764
   3 C :   -0.027259
   4 O :   -0.329832
   5 H :    0.095419
   6 H :    0.112038
   7 H :    0.123203
   8 H :    0.112851
   9 H :    0.121046
  10 H :    0.105442
  11 H :    0.101261
  12 C :   -0.032794
  13 H :    0.092634
  14 C :    0.037893
  15 C :   -0.238827
  16 C :   -0.027083
  17 O :   -0.329325
  18 H :    0.123854
  19 O :   -0.320143
  20 H :    0.105450
  21 H :    0.117112
  22 H :    0.115425
  23 H :    0.098605
  24 H :    0.104544

  Mayer bond orders larger than 0.100000
B(  0-C ,  1-C ) :   0.9477 B(  0-C ,  4-O ) :   0.9102 B(  0-C ,  5-H ) :   0.9143
B(  0-C , 19-O ) :   0.8601 B(  1-C ,  2-C ) :   0.9579 B(  1-C ,  6-H ) :   0.9402
B(  1-C ,  7-H ) :   0.9361 B(  2-C ,  3-C ) :   0.9547 B(  2-C ,  8-H ) :   0.9453
B(  2-C ,  9-H ) :   0.9434 B(  3-C ,  4-O ) :   0.8390 B(  3-C , 10-H ) :   0.9356
B(  3-C , 11-H ) :   0.9403 B( 12-C , 13-H ) :   0.9163 B( 12-C , 14-C ) :   0.9372
B( 12-C , 17-O ) :   0.8691 B( 12-C , 18-H ) :   0.9303 B( 14-C , 15-C ) :   0.9337
B( 14-C , 19-O ) :   0.8312 B( 14-C , 20-H ) :   0.9189 B( 15-C , 16-C ) :   0.9406
B( 15-C , 21-H ) :   0.9338 B( 15-C , 22-H ) :   0.9369 B( 16-C , 17-O ) :   0.8620
B( 16-C , 23-H ) :   0.9334 B( 16-C , 24-H ) :   0.9369

FINAL SINGLE POINT ENERGY      -538.435861227921

DIPOLE MOMENT
-------------
                                X             Y             Z
Electronic contribution:     -1.76713      -1.12411       0.96401
Nuclear contribution   :      2.41864       0.86725      -1.22615
                        -----------------------------------------
Total Dipole Moment    :      0.65151      -0.25687      -0.26214
                        -----------------------------------------
Magnitude (a.u.)       :      0.74778
Magnitude (Debye)      :      1.90069

Rotational constants in cm-1:     0.082841     0.019902     0.019691
Rotational constants in MHz :  2483.519624   596.644298   590.323238

                             ****ORCA TERMINATED NORMALLY****
TOTAL RUN TIME: 0 days 0 hours 5 minutes 37 seconds 973 msec
