                         Program Version 4.2.0 -  RELEASE  -
|  1> # Test redundant internal optimization
|  2> #
|  3> ! RKS B3LYP  Opt TightSCF SmallPrint
|  4>
|  5> %basis
|  6>         Basis "6-31G"
|  7> end
|  8>
|  9> %geom
| 10> Constraints
| 11> { D 4  0  15  12  60.0   C } # D for Dihedral angle
| 12> { D 0  15  12  16  195.0   C } # D for Dihedral angle
| 13> { D 0  4  3  2   C } # D for Dihedral angle
| 14> { D 4  3  2  1   C } # D for Dihedral angle
| 15> { D 3  2  1  0   C } # D for Dihedral angle
| 16> { D 2  1  0  4   C } # D for Dihedral angle
| 17> { D 1  0  4  3   C } # D for Dihedral angle
| 18> { D 16  20  19  18   C } # D for Dihedral angle
| 19> { D 20  19  18  17   C } # D for Dihedral angle
| 20> { D 19  18  17  16   C } # D for Dihedral angle
| 21> { D 18  17  16  20   C } # D for Dihedral angle
| 22> { D 17  16  20  19   C } # D for Dihedral angle
| 23> { D 15  12  16  20   C } # D for Dihedral angle
| 24> end
| 25> end
| 26>
| 27>
| 28> #%pal
| 29> #nprocs 8
| 30> #end
| 31>
| 32> * xyz 0 1
| 33> C  -21.048   26.222   46.251
| 34> C  -20.361   27.558   45.944
| 35> C  -20.329   28.222   47.341
| 36> C  -20.110   27.022   48.296
| 37> O  -20.473   25.807   47.535
| 38> H  -20.833   25.428   45.533
| 39> H  -19.344   27.382   45.576
| 40> H  -20.898   28.157   45.201
| 41> H  -19.543   28.978   47.434
| 42> H  -21.289   28.710   47.548
| 43> H  -20.733   27.082   49.195
| 44> H  -19.064   26.913   48.597
| 45> C  -23.051   27.452   47.413
| 46> H  -22.470   27.332   48.337
| 47> H  -22.881   28.466   47.030
| 48> O  -22.586   26.394   46.375
| 49> C  -24.559   27.326   47.765
| 50> C  -25.432   27.393   46.506
| 51> C  -25.285   25.958   45.946
| 52> C  -25.195   25.089   47.225
| 53> O  -24.844   26.004   48.332
| 54> H  -24.811   28.063   48.529
| 55> H  -26.473   27.596   46.782
| 56> O  -24.970   28.482   45.501
| 57> H  -26.120   25.667   45.301
| 58> H  -24.363   25.876   45.358
| 59> H  -24.431   24.307   47.149
| 60> H  -26.152   24.624   47.482
| 61> H  -23.929   28.299   45.211
| 62> *
| 63>
| 64>                          ****END OF INPUT****
 Total Charge           Charge          ....    0
 Multiplicity           Mult            ....    1
 Number of Electrons    NEL             ....  102
FINAL SINGLE POINT ENERGY      -652.816535749814
FINAL SINGLE POINT ENERGY      -652.843299577801
FINAL SINGLE POINT ENERGY      -652.856137246093
FINAL SINGLE POINT ENERGY      -652.858656950726
FINAL SINGLE POINT ENERGY      -652.859043040190
FINAL SINGLE POINT ENERGY      -652.859102067729
FINAL SINGLE POINT ENERGY      -652.859107049631
                    ***********************HURRAY********************

CARTESIAN COORDINATES (ANGSTROEM)
---------------------------------
  C    -21.149951   26.349260   46.444281
  C    -20.328519   27.561882   45.985000
  C    -20.025413   28.279759   47.332700
  C    -19.856514   27.092719   48.314050
  O    -20.485924   25.921618   47.651848
  H    -21.093680   25.506588   45.753691
  H    -19.404028   27.203622   45.520529
  H    -20.861362   28.190287   45.265842
  H    -19.120907   28.893618   47.280158
  H    -20.851781   28.932007   47.625678
  H    -20.340031   27.255564   49.281519
  H    -18.806539   26.834356   48.479039
  C    -23.130414   27.494978   47.514534
  H    -22.630411   27.385422   48.483062
  H    -23.003746   28.523269   47.150381
  O    -22.579319   26.532492   46.567954
  C    -24.621846   27.237792   47.718688
  C    -25.485255   27.346393   46.449652
  C    -25.352503   25.914598   45.845510
  C    -25.286184   25.023144   47.104146
  O    -24.930536   25.916036   48.237894
  H    -24.955375   27.952963   48.480999
  H    -26.519298   27.569626   46.720414
  O    -25.090849   28.413612   45.550700
  H    -26.195478   25.664660   45.194205
  H    -24.421687   25.853093   45.277822
  H    -24.527243   24.240187   47.027399
  H    -26.251888   24.571271   47.350546
  H    -24.270317   28.148183   45.084760

 Multiplicity           Mult            ....    1
 Number of Electrons    NEL             ....  102
 Basis Dimension        Dim             ....  149

ORBITAL ENERGIES
----------------

  NO   OCC          E(Eh)            E(eV)
   0   2.0000     -19.152560      -521.1676
   1   2.0000     -19.148124      -521.0469
   2   2.0000     -19.139353      -520.8083
   3   2.0000     -19.130244      -520.5604
   4   2.0000     -10.285178      -279.8739
   5   2.0000     -10.234533      -278.4958
   6   2.0000     -10.234351      -278.4909
   7   2.0000     -10.232105      -278.4297
   8   2.0000     -10.229338      -278.3544
   9   2.0000     -10.217537      -278.0333
  10   2.0000     -10.197810      -277.4965
  11   2.0000     -10.196692      -277.4661
  12   2.0000     -10.176730      -276.9229
  13   2.0000      -1.059028       -28.8176
  14   2.0000      -1.025737       -27.9117
  15   2.0000      -1.008276       -27.4366
  16   2.0000      -0.999587       -27.2001
  17   2.0000      -0.794081       -21.6080
  18   2.0000      -0.776430       -21.1277
  19   2.0000      -0.764730       -20.8094
  20   2.0000      -0.735530       -20.0148
  21   2.0000      -0.680035       -18.5047
  22   2.0000      -0.609518       -16.5858
  23   2.0000      -0.603619       -16.4253
  24   2.0000      -0.599184       -16.3046
  25   2.0000      -0.563234       -15.3264
  26   2.0000      -0.525915       -14.3109
  27   2.0000      -0.512608       -13.9488
  28   2.0000      -0.502401       -13.6710
  29   2.0000      -0.487494       -13.2654
  30   2.0000      -0.476200       -12.9581
  31   2.0000      -0.458757       -12.4834
  32   2.0000      -0.439673       -11.9641
  33   2.0000      -0.433112       -11.7856
  34   2.0000      -0.425141       -11.5687
  35   2.0000      -0.417797       -11.3688
  36   2.0000      -0.402817       -10.9612
  37   2.0000      -0.395893       -10.7728
  38   2.0000      -0.386464       -10.5162
  39   2.0000      -0.371584       -10.1113
  40   2.0000      -0.366436        -9.9712
  41   2.0000      -0.359163        -9.7733
  42   2.0000      -0.345209        -9.3936
  43   2.0000      -0.323979        -8.8159
  44   2.0000      -0.322307        -8.7704
  45   2.0000      -0.311098        -8.4654
  46   2.0000      -0.304794        -8.2939
  47   2.0000      -0.272437        -7.4134
  48   2.0000      -0.260939        -7.1005
  49   2.0000      -0.258955        -7.0465
  50   2.0000      -0.236037        -6.4229
  51   0.0000       0.057232         1.5574
  52   0.0000       0.081093         2.2066
  53   0.0000       0.090625         2.4660
  54   0.0000       0.094417         2.5692
  55   0.0000       0.099281         2.7016

MULLIKEN ATOMIC CHARGES
-----------------------
   0 C :    0.304766
   1 C :   -0.275513
   2 C :   -0.313988
   3 C :   -0.015045
   4 O :   -0.500697
   5 H :    0.163496
   6 H :    0.156977
   7 H :    0.144276
   8 H :    0.148705
   9 H :    0.151199
  10 H :    0.149851
  11 H :    0.150373
  12 C :   -0.022796
  13 H :    0.158763
  14 H :    0.134643
  15 O :   -0.535256
  16 C :    0.088466
  17 C :    0.084793
  18 C :   -0.312358
  19 C :   -0.000085
  20 O :   -0.517502
  21 H :    0.148524
  22 H :    0.160351
  23 O :   -0.608176
  24 H :    0.142403
  25 H :    0.163805
  26 H :    0.152756
  27 H :    0.137441
  28 H :    0.359827
Sum of atomic charges:   -0.0000000

LOEWDIN ATOMIC CHARGES
----------------------
   0 C :    0.175120
   1 C :   -0.228971
   2 C :   -0.224087
   3 C :   -0.033414
   4 O :   -0.315380
   5 H :    0.112416
   6 H :    0.122218
   7 H :    0.116129
   8 H :    0.117536
   9 H :    0.111321
  10 H :    0.104251
  11 H :    0.106204
  12 C :   -0.052352
  13 H :    0.111445
  14 H :    0.096110
  15 O :   -0.328077
  16 C :    0.020077
  17 C :    0.036813
  18 C :   -0.242667
  19 C :   -0.023418
  20 O :   -0.319636
  21 H :    0.113569
  22 H :    0.115559
  23 O :   -0.413595
  24 H :    0.113944
  25 H :    0.121276
  26 H :    0.108640
  27 H :    0.099508
  28 H :    0.279461

  Mayer bond orders larger than 0.100000
B(  0-C ,  1-C ) :   0.9180 B(  0-C ,  4-O ) :   0.9132 B(  0-C ,  5-H ) :   0.9369
B(  0-C , 15-O ) :   0.8822 B(  1-C ,  2-C ) :   0.9555 B(  1-C ,  6-H ) :   0.9350
B(  1-C ,  7-H ) :   0.9378 B(  2-C ,  3-C ) :   0.9479 B(  2-C ,  8-H ) :   0.9449
B(  2-C ,  9-H ) :   0.9397 B(  3-C ,  4-O ) :   0.8399 B(  3-C , 10-H ) :   0.9313
B(  3-C , 11-H ) :   0.9387 B( 12-C , 13-H ) :   0.9144 B( 12-C , 14-H ) :   0.8982
B( 12-C , 15-O ) :   0.8270 B( 12-C , 16-C ) :   0.9084 B( 16-C , 17-C ) :   0.8876
B( 16-C , 20-O ) :   0.8895 B( 16-C , 21-H ) :   0.9288 B( 17-C , 18-C ) :   0.9339
B( 17-C , 22-H ) :   0.9363 B( 17-C , 23-O ) :   0.8969 B( 18-C , 19-C ) :   0.9472
B( 18-C , 24-H ) :   0.9411 B( 18-C , 25-H ) :   0.9267 B( 19-C , 20-O ) :   0.8362
B( 19-C , 26-H ) :   0.9317 B( 19-C , 27-H ) :   0.9382 B( 23-O , 28-H ) :   0.7940

FINAL SINGLE POINT ENERGY      -652.859105717897

DIPOLE MOMENT
-------------
                                X             Y             Z
Electronic contribution:     -2.80479      -2.24167       0.93975
Nuclear contribution   :      3.74982       2.83404      -1.46585
                        -----------------------------------------
Total Dipole Moment    :      0.94504       0.59237      -0.52610
                        -----------------------------------------
Magnitude (a.u.)       :      1.23320
Magnitude (Debye)      :      3.13453

Rotational constants in cm-1:     0.049453     0.015773     0.014385
Rotational constants in MHz :  1482.557004   472.847662   431.264011

                             ****ORCA TERMINATED NORMALLY****
TOTAL RUN TIME: 0 days 0 hours 31 minutes 0 seconds 420 msec
