                         Program Version 4.2.0 -  RELEASE  -
|  1> # Test redundant internal optimization
|  2> #
|  3> ! RKS B3LYP  Opt TightSCF SmallPrint
|  4>
|  5> %basis
|  6>         Basis "6-31G"
|  7> end
|  8>
|  9> %geom
| 10> Constraints
| 11> { D 4  0  15  12  225.0   C } # D for Dihedral angle
| 12> { D 0  15  12  16  285.0   C } # D for Dihedral angle
| 13> { D 0  4  3  2   C } # D for Dihedral angle
| 14> { D 4  3  2  1   C } # D for Dihedral angle
| 15> { D 3  2  1  0   C } # D for Dihedral angle
| 16> { D 2  1  0  4   C } # D for Dihedral angle
| 17> { D 1  0  4  3   C } # D for Dihedral angle
| 18> { D 16  20  19  18   C } # D for Dihedral angle
| 19> { D 20  19  18  17   C } # D for Dihedral angle
| 20> { D 19  18  17  16   C } # D for Dihedral angle
| 21> { D 18  17  16  20   C } # D for Dihedral angle
| 22> { D 17  16  20  19   C } # D for Dihedral angle
| 23> { D 15  12  16  20   C } # D for Dihedral angle
| 24> end
| 25> end
| 26>
| 27>
| 28> #%pal
| 29> #nprocs 8
| 30> #end
| 31>
| 32> * xyz 0 1
| 33> C  -21.048   26.222   46.251
| 34> C  -20.361   27.558   45.944
| 35> C  -20.329   28.222   47.341
| 36> C  -20.110   27.022   48.296
| 37> O  -20.473   25.807   47.535
| 38> H  -20.833   25.428   45.533
| 39> H  -19.344   27.382   45.576
| 40> H  -20.898   28.157   45.201
| 41> H  -19.543   28.978   47.434
| 42> H  -21.289   28.710   47.548
| 43> H  -20.733   27.082   49.195
| 44> H  -19.064   26.913   48.597
| 45> C  -23.415   25.773   45.218
| 46> H  -23.038   24.766   45.002
| 47> H  -24.472   25.689   45.505
| 48> O  -22.586   26.394   46.375
| 49> C  -23.346   26.611   43.912
| 50> C  -21.922   26.639   43.344
| 51> C  -21.836   25.261   42.646
| 52> C  -23.274   25.049   42.107
| 53> O  -24.144   25.981   42.855
| 54> H  -23.779   27.596   44.095
| 55> O  -21.785   27.788   42.307
| 56> H  -21.154   26.776   44.112
| 57> H  -21.085   25.234   41.851
| 58> H  -21.578   24.485   43.377
| 59> H  -23.631   24.025   42.258
| 60> H  -23.364   25.302   41.048
| 61> H  -22.546   27.672   41.525
| 62> *
| 63>
| 64>                          ****END OF INPUT****
 Total Charge           Charge          ....    0
 Multiplicity           Mult            ....    1
 Number of Electrons    NEL             ....  102
FINAL SINGLE POINT ENERGY      -652.822836549366
FINAL SINGLE POINT ENERGY      -652.847042015188
FINAL SINGLE POINT ENERGY      -652.854524666891
FINAL SINGLE POINT ENERGY      -652.856488380646
FINAL SINGLE POINT ENERGY      -652.856803953536
FINAL SINGLE POINT ENERGY      -652.856848219094
                    ***********************HURRAY********************

CARTESIAN COORDINATES (ANGSTROEM)
---------------------------------
  C    -20.953515   26.217640   46.267989
  C    -20.246520   27.558069   46.059919
  C    -20.376326   28.213509   47.460418
  C    -20.259363   27.001890   48.410908
  O    -20.531335   25.805040   47.578609
  H    -20.681914   25.414943   45.573725
  H    -19.193048   27.382007   45.809871
  H    -20.696537   28.169459   45.276723
  H    -19.605909   28.967631   47.644446
  H    -21.358878   28.684848   47.553348
  H    -20.981700   27.027005   49.230796
  H    -19.251667   26.877609   48.819019
  C    -23.231001   25.892024   45.218556
  H    -22.987343   24.832161   45.043733
  H    -24.246475   25.934904   45.617397
  O    -22.392491   26.408555   46.287455
  C    -23.225883   26.631911   43.866318
  C    -21.910388   26.670799   43.069560
  C    -21.870066   25.243505   42.451728
  C    -23.366392   24.949582   42.172659
  O    -24.148347   25.899620   42.992244
  H    -23.624821   27.643103   43.989166
  O    -21.968265   27.703684   42.047392
  H    -21.027549   26.905262   43.655060
  H    -21.256611   25.229481   41.547975
  H    -21.449186   24.528778   43.167128
  H    -23.655016   23.928280   42.438618
  H    -23.638154   25.125327   41.126917
  H    -22.845299   27.675374   41.610322

 Multiplicity           Mult            ....    1
 Number of Electrons    NEL             ....  102
 Basis Dimension        Dim             ....  149

ORBITAL ENERGIES
----------------

  NO   OCC          E(Eh)            E(eV)
   0   2.0000     -19.151512      -521.1391
   1   2.0000     -19.144120      -520.9380
   2   2.0000     -19.142329      -520.8893
   3   2.0000     -19.139575      -520.8143
   4   2.0000     -10.283616      -279.8314
   5   2.0000     -10.247113      -278.8381
   6   2.0000     -10.239392      -278.6280
   7   2.0000     -10.237549      -278.5779
   8   2.0000     -10.234340      -278.4905
   9   2.0000     -10.224098      -278.2119
  10   2.0000     -10.195713      -277.4395
  11   2.0000     -10.186745      -277.1954
  12   2.0000     -10.185550      -277.1629
  13   2.0000      -1.053889       -28.6778
  14   2.0000      -1.044539       -28.4233
  15   2.0000      -1.013161       -27.5695
  16   2.0000      -0.994883       -27.0721
  17   2.0000      -0.786769       -21.4091
  18   2.0000      -0.785045       -21.3622
  19   2.0000      -0.770916       -20.9777
  20   2.0000      -0.737121       -20.0581
  21   2.0000      -0.678227       -18.4555
  22   2.0000      -0.611937       -16.6517
  23   2.0000      -0.603392       -16.4191
  24   2.0000      -0.597997       -16.2723
  25   2.0000      -0.584353       -15.9011
  26   2.0000      -0.527900       -14.3649
  27   2.0000      -0.520469       -14.1627
  28   2.0000      -0.502787       -13.6815
  29   2.0000      -0.486451       -13.2370
  30   2.0000      -0.477515       -12.9938
  31   2.0000      -0.460648       -12.5349
  32   2.0000      -0.449598       -12.2342
  33   2.0000      -0.441430       -12.0119
  34   2.0000      -0.425404       -11.5758
  35   2.0000      -0.424304       -11.5459
  36   2.0000      -0.405239       -11.0271
  37   2.0000      -0.398696       -10.8491
  38   2.0000      -0.378943       -10.3116
  39   2.0000      -0.376615       -10.2482
  40   2.0000      -0.361693        -9.8422
  41   2.0000      -0.356816        -9.7095
  42   2.0000      -0.351819        -9.5735
  43   2.0000      -0.337872        -9.1940
  44   2.0000      -0.314958        -8.5704
  45   2.0000      -0.313533        -8.5317
  46   2.0000      -0.304839        -8.2951
  47   2.0000      -0.278253        -7.5716
  48   2.0000      -0.271580        -7.3901
  49   2.0000      -0.257440        -7.0053
  50   2.0000      -0.241039        -6.5590
  51   0.0000       0.060490         1.6460
  52   0.0000       0.064059         1.7431
  53   0.0000       0.088591         2.4107
  54   0.0000       0.093496         2.5442
  55   0.0000       0.099520         2.7081

MULLIKEN ATOMIC CHARGES
-----------------------
   0 C :    0.290099
   1 C :   -0.266461
   2 C :   -0.303843
   3 C :   -0.001044
   4 O :   -0.503568
   5 H :    0.134151
   6 H :    0.144054
   7 H :    0.160783
   8 H :    0.142900
   9 H :    0.165045
  10 H :    0.154647
  11 H :    0.140705
  12 C :   -0.010595
  13 H :    0.126770
  14 H :    0.174374
  15 O :   -0.515467
  16 C :    0.043903
  17 C :    0.080614
  18 C :   -0.304939
  19 C :   -0.023709
  20 O :   -0.523186
  21 H :    0.162851
  22 O :   -0.605072
  23 H :    0.160002
  24 H :    0.165771
  25 H :    0.148218
  26 H :    0.149292
  27 H :    0.147496
  28 H :    0.366207
Sum of atomic charges:    0.0000000

LOEWDIN ATOMIC CHARGES
----------------------
   0 C :    0.175031
   1 C :   -0.230152
   2 C :   -0.215876
   3 C :   -0.025512
   4 O :   -0.309109
   5 H :    0.093574
   6 H :    0.113482
   7 H :    0.120496
   8 H :    0.114949
   9 H :    0.120468
  10 H :    0.109202
  11 H :    0.101763
  12 C :   -0.038696
  13 H :    0.093335
  14 H :    0.126811
  15 O :   -0.332512
  16 C :    0.003808
  17 C :    0.030533
  18 C :   -0.242666
  19 C :   -0.037166
  20 O :   -0.326066
  21 H :    0.116162
  22 O :   -0.414060
  23 H :    0.118084
  24 H :    0.128388
  25 H :    0.113003
  26 H :    0.105652
  27 H :    0.103272
  28 H :    0.283802

  Mayer bond orders larger than 0.100000
B(  0-C ,  1-C ) :   0.9319 B(  0-C ,  4-O ) :   0.9323 B(  0-C ,  5-H ) :   0.9166
B(  0-C , 15-O ) :   0.8323 B(  1-C ,  2-C ) :   0.9491 B(  1-C ,  6-H ) :   0.9345
B(  1-C ,  7-H ) :   0.9282 B(  2-C ,  3-C ) :   0.9540 B(  2-C ,  8-H ) :   0.9446
B(  2-C ,  9-H ) :   0.9431 B(  3-C ,  4-O ) :   0.8343 B(  3-C , 10-H ) :   0.9346
B(  3-C , 11-H ) :   0.9398 B( 12-C , 13-H ) :   0.9225 B( 12-C , 14-H ) :   0.9332
B( 12-C , 15-O ) :   0.8580 B( 12-C , 16-C ) :   0.8735 B( 16-C , 17-C ) :   0.9105
B( 16-C , 20-O ) :   0.8294 B( 16-C , 21-H ) :   0.9251 B( 17-C , 18-C ) :   0.9122
B( 17-C , 22-O ) :   0.8886 B( 17-C , 23-H ) :   0.9167 B( 18-C , 19-C ) :   0.9401
B( 18-C , 24-H ) :   0.9368 B( 18-C , 25-H ) :   0.9311 B( 19-C , 20-O ) :   0.8378
B( 19-C , 26-H ) :   0.9351 B( 19-C , 27-H ) :   0.9380 B( 22-O , 28-H ) :   0.7936

FINAL SINGLE POINT ENERGY      -652.856852059596

DIPOLE MOMENT
-------------
                                X             Y             Z
Electronic contribution:     -3.16045      -0.65433      -0.23344
Nuclear contribution   :      3.57100       0.62795      -0.21889
                        -----------------------------------------
Total Dipole Moment    :      0.41055      -0.02638      -0.45233
                        -----------------------------------------
Magnitude (a.u.)       :      0.61143
Magnitude (Debye)      :      1.55414

Rotational constants in cm-1:     0.056055     0.013796     0.012765
Rotational constants in MHz :  1680.476245   413.594311   382.681852

                             ****ORCA TERMINATED NORMALLY****
TOTAL RUN TIME: 0 days 1 hours 8 minutes 15 seconds 481 msec
