                         Program Version 4.2.0 -  RELEASE  -
|  1> # Test redundant internal optimization
|  2> #
|  3> ! RKS B3LYP  Opt TightSCF SmallPrint
|  4>
|  5> %basis
|  6>         Basis "6-31G"
|  7> end
|  8>
|  9> %geom
| 10> Constraints
| 11> { D 4  0  15  12  285.0   C } # D for Dihedral angle
| 12> { D 0  15  12  16  165.0   C } # D for Dihedral angle
| 13> { D 0  4  3  2   C } # D for Dihedral angle
| 14> { D 4  3  2  1   C } # D for Dihedral angle
| 15> { D 3  2  1  0   C } # D for Dihedral angle
| 16> { D 2  1  0  4   C } # D for Dihedral angle
| 17> { D 1  0  4  3   C } # D for Dihedral angle
| 18> { D 16  20  19  18   C } # D for Dihedral angle
| 19> { D 20  19  18  17   C } # D for Dihedral angle
| 20> { D 19  18  17  16   C } # D for Dihedral angle
| 21> { D 18  17  16  20   C } # D for Dihedral angle
| 22> { D 17  16  20  19   C } # D for Dihedral angle
| 23> { D 15  12  16  20   C } # D for Dihedral angle
| 24> end
| 25> end
| 26>
| 27>
| 28> #%pal
| 29> #nprocs 8
| 30> #end
| 31>
| 32> * xyz 0 1
| 33> C  -21.048   26.222   46.251
| 34> C  -20.361   27.558   45.944
| 35> C  -20.329   28.222   47.341
| 36> C  -20.110   27.022   48.296
| 37> O  -20.473   25.807   47.535
| 38> H  -20.833   25.428   45.533
| 39> H  -19.344   27.382   45.576
| 40> H  -20.898   28.157   45.201
| 41> H  -19.543   28.978   47.434
| 42> H  -21.289   28.710   47.548
| 43> H  -20.733   27.082   49.195
| 44> H  -19.064   26.913   48.597
| 45> C  -23.396   25.070   46.435
| 46> H  -23.429   24.620   45.435
| 47> H  -22.915   24.356   47.116
| 48> O  -22.586   26.394   46.375
| 49> C  -24.855   25.280   46.925
| 50> C  -25.657   26.134   45.936
| 51> C  -26.010   25.098   44.842
| 52> C  -26.219   23.792   45.650
| 53> O  -25.573   24.002   46.963
| 54> H  -24.838   25.667   47.946
| 55> O  -26.944   26.672   46.618
| 56> H  -25.092   26.987   45.546
| 57> H  -26.896   25.377   44.264
| 58> H  -25.173   24.990   44.142
| 59> H  -25.767   22.921   45.163
| 60> H  -27.275   23.583   45.839
| 61> H  -27.528   25.833   47.016
| 62> *
| 63>
| 64>                          ****END OF INPUT****
 Total Charge           Charge          ....    0
 Multiplicity           Mult            ....    1
 Number of Electrons    NEL             ....  102
FINAL SINGLE POINT ENERGY      -652.840773144247
FINAL SINGLE POINT ENERGY      -652.865284403294
FINAL SINGLE POINT ENERGY      -652.869238802725
FINAL SINGLE POINT ENERGY      -652.869952651369
FINAL SINGLE POINT ENERGY      -652.870055987853
FINAL SINGLE POINT ENERGY      -652.870066928371
                    ***********************HURRAY********************

CARTESIAN COORDINATES (ANGSTROEM)
---------------------------------
  C    -21.108736   26.123413   46.236030
  C    -20.556869   27.519112   45.945442
  C    -20.601346   28.174345   47.344812
  C    -20.273062   26.999715   48.292703
  O    -20.514177   25.762602   47.504944
  H    -20.830688   25.336449   45.527926
  H    -19.526415   27.431525   45.582940
  H    -21.153145   28.049963   45.200593
  H    -19.890698   29.000192   47.445739
  H    -21.607505   28.556801   47.538446
  H    -20.904148   26.978215   49.184593
  H    -19.221574   26.976088   48.593626
  C    -23.263420   24.972719   46.401566
  H    -23.260863   24.480544   45.418207
  H    -22.786645   24.306203   47.128675
  O    -22.544060   26.239698   46.326556
  C    -24.681823   25.291526   46.865003
  C    -25.494120   26.178353   45.910678
  C    -25.963034   25.149508   44.851168
  C    -26.194374   23.863830   45.683938
  O    -25.461594   24.052448   46.961536
  H    -24.643631   25.729935   47.865536
  O    -26.617800   26.789621   46.603032
  H    -24.914043   27.002956   45.499748
  H    -26.867712   25.499060   44.347530
  H    -25.185299   24.999816   44.094535
  H    -25.819855   22.962296   45.189567
  H    -27.247910   23.709912   45.937190
  H    -27.043454   26.120153   47.179740

 Multiplicity           Mult            ....    1
 Number of Electrons    NEL             ....  102
 Basis Dimension        Dim             ....  149

ORBITAL ENERGIES
----------------

  NO   OCC          E(Eh)            E(eV)
   0   2.0000     -19.148271      -521.0510
   1   2.0000     -19.143455      -520.9199
   2   2.0000     -19.140816      -520.8481
   3   2.0000     -19.133726      -520.6551
   4   2.0000     -10.280387      -279.7436
   5   2.0000     -10.234140      -278.4851
   6   2.0000     -10.231481      -278.4127
   7   2.0000     -10.230756      -278.3930
   8   2.0000     -10.228624      -278.3350
   9   2.0000     -10.225275      -278.2439
  10   2.0000     -10.186629      -277.1923
  11   2.0000     -10.186161      -277.1795
  12   2.0000     -10.185022      -277.1485
  13   2.0000      -1.056660       -28.7532
  14   2.0000      -1.034583       -28.1524
  15   2.0000      -1.002907       -27.2905
  16   2.0000      -0.996285       -27.1103
  17   2.0000      -0.790816       -21.5192
  18   2.0000      -0.777574       -21.1589
  19   2.0000      -0.766470       -20.8567
  20   2.0000      -0.728945       -19.8356
  21   2.0000      -0.672635       -18.3033
  22   2.0000      -0.603013       -16.4088
  23   2.0000      -0.598944       -16.2981
  24   2.0000      -0.588617       -16.0171
  25   2.0000      -0.583748       -15.8846
  26   2.0000      -0.521986       -14.2040
  27   2.0000      -0.517209       -14.0740
  28   2.0000      -0.496309       -13.5052
  29   2.0000      -0.488391       -13.2898
  30   2.0000      -0.469555       -12.7772
  31   2.0000      -0.456202       -12.4139
  32   2.0000      -0.451465       -12.2850
  33   2.0000      -0.436873       -11.8879
  34   2.0000      -0.424395       -11.5484
  35   2.0000      -0.410355       -11.1663
  36   2.0000      -0.401347       -10.9212
  37   2.0000      -0.390865       -10.6360
  38   2.0000      -0.375453       -10.2166
  39   2.0000      -0.365749        -9.9525
  40   2.0000      -0.358492        -9.7551
  41   2.0000      -0.356097        -9.6899
  42   2.0000      -0.348454        -9.4819
  43   2.0000      -0.335540        -9.1305
  44   2.0000      -0.323249        -8.7961
  45   2.0000      -0.306857        -8.3500
  46   2.0000      -0.300242        -8.1700
  47   2.0000      -0.275434        -7.4949
  48   2.0000      -0.264603        -7.2002
  49   2.0000      -0.253475        -6.8974
  50   2.0000      -0.246704        -6.7132
  51   0.0000       0.065233         1.7751
  52   0.0000       0.079827         2.1722
  53   0.0000       0.095044         2.5863
  54   0.0000       0.101671         2.7666
  55   0.0000       0.108281         2.9465

MULLIKEN ATOMIC CHARGES
-----------------------
   0 C :    0.289649
   1 C :   -0.260960
   2 C :   -0.298485
   3 C :   -0.003544
   4 O :   -0.510718
   5 H :    0.141676
   6 H :    0.145664
   7 H :    0.154966
   8 H :    0.141447
   9 H :    0.164990
  10 H :    0.149487
  11 H :    0.143252
  12 C :   -0.005464
  13 H :    0.122069
  14 H :    0.172121
  15 O :   -0.529302
  16 C :    0.052995
  17 C :    0.094593
  18 C :   -0.300239
  19 C :   -0.029949
  20 O :   -0.527394
  21 H :    0.165631
  22 O :   -0.605482
  23 H :    0.172302
  24 H :    0.160852
  25 H :    0.146724
  26 H :    0.144196
  27 H :    0.146842
  28 H :    0.362082
Sum of atomic charges:   -0.0000000

LOEWDIN ATOMIC CHARGES
----------------------
   0 C :    0.172718
   1 C :   -0.215132
   2 C :   -0.215722
   3 C :   -0.027314
   4 O :   -0.328788
   5 H :    0.097067
   6 H :    0.114376
   7 H :    0.123100
   8 H :    0.113855
   9 H :    0.120434
  10 H :    0.106664
  11 H :    0.103116
  12 C :   -0.042041
  13 H :    0.089863
  14 H :    0.117539
  15 O :   -0.332341
  16 C :    0.018265
  17 C :    0.038398
  18 C :   -0.241959
  19 C :   -0.038072
  20 O :   -0.330115
  21 H :    0.118856
  22 O :   -0.415758
  23 H :    0.125848
  24 H :    0.126151
  25 H :    0.113951
  26 H :    0.103100
  27 H :    0.102710
  28 H :    0.281229

  Mayer bond orders larger than 0.100000
B(  0-C ,  1-C ) :   0.9489 B(  0-C ,  4-O ) :   0.9117 B(  0-C ,  5-H ) :   0.9204
B(  0-C , 15-O ) :   0.8540 B(  1-C ,  2-C ) :   0.9566 B(  1-C ,  6-H ) :   0.9403
B(  1-C ,  7-H ) :   0.9365 B(  2-C ,  3-C ) :   0.9550 B(  2-C ,  8-H ) :   0.9451
B(  2-C ,  9-H ) :   0.9438 B(  3-C ,  4-O ) :   0.8347 B(  3-C , 10-H ) :   0.9357
B(  3-C , 11-H ) :   0.9403 B( 12-C , 13-H ) :   0.9206 B( 12-C , 14-H ) :   0.9116
B( 12-C , 15-O ) :   0.8165 B( 12-C , 16-C ) :   0.9104 B( 16-C , 17-C ) :   0.9124
B( 16-C , 20-O ) :   0.8432 B( 16-C , 21-H ) :   0.9253 B( 17-C , 18-C ) :   0.9123
B( 17-C , 22-O ) :   0.8871 B( 17-C , 23-H ) :   0.9250 B( 18-C , 19-C ) :   0.9407
B( 18-C , 24-H ) :   0.9379 B( 18-C , 25-H ) :   0.9349 B( 19-C , 20-O ) :   0.8440
B( 19-C , 26-H ) :   0.9362 B( 19-C , 27-H ) :   0.9380 B( 22-O , 28-H ) :   0.7961

FINAL SINGLE POINT ENERGY      -652.870069475059

DIPOLE MOMENT
-------------
                                X             Y             Z
Electronic contribution:     -2.13670      -2.10838       2.06979
Nuclear contribution   :      2.57620       2.17876      -2.77866
                        -----------------------------------------
Total Dipole Moment    :      0.43950       0.07038      -0.70887
                        -----------------------------------------
Magnitude (a.u.)       :      0.83702
Magnitude (Debye)      :      2.12755

Rotational constants in cm-1:     0.058086     0.012168     0.011585
Rotational constants in MHz :  1741.374016   364.777276   347.320660

                             ****ORCA TERMINATED NORMALLY****
TOTAL RUN TIME: 0 days 1 hours 26 minutes 30 seconds 721 msec
