                         Program Version 4.2.0 -  RELEASE  -
|  1> # Test redundant internal optimization
|  2> #
|  3> ! RKS B3LYP  Opt TightSCF SmallPrint
|  4>
|  5> %basis
|  6>         Basis "6-31G"
|  7> end
|  8>
|  9> %geom
| 10> Constraints
| 11> { D 4  0  15  12  315.0   C } # D for Dihedral angle
| 12> { D 0  15  12  16  150.0   C } # D for Dihedral angle
| 13> { D 0  4  3  2   C } # D for Dihedral angle
| 14> { D 4  3  2  1   C } # D for Dihedral angle
| 15> { D 3  2  1  0   C } # D for Dihedral angle
| 16> { D 2  1  0  4   C } # D for Dihedral angle
| 17> { D 1  0  4  3   C } # D for Dihedral angle
| 18> { D 16  20  19  18   C } # D for Dihedral angle
| 19> { D 20  19  18  17   C } # D for Dihedral angle
| 20> { D 19  18  17  16   C } # D for Dihedral angle
| 21> { D 18  17  16  20   C } # D for Dihedral angle
| 22> { D 17  16  20  19   C } # D for Dihedral angle
| 23> { D 15  12  16  20   C } # D for Dihedral angle
| 24> end
| 25> end
| 26>
| 27>
| 28> #%pal
| 29> #nprocs 8
| 30> #end
| 31>
| 32> * xyz 0 1
| 33> C  -21.048   26.222   46.251
| 34> C  -20.361   27.558   45.944
| 35> C  -20.329   28.222   47.341
| 36> C  -20.110   27.022   48.296
| 37> O  -20.473   25.807   47.535
| 38> H  -20.833   25.428   45.533
| 39> H  -19.344   27.382   45.576
| 40> H  -20.898   28.157   45.201
| 41> H  -19.543   28.978   47.434
| 42> H  -21.289   28.710   47.548
| 43> H  -20.733   27.082   49.195
| 44> H  -19.064   26.913   48.597
| 45> C  -23.319   25.255   47.135
| 46> H  -23.611   24.473   46.422
| 47> H  -22.655   24.804   47.885
| 48> O  -22.586   26.394   46.375
| 49> C  -24.596   25.748   47.870
| 50> C  -25.228   24.626   48.701
| 51> C  -24.322   24.617   49.956
| 52> C  -23.970   26.114   50.145
| 53> O  -24.255   26.779   48.855
| 54> H  -25.271   26.208   47.145
| 55> H  -26.257   24.889   48.969
| 56> O  -25.248   23.258   47.965
| 57> H  -24.818   24.191   50.834
| 58> H  -23.418   24.029   49.763
| 59> H  -22.916   26.267   50.402
| 60> H  -24.594   26.598   50.902
| 61> H  -24.228   22.973   47.687
| 62> *
| 63>
| 64>                          ****END OF INPUT****
 Total Charge           Charge          ....    0
 Multiplicity           Mult            ....    1
 Number of Electrons    NEL             ....  102
FINAL SINGLE POINT ENERGY      -652.832444504177
FINAL SINGLE POINT ENERGY      -652.857228298337
FINAL SINGLE POINT ENERGY      -652.862246060768
FINAL SINGLE POINT ENERGY      -652.863090563832
FINAL SINGLE POINT ENERGY      -652.863230998412
FINAL SINGLE POINT ENERGY      -652.863262170591
FINAL SINGLE POINT ENERGY      -652.863267580783
FINAL SINGLE POINT ENERGY      -652.863268776822
                    ***********************HURRAY********************

CARTESIAN COORDINATES (ANGSTROEM)
---------------------------------
  C    -21.053093   26.179474   46.238498
  C    -20.547112   27.601969   46.001554
  C    -20.524842   28.168930   47.437147
  C    -20.120068   26.953041   48.295994
  O    -20.380304   25.753703   47.449435
  H    -20.798312   25.436161   45.475921
  H    -19.540888   27.562704   45.568428
  H    -21.204332   28.159599   45.331144
  H    -19.829239   29.006200   47.548662
  H    -21.529701   28.501835   47.710033
  H    -20.706822   26.868977   49.214056
  H    -19.054026   26.931323   48.540517
  C    -23.139753   25.172800   47.092042
  H    -23.456639   24.409908   46.366253
  H    -22.434681   24.726072   47.802146
  O    -22.486042   26.272873   46.403384
  C    -24.362953   25.745937   47.802137
  C    -25.153048   24.714847   48.626434
  C    -24.338208   24.677780   49.954339
  C    -23.872250   26.141289   50.110434
  O    -24.004325   26.778698   48.773789
  H    -24.988828   26.247016   47.058391
  H    -26.162353   25.090271   48.807603
  O    -25.351535   23.427924   47.994165
  H    -24.938825   24.328070   50.798471
  H    -23.484653   23.996149   49.840101
  H    -22.833043   26.220899   50.444501
  H    -24.507544   26.707656   50.797768
  H    -24.513579   22.921894   47.978651

 Multiplicity           Mult            ....    1
 Number of Electrons    NEL             ....  102
 Basis Dimension        Dim             ....  149

ORBITAL ENERGIES
----------------

  NO   OCC          E(Eh)            E(eV)
   0   2.0000     -19.148274      -521.0510
   1   2.0000     -19.142492      -520.8937
   2   2.0000     -19.137656      -520.7621
   3   2.0000     -19.137500      -520.7578
   4   2.0000     -10.275317      -279.6056
   5   2.0000     -10.244069      -278.7553
   6   2.0000     -10.230507      -278.3862
   7   2.0000     -10.228029      -278.3188
   8   2.0000     -10.223929      -278.2073
   9   2.0000     -10.222892      -278.1790
  10   2.0000     -10.194860      -277.4162
  11   2.0000     -10.180199      -277.0173
  12   2.0000     -10.178132      -276.9610
  13   2.0000      -1.052629       -28.6435
  14   2.0000      -1.032092       -28.0846
  15   2.0000      -1.014316       -27.6009
  16   2.0000      -0.988883       -26.9089
  17   2.0000      -0.786694       -21.4070
  18   2.0000      -0.780508       -21.2387
  19   2.0000      -0.764351       -20.7990
  20   2.0000      -0.728147       -19.8139
  21   2.0000      -0.675994       -18.3947
  22   2.0000      -0.610550       -16.6139
  23   2.0000      -0.595903       -16.2153
  24   2.0000      -0.586344       -15.9552
  25   2.0000      -0.572969       -15.5913
  26   2.0000      -0.528785       -14.3890
  27   2.0000      -0.510291       -13.8857
  28   2.0000      -0.492100       -13.3907
  29   2.0000      -0.486981       -13.2514
  30   2.0000      -0.472089       -12.8462
  31   2.0000      -0.457083       -12.4379
  32   2.0000      -0.440599       -11.9893
  33   2.0000      -0.435681       -11.8555
  34   2.0000      -0.425061       -11.5665
  35   2.0000      -0.412071       -11.2130
  36   2.0000      -0.400933       -10.9099
  37   2.0000      -0.394609       -10.7378
  38   2.0000      -0.377706       -10.2779
  39   2.0000      -0.371207       -10.1010
  40   2.0000      -0.354529        -9.6472
  41   2.0000      -0.349504        -9.5105
  42   2.0000      -0.342757        -9.3269
  43   2.0000      -0.331486        -9.0202
  44   2.0000      -0.327585        -8.9140
  45   2.0000      -0.313633        -8.5344
  46   2.0000      -0.294067        -8.0020
  47   2.0000      -0.270284        -7.3548
  48   2.0000      -0.260264        -7.0821
  49   2.0000      -0.254414        -6.9230
  50   2.0000      -0.241014        -6.5583
  51   0.0000       0.053016         1.4426
  52   0.0000       0.066301         1.8041
  53   0.0000       0.093583         2.5465
  54   0.0000       0.101804         2.7702
  55   0.0000       0.104600         2.8463

MULLIKEN ATOMIC CHARGES
-----------------------
   0 C :    0.293044
   1 C :   -0.260406
   2 C :   -0.300720
   3 C :   -0.012892
   4 O :   -0.518191
   5 H :    0.141650
   6 H :    0.140214
   7 H :    0.161591
   8 H :    0.136911
   9 H :    0.183359
  10 H :    0.147906
  11 H :    0.142501
  12 C :   -0.021825
  13 H :    0.129166
  14 H :    0.152443
  15 O :   -0.521604
  16 C :    0.095348
  17 C :    0.081407
  18 C :   -0.324994
  19 C :   -0.014178
  20 O :   -0.509205
  21 H :    0.165081
  22 H :    0.169471
  23 O :   -0.599889
  24 H :    0.156131
  25 H :    0.139003
  26 H :    0.141505
  27 H :    0.150317
  28 H :    0.356858
Sum of atomic charges:    0.0000000

LOEWDIN ATOMIC CHARGES
----------------------
   0 C :    0.176884
   1 C :   -0.213909
   2 C :   -0.217316
   3 C :   -0.028235
   4 O :   -0.330920
   5 H :    0.094935
   6 H :    0.111296
   7 H :    0.126759
   8 H :    0.112102
   9 H :    0.129817
  10 H :    0.103384
  11 H :    0.102414
  12 C :   -0.058112
  13 H :    0.096732
  14 H :    0.105332
  15 O :   -0.321998
  16 C :    0.021357
  17 C :    0.034985
  18 C :   -0.242156
  19 C :   -0.031101
  20 O :   -0.317706
  21 H :    0.119646
  22 H :    0.119923
  23 O :   -0.406524
  24 H :    0.122139
  25 H :    0.106707
  26 H :    0.099407
  27 H :    0.105954
  28 H :    0.278203

  Mayer bond orders larger than 0.100000
B(  0-C ,  1-C ) :   0.9500 B(  0-C ,  4-O ) :   0.8979 B(  0-C ,  5-H ) :   0.9210
B(  0-C , 15-O ) :   0.8582 B(  1-C ,  2-C ) :   0.9550 B(  1-C ,  6-H ) :   0.9398
B(  1-C ,  7-H ) :   0.9352 B(  2-C ,  3-C ) :   0.9581 B(  2-C ,  8-H ) :   0.9447
B(  2-C ,  9-H ) :   0.9353 B(  3-C ,  4-O ) :   0.8299 B(  3-C , 10-H ) :   0.9308
B(  3-C , 11-H ) :   0.9405 B( 12-C , 13-H ) :   0.9093 B( 12-C , 14-H ) :   0.9056
B( 12-C , 15-O ) :   0.8377 B( 12-C , 16-C ) :   0.9070 B( 16-C , 17-C ) :   0.8762
B( 16-C , 20-O ) :   0.8636 B( 16-C , 21-H ) :   0.9294 B( 17-C , 18-C ) :   0.9241
B( 17-C , 22-H ) :   0.9326 B( 17-C , 23-O ) :   0.8962 B( 18-C , 19-C ) :   0.9396
B( 18-C , 24-H ) :   0.9422 B( 18-C , 25-H ) :   0.9400 B( 19-C , 20-O ) :   0.8530
B( 19-C , 26-H ) :   0.9272 B( 19-C , 27-H ) :   0.9373 B( 23-O , 28-H ) :   0.7979

FINAL SINGLE POINT ENERGY      -652.863268915481

DIPOLE MOMENT
-------------
                                X             Y             Z
Electronic contribution:     -2.76373      -1.97677      -2.63612
Nuclear contribution   :      3.41574       1.88884       3.27065
                        -----------------------------------------
Total Dipole Moment    :      0.65201      -0.08793       0.63453
                        -----------------------------------------
Magnitude (a.u.)       :      0.91405
Magnitude (Debye)      :      2.32333

Rotational constants in cm-1:     0.050357     0.015684     0.014138
Rotational constants in MHz :  1509.668335   470.200791   423.850859

                             ****ORCA TERMINATED NORMALLY****
TOTAL RUN TIME: 0 days 2 hours 0 minutes 1 seconds 888 msec
