                         Program Version 4.2.0 -  RELEASE  -
|  1> # Test redundant internal optimization
|  2> #
|  3> ! RKS B3LYP  Opt TightSCF SmallPrint
|  4>
|  5> %basis
|  6>         Basis "6-31G"
|  7> end
|  8>
|  9> %geom
| 10> Constraints
| 11> { D 4  0  15  12  180.0   C } # D for Dihedral angle
| 12> { D 0  15  12  16  150.0   C } # D for Dihedral angle
| 13> { D 0  4  3  2   C } # D for Dihedral angle
| 14> { D 4  3  2  1   C } # D for Dihedral angle
| 15> { D 3  2  1  0   C } # D for Dihedral angle
| 16> { D 2  1  0  4   C } # D for Dihedral angle
| 17> { D 1  0  4  3   C } # D for Dihedral angle
| 18> { D 16  20  19  18   C } # D for Dihedral angle
| 19> { D 20  19  18  17   C } # D for Dihedral angle
| 20> { D 19  18  17  16   C } # D for Dihedral angle
| 21> { D 18  17  16  20   C } # D for Dihedral angle
| 22> { D 17  16  20  19   C } # D for Dihedral angle
| 23> { D 15  12  16  20   C } # D for Dihedral angle
| 24> end
| 25> end
| 26>
| 27>
| 28> #%pal
| 29> #nprocs 8
| 30> #end
| 31>
| 32> * xyz 0 1
| 33> C  -21.048   26.222   46.251
| 34> C  -20.361   27.558   45.944
| 35> C  -20.329   28.222   47.341
| 36> C  -20.110   27.022   48.296
| 37> O  -20.473   25.807   47.535
| 38> H  -20.833   25.428   45.533
| 39> H  -19.344   27.382   45.576
| 40> H  -20.898   28.157   45.201
| 41> H  -19.543   28.978   47.434
| 42> H  -21.289   28.710   47.548
| 43> H  -20.733   27.082   49.195
| 44> H  -19.064   26.913   48.597
| 45> C  -23.309   26.834   45.072
| 46> H  -23.337   27.929   45.026
| 47> H  -22.767   26.467   44.190
| 48> O  -22.586   26.394   46.375
| 49> C  -24.767   26.303   44.986
| 50> C  -25.644   26.904   46.090
| 51> C  -25.956   28.306   45.514
| 52> C  -26.062   28.045   43.991
| 53> O  -25.400   26.747   43.740
| 54> H  -24.750   25.212   44.965
| 55> H  -26.563   26.318   46.200
| 56> O  -24.933   26.964   47.470
| 57> H  -26.871   28.741   45.928
| 58> H  -25.130   28.994   45.732
| 59> H  -25.568   28.821   43.397
| 60> H  -27.098   27.949   43.655
| 61> H  -24.009   27.546   47.383
| 62> *
| 63>
| 64>                          ****END OF INPUT****
 Total Charge           Charge          ....    0
 Multiplicity           Mult            ....    1
 Number of Electrons    NEL             ....  102
FINAL SINGLE POINT ENERGY      -652.828355890306
FINAL SINGLE POINT ENERGY      -652.852696359040
FINAL SINGLE POINT ENERGY      -652.859106239722
FINAL SINGLE POINT ENERGY      -652.861639759427
FINAL SINGLE POINT ENERGY      -652.863228813060
FINAL SINGLE POINT ENERGY      -652.864250107662
FINAL SINGLE POINT ENERGY      -652.864800449219
FINAL SINGLE POINT ENERGY      -652.864951088985
FINAL SINGLE POINT ENERGY      -652.864974507998
FINAL SINGLE POINT ENERGY      -652.864978938415
                    ***********************HURRAY********************

CARTESIAN COORDINATES (ANGSTROEM)
---------------------------------
  C    -21.116351   26.247637   46.195818
  C    -20.327098   27.522754   45.911531
  C    -20.382259   28.246919   47.278776
  C    -20.326980   27.082457   48.287147
  O    -20.700032   25.866546   47.507908
  H    -20.926091   25.408975   45.519670
  H    -19.297422   27.250315   45.653070
  H    -20.735939   28.120862   45.092407
  H    -19.556786   28.952503   47.410598
  H    -21.323193   28.797412   47.373498
  H    -21.029237   27.189560   49.116909
  H    -19.322767   26.900439   48.679039
  C    -23.210639   26.898388   44.997506
  H    -23.178946   27.990350   44.897371
  H    -22.699949   26.454903   44.133302
  O    -22.560962   26.491005   46.245951
  C    -24.651116   26.379347   45.044766
  C    -25.517569   26.968663   46.170502
  C    -25.918931   28.347631   45.570222
  C    -26.067644   28.045308   44.065214
  O    -25.346737   26.760060   43.817982
  H    -24.630428   25.286297   45.072420
  H    -26.412865   26.344552   46.279678
  O    -24.892676   27.083015   47.463479
  H    -26.837921   28.733383   46.019033
  H    -25.117611   29.065827   45.774468
  H    -25.636093   28.817827   43.421020
  H    -27.107181   27.879445   43.768492
  H    -23.943579   26.822619   47.397223

 Multiplicity           Mult            ....    1
 Number of Electrons    NEL             ....  102
 Basis Dimension        Dim             ....  149

ORBITAL ENERGIES
----------------

  NO   OCC          E(Eh)            E(eV)
   0   2.0000     -19.162920      -521.4496
   1   2.0000     -19.153450      -521.1919
   2   2.0000     -19.140817      -520.8481
   3   2.0000     -19.110268      -520.0168
   4   2.0000     -10.294516      -280.1280
   5   2.0000     -10.241438      -278.6837
   6   2.0000     -10.234864      -278.5048
   7   2.0000     -10.234516      -278.4953
   8   2.0000     -10.229359      -278.3550
   9   2.0000     -10.226755      -278.2842
  10   2.0000     -10.198900      -277.5262
  11   2.0000     -10.196776      -277.4684
  12   2.0000     -10.178776      -276.9786
  13   2.0000      -1.068232       -29.0681
  14   2.0000      -1.026171       -27.9235
  15   2.0000      -1.009082       -27.4585
  16   2.0000      -0.989934       -26.9375
  17   2.0000      -0.797890       -21.7117
  18   2.0000      -0.774805       -21.0835
  19   2.0000      -0.767894       -20.8955
  20   2.0000      -0.738774       -20.1031
  21   2.0000      -0.681730       -18.5508
  22   2.0000      -0.611829       -16.6487
  23   2.0000      -0.601154       -16.3582
  24   2.0000      -0.595407       -16.2018
  25   2.0000      -0.579161       -15.7598
  26   2.0000      -0.528684       -14.3862
  27   2.0000      -0.523512       -14.2455
  28   2.0000      -0.504303       -13.7228
  29   2.0000      -0.489774       -13.3274
  30   2.0000      -0.476673       -12.9709
  31   2.0000      -0.461241       -12.5510
  32   2.0000      -0.449275       -12.2254
  33   2.0000      -0.435835       -11.8597
  34   2.0000      -0.428462       -11.6590
  35   2.0000      -0.414616       -11.2823
  36   2.0000      -0.412732       -11.2310
  37   2.0000      -0.387900       -10.5553
  38   2.0000      -0.384363       -10.4590
  39   2.0000      -0.370634       -10.0855
  40   2.0000      -0.367475        -9.9995
  41   2.0000      -0.365567        -9.9476
  42   2.0000      -0.349862        -9.5202
  43   2.0000      -0.342286        -9.3141
  44   2.0000      -0.322951        -8.7879
  45   2.0000      -0.318697        -8.6722
  46   2.0000      -0.284529        -7.7424
  47   2.0000      -0.274496        -7.4694
  48   2.0000      -0.271571        -7.3898
  49   2.0000      -0.247951        -6.7471
  50   2.0000      -0.241404        -6.5689
  51   0.0000       0.056748         1.5442
  52   0.0000       0.073705         2.0056
  53   0.0000       0.087577         2.3831
  54   0.0000       0.096430         2.6240
  55   0.0000       0.106110         2.8874

MULLIKEN ATOMIC CHARGES
-----------------------
   0 C :    0.316749
   1 C :   -0.280963
   2 C :   -0.301310
   3 C :   -0.009092
   4 O :   -0.500902
   5 H :    0.152948
   6 H :    0.153914
   7 H :    0.147951
   8 H :    0.148624
   9 H :    0.162380
  10 H :    0.162594
  11 H :    0.149351
  12 C :   -0.018387
  13 H :    0.142281
  14 H :    0.149684
  15 O :   -0.556444
  16 C :    0.047769
  17 C :    0.121628
  18 C :   -0.300503
  19 C :   -0.021606
  20 O :   -0.522393
  21 H :    0.164909
  22 H :    0.146030
  23 O :   -0.644042
  24 H :    0.151150
  25 H :    0.145454
  26 H :    0.141244
  27 H :    0.149669
  28 H :    0.401316
Sum of atomic charges:    0.0000000

LOEWDIN ATOMIC CHARGES
----------------------
   0 C :    0.185178
   1 C :   -0.230815
   2 C :   -0.216941
   3 C :   -0.025409
   4 O :   -0.299345
   5 H :    0.103934
   6 H :    0.119389
   7 H :    0.116365
   8 H :    0.117963
   9 H :    0.118435
  10 H :    0.113343
  11 H :    0.106806
  12 C :   -0.046530
  13 H :    0.098001
  14 H :    0.107910
  15 O :   -0.347680
  16 C :    0.016864
  17 C :    0.042681
  18 C :   -0.235543
  19 C :   -0.032894
  20 O :   -0.325278
  21 H :    0.117402
  22 H :    0.103574
  23 O :   -0.437389
  24 H :    0.121459
  25 H :    0.110759
  26 H :    0.101232
  27 H :    0.106212
  28 H :    0.290318

  Mayer bond orders larger than 0.100000
B(  0-C ,  1-C ) :   0.9309 B(  0-C ,  4-O ) :   0.9535 B(  0-C ,  5-H ) :   0.9214
B(  0-C , 15-O ) :   0.7876 B(  1-C ,  2-C ) :   0.9493 B(  1-C ,  6-H ) :   0.9332
B(  1-C ,  7-H ) :   0.9318 B(  2-C ,  3-C ) :   0.9547 B(  2-C ,  8-H ) :   0.9445
B(  2-C ,  9-H ) :   0.9441 B(  3-C ,  4-O ) :   0.8263 B(  3-C , 10-H ) :   0.9335
B(  3-C , 11-H ) :   0.9394 B( 12-C , 13-H ) :   0.9202 B( 12-C , 14-H ) :   0.9225
B( 12-C , 15-O ) :   0.7911 B( 12-C , 16-C ) :   0.8984 B( 16-C , 17-C ) :   0.9167
B( 16-C , 20-O ) :   0.8563 B( 16-C , 21-H ) :   0.9281 B( 17-C , 18-C ) :   0.9036
B( 17-C , 22-H ) :   0.9276 B( 17-C , 23-O ) :   0.9356 B( 18-C , 19-C ) :   0.9387
B( 18-C , 24-H ) :   0.9448 B( 18-C , 25-H ) :   0.9430 B( 19-C , 20-O ) :   0.8326
B( 19-C , 26-H ) :   0.9343 B( 19-C , 27-H ) :   0.9386 B( 23-O , 28-H ) :   0.7200

FINAL SINGLE POINT ENERGY      -652.864979891820

DIPOLE MOMENT
-------------
                                X             Y             Z
Electronic contribution:     -1.54599      -5.43976       0.56459
Nuclear contribution   :      2.60768       6.51709      -1.18667
                        -----------------------------------------
Total Dipole Moment    :      1.06169       1.07733      -0.62209
                        -----------------------------------------
Magnitude (a.u.)       :      1.63548
Magnitude (Debye)      :      4.15707

Rotational constants in cm-1:     0.056008     0.013591     0.012840
Rotational constants in MHz :  1679.063569   407.442761   384.920308

                             ****ORCA TERMINATED NORMALLY****
TOTAL RUN TIME: 0 days 1 hours 21 minutes 21 seconds 683 msec
