                         Program Version 4.2.0 -  RELEASE  -
|  1> # Test redundant internal optimization
|  2> #
|  3> ! RKS B3LYP  Opt TightSCF SmallPrint
|  4>
|  5> %basis
|  6>         Basis "6-31G"
|  7> end
|  8>
|  9> %geom
| 10> Constraints
| 11> { D 4  0  15  12  135.0   C } # D for Dihedral angle
| 12> { D 0  15  12  16  135.0   C } # D for Dihedral angle
| 13> { D 0  4  3  2   C } # D for Dihedral angle
| 14> { D 4  3  2  1   C } # D for Dihedral angle
| 15> { D 3  2  1  0   C } # D for Dihedral angle
| 16> { D 2  1  0  4   C } # D for Dihedral angle
| 17> { D 1  0  4  3   C } # D for Dihedral angle
| 18> { D 16  20  19  18   C } # D for Dihedral angle
| 19> { D 20  19  18  17   C } # D for Dihedral angle
| 20> { D 19  18  17  16   C } # D for Dihedral angle
| 21> { D 18  17  16  20   C } # D for Dihedral angle
| 22> { D 17  16  20  19   C } # D for Dihedral angle
| 23> { D 15  12  16  20   C } # D for Dihedral angle
| 24> end
| 25> end
| 26>
| 27>
| 28> #%pal
| 29> #nprocs 8
| 30> #end
| 31>
| 32> * xyz 0 1
| 33> C  -21.048   26.222   46.251
| 34> C  -20.361   27.558   45.944
| 35> C  -20.329   28.222   47.341
| 36> C  -20.110   27.022   48.296
| 37> O  -20.473   25.807   47.535
| 38> H  -20.833   25.428   45.533
| 39> H  -19.344   27.382   45.576
| 40> H  -20.898   28.157   45.201
| 41> H  -19.543   28.978   47.434
| 42> H  -21.289   28.710   47.548
| 43> H  -20.733   27.082   49.195
| 44> H  -19.064   26.913   48.597
| 45> C  -23.162   27.680   45.721
| 46> H  -23.410   28.405   46.505
| 47> H  -22.419   28.136   45.053
| 48> O  -22.586   26.394   46.375
| 49> C  -24.443   27.406   44.885
| 50> C  -25.594   26.923   45.775
| 51> C  -26.093   28.252   46.391
| 52> C  -25.893   29.270   45.241
| 53> O  -24.943   28.651   44.292
| 54> H  -24.196   26.735   44.061
| 55> O  -26.703   26.272   44.903
| 56> H  -25.279   26.196   46.530
| 57> H  -27.134   28.200   46.726
| 58> H  -25.476   28.520   47.257
| 59> H  -25.481   30.222   45.591
| 60> H  -26.817   29.466   44.691
| 61> H  -27.036   26.984   44.138
| 62> *
| 63>
| 64>                          ****END OF INPUT****
 Total Charge           Charge          ....    0
 Multiplicity           Mult            ....    1
 Number of Electrons    NEL             ....  102
FINAL SINGLE POINT ENERGY      -652.822822939239
FINAL SINGLE POINT ENERGY      -652.846776481006
FINAL SINGLE POINT ENERGY      -652.853419855097
FINAL SINGLE POINT ENERGY      -652.855482887361
FINAL SINGLE POINT ENERGY      -652.855754864161
FINAL SINGLE POINT ENERGY      -652.855806038857
                    ***********************HURRAY********************

CARTESIAN COORDINATES (ANGSTROEM)
---------------------------------
  C    -21.186694   26.334381   46.217153
  C    -20.215105   27.480269   45.929217
  C    -20.126661   28.183924   47.308959
  C    -20.229194   27.001188   48.297657
  O    -20.798567   25.872585   47.522598
  H    -21.097144   25.474132   45.551056
  H    -19.247861   27.041818   45.659321
  H    -20.512214   28.147906   45.117777
  H    -19.197870   28.749421   47.428684
  H    -20.963909   28.878546   47.438598
  H    -20.881760   27.208328   49.149890
  H    -19.252657   26.670966   48.663073
  C    -23.159566   27.901858   45.690057
  H    -23.383425   28.617845   46.491772
  H    -22.481719   28.387809   44.981134
  O    -22.602422   26.689025   46.264546
  C    -24.429497   27.511165   44.932748
  C    -25.548164   26.916518   45.799433
  C    -26.181190   28.191556   46.409845
  C    -26.057361   29.232516   45.269850
  O    -25.030857   28.708479   44.332325
  H    -24.168812   26.833512   44.114845
  O    -26.500944   26.181821   44.980345
  H    -25.180193   26.206275   46.538224
  H    -27.215696   28.006010   46.707479
  H    -25.621030   28.505054   47.297794
  H    -25.743805   30.219189   45.624332
  H    -26.985052   29.345524   44.700190
  H    -26.690632   26.695380   44.167094

 Multiplicity           Mult            ....    1
 Number of Electrons    NEL             ....  102
 Basis Dimension        Dim             ....  149

ORBITAL ENERGIES
----------------

  NO   OCC          E(Eh)            E(eV)
   0   2.0000     -19.145121      -520.9652
   1   2.0000     -19.141746      -520.8734
   2   2.0000     -19.140889      -520.8501
   3   2.0000     -19.132603      -520.6246
   4   2.0000     -10.283846      -279.8377
   5   2.0000     -10.234952      -278.5072
   6   2.0000     -10.232860      -278.4503
   7   2.0000     -10.231876      -278.4235
   8   2.0000     -10.231542      -278.4144
   9   2.0000     -10.228885      -278.3421
  10   2.0000     -10.196454      -277.4596
  11   2.0000     -10.195740      -277.4402
  12   2.0000     -10.185793      -277.1695
  13   2.0000      -1.052800       -28.6481
  14   2.0000      -1.034797       -28.1583
  15   2.0000      -1.002281       -27.2734
  16   2.0000      -0.994568       -27.0636
  17   2.0000      -0.793341       -21.5879
  18   2.0000      -0.780043       -21.2261
  19   2.0000      -0.769290       -20.9335
  20   2.0000      -0.734225       -19.9793
  21   2.0000      -0.679951       -18.5024
  22   2.0000      -0.607018       -16.5178
  23   2.0000      -0.602336       -16.3904
  24   2.0000      -0.598098       -16.2751
  25   2.0000      -0.573960       -15.6182
  26   2.0000      -0.522634       -14.2216
  27   2.0000      -0.517286       -14.0761
  28   2.0000      -0.503883       -13.7114
  29   2.0000      -0.492078       -13.3901
  30   2.0000      -0.473647       -12.8886
  31   2.0000      -0.458840       -12.4857
  32   2.0000      -0.452324       -12.3084
  33   2.0000      -0.438692       -11.9374
  34   2.0000      -0.429873       -11.6974
  35   2.0000      -0.411511       -11.1978
  36   2.0000      -0.407922       -11.1001
  37   2.0000      -0.390921       -10.6375
  38   2.0000      -0.384335       -10.4583
  39   2.0000      -0.367867       -10.0102
  40   2.0000      -0.363612        -9.8944
  41   2.0000      -0.360180        -9.8010
  42   2.0000      -0.354324        -9.6417
  43   2.0000      -0.330644        -8.9973
  44   2.0000      -0.316324        -8.6076
  45   2.0000      -0.306052        -8.3281
  46   2.0000      -0.294199        -8.0056
  47   2.0000      -0.273525        -7.4430
  48   2.0000      -0.266542        -7.2530
  49   2.0000      -0.256767        -6.9870
  50   2.0000      -0.241008        -6.5582
  51   0.0000       0.064469         1.7543
  52   0.0000       0.068203         1.8559
  53   0.0000       0.093189         2.5358
  54   0.0000       0.097504         2.6532
  55   0.0000       0.102572         2.7911

MULLIKEN ATOMIC CHARGES
-----------------------
   0 C :    0.319506
   1 C :   -0.301488
   2 C :   -0.305906
   3 C :   -0.000971
   4 O :   -0.493865
   5 H :    0.157451
   6 H :    0.156693
   7 H :    0.149874
   8 H :    0.146749
   9 H :    0.152723
  10 H :    0.150388
  11 H :    0.145288
  12 C :   -0.011824
  13 H :    0.132977
  14 H :    0.144027
  15 O :   -0.534767
  16 C :    0.062325
  17 C :    0.087978
  18 C :   -0.296806
  19 C :   -0.031695
  20 O :   -0.529642
  21 H :    0.160564
  22 O :   -0.603035
  23 H :    0.185152
  24 H :    0.161707
  25 H :    0.145026
  26 H :    0.143404
  27 H :    0.147080
  28 H :    0.361087
Sum of atomic charges:   -0.0000000

LOEWDIN ATOMIC CHARGES
----------------------
   0 C :    0.185468
   1 C :   -0.233072
   2 C :   -0.218643
   3 C :   -0.028068
   4 O :   -0.307806
   5 H :    0.106241
   6 H :    0.122556
   7 H :    0.116202
   8 H :    0.116921
   9 H :    0.111605
  10 H :    0.107101
  11 H :    0.104345
  12 C :   -0.039764
  13 H :    0.094173
  14 H :    0.103739
  15 O :   -0.339631
  16 C :    0.014601
  17 C :    0.038421
  18 C :   -0.241036
  19 C :   -0.038529
  20 O :   -0.334312
  21 H :    0.116073
  22 O :   -0.414932
  23 H :    0.132054
  24 H :    0.127010
  25 H :    0.113719
  26 H :    0.102530
  27 H :    0.102590
  28 H :    0.280445

  Mayer bond orders larger than 0.100000
B(  0-C ,  1-C ) :   0.9347 B(  0-C ,  4-O ) :   0.9278 B(  0-C ,  5-H ) :   0.9283
B(  0-C , 15-O ) :   0.8458 B(  1-C ,  2-C ) :   0.9486 B(  1-C ,  6-H ) :   0.9331
B(  1-C ,  7-H ) :   0.9253 B(  2-C ,  3-C ) :   0.9520 B(  2-C ,  8-H ) :   0.9454
B(  2-C ,  9-H ) :   0.9444 B(  3-C ,  4-O ) :   0.8418 B(  3-C , 10-H ) :   0.9346
B(  3-C , 11-H ) :   0.9393 B( 12-C , 13-H ) :   0.9243 B( 12-C , 14-H ) :   0.9080
B( 12-C , 15-O ) :   0.8340 B( 12-C , 16-C ) :   0.8884 B( 16-C , 17-C ) :   0.9153
B( 16-C , 20-O ) :   0.8407 B( 16-C , 21-H ) :   0.9268 B( 17-C , 18-C ) :   0.9133
B( 17-C , 22-O ) :   0.8905 B( 17-C , 23-H ) :   0.9214 B( 18-C , 19-C ) :   0.9399
B( 18-C , 24-H ) :   0.9380 B( 18-C , 25-H ) :   0.9344 B( 19-C , 20-O ) :   0.8434
B( 19-C , 26-H ) :   0.9362 B( 19-C , 27-H ) :   0.9380 B( 22-O , 28-H ) :   0.7964

FINAL SINGLE POINT ENERGY      -652.855811603058

DIPOLE MOMENT
-------------
                                X             Y             Z
Electronic contribution:     -2.55355      -4.79106      -2.35065
Nuclear contribution   :      3.30683       6.29780       2.46969
                        -----------------------------------------
Total Dipole Moment    :      0.75328       1.50674       0.11904
                        -----------------------------------------
Magnitude (a.u.)       :      1.68875
Magnitude (Debye)      :      4.29245

Rotational constants in cm-1:     0.057502     0.012222     0.011600
Rotational constants in MHz :  1723.859172   366.412494   347.765916

                             ****ORCA TERMINATED NORMALLY****
TOTAL RUN TIME: 0 days 1 hours 28 minutes 45 seconds 418 msec
