                         Program Version 4.2.0 -  RELEASE  -
|  1> # Test redundant internal optimization
|  2> #
|  3> ! RKS B3LYP  Opt TightSCF SmallPrint
|  4>
|  5> %basis
|  6>         Basis "6-31G"
|  7> end
|  8>
|  9> %geom
| 10> Constraints
| 11> { D 4  0  15  12  75.0   C } # D for Dihedral angle
| 12> { D 0  15  12  16  165.0   C } # D for Dihedral angle
| 13> { D 0  4  3  2   C } # D for Dihedral angle
| 14> { D 4  3  2  1   C } # D for Dihedral angle
| 15> { D 3  2  1  0   C } # D for Dihedral angle
| 16> { D 2  1  0  4   C } # D for Dihedral angle
| 17> { D 1  0  4  3   C } # D for Dihedral angle
| 18> { D 16  20  19  18   C } # D for Dihedral angle
| 19> { D 20  19  18  17   C } # D for Dihedral angle
| 20> { D 19  18  17  16   C } # D for Dihedral angle
| 21> { D 18  17  16  20   C } # D for Dihedral angle
| 22> { D 17  16  20  19   C } # D for Dihedral angle
| 23> { D 15  12  16  20   C } # D for Dihedral angle
| 24> end
| 25> end
| 26>
| 27>
| 28> #%pal
| 29> #nprocs 8
| 30> #end
| 31>
| 32> * xyz 0 1
| 33> C  -21.048   26.222   46.251
| 34> C  -20.361   27.558   45.944
| 35> C  -20.329   28.222   47.341
| 36> C  -20.110   27.022   48.296
| 37> O  -20.473   25.807   47.535
| 38> H  -20.833   25.428   45.533
| 39> H  -19.344   27.382   45.576
| 40> H  -20.898   28.157   45.201
| 41> H  -19.543   28.978   47.434
| 42> H  -21.289   28.710   47.548
| 43> H  -20.733   27.082   49.195
| 44> H  -19.064   26.913   48.597
| 45> C  -23.049   27.675   47.122
| 46> H  -22.879   27.547   48.198
| 47> H  -22.473   28.546   46.784
| 48> O  -22.586   26.394   46.375
| 49> C  -24.555   27.989   46.899
| 50> C  -24.949   29.317   47.553
| 51> C  -24.424   30.343   46.521
| 52> C  -24.655   29.629   45.166
| 53> O  -24.830   28.193   45.473
| 54> H  -25.150   27.132   47.221
| 55> O  -26.494   29.411   47.682
| 56> H  -24.511   29.454   48.548
| 57> H  -24.941   31.307   46.578
| 58> H  -23.355   30.527   46.683
| 59> H  -23.810   29.748   44.479
| 60> H  -25.568   29.966   44.667
| 61> H  -26.954   29.277   46.696
| 62> *
| 63>
| 64>                          ****END OF INPUT****
 Total Charge           Charge          ....    0
 Multiplicity           Mult            ....    1
 Number of Electrons    NEL             ....  102
FINAL SINGLE POINT ENERGY      -652.804965636115
FINAL SINGLE POINT ENERGY      -652.834882559851
FINAL SINGLE POINT ENERGY      -652.850860732881
FINAL SINGLE POINT ENERGY      -652.853689527858
FINAL SINGLE POINT ENERGY      -652.854143503045
FINAL SINGLE POINT ENERGY      -652.854207251205
FINAL SINGLE POINT ENERGY      -652.854215767189
FINAL SINGLE POINT ENERGY      -652.854215823823
                    ***********************HURRAY********************

CARTESIAN COORDINATES (ANGSTROEM)
---------------------------------
  C    -21.231461   26.361158   46.401722
  C    -20.260751   27.470149   45.965723
  C    -19.865578   28.113938   47.329139
  C    -19.849890   26.888839   48.281317
  O    -20.621745   25.824675   47.600930
  H    -21.271206   25.528166   45.698831
  H    -19.390227   27.005559   45.492360
  H    -20.709762   28.174568   45.260057
  H    -18.887553   28.603969   47.287294
  H    -20.595037   28.862129   47.646437
  H    -20.304891   27.094919   49.255175
  H    -18.839323   26.500014   48.437684
  C    -23.091074   27.865409   47.237987
  H    -23.019806   27.718011   48.325648
  H    -22.506277   28.751358   46.962268
  O    -22.625144   26.691693   46.528385
  C    -24.550203   28.072292   46.835691
  C    -25.207291   29.309710   47.462974
  C    -24.734772   30.437764   46.507520
  C    -24.711951   29.737424   45.125865
  O    -24.700758   28.279118   45.393240
  H    -25.107445   27.161055   47.072028
  O    -26.655085   29.182411   47.466024
  H    -24.930154   29.481598   48.504192
  H    -25.421956   31.286552   46.546156
  H    -23.737910   30.789667   46.795550
  H    -23.830634   29.998931   44.531324
  H    -25.606756   29.950154   44.531833
  H    -26.943359   28.794769   46.612646

 Multiplicity           Mult            ....    1
 Number of Electrons    NEL             ....  102
 Basis Dimension        Dim             ....  149

ORBITAL ENERGIES
----------------

  NO   OCC          E(Eh)            E(eV)
   0   2.0000     -19.142820      -520.9026
   1   2.0000     -19.142770      -520.9013
   2   2.0000     -19.140592      -520.8420
   3   2.0000     -19.139919      -520.8237
   4   2.0000     -10.277411      -279.6626
   5   2.0000     -10.245764      -278.8014
   6   2.0000     -10.236577      -278.5514
   7   2.0000     -10.235636      -278.5258
   8   2.0000     -10.233263      -278.4612
   9   2.0000     -10.229931      -278.3706
  10   2.0000     -10.195514      -277.4340
  11   2.0000     -10.193062      -277.3673
  12   2.0000     -10.192454      -277.3508
  13   2.0000      -1.052373       -28.6365
  14   2.0000      -1.037893       -28.2425
  15   2.0000      -1.008590       -27.4451
  16   2.0000      -0.995778       -27.0965
  17   2.0000      -0.790414       -21.5083
  18   2.0000      -0.787838       -21.4382
  19   2.0000      -0.773562       -21.0497
  20   2.0000      -0.734008       -19.9734
  21   2.0000      -0.681231       -18.5372
  22   2.0000      -0.608111       -16.5475
  23   2.0000      -0.605380       -16.4732
  24   2.0000      -0.599881       -16.3236
  25   2.0000      -0.579076       -15.7575
  26   2.0000      -0.528080       -14.3698
  27   2.0000      -0.507819       -13.8185
  28   2.0000      -0.502329       -13.6691
  29   2.0000      -0.493118       -13.4184
  30   2.0000      -0.482814       -13.1380
  31   2.0000      -0.462625       -12.5887
  32   2.0000      -0.455542       -12.3959
  33   2.0000      -0.435626       -11.8540
  34   2.0000      -0.431099       -11.7308
  35   2.0000      -0.415280       -11.3003
  36   2.0000      -0.405531       -11.0350
  37   2.0000      -0.396355       -10.7854
  38   2.0000      -0.384830       -10.4718
  39   2.0000      -0.374470       -10.1899
  40   2.0000      -0.362942        -9.8762
  41   2.0000      -0.362054        -9.8520
  42   2.0000      -0.353342        -9.6149
  43   2.0000      -0.332224        -9.0403
  44   2.0000      -0.316052        -8.6002
  45   2.0000      -0.310139        -8.4393
  46   2.0000      -0.301023        -8.1912
  47   2.0000      -0.273145        -7.4326
  48   2.0000      -0.266106        -7.2411
  49   2.0000      -0.252669        -6.8755
  50   2.0000      -0.246325        -6.7029
  51   0.0000       0.055692         1.5155
  52   0.0000       0.074612         2.0303
  53   0.0000       0.079583         2.1656
  54   0.0000       0.098597         2.6830
  55   0.0000       0.101938         2.7739

MULLIKEN ATOMIC CHARGES
-----------------------
   0 C :    0.305075
   1 C :   -0.285039
   2 C :   -0.313770
   3 C :   -0.009051
   4 O :   -0.503768
   5 H :    0.170222
   6 H :    0.157890
   7 H :    0.151850
   8 H :    0.145261
   9 H :    0.142159
  10 H :    0.142847
  11 H :    0.147657
  12 C :   -0.001615
  13 H :    0.138631
  14 H :    0.124273
  15 O :   -0.508777
  16 C :    0.065020
  17 C :    0.077128
  18 C :   -0.291836
  19 C :   -0.031729
  20 O :   -0.508469
  21 H :    0.175684
  22 O :   -0.601569
  23 H :    0.149655
  24 H :    0.165269
  25 H :    0.136056
  26 H :    0.145149
  27 H :    0.148219
  28 H :    0.367577
Sum of atomic charges:   -0.0000000

LOEWDIN ATOMIC CHARGES
----------------------
   0 C :    0.175449
   1 C :   -0.230288
   2 C :   -0.224588
   3 C :   -0.033437
   4 O :   -0.322074
   5 H :    0.115840
   6 H :    0.123723
   7 H :    0.119127
   8 H :    0.115347
   9 H :    0.105628
  10 H :    0.101305
  11 H :    0.104389
  12 C :   -0.044027
  13 H :    0.101048
  14 H :    0.090267
  15 O :   -0.305593
  16 C :    0.018845
  17 C :    0.035696
  18 C :   -0.241249
  19 C :   -0.039658
  20 O :   -0.319034
  21 H :    0.123893
  22 O :   -0.413469
  23 H :    0.114487
  24 H :    0.127829
  25 H :    0.109041
  26 H :    0.103038
  27 H :    0.103498
  28 H :    0.284964

  Mayer bond orders larger than 0.100000
B(  0-C ,  1-C ) :   0.9203 B(  0-C ,  4-O ) :   0.8965 B(  0-C ,  5-H ) :   0.9355
B(  0-C , 15-O ) :   0.9036 B(  1-C ,  2-C ) :   0.9546 B(  1-C ,  6-H ) :   0.9352
B(  1-C ,  7-H ) :   0.9350 B(  2-C ,  3-C ) :   0.9466 B(  2-C ,  8-H ) :   0.9457
B(  2-C ,  9-H ) :   0.9404 B(  3-C ,  4-O ) :   0.8507 B(  3-C , 10-H ) :   0.9338
B(  3-C , 11-H ) :   0.9386 B( 12-C , 13-H ) :   0.9106 B( 12-C , 14-H ) :   0.9048
B( 12-C , 15-O ) :   0.8443 B( 12-C , 16-C ) :   0.8974 B( 16-C , 17-C ) :   0.9004
B( 16-C , 20-O ) :   0.8660 B( 16-C , 21-H ) :   0.9219 B( 17-C , 18-C ) :   0.9090
B( 17-C , 22-O ) :   0.8968 B( 17-C , 23-H ) :   0.9332 B( 18-C , 19-C ) :   0.9404
B( 18-C , 24-H ) :   0.9369 B( 18-C , 25-H ) :   0.9351 B( 19-C , 20-O ) :   0.8526
B( 19-C , 26-H ) :   0.9343 B( 19-C , 27-H ) :   0.9371 B( 22-O , 28-H ) :   0.7923

FINAL SINGLE POINT ENERGY      -652.854214060448

DIPOLE MOMENT
-------------
                                X             Y             Z
Electronic contribution:     -4.79760      -5.49428      -0.56057
Nuclear contribution   :      5.84713       6.99391       0.45451
                        -----------------------------------------
Total Dipole Moment    :      1.04953       1.49963      -0.10606
                        -----------------------------------------
Magnitude (a.u.)       :      1.83348
Magnitude (Debye)      :      4.66032

Rotational constants in cm-1:     0.057237     0.012619     0.012404
Rotational constants in MHz :  1715.934626   378.294698   371.859466

                             ****ORCA TERMINATED NORMALLY****
TOTAL RUN TIME: 0 days 1 hours 54 minutes 37 seconds 244 msec
