                         Program Version 4.2.0 -  RELEASE  -
|  1> # Test redundant internal optimization
|  2> #
|  3> ! RKS B3LYP  Opt TightSCF SmallPrint
|  4>
|  5> %basis
|  6>         Basis "6-31G"
|  7> end
|  8>
|  9> %geom
| 10> Constraints
| 11> { D 4  0  15  12  30.0   C } # D for Dihedral angle
| 12> { D 0  15  12  16  165.0   C } # D for Dihedral angle
| 13> { D 0  4  3  2   C } # D for Dihedral angle
| 14> { D 4  3  2  1   C } # D for Dihedral angle
| 15> { D 3  2  1  0   C } # D for Dihedral angle
| 16> { D 2  1  0  4   C } # D for Dihedral angle
| 17> { D 1  0  4  3   C } # D for Dihedral angle
| 18> { D 16  20  19  18   C } # D for Dihedral angle
| 19> { D 20  19  18  17   C } # D for Dihedral angle
| 20> { D 19  18  17  16   C } # D for Dihedral angle
| 21> { D 18  17  16  20   C } # D for Dihedral angle
| 22> { D 17  16  20  19   C } # D for Dihedral angle
| 23> { D 15  12  16  20   C } # D for Dihedral angle
| 24> end
| 25> end
| 26>
| 27>
| 28> #%pal
| 29> #nprocs 8
| 30> #end
| 31>
| 32> * xyz 0 1
| 33> C  -21.048   26.222   46.251
| 34> C  -20.361   27.558   45.944
| 35> C  -20.329   28.222   47.341
| 36> C  -20.110   27.022   48.296
| 37> O  -20.473   25.807   47.535
| 38> H  -20.833   25.428   45.533
| 39> H  -19.344   27.382   45.576
| 40> H  -20.898   28.157   45.201
| 41> H  -19.543   28.978   47.434
| 42> H  -21.289   28.710   47.548
| 43> H  -20.733   27.082   49.195
| 44> H  -19.064   26.913   48.597
| 45> C  -23.091   26.824   47.779
| 46> H  -23.035   25.967   48.462
| 47> H  -22.463   27.628   48.184
| 48> O  -22.586   26.394   46.375
| 49> C  -24.558   27.336   47.759
| 50> C  -25.532   26.220   47.366
| 51> C  -25.662   25.435   48.693
| 52> C  -25.578   26.547   49.768
| 53> O  -24.983   27.727   49.107
| 54> H  -24.617   28.229   47.134
| 55> H  -26.498   26.648   47.074
| 56> O  -25.013   25.342   46.194
| 57> H  -26.591   24.861   48.757
| 58> H  -24.826   24.732   48.797
| 59> H  -24.954   26.260   50.621
| 60> H  -26.563   26.845   50.137
| 61> H  -24.047   24.902   46.464
| 62> *
| 63>
| 64>                          ****END OF INPUT****
 Total Charge           Charge          ....    0
 Multiplicity           Mult            ....    1
 Number of Electrons    NEL             ....  102
FINAL SINGLE POINT ENERGY      -652.823362120882
FINAL SINGLE POINT ENERGY      -652.848785289327
FINAL SINGLE POINT ENERGY      -652.856938841255
FINAL SINGLE POINT ENERGY      -652.860479314011
FINAL SINGLE POINT ENERGY      -652.862061942296
FINAL SINGLE POINT ENERGY      -652.863002744897
FINAL SINGLE POINT ENERGY      -652.863377866087
FINAL SINGLE POINT ENERGY      -652.863458970701
FINAL SINGLE POINT ENERGY      -652.863469906935
                    ***********************HURRAY********************

CARTESIAN COORDINATES (ANGSTROEM)
---------------------------------
  C    -21.152842   26.265840   46.437072
  C    -20.454049   27.534304   45.938069
  C    -20.133616   28.268529   47.267609
  C    -19.820606   27.105551   48.237256
  O    -20.397417   25.885016   47.602941
  H    -21.094701   25.431753   45.736001
  H    -19.534353   27.246586   45.416988
  H    -21.081691   28.116540   45.259667
  H    -19.285896   28.953913   47.170368
  H    -20.994587   28.855782   47.600088
  H    -20.264264   27.228271   49.228771
  H    -18.747950   26.921755   48.342800
  C    -23.095543   26.824484   47.984858
  H    -23.000412   25.991322   48.689438
  H    -22.546482   27.680773   48.383639
  O    -22.584777   26.410021   46.671538
  C    -24.558001   27.238580   47.786534
  C    -25.501493   26.113723   47.326528
  C    -25.758212   25.351883   48.660158
  C    -25.767291   26.479740   49.711732
  O    -25.100393   27.657652   49.077451
  H    -24.600143   28.107678   47.124074
  H    -26.439171   26.566440   46.984705
  O    -25.017663   25.275784   46.261479
  H    -26.695981   24.790752   48.630341
  H    -24.944220   24.637899   48.826232
  H    -25.226935   26.224258   50.628391
  H    -26.777928   26.802379   49.976575
  H    -24.045386   25.410792   46.160694

 Multiplicity           Mult            ....    1
 Number of Electrons    NEL             ....  102
 Basis Dimension        Dim             ....  149

ORBITAL ENERGIES
----------------

  NO   OCC          E(Eh)            E(eV)
   0   2.0000     -19.162487      -521.4378
   1   2.0000     -19.159349      -521.3524
   2   2.0000     -19.139373      -520.8088
   3   2.0000     -19.109749      -520.0027
   4   2.0000     -10.292936      -280.0850
   5   2.0000     -10.241224      -278.6779
   6   2.0000     -10.237752      -278.5834
   7   2.0000     -10.233353      -278.4637
   8   2.0000     -10.227992      -278.3178
   9   2.0000     -10.225030      -278.2372
  10   2.0000     -10.201645      -277.6009
  11   2.0000     -10.197637      -277.4918
  12   2.0000     -10.176886      -276.9272
  13   2.0000      -1.067334       -29.0436
  14   2.0000      -1.024967       -27.8908
  15   2.0000      -1.008081       -27.4313
  16   2.0000      -0.989758       -26.9327
  17   2.0000      -0.799699       -21.7609
  18   2.0000      -0.778129       -21.1740
  19   2.0000      -0.766825       -20.8664
  20   2.0000      -0.738102       -20.0848
  21   2.0000      -0.680087       -18.5061
  22   2.0000      -0.614272       -16.7152
  23   2.0000      -0.601303       -16.3623
  24   2.0000      -0.593959       -16.1625
  25   2.0000      -0.577204       -15.7065
  26   2.0000      -0.534259       -14.5379
  27   2.0000      -0.513349       -13.9689
  28   2.0000      -0.509641       -13.8680
  29   2.0000      -0.487212       -13.2577
  30   2.0000      -0.476157       -12.9569
  31   2.0000      -0.460559       -12.5324
  32   2.0000      -0.442845       -12.0504
  33   2.0000      -0.432515       -11.7693
  34   2.0000      -0.425523       -11.5791
  35   2.0000      -0.424258       -11.5447
  36   2.0000      -0.408536       -11.1168
  37   2.0000      -0.388614       -10.5747
  38   2.0000      -0.387016       -10.5312
  39   2.0000      -0.370878       -10.0921
  40   2.0000      -0.367646       -10.0042
  41   2.0000      -0.357826        -9.7369
  42   2.0000      -0.355378        -9.6703
  43   2.0000      -0.339534        -9.2392
  44   2.0000      -0.332901        -9.0587
  45   2.0000      -0.320146        -8.7116
  46   2.0000      -0.290427        -7.9029
  47   2.0000      -0.273860        -7.4521
  48   2.0000      -0.264965        -7.2101
  49   2.0000      -0.249454        -6.7880
  50   2.0000      -0.239078        -6.5057
  51   0.0000       0.057188         1.5562
  52   0.0000       0.070649         1.9225
  53   0.0000       0.088659         2.4125
  54   0.0000       0.099066         2.6957
  55   0.0000       0.099944         2.7196

MULLIKEN ATOMIC CHARGES
-----------------------
   0 C :    0.308027
   1 C :   -0.260878
   2 C :   -0.320568
   3 C :   -0.020248
   4 O :   -0.505901
   5 H :    0.167753
   6 H :    0.154776
   7 H :    0.160439
   8 H :    0.152846
   9 H :    0.159731
  10 H :    0.152501
  11 H :    0.156545
  12 C :   -0.013037
  13 H :    0.159505
  14 H :    0.148408
  15 O :   -0.572275
  16 C :    0.051190
  17 C :    0.120883
  18 C :   -0.302591
  19 C :   -0.020480
  20 O :   -0.522984
  21 H :    0.157178
  22 H :    0.145045
  23 O :   -0.639000
  24 H :    0.151446
  25 H :    0.148484
  26 H :    0.141016
  27 H :    0.147953
  28 H :    0.394235
Sum of atomic charges:   -0.0000000

LOEWDIN ATOMIC CHARGES
----------------------
   0 C :    0.182051
   1 C :   -0.223099
   2 C :   -0.223030
   3 C :   -0.033869
   4 O :   -0.315037
   5 H :    0.113504
   6 H :    0.120257
   7 H :    0.125154
   8 H :    0.120016
   9 H :    0.113815
  10 H :    0.106352
  11 H :    0.110021
  12 C :   -0.043450
  13 H :    0.107790
  14 H :    0.105709
  15 O :   -0.343222
  16 C :    0.018372
  17 C :    0.042369
  18 C :   -0.237714
  19 C :   -0.032147
  20 O :   -0.326058
  21 H :    0.113941
  22 H :    0.104655
  23 O :   -0.434446
  24 H :    0.121322
  25 H :    0.112593
  26 H :    0.101334
  27 H :    0.105657
  28 H :    0.287161

  Mayer bond orders larger than 0.100000
B(  0-C ,  1-C ) :   0.9244 B(  0-C ,  4-O ) :   0.9258 B(  0-C ,  5-H ) :   0.9342
B(  0-C , 15-O ) :   0.8213 B(  1-C ,  2-C ) :   0.9519 B(  1-C ,  6-H ) :   0.9337
B(  1-C ,  7-H ) :   0.9358 B(  2-C ,  3-C ) :   0.9501 B(  2-C ,  8-H ) :   0.9433
B(  2-C ,  9-H ) :   0.9392 B(  3-C ,  4-O ) :   0.8287 B(  3-C , 10-H ) :   0.9318
B(  3-C , 11-H ) :   0.9385 B( 12-C , 13-H ) :   0.9218 B( 12-C , 14-H ) :   0.9126
B( 12-C , 15-O ) :   0.7745 B( 12-C , 16-C ) :   0.9033 B( 16-C , 17-C ) :   0.9146
B( 16-C , 20-O ) :   0.8561 B( 16-C , 21-H ) :   0.9286 B( 17-C , 18-C ) :   0.9012
B( 17-C , 22-H ) :   0.9300 B( 17-C , 23-O ) :   0.9375 B( 18-C , 19-C ) :   0.9392
B( 18-C , 24-H ) :   0.9446 B( 18-C , 25-H ) :   0.9427 B( 19-C , 20-O ) :   0.8314
B( 19-C , 26-H ) :   0.9345 B( 19-C , 27-H ) :   0.9390 B( 23-O , 28-H ) :   0.7227

FINAL SINGLE POINT ENERGY      -652.863472623177

DIPOLE MOMENT
-------------
                                X             Y             Z
Electronic contribution:     -1.85563      -1.91239      -1.91868
Nuclear contribution   :      2.99606       2.65608       2.27663
                        -----------------------------------------
Total Dipole Moment    :      1.14043       0.74369       0.35795
                        -----------------------------------------
Magnitude (a.u.)       :      1.40776
Magnitude (Debye)      :      3.57824

Rotational constants in cm-1:     0.051734     0.014457     0.013091
Rotational constants in MHz :  1550.947830   433.415128   392.448669

                             ****ORCA TERMINATED NORMALLY****
TOTAL RUN TIME: 0 days 0 hours 26 minutes 56 seconds 930 msec
