                         Program Version 4.2.0 -  RELEASE  -
|  1> # Test redundant internal optimization
|  2> #
|  3> ! RKS B3LYP  Opt TightSCF SmallPrint
|  4>
|  5> %basis
|  6>         Basis "6-31G"
|  7> end
|  8>
|  9> %geom
| 10> Constraints
| 11> { D 4  0  15  12  165.0   C } # D for Dihedral angle
| 12> { D 0  15  12  16  210.0   C } # D for Dihedral angle
| 13> { D 0  4  3  2   C } # D for Dihedral angle
| 14> { D 4  3  2  1   C } # D for Dihedral angle
| 15> { D 3  2  1  0   C } # D for Dihedral angle
| 16> { D 2  1  0  4   C } # D for Dihedral angle
| 17> { D 1  0  4  3   C } # D for Dihedral angle
| 18> { D 16  20  19  18   C } # D for Dihedral angle
| 19> { D 20  19  18  17   C } # D for Dihedral angle
| 20> { D 19  18  17  16   C } # D for Dihedral angle
| 21> { D 18  17  16  20   C } # D for Dihedral angle
| 22> { D 17  16  20  19   C } # D for Dihedral angle
| 23> { D 15  12  16  20   C } # D for Dihedral angle
| 24> end
| 25> end
| 26>
| 27>
| 28> #%pal
| 29> #nprocs 8
| 30> #end
| 31>
| 32> * xyz 0 1
| 33> C  -21.048   26.222   46.251
| 34> C  -20.361   27.558   45.944
| 35> C  -20.329   28.222   47.341
| 36> C  -20.110   27.022   48.296
| 37> O  -20.473   25.807   47.535
| 38> H  -20.833   25.428   45.533
| 39> H  -19.344   27.382   45.576
| 40> H  -20.898   28.157   45.201
| 41> H  -19.543   28.978   47.434
| 42> H  -21.289   28.710   47.548
| 43> H  -20.733   27.082   49.195
| 44> H  -19.064   26.913   48.597
| 45> C  -23.260   27.170   45.210
| 46> H  -22.545   27.890   44.794
| 47> H  -23.557   26.480   44.410
| 48> O  -22.586   26.394   46.375
| 49> C  -24.528   27.946   45.660
| 50> C  -25.540   27.014   46.337
| 51> C  -24.936   26.873   47.755
| 52> C  -24.322   28.271   48.017
| 53> O  -24.189   28.926   46.698
| 54> H  -24.926   28.504   44.811
| 55> H  -26.523   27.496   46.383
| 56> O  -25.696   25.651   45.611
| 57> H  -25.681   26.596   48.509
| 58> H  -24.156   26.102   47.757
| 59> H  -23.337   28.215   48.492
| 60> H  -24.973   28.905   48.627
| 61> H  -24.723   25.151   45.554
| 62> *
| 63>
| 64>                          ****END OF INPUT****
 Total Charge           Charge          ....    0
 Multiplicity           Mult            ....    1
 Number of Electrons    NEL             ....  102
FINAL SINGLE POINT ENERGY      -652.829505274329
FINAL SINGLE POINT ENERGY      -652.853249109810
FINAL SINGLE POINT ENERGY      -652.858719127853
FINAL SINGLE POINT ENERGY      -652.860497754505
FINAL SINGLE POINT ENERGY      -652.860682486054
FINAL SINGLE POINT ENERGY      -652.860716183126
FINAL SINGLE POINT ENERGY      -652.860718318009
                    ***********************HURRAY********************

CARTESIAN COORDINATES (ANGSTROEM)
---------------------------------
  C    -21.051126   26.276835   46.145972
  C    -20.260276   27.561371   45.903039
  C    -20.341410   28.256123   47.285895
  C    -20.299689   27.067602   48.266778
  O    -20.653524   25.868598   47.461609
  H    -20.824814   25.452020   45.463977
  H    -19.226969   27.283778   45.663912
  H    -20.631156   28.187765   45.089447
  H    -19.519588   28.959740   47.447850
  H    -21.287626   28.800516   47.363164
  H    -21.014150   27.158290   49.089251
  H    -19.301228   26.884095   48.673937
  C    -23.196239   27.193334   45.154448
  H    -22.549956   27.953850   44.704723
  H    -23.514998   26.499603   44.363362
  O    -22.500650   26.472107   46.209054
  C    -24.425272   27.896410   45.723896
  C    -25.475991   26.972997   46.366782
  C    -24.925380   26.824222   47.819638
  C    -24.311626   28.212105   48.094424
  O    -24.120993   28.864930   46.769655
  H    -24.866898   28.469549   44.899123
  H    -26.454356   27.457909   46.357565
  O    -25.668220   25.718054   45.671584
  H    -25.713159   26.563232   48.532491
  H    -24.152079   26.052413   47.828142
  H    -23.344604   28.153159   48.600051
  H    -24.979258   28.862830   48.668323
  H    -24.891765   25.141564   45.832911

 Multiplicity           Mult            ....    1
 Number of Electrons    NEL             ....  102
 Basis Dimension        Dim             ....  149

ORBITAL ENERGIES
----------------

  NO   OCC          E(Eh)            E(eV)
   0   2.0000     -19.147511      -521.0303
   1   2.0000     -19.145312      -520.9704
   2   2.0000     -19.137376      -520.7545
   3   2.0000     -19.136815      -520.7392
   4   2.0000     -10.286748      -279.9166
   5   2.0000     -10.235119      -278.5117
   6   2.0000     -10.233308      -278.4625
   7   2.0000     -10.231045      -278.4009
   8   2.0000     -10.229202      -278.3507
   9   2.0000     -10.222895      -278.1791
  10   2.0000     -10.192835      -277.3611
  11   2.0000     -10.188206      -277.2352
  12   2.0000     -10.176737      -276.9231
  13   2.0000      -1.058368       -28.7997
  14   2.0000      -1.026804       -27.9407
  15   2.0000      -1.008646       -27.4467
  16   2.0000      -0.995744       -27.0956
  17   2.0000      -0.790392       -21.5076
  18   2.0000      -0.773663       -21.0524
  19   2.0000      -0.765385       -20.8272
  20   2.0000      -0.735586       -20.0163
  21   2.0000      -0.680443       -18.5158
  22   2.0000      -0.605446       -16.4750
  23   2.0000      -0.601075       -16.3561
  24   2.0000      -0.596556       -16.2331
  25   2.0000      -0.566278       -15.4092
  26   2.0000      -0.531549       -14.4642
  27   2.0000      -0.507318       -13.8048
  28   2.0000      -0.498642       -13.5687
  29   2.0000      -0.492047       -13.3893
  30   2.0000      -0.472642       -12.8612
  31   2.0000      -0.458990       -12.4898
  32   2.0000      -0.448220       -12.1967
  33   2.0000      -0.433050       -11.7839
  34   2.0000      -0.422581       -11.4990
  35   2.0000      -0.411653       -11.2016
  36   2.0000      -0.403730       -10.9861
  37   2.0000      -0.399007       -10.8575
  38   2.0000      -0.381705       -10.3867
  39   2.0000      -0.370819       -10.0905
  40   2.0000      -0.358678        -9.7601
  41   2.0000      -0.353899        -9.6301
  42   2.0000      -0.352191        -9.5836
  43   2.0000      -0.325520        -8.8578
  44   2.0000      -0.317056        -8.6275
  45   2.0000      -0.308907        -8.4058
  46   2.0000      -0.300699        -8.1824
  47   2.0000      -0.269576        -7.3355
  48   2.0000      -0.261254        -7.1091
  49   2.0000      -0.258742        -7.0407
  50   2.0000      -0.240891        -6.5550
  51   0.0000       0.066573         1.8115
  52   0.0000       0.077481         2.1084
  53   0.0000       0.094073         2.5599
  54   0.0000       0.098406         2.6778
  55   0.0000       0.100575         2.7368

MULLIKEN ATOMIC CHARGES
-----------------------
   0 C :    0.316747
   1 C :   -0.292292
   2 C :   -0.310819
   3 C :   -0.004815
   4 O :   -0.501740
   5 H :    0.145910
   6 H :    0.151987
   7 H :    0.150234
   8 H :    0.143690
   9 H :    0.182714
  10 H :    0.149853
  11 H :    0.144672
  12 C :   -0.025081
  13 H :    0.139795
  14 H :    0.139641
  15 O :   -0.539067
  16 C :    0.098241
  17 C :    0.086747
  18 C :   -0.314852
  19 C :   -0.014508
  20 O :   -0.525128
  21 H :    0.147274
  22 H :    0.160171
  23 O :   -0.608342
  24 H :    0.143021
  25 H :    0.182495
  26 H :    0.143452
  27 H :    0.143217
  28 H :    0.366783
Sum of atomic charges:    0.0000000

LOEWDIN ATOMIC CHARGES
----------------------
   0 C :    0.185789
   1 C :   -0.231637
   2 C :   -0.220158
   3 C :   -0.026332
   4 O :   -0.305352
   5 H :    0.099064
   6 H :    0.118758
   7 H :    0.116553
   8 H :    0.115675
   9 H :    0.126302
  10 H :    0.104848
  11 H :    0.104140
  12 C :   -0.050840
  13 H :    0.101917
  14 H :    0.100493
  15 O :   -0.345827
  16 C :    0.018448
  17 C :    0.038363
  18 C :   -0.244142
  19 C :   -0.026658
  20 O :   -0.327003
  21 H :    0.112978
  22 H :    0.115068
  23 O :   -0.411530
  24 H :    0.114852
  25 H :    0.130143
  26 H :    0.100843
  27 H :    0.101002
  28 H :    0.284242

  Mayer bond orders larger than 0.100000
B(  0-C ,  1-C ) :   0.9345 B(  0-C ,  4-O ) :   0.9396 B(  0-C ,  5-H ) :   0.9241
B(  0-C , 15-O ) :   0.8196 B(  1-C ,  2-C ) :   0.9485 B(  1-C ,  6-H ) :   0.9331
B(  1-C ,  7-H ) :   0.9253 B(  2-C ,  3-C ) :   0.9556 B(  2-C ,  8-H ) :   0.9445
B(  2-C ,  9-H ) :   0.9295 B(  3-C ,  4-O ) :   0.8318 B(  3-C , 10-H ) :   0.9315
B(  3-C , 11-H ) :   0.9392 B( 12-C , 13-H ) :   0.9110 B( 12-C , 14-H ) :   0.9059
B( 12-C , 15-O ) :   0.8365 B( 12-C , 16-C ) :   0.9089 B( 16-C , 17-C ) :   0.8874
B( 16-C , 20-O ) :   0.8775 B( 16-C , 21-H ) :   0.9283 B( 17-C , 18-C ) :   0.9361
B( 17-C , 22-H ) :   0.9365 B( 17-C , 23-O ) :   0.9014 B( 18-C , 19-C ) :   0.9477
B( 18-C , 24-H ) :   0.9407 B( 18-C , 25-H ) :   0.9217 B( 19-C , 20-O ) :   0.8336
B( 19-C , 26-H ) :   0.9261 B( 19-C , 27-H ) :   0.9382 B( 23-O , 28-H ) :   0.7911

FINAL SINGLE POINT ENERGY      -652.860706141627

DIPOLE MOMENT
-------------
                                X             Y             Z
Electronic contribution:     -2.62362      -2.77946      -1.65248
Nuclear contribution   :      3.49660       3.26903       1.60984
                        -----------------------------------------
Total Dipole Moment    :      0.87298       0.48956      -0.04265
                        -----------------------------------------
Magnitude (a.u.)       :      1.00179
Magnitude (Debye)      :      2.54636

Rotational constants in cm-1:     0.045616     0.017776     0.016624
Rotational constants in MHz :  1367.538535   532.911175   498.382338

                             ****ORCA TERMINATED NORMALLY****
TOTAL RUN TIME: 0 days 0 hours 32 minutes 6 seconds 585 msec
