                         Program Version 4.2.0 -  RELEASE  -
|  1> # Test redundant internal optimization
|  2> #
|  3> ! RKS B3LYP  Opt TightSCF SmallPrint
|  4>
|  5> %basis
|  6>         Basis "6-31G"
|  7> end
|  8>
|  9> %geom
| 10> Constraints
| 11> { D 4  0  15  12  120.0   C } # D for Dihedral angle
| 12> { D 0  15  12  16  240.0   C } # D for Dihedral angle
| 13> { D 0  4  3  2   C } # D for Dihedral angle
| 14> { D 4  3  2  1   C } # D for Dihedral angle
| 15> { D 3  2  1  0   C } # D for Dihedral angle
| 16> { D 2  1  0  4   C } # D for Dihedral angle
| 17> { D 1  0  4  3   C } # D for Dihedral angle
| 18> { D 16  20  19  18   C } # D for Dihedral angle
| 19> { D 20  19  18  17   C } # D for Dihedral angle
| 20> { D 19  18  17  16   C } # D for Dihedral angle
| 21> { D 18  17  16  20   C } # D for Dihedral angle
| 22> { D 17  16  20  19   C } # D for Dihedral angle
| 23> { D 15  12  16  20   C } # D for Dihedral angle
| 24> end
| 25> end
| 26>
| 27>
| 28> #%pal
| 29> #nprocs 8
| 30> #end
| 31>
| 32> * xyz 0 1
| 33> C  -21.048   26.222   46.251
| 34> C  -20.361   27.558   45.944
| 35> C  -20.329   28.222   47.341
| 36> C  -20.110   27.022   48.296
| 37> O  -20.473   25.807   47.535
| 38> H  -20.833   25.428   45.533
| 39> H  -19.344   27.382   45.576
| 40> H  -20.898   28.157   45.201
| 41> H  -19.543   28.978   47.434
| 42> H  -21.289   28.710   47.548
| 43> H  -20.733   27.082   49.195
| 44> H  -19.064   26.913   48.597
| 45> C  -23.119   27.818   46.058
| 46> H  -22.278   28.467   45.784
| 47> H  -23.817   27.787   45.211
| 48> O  -22.586   26.394   46.375
| 49> C  -23.862   28.463   47.260
| 50> C  -22.912   28.702   48.439
| 51> C  -22.184   29.994   47.998
| 52> C  -23.288   30.780   47.247
| 53> O  -24.343   29.803   46.907
| 54> H  -24.741   27.861   47.502
| 55> O  -23.726   28.947   49.738
| 56> H  -22.226   27.866   48.616
| 57> H  -21.770   30.556   48.840
| 58> H  -21.357   29.747   47.321
| 59> H  -22.919   31.246   46.327
| 60> H  -23.750   31.550   47.872
| 61> H  -24.421   29.782   49.586
| 62> *
| 63>
| 64>                          ****END OF INPUT****
 Total Charge           Charge          ....    0
 Multiplicity           Mult            ....    1
 Number of Electrons    NEL             ....  102
FINAL SINGLE POINT ENERGY      -652.722158653872
FINAL SINGLE POINT ENERGY      -652.814022864326
FINAL SINGLE POINT ENERGY      -652.837403941196
FINAL SINGLE POINT ENERGY      -652.844598584397
FINAL SINGLE POINT ENERGY      -652.845815981381
FINAL SINGLE POINT ENERGY      -652.846068503374
FINAL SINGLE POINT ENERGY      -652.846089078231
FINAL SINGLE POINT ENERGY      -652.846090556433
FINAL SINGLE POINT ENERGY      -652.846088104340
                    ***********************HURRAY********************

CARTESIAN COORDINATES (ANGSTROEM)
---------------------------------
  C    -21.146786   26.287140   46.347323
  C    -20.063617   27.246541   45.843304
  C    -19.687711   28.019254   47.136588
  C    -19.828613   26.933664   48.232377
  O    -20.657253   25.857849   47.633117
  H    -21.180263   25.366677   45.759101
  H    -19.220584   26.643435   45.492263
  H    -20.383184   27.896465   45.023848
  H    -18.676455   28.435404   47.097898
  H    -20.380794   28.841255   47.305314
  H    -20.311086   27.298426   49.143371
  H    -18.869356   26.479833   48.496844
  C    -23.150273   27.965152   46.045756
  H    -22.405835   28.688800   45.683358
  H    -23.866444   27.789575   45.238097
  O    -22.538772   26.686014   46.372312
  C    -23.907788   28.550080   47.250484
  C    -23.118566   28.866172   48.531144
  C    -22.506713   30.255022   48.194230
  C    -23.619246   30.921581   47.344411
  O    -24.505360   29.833964   46.877279
  H    -24.733700   27.874347   47.494595
  O    -24.013831   28.953174   49.672795
  H    -22.391901   28.097959   48.786619
  H    -22.277774   30.806975   49.108868
  H    -21.588711   30.155929   47.610955
  H    -23.225055   31.459033   46.476203
  H    -24.236500   31.611200   47.928537
  H    -24.831830   29.423079   49.405011

 Multiplicity           Mult            ....    1
 Number of Electrons    NEL             ....  102
 Basis Dimension        Dim             ....  149

ORBITAL ENERGIES
----------------

  NO   OCC          E(Eh)            E(eV)
   0   2.0000     -19.149041      -521.0719
   1   2.0000     -19.143763      -520.9283
   2   2.0000     -19.141228      -520.8593
   3   2.0000     -19.138467      -520.7842
   4   2.0000     -10.284457      -279.8543
   5   2.0000     -10.241471      -278.6846
   6   2.0000     -10.239194      -278.6226
   7   2.0000     -10.236155      -278.5399
   8   2.0000     -10.234919      -278.5063
   9   2.0000     -10.231501      -278.4133
  10   2.0000     -10.199174      -277.5336
  11   2.0000     -10.197927      -277.4997
  12   2.0000     -10.193423      -277.3772
  13   2.0000      -1.050787       -28.5934
  14   2.0000      -1.041279       -28.3346
  15   2.0000      -1.008431       -27.4408
  16   2.0000      -0.996865       -27.1261
  17   2.0000      -0.795763       -21.6538
  18   2.0000      -0.783838       -21.3293
  19   2.0000      -0.774455       -21.0740
  20   2.0000      -0.737074       -20.0568
  21   2.0000      -0.685805       -18.6617
  22   2.0000      -0.612778       -16.6745
  23   2.0000      -0.606383       -16.5005
  24   2.0000      -0.600677       -16.3452
  25   2.0000      -0.577363       -15.7108
  26   2.0000      -0.527803       -14.3622
  27   2.0000      -0.516243       -14.0477
  28   2.0000      -0.507497       -13.8097
  29   2.0000      -0.496647       -13.5144
  30   2.0000      -0.479684       -13.0529
  31   2.0000      -0.461770       -12.5654
  32   2.0000      -0.452144       -12.3035
  33   2.0000      -0.442382       -12.0378
  34   2.0000      -0.428243       -11.6531
  35   2.0000      -0.422915       -11.5081
  36   2.0000      -0.412154       -11.2153
  37   2.0000      -0.396869       -10.7994
  38   2.0000      -0.387261       -10.5379
  39   2.0000      -0.378724       -10.3056
  40   2.0000      -0.367618       -10.0034
  41   2.0000      -0.359297        -9.7770
  42   2.0000      -0.351688        -9.5699
  43   2.0000      -0.335838        -9.1386
  44   2.0000      -0.317995        -8.6531
  45   2.0000      -0.308448        -8.3933
  46   2.0000      -0.289155        -7.8683
  47   2.0000      -0.281118        -7.6496
  48   2.0000      -0.268176        -7.2974
  49   2.0000      -0.259401        -7.0587
  50   2.0000      -0.242931        -6.6105
  51   0.0000       0.057611         1.5677
  52   0.0000       0.063198         1.7197
  53   0.0000       0.086132         2.3438
  54   0.0000       0.088097         2.3972
  55   0.0000       0.099301         2.7021

MULLIKEN ATOMIC CHARGES
-----------------------
   0 C :    0.325671
   1 C :   -0.299955
   2 C :   -0.321352
   3 C :   -0.010707
   4 O :   -0.496258
   5 H :    0.162763
   6 H :    0.162686
   7 H :    0.146132
   8 H :    0.146559
   9 H :    0.153155
  10 H :    0.149031
  11 H :    0.149124
  12 C :   -0.004280
  13 H :    0.117987
  14 H :    0.166149
  15 O :   -0.543285
  16 C :    0.064955
  17 C :    0.074177
  18 C :   -0.312254
  19 C :   -0.027500
  20 O :   -0.528460
  21 H :    0.172207
  22 O :   -0.602036
  23 H :    0.180649
  24 H :    0.166189
  25 H :    0.148515
  26 H :    0.145611
  27 H :    0.149121
  28 H :    0.365409
Sum of atomic charges:   -0.0000000

LOEWDIN ATOMIC CHARGES
----------------------
   0 C :    0.184430
   1 C :   -0.230537
   2 C :   -0.225048
   3 C :   -0.033105
   4 O :   -0.311246
   5 H :    0.106604
   6 H :    0.125728
   7 H :    0.115523
   8 H :    0.117462
   9 H :    0.107568
  10 H :    0.103274
  11 H :    0.105872
  12 C :   -0.030559
  13 H :    0.090113
  14 H :    0.116850
  15 O :   -0.338796
  16 C :    0.011373
  17 C :    0.036861
  18 C :   -0.245942
  19 C :   -0.037417
  20 O :   -0.329454
  21 H :    0.119779
  22 O :   -0.411367
  23 H :    0.125784
  24 H :    0.128509
  25 H :    0.108556
  26 H :    0.102838
  27 H :    0.103502
  28 H :    0.282843

  Mayer bond orders larger than 0.100000
B(  0-C ,  1-C ) :   0.9239 B(  0-C ,  4-O ) :   0.9115 B(  0-C ,  5-H ) :   0.9346
B(  0-C , 15-O ) :   0.8764 B(  1-C ,  2-C ) :   0.9533 B(  1-C ,  6-H ) :   0.9335
B(  1-C ,  7-H ) :   0.9323 B(  2-C ,  3-C ) :   0.9513 B(  2-C ,  8-H ) :   0.9464
B(  2-C ,  9-H ) :   0.9178 B(  3-C ,  4-O ) :   0.8445 B(  3-C , 10-H ) :   0.9269
B(  3-C , 11-H ) :   0.9384 B( 12-C , 13-H ) :   0.9204 B( 12-C , 14-H ) :   0.9262
B( 12-C , 15-O ) :   0.8294 B( 12-C , 16-C ) :   0.8911 B( 16-C , 17-C ) :   0.9116
B( 16-C , 20-O ) :   0.8324 B( 16-C , 21-H ) :   0.9238 B( 17-C , 18-C ) :   0.9134
B( 17-C , 22-O ) :   0.8852 B( 17-C , 23-H ) :   0.9150 B( 18-C , 19-C ) :   0.9345
B( 18-C , 24-H ) :   0.9374 B( 18-C , 25-H ) :   0.9098 B( 19-C , 20-O ) :   0.8438
B( 19-C , 26-H ) :   0.9356 B( 19-C , 27-H ) :   0.9377 B( 22-O , 28-H ) :   0.7934

FINAL SINGLE POINT ENERGY      -652.846084952815

DIPOLE MOMENT
-------------
                                X             Y             Z
Electronic contribution:     -5.52537      -4.20628       0.87178
Nuclear contribution   :      6.70361       5.52359      -1.61395
                        -----------------------------------------
Total Dipole Moment    :      1.17823       1.31731      -0.74217
                        -----------------------------------------
Magnitude (a.u.)       :      1.91686
Magnitude (Debye)      :      4.87227

Rotational constants in cm-1:     0.043660     0.016915     0.015955
Rotational constants in MHz :  1308.890289   507.109915   478.318858

                             ****ORCA TERMINATED NORMALLY****
TOTAL RUN TIME: 0 days 1 hours 8 minutes 31 seconds 62 msec
