                         Program Version 4.2.0 -  RELEASE  -
|  1> # Test redundant internal optimization
|  2> #
|  3> ! RKS B3LYP  Opt TightSCF SmallPrint
|  4>
|  5> %basis
|  6>         Basis "6-31G"
|  7> end
|  8>
|  9> %geom
| 10> Constraints
| 11> { D 4  0  15  12  150.0   C } # D for Dihedral angle
| 12> { D 0  15  12  16  225.0   C } # D for Dihedral angle
| 13> { D 0  4  3  2   C } # D for Dihedral angle
| 14> { D 4  3  2  1   C } # D for Dihedral angle
| 15> { D 3  2  1  0   C } # D for Dihedral angle
| 16> { D 2  1  0  4   C } # D for Dihedral angle
| 17> { D 1  0  4  3   C } # D for Dihedral angle
| 18> { D 16  20  19  18   C } # D for Dihedral angle
| 19> { D 20  19  18  17   C } # D for Dihedral angle
| 20> { D 19  18  17  16   C } # D for Dihedral angle
| 21> { D 18  17  16  20   C } # D for Dihedral angle
| 22> { D 17  16  20  19   C } # D for Dihedral angle
| 23> { D 15  12  16  20   C } # D for Dihedral angle
| 24> end
| 25> end
| 26>
| 27>
| 28> #%pal
| 29> #nprocs 8
| 30> #end
| 31>
| 32> * xyz 0 1
| 33> C  -21.048   26.222   46.251
| 34> C  -20.361   27.558   45.944
| 35> C  -20.329   28.222   47.341
| 36> C  -20.110   27.022   48.296
| 37> O  -20.473   25.807   47.535
| 38> H  -20.833   25.428   45.533
| 39> H  -19.344   27.382   45.576
| 40> H  -20.898   28.157   45.201
| 41> H  -19.543   28.978   47.434
| 42> H  -21.289   28.710   47.548
| 43> H  -20.733   27.082   49.195
| 44> H  -19.064   26.913   48.597
| 45> C  -23.210   27.459   45.431
| 46> H  -22.412   28.089   45.019
| 47> H  -23.730   26.973   44.596
| 48> O  -22.586   26.394   46.375
| 49> C  -24.232   28.378   46.156
| 50> C  -24.912   29.337   45.173
| 51> C  -25.969   28.418   44.517
| 52> C  -26.397   27.489   45.680
| 53> O  -25.336   27.583   46.705
| 54> H  -23.739   28.867   46.998
| 55> H  -25.395   30.156   45.718
| 56> O  -23.926   29.953   44.141
| 57> H  -26.813   28.974   44.095
| 58> H  -25.512   27.837   43.707
| 59> H  -26.500   26.444   45.366
| 60> H  -27.330   27.812   46.151
| 61> H  -23.430   29.153   43.582
| 62> *
| 63>
| 64>                          ****END OF INPUT****
 Total Charge           Charge          ....    0
 Multiplicity           Mult            ....    1
 Number of Electrons    NEL             ....  102
FINAL SINGLE POINT ENERGY      -652.813219031546
FINAL SINGLE POINT ENERGY      -652.837378286429
FINAL SINGLE POINT ENERGY      -652.843588242944
FINAL SINGLE POINT ENERGY      -652.845824919934
FINAL SINGLE POINT ENERGY      -652.846249790978
FINAL SINGLE POINT ENERGY      -652.846388021584
FINAL SINGLE POINT ENERGY      -652.846403065859
FINAL SINGLE POINT ENERGY      -652.846408834353
                    ***********************HURRAY********************

CARTESIAN COORDINATES (ANGSTROEM)
---------------------------------
  C    -21.053351   26.267014   46.225279
  C    -20.176592   27.492325   45.963914
  C    -20.258985   28.245805   47.318324
  C    -20.322429   27.090330   48.340134
  O    -20.722232   25.888949   47.569136
  H    -20.833696   25.403091   45.592373
  H    -19.154271   27.140457   45.783879
  H    -20.466421   28.105129   45.107651
  H    -19.399137   28.902345   47.481585
  H    -21.166274   28.856915   47.359977
  H    -21.055707   27.257325   49.133046
  H    -19.348931   26.866807   48.786741
  C    -23.119739   27.451931   45.302486
  H    -22.395686   28.144515   44.858161
  H    -23.601958   26.893342   44.487041
  O    -22.497228   26.500963   46.200746
  C    -24.145506   28.281791   46.075159
  C    -24.897504   29.297402   45.198857
  C    -26.027721   28.417959   44.584152
  C    -26.360217   27.442464   45.734562
  O    -25.207729   27.478278   46.669462
  H    -23.633760   28.761405   46.914580
  H    -25.323117   30.078295   45.832856
  O    -24.080731   30.009430   44.234329
  H    -26.887940   29.011448   44.264061
  H    -25.638559   27.884271   43.706157
  H    -26.510173   26.414226   45.392632
  H    -27.241658   27.757106   46.301500
  H    -23.926747   29.455686   43.442217

 Multiplicity           Mult            ....    1
 Number of Electrons    NEL             ....  102
 Basis Dimension        Dim             ....  149

ORBITAL ENERGIES
----------------

  NO   OCC          E(Eh)            E(eV)
   0   2.0000     -19.153334      -521.1887
   1   2.0000     -19.135567      -520.7053
   2   2.0000     -19.135130      -520.6933
   3   2.0000     -19.132888      -520.6324
   4   2.0000     -10.277870      -279.6751
   5   2.0000     -10.246941      -278.8334
   6   2.0000     -10.230886      -278.3966
   7   2.0000     -10.230376      -278.3827
   8   2.0000     -10.229561      -278.3605
   9   2.0000     -10.222383      -278.1652
  10   2.0000     -10.197780      -277.4957
  11   2.0000     -10.190759      -277.3047
  12   2.0000     -10.189009      -277.2570
  13   2.0000      -1.047760       -28.5110
  14   2.0000      -1.035449       -28.1760
  15   2.0000      -1.015919       -27.6446
  16   2.0000      -0.986962       -26.8566
  17   2.0000      -0.786971       -21.4146
  18   2.0000      -0.784244       -21.3404
  19   2.0000      -0.769072       -20.9275
  20   2.0000      -0.731526       -19.9058
  21   2.0000      -0.683389       -18.5960
  22   2.0000      -0.613414       -16.6918
  23   2.0000      -0.602932       -16.4066
  24   2.0000      -0.591231       -16.0882
  25   2.0000      -0.571185       -15.5427
  26   2.0000      -0.524643       -14.2763
  27   2.0000      -0.513859       -13.9828
  28   2.0000      -0.502290       -13.6680
  29   2.0000      -0.497826       -13.5465
  30   2.0000      -0.465428       -12.6649
  31   2.0000      -0.453912       -12.3516
  32   2.0000      -0.449474       -12.2308
  33   2.0000      -0.433659       -11.8005
  34   2.0000      -0.429961       -11.6998
  35   2.0000      -0.422403       -11.4942
  36   2.0000      -0.408555       -11.1173
  37   2.0000      -0.398100       -10.8329
  38   2.0000      -0.378584       -10.3018
  39   2.0000      -0.375759       -10.2249
  40   2.0000      -0.358613        -9.7583
  41   2.0000      -0.354910        -9.6576
  42   2.0000      -0.352881        -9.6024
  43   2.0000      -0.331027        -9.0077
  44   2.0000      -0.318493        -8.6666
  45   2.0000      -0.307985        -8.3807
  46   2.0000      -0.289068        -7.8660
  47   2.0000      -0.273620        -7.4456
  48   2.0000      -0.262522        -7.1436
  49   2.0000      -0.248550        -6.7634
  50   2.0000      -0.234778        -6.3886
  51   0.0000       0.047068         1.2808
  52   0.0000       0.073933         2.0118
  53   0.0000       0.082190         2.2365
  54   0.0000       0.088371         2.4047
  55   0.0000       0.102608         2.7921

MULLIKEN ATOMIC CHARGES
-----------------------
   0 C :    0.316282
   1 C :   -0.301314
   2 C :   -0.301927
   3 C :    0.000082
   4 O :   -0.493544
   5 H :    0.146061
   6 H :    0.153203
   7 H :    0.145093
   8 H :    0.144431
   9 H :    0.155729
  10 H :    0.156462
  11 H :    0.142116
  12 C :   -0.013047
  13 H :    0.124185
  14 H :    0.124267
  15 O :   -0.511539
  16 C :    0.104024
  17 C :    0.080541
  18 C :   -0.325209
  19 C :   -0.006152
  20 O :   -0.501878
  21 H :    0.155716
  22 H :    0.167562
  23 O :   -0.601910
  24 H :    0.157525
  25 H :    0.131078
  26 H :    0.148259
  27 H :    0.148388
  28 H :    0.355515
Sum of atomic charges:   -0.0000000

LOEWDIN ATOMIC CHARGES
----------------------
   0 C :    0.185804
   1 C :   -0.234991
   2 C :   -0.217147
   3 C :   -0.026767
   4 O :   -0.302942
   5 H :    0.099195
   6 H :    0.120268
   7 H :    0.113161
   8 H :    0.115538
   9 H :    0.112184
  10 H :    0.110547
  11 H :    0.102658
  12 C :   -0.050464
  13 H :    0.096300
  14 H :    0.091299
  15 O :   -0.324489
  16 C :    0.020606
  17 C :    0.032520
  18 C :   -0.240600
  19 C :   -0.028357
  20 O :   -0.310037
  21 H :    0.113227
  22 H :    0.119340
  23 O :   -0.410201
  24 H :    0.122335
  25 H :    0.102598
  26 H :    0.105331
  27 H :    0.105672
  28 H :    0.277412

  Mayer bond orders larger than 0.100000
B(  0-C ,  1-C ) :   0.9299 B(  0-C ,  4-O ) :   0.9326 B(  0-C ,  5-H ) :   0.9259
B(  0-C , 15-O ) :   0.8482 B(  1-C ,  2-C ) :   0.9501 B(  1-C ,  6-H ) :   0.9330
B(  1-C ,  7-H ) :   0.9252 B(  2-C ,  3-C ) :   0.9536 B(  2-C ,  8-H ) :   0.9452
B(  2-C ,  9-H ) :   0.9415 B(  3-C ,  4-O ) :   0.8384 B(  3-C , 10-H ) :   0.9336
B(  3-C , 11-H ) :   0.9396 B( 12-C , 13-H ) :   0.8905 B( 12-C , 14-H ) :   0.9248
B( 12-C , 15-O ) :   0.8562 B( 12-C , 16-C ) :   0.8984 B( 16-C , 17-C ) :   0.8688
B( 16-C , 20-O ) :   0.8744 B( 16-C , 21-H ) :   0.9290 B( 17-C , 18-C ) :   0.9258
B( 17-C , 22-H ) :   0.9331 B( 17-C , 23-O ) :   0.8899 B( 18-C , 19-C ) :   0.9381
B( 18-C , 24-H ) :   0.9418 B( 18-C , 25-H ) :   0.9405 B( 19-C , 20-O ) :   0.8525
B( 19-C , 26-H ) :   0.9311 B( 19-C , 27-H ) :   0.9375 B( 23-O , 28-H ) :   0.7993

FINAL SINGLE POINT ENERGY      -652.846409330444

DIPOLE MOMENT
-------------
                                X             Y             Z
Electronic contribution:     -1.13635      -2.89177       1.61378
Nuclear contribution   :      1.24376       3.70760      -2.90119
                        -----------------------------------------
Total Dipole Moment    :      0.10741       0.81583      -1.28741
                        -----------------------------------------
Magnitude (a.u.)       :      1.52792
Magnitude (Debye)      :      3.88367

Rotational constants in cm-1:     0.051913     0.013787     0.012443
Rotational constants in MHz :  1556.308843   413.328752   373.025082

                             ****ORCA TERMINATED NORMALLY****
TOTAL RUN TIME: 0 days 0 hours 27 minutes 3 seconds 990 msec
