                         Program Version 4.2.0 -  RELEASE  -
|  1> # Test redundant internal optimization
|  2> #
|  3> ! RKS B3LYP  Opt TightSCF SmallPrint
|  4>
|  5> %basis
|  6>         Basis "6-31G"
|  7> end
|  8>
|  9> %geom
| 10> Constraints
| 11> { D 4  0  15  12  315.0   C } # D for Dihedral angle
| 12> { D 0  15  12  16  90.0   C } # D for Dihedral angle
| 13> { D 0  4  3  2   C } # D for Dihedral angle
| 14> { D 4  3  2  1   C } # D for Dihedral angle
| 15> { D 3  2  1  0   C } # D for Dihedral angle
| 16> { D 2  1  0  4   C } # D for Dihedral angle
| 17> { D 1  0  4  3   C } # D for Dihedral angle
| 18> { D 16  20  19  18   C } # D for Dihedral angle
| 19> { D 20  19  18  17   C } # D for Dihedral angle
| 20> { D 19  18  17  16   C } # D for Dihedral angle
| 21> { D 18  17  16  20   C } # D for Dihedral angle
| 22> { D 17  16  20  19   C } # D for Dihedral angle
| 23> { D 15  12  16  20   C } # D for Dihedral angle
| 24> end
| 25> end
| 26>
| 27>
| 28> #%pal
| 29> #nprocs 8
| 30> #end
| 31>
| 32> * xyz 0 1
| 33> C  -21.048   26.222   46.251
| 34> C  -20.361   27.558   45.944
| 35> C  -20.329   28.222   47.341
| 36> C  -20.110   27.022   48.296
| 37> O  -20.473   25.807   47.535
| 38> H  -20.833   25.428   45.533
| 39> H  -19.344   27.382   45.576
| 40> H  -20.898   28.157   45.201
| 41> H  -19.543   28.978   47.434
| 42> H  -21.289   28.710   47.548
| 43> H  -20.733   27.082   49.195
| 44> H  -19.064   26.913   48.597
| 45> C  -23.319   25.255   47.135
| 46> H  -24.334   25.146   46.733
| 47> H  -22.792   24.301   46.998
| 48> O  -22.586   26.394   46.375
| 49> C  -23.424   25.522   48.662
| 50> C  -24.293   26.750   48.954
| 51> C  -25.719   26.168   48.801
| 52> C  -25.569   24.724   49.343
| 53> O  -24.123   24.418   49.329
| 54> H  -22.419   25.567   49.087
| 55> H  -24.124   27.095   49.980
| 56> O  -24.019   27.935   47.988
| 57> H  -26.472   26.743   49.349
| 58> H  -26.009   26.157   47.744
| 59> H  -26.097   23.989   48.728
| 60> H  -25.909   24.629   50.378
| 61> H  -24.183   27.612   46.954
| 62> *
| 63>
| 64>                          ****END OF INPUT****
 Total Charge           Charge          ....    0
 Multiplicity           Mult            ....    1
 Number of Electrons    NEL             ....  102
FINAL SINGLE POINT ENERGY      -652.838027798593
FINAL SINGLE POINT ENERGY      -652.863130688051
FINAL SINGLE POINT ENERGY      -652.869197498849
FINAL SINGLE POINT ENERGY      -652.871150304769
FINAL SINGLE POINT ENERGY      -652.872085770015
FINAL SINGLE POINT ENERGY      -652.872411026606
FINAL SINGLE POINT ENERGY      -652.872482596917
FINAL SINGLE POINT ENERGY      -652.872494859897
                    ***********************HURRAY********************

CARTESIAN COORDINATES (ANGSTROEM)
---------------------------------
  C    -21.082879   26.158083   46.308307
  C    -20.525683   27.540986   45.968833
  C    -20.489636   28.216057   47.359603
  C    -20.131757   27.054714   48.310567
  O    -20.433790   25.803995   47.547209
  H    -20.836070   25.355618   45.606640
  H    -19.517918   27.424625   45.555472
  H    -21.147174   28.072810   45.245084
  H    -19.759901   29.029788   47.409036
  H    -21.474642   28.618312   47.612524
  H    -20.719130   27.056570   49.231513
  H    -19.068032   27.008232   48.558067
  C    -23.253299   25.193159   47.116447
  H    -24.223349   25.122066   46.617951
  H    -22.728975   24.237227   47.011175
  O    -22.530425   26.256154   46.398045
  C    -23.405535   25.521028   48.606710
  C    -24.246585   26.773229   48.904405
  C    -25.694116   26.223516   48.749748
  C    -25.581114   24.780382   49.284365
  O    -24.128016   24.435044   49.268316
  H    -22.416778   25.552410   49.065536
  H    -24.080328   27.082433   49.941358
  O    -23.955966   27.926854   48.081882
  H    -26.418824   26.825117   49.304331
  H    -25.977970   26.250960   47.691802
  H    -26.124216   24.049044   48.677803
  H    -25.911324   24.690253   50.323272
  H    -23.552568   27.627334   47.233000

 Multiplicity           Mult            ....    1
 Number of Electrons    NEL             ....  102
 Basis Dimension        Dim             ....  149

ORBITAL ENERGIES
----------------

  NO   OCC          E(Eh)            E(eV)
   0   2.0000     -19.162665      -521.4426
   1   2.0000     -19.154228      -521.2131
   2   2.0000     -19.138822      -520.7938
   3   2.0000     -19.123629      -520.3804
   4   2.0000     -10.289622      -279.9949
   5   2.0000     -10.235251      -278.5153
   6   2.0000     -10.233546      -278.4689
   7   2.0000     -10.232130      -278.4304
   8   2.0000     -10.228812      -278.3401
   9   2.0000     -10.226611      -278.2802
  10   2.0000     -10.192627      -277.3555
  11   2.0000     -10.187876      -277.2262
  12   2.0000     -10.181586      -277.0550
  13   2.0000      -1.065191       -28.9853
  14   2.0000      -1.024608       -27.8810
  15   2.0000      -1.006497       -27.3882
  16   2.0000      -0.997580       -27.1455
  17   2.0000      -0.795710       -21.6524
  18   2.0000      -0.773030       -21.0352
  19   2.0000      -0.767041       -20.8723
  20   2.0000      -0.734925       -19.9983
  21   2.0000      -0.679461       -18.4891
  22   2.0000      -0.604565       -16.4510
  23   2.0000      -0.598472       -16.2852
  24   2.0000      -0.597079       -16.2474
  25   2.0000      -0.582347       -15.8465
  26   2.0000      -0.527401       -14.3513
  27   2.0000      -0.517705       -14.0875
  28   2.0000      -0.497741       -13.5442
  29   2.0000      -0.487685       -13.2706
  30   2.0000      -0.474604       -12.9146
  31   2.0000      -0.459100       -12.4927
  32   2.0000      -0.443728       -12.0745
  33   2.0000      -0.431246       -11.7348
  34   2.0000      -0.423579       -11.5262
  35   2.0000      -0.413190       -11.2435
  36   2.0000      -0.408467       -11.1150
  37   2.0000      -0.392795       -10.6885
  38   2.0000      -0.380499       -10.3539
  39   2.0000      -0.367479        -9.9996
  40   2.0000      -0.363570        -9.8932
  41   2.0000      -0.355795        -9.6817
  42   2.0000      -0.354026        -9.6335
  43   2.0000      -0.341736        -9.2991
  44   2.0000      -0.331282        -9.0146
  45   2.0000      -0.312619        -8.5068
  46   2.0000      -0.297085        -8.0841
  47   2.0000      -0.279515        -7.6060
  48   2.0000      -0.269485        -7.3331
  49   2.0000      -0.253568        -6.8999
  50   2.0000      -0.239771        -6.5245
  51   0.0000       0.059127         1.6089
  52   0.0000       0.080556         2.1920
  53   0.0000       0.090271         2.4564
  54   0.0000       0.097746         2.6598
  55   0.0000       0.105514         2.8712

MULLIKEN ATOMIC CHARGES
-----------------------
   0 C :    0.300044
   1 C :   -0.270494
   2 C :   -0.315697
   3 C :   -0.018101
   4 O :   -0.509941
   5 H :    0.156405
   6 H :    0.151600
   7 H :    0.161511
   8 H :    0.146000
   9 H :    0.177048
  10 H :    0.151541
  11 H :    0.151668
  12 C :   -0.037013
  13 H :    0.155215
  14 H :    0.166604
  15 O :   -0.554619
  16 C :    0.053302
  17 C :    0.110343
  18 C :   -0.308056
  19 C :   -0.019021
  20 O :   -0.520608
  21 H :    0.177572
  22 H :    0.148738
  23 O :   -0.636250
  24 H :    0.153090
  25 H :    0.145507
  26 H :    0.143367
  27 H :    0.147930
  28 H :    0.392313
Sum of atomic charges:   -0.0000000

LOEWDIN ATOMIC CHARGES
----------------------
   0 C :    0.176873
   1 C :   -0.215406
   2 C :   -0.223108
   3 C :   -0.030742
   4 O :   -0.324786
   5 H :    0.102337
   6 H :    0.117832
   7 H :    0.125822
   8 H :    0.117211
   9 H :    0.125622
  10 H :    0.105537
  11 H :    0.107499
  12 C :   -0.046793
  13 H :    0.111259
  14 H :    0.118602
  15 O :   -0.339542
  16 C :    0.006469
  17 C :    0.038969
  18 C :   -0.238912
  19 C :   -0.032440
  20 O :   -0.322705
  21 H :    0.122298
  22 H :    0.107097
  23 O :   -0.432639
  24 H :    0.121762
  25 H :    0.111035
  26 H :    0.102328
  27 H :    0.105513
  28 H :    0.283008

  Mayer bond orders larger than 0.100000
B(  0-C ,  1-C ) :   0.9478 B(  0-C ,  4-O ) :   0.9158 B(  0-C ,  5-H ) :   0.9230
B(  0-C , 15-O ) :   0.8196 B(  1-C ,  2-C ) :   0.9533 B(  1-C ,  6-H ) :   0.9382
B(  1-C ,  7-H ) :   0.9354 B(  2-C ,  3-C ) :   0.9541 B(  2-C ,  8-H ) :   0.9436
B(  2-C ,  9-H ) :   0.9239 B(  3-C ,  4-O ) :   0.8238 B(  3-C , 10-H ) :   0.9289
B(  3-C , 11-H ) :   0.9411 B( 12-C , 13-H ) :   0.9376 B( 12-C , 14-H ) :   0.9265
B( 12-C , 15-O ) :   0.7917 B( 12-C , 16-C ) :   0.8896 B( 16-C , 17-C ) :   0.9091
B( 16-C , 20-O ) :   0.8463 B( 16-C , 21-H ) :   0.9157 B( 17-C , 18-C ) :   0.9022
B( 17-C , 22-H ) :   0.9347 B( 17-C , 23-O ) :   0.9217 B( 18-C , 19-C ) :   0.9404
B( 18-C , 24-H ) :   0.9441 B( 18-C , 25-H ) :   0.9437 B( 19-C , 20-O ) :   0.8347
B( 19-C , 26-H ) :   0.9337 B( 19-C , 27-H ) :   0.9389 B( 23-O , 28-H ) :   0.7181

FINAL SINGLE POINT ENERGY      -652.872495666065

DIPOLE MOMENT
-------------
                                X             Y             Z
Electronic contribution:      0.40101      -2.76938      -0.18214
Nuclear contribution   :     -0.22866       2.99936      -0.27015
                        -----------------------------------------
Total Dipole Moment    :      0.17235       0.22998      -0.45229
                        -----------------------------------------
Magnitude (a.u.)       :      0.53587
Magnitude (Debye)      :      1.36209

Rotational constants in cm-1:     0.052942     0.016553     0.015528
Rotational constants in MHz :  1587.153965   496.247325   465.524001

                             ****ORCA TERMINATED NORMALLY****
TOTAL RUN TIME: 0 days 1 hours 28 minutes 1 seconds 443 msec
