                         Program Version 4.2.0 -  RELEASE  -
|  1> # Test redundant internal optimization
|  2> #
|  3> ! RKS B3LYP  Opt TightSCF SmallPrint
|  4>
|  5> %basis
|  6>         Basis "6-31G"
|  7> end
|  8>
|  9> %geom
| 10> Constraints
| 11> { D 4  0  15  12  30.0   C } # D for Dihedral angle
| 12> { D 0  15  12  16  300.0   C } # D for Dihedral angle
| 13> { D 0  4  3  2   C } # D for Dihedral angle
| 14> { D 4  3  2  1   C } # D for Dihedral angle
| 15> { D 3  2  1  0   C } # D for Dihedral angle
| 16> { D 2  1  0  4   C } # D for Dihedral angle
| 17> { D 1  0  4  3   C } # D for Dihedral angle
| 18> { D 16  20  19  18   C } # D for Dihedral angle
| 19> { D 20  19  18  17   C } # D for Dihedral angle
| 20> { D 19  18  17  16   C } # D for Dihedral angle
| 21> { D 18  17  16  20   C } # D for Dihedral angle
| 22> { D 17  16  20  19   C } # D for Dihedral angle
| 23> { D 15  12  16  20   C } # D for Dihedral angle
| 24> end
| 25> end
| 26>
| 27>
| 28> #%pal
| 29> #nprocs 8
| 30> #end
| 31>
| 32> * xyz 0 1
| 33> C  -21.048   26.222   46.251
| 34> C  -20.361   27.558   45.944
| 35> C  -20.329   28.222   47.341
| 36> C  -20.110   27.022   48.296
| 37> O  -20.473   25.807   47.535
| 38> H  -20.833   25.428   45.533
| 39> H  -19.344   27.382   45.576
| 40> H  -20.898   28.157   45.201
| 41> H  -19.543   28.978   47.434
| 42> H  -21.289   28.710   47.548
| 43> H  -20.733   27.082   49.195
| 44> H  -19.064   26.913   48.597
| 45> C  -23.091   26.824   47.779
| 46> H  -22.651   27.794   48.041
| 47> H  -24.184   26.932   47.778
| 48> O  -22.586   26.394   46.375
| 49> C  -22.719   25.803   48.890
| 50> C  -23.331   26.200   50.238
| 51> C  -24.793   25.720   50.072
| 52> C  -24.646   24.432   49.224
| 53> O  -23.307   24.491   48.599
| 54> H  -21.635   25.672   48.907
| 55> H  -22.836   25.657   51.051
| 56> O  -23.227   27.721   50.532
| 57> H  -25.290   25.534   51.030
| 58> H  -25.377   26.474   49.532
| 59> H  -25.406   24.360   48.437
| 60> H  -24.678   23.525   49.833
| 61> H  -23.717   28.286   49.731
| 62> *
| 63>
| 64>                          ****END OF INPUT****
 Total Charge           Charge          ....    0
 Multiplicity           Mult            ....    1
 Number of Electrons    NEL             ....  102
FINAL SINGLE POINT ENERGY      -652.801314413010
FINAL SINGLE POINT ENERGY      -652.828459856615
FINAL SINGLE POINT ENERGY      -652.844830693455
FINAL SINGLE POINT ENERGY      -652.847767144974
FINAL SINGLE POINT ENERGY      -652.848312251750
FINAL SINGLE POINT ENERGY      -652.848447111290
FINAL SINGLE POINT ENERGY      -652.848461996233
FINAL SINGLE POINT ENERGY      -652.848467007333
                    ***********************HURRAY********************

CARTESIAN COORDINATES (ANGSTROEM)
---------------------------------
  C    -21.064191   26.306673   46.345959
  C    -20.387681   27.602838   45.883375
  C    -20.018377   28.272273   47.235940
  C    -19.665775   27.063291   48.132780
  O    -20.260235   25.871441   47.465805
  H    -21.013553   25.503291   45.609382
  H    -19.485231   27.353507   45.313363
  H    -21.047584   28.210454   45.260582
  H    -19.181159   28.971298   47.145158
  H    -20.873703   28.826750   47.635457
  H    -20.071578   27.145350   49.145670
  H    -18.589259   26.879797   48.192480
  C    -23.103083   26.799946   47.836077
  H    -22.805122   27.812744   48.147433
  H    -24.170620   26.816681   47.594497
  O    -22.493108   26.448725   46.566161
  C    -22.834202   25.840109   49.004655
  C    -23.578775   26.242694   50.290066
  C    -25.003152   25.661282   50.031028
  C    -24.700728   24.362753   49.249456
  O    -23.318227   24.489126   48.726563
  H    -21.763365   25.732146   49.158817
  H    -23.115039   25.744704   51.144489
  O    -23.538157   27.653959   50.622937
  H    -25.553447   25.483389   50.958678
  H    -25.583149   26.369594   49.423933
  H    -25.386976   24.200916   48.412199
  H    -24.719839   23.479939   49.895573
  H    -24.173683   28.154331   50.071485

 Multiplicity           Mult            ....    1
 Number of Electrons    NEL             ....  102
 Basis Dimension        Dim             ....  149

ORBITAL ENERGIES
----------------

  NO   OCC          E(Eh)            E(eV)
   0   2.0000     -19.149966      -521.0971
   1   2.0000     -19.146810      -521.0112
   2   2.0000     -19.134616      -520.6794
   3   2.0000     -19.130923      -520.5789
   4   2.0000     -10.275513      -279.6109
   5   2.0000     -10.243227      -278.7324
   6   2.0000     -10.230193      -278.3777
   7   2.0000     -10.230138      -278.3762
   8   2.0000     -10.226292      -278.2716
   9   2.0000     -10.221694      -278.1464
  10   2.0000     -10.194172      -277.3975
  11   2.0000     -10.191264      -277.3184
  12   2.0000     -10.184326      -277.1296
  13   2.0000      -1.048904       -28.5421
  14   2.0000      -1.031406       -28.0660
  15   2.0000      -1.011136       -27.5144
  16   2.0000      -0.990388       -26.9498
  17   2.0000      -0.787798       -21.4371
  18   2.0000      -0.780181       -21.2298
  19   2.0000      -0.766196       -20.8493
  20   2.0000      -0.731852       -19.9147
  21   2.0000      -0.679827       -18.4990
  22   2.0000      -0.609140       -16.5755
  23   2.0000      -0.603050       -16.4098
  24   2.0000      -0.600858       -16.3502
  25   2.0000      -0.562990       -15.3197
  26   2.0000      -0.519667       -14.1409
  27   2.0000      -0.511924       -13.9301
  28   2.0000      -0.501615       -13.6496
  29   2.0000      -0.490854       -13.3568
  30   2.0000      -0.465163       -12.6577
  31   2.0000      -0.454743       -12.3742
  32   2.0000      -0.441635       -12.0175
  33   2.0000      -0.429556       -11.6888
  34   2.0000      -0.426144       -11.5960
  35   2.0000      -0.415396       -11.3035
  36   2.0000      -0.410020       -11.1572
  37   2.0000      -0.398618       -10.8469
  38   2.0000      -0.378613       -10.3026
  39   2.0000      -0.374167       -10.1816
  40   2.0000      -0.359093        -9.7714
  41   2.0000      -0.357677        -9.7329
  42   2.0000      -0.341672        -9.2974
  43   2.0000      -0.330487        -8.9930
  44   2.0000      -0.319242        -8.6870
  45   2.0000      -0.313367        -8.5272
  46   2.0000      -0.304855        -8.2955
  47   2.0000      -0.270801        -7.3689
  48   2.0000      -0.258023        -7.0212
  49   2.0000      -0.252277        -6.8648
  50   2.0000      -0.228621        -6.2211
  51   0.0000       0.050483         1.3737
  52   0.0000       0.075256         2.0478
  53   0.0000       0.084801         2.3076
  54   0.0000       0.090994         2.4761
  55   0.0000       0.098847         2.6898

MULLIKEN ATOMIC CHARGES
-----------------------
   0 C :    0.305297
   1 C :   -0.264365
   2 C :   -0.316205
   3 C :   -0.025707
   4 O :   -0.503488
   5 H :    0.168992
   6 H :    0.148208
   7 H :    0.155252
   8 H :    0.148110
   9 H :    0.154389
  10 H :    0.147774
  11 H :    0.154211
  12 C :   -0.005418
  13 H :    0.113404
  14 H :    0.145097
  15 O :   -0.530338
  16 C :    0.067296
  17 C :    0.082781
  18 C :   -0.332572
  19 C :   -0.007577
  20 O :   -0.504352
  21 H :    0.193759
  22 H :    0.166120
  23 O :   -0.601204
  24 H :    0.158089
  25 H :    0.133662
  26 H :    0.146136
  27 H :    0.147670
  28 H :    0.354978
Sum of atomic charges:   -0.0000000

LOEWDIN ATOMIC CHARGES
----------------------
   0 C :    0.182934
   1 C :   -0.225794
   2 C :   -0.222040
   3 C :   -0.037505
   4 O :   -0.314488
   5 H :    0.114014
   6 H :    0.116132
   7 H :    0.122394
   8 H :    0.117407
   9 H :    0.111113
  10 H :    0.102789
  11 H :    0.108201
  12 C :   -0.043382
  13 H :    0.085899
  14 H :    0.108969
  15 O :   -0.325004
  16 C :    0.002264
  17 C :    0.033599
  18 C :   -0.243772
  19 C :   -0.030410
  20 O :   -0.312692
  21 H :    0.130277
  22 H :    0.118477
  23 O :   -0.410594
  24 H :    0.122167
  25 H :    0.103291
  26 H :    0.103683
  27 H :    0.105240
  28 H :    0.276830

  Mayer bond orders larger than 0.100000
B(  0-C ,  1-C ) :   0.9173 B(  0-C ,  4-O ) :   0.9000 B(  0-C ,  5-H ) :   0.9345
B(  0-C , 15-O ) :   0.8716 B(  1-C ,  2-C ) :   0.9553 B(  1-C ,  6-H ) :   0.9351
B(  1-C ,  7-H ) :   0.9380 B(  2-C ,  3-C ) :   0.9501 B(  2-C ,  8-H ) :   0.9444
B(  2-C ,  9-H ) :   0.9423 B(  3-C ,  4-O ) :   0.8358 B(  3-C , 10-H ) :   0.9256
B(  3-C , 11-H ) :   0.9398 B( 12-C , 13-H ) :   0.8959 B( 12-C , 14-H ) :   0.9407
B( 12-C , 15-O ) :   0.8620 B( 12-C , 16-C ) :   0.8864 B( 16-C , 17-C ) :   0.8650
B( 16-C , 20-O ) :   0.8602 B( 16-C , 21-H ) :   0.9081 B( 17-C , 18-C ) :   0.9235
B( 17-C , 22-H ) :   0.9335 B( 17-C , 23-O ) :   0.8931 B( 18-C , 19-C ) :   0.9386
B( 18-C , 24-H ) :   0.9414 B( 18-C , 25-H ) :   0.9402 B( 19-C , 20-O ) :   0.8548
B( 19-C , 26-H ) :   0.9308 B( 19-C , 27-H ) :   0.9379 B( 23-O , 28-H ) :   0.7986

FINAL SINGLE POINT ENERGY      -652.848467703622

DIPOLE MOMENT
-------------
                                X             Y             Z
Electronic contribution:      0.02284      -3.52182      -0.56599
Nuclear contribution   :     -0.44086       4.58278       0.69954
                        -----------------------------------------
Total Dipole Moment    :     -0.41801       1.06096       0.13355
                        -----------------------------------------
Magnitude (a.u.)       :      1.14813
Magnitude (Debye)      :      2.91832

Rotational constants in cm-1:     0.049134     0.016096     0.014454
Rotational constants in MHz :  1472.986063   482.557229   433.317664

                             ****ORCA TERMINATED NORMALLY****
TOTAL RUN TIME: 0 days 0 hours 28 minutes 47 seconds 429 msec
