                         Program Version 4.2.1 -  RELEASE  -
|  1> # Test redundant internal optimization
|  2> #
|  3> ! RKS B3LYP  Opt TightSCF SmallPrint
|  4>
|  5> %basis
|  6>         Basis "6-31G"
|  7> end
|  8>
|  9> %geom
| 10> Constraints
| 11> { D 4  0  19  14  285.0   C } # D for Dihedral angle
| 12> { D 0  19  14  12  315.0   C } # D for Dihedral angle
| 13> { D 0  4  3  2   C } # D for Dihedral angle
| 14> { D 4  3  2  1   C } # D for Dihedral angle
| 15> { D 3  2  1  0   C } # D for Dihedral angle
| 16> { D 2  1  0  4   C } # D for Dihedral angle
| 17> { D 1  0  4  3   C } # D for Dihedral angle
| 18> { D 14  15  16  17   C } # D for Dihedral angle
| 19> { D 15  16  17  12   C } # D for Dihedral angle
| 20> { D 16  17  12  14   C } # D for Dihedral angle
| 21> { D 17  12  14  15   C } # D for Dihedral angle
| 22> { D 12  14  15  16   C } # D for Dihedral angle
| 23> end
| 24> end
| 25>
| 26>
| 27> #%pal
| 28> #nprocs 8
| 29> #end
| 30>
| 31> * xyz 0 1
| 32> C  -21.048   26.222   46.251
| 33> C  -20.361   27.558   45.944
| 34> C  -20.329   28.222   47.341
| 35> C  -20.110   27.022   48.296
| 36> O  -20.473   25.807   47.535
| 37> H  -20.833   25.428   45.533
| 38> H  -19.344   27.382   45.576
| 39> H  -20.898   28.157   45.201
| 40> H  -19.543   28.978   47.434
| 41> H  -21.289   28.710   47.548
| 42> H  -20.733   27.082   49.195
| 43> H  -19.064   26.913   48.597
| 44> C  -22.680   24.178   45.353
| 45> H  -23.391   23.356   45.174
| 46> C  -23.203   25.146   46.420
| 47> C  -22.884   24.378   47.724
| 48> C  -21.551   23.661   47.394
| 49> O  -21.430   23.658   45.919
| 50> H  -22.428   24.647   44.401
| 51> O  -22.472   26.381   46.366
| 52> H  -24.270   25.371   46.310
| 53> H  -22.799   25.036   48.595
| 54> H  -23.674   23.646   47.935
| 55> H  -21.527   22.629   47.758
| 56> H  -20.681   24.196   47.787
| 57> *
| 58>
| 59>                          ****END OF INPUT****
 Total Charge           Charge          ....    0
 Multiplicity           Mult            ....    1
 Number of Electrons    NEL             ....   86
FINAL SINGLE POINT ENERGY      -538.404220353879
FINAL SINGLE POINT ENERGY      -538.433546252744
FINAL SINGLE POINT ENERGY      -538.436758279861
FINAL SINGLE POINT ENERGY      -538.437319129088
FINAL SINGLE POINT ENERGY      -538.437357279140
FINAL SINGLE POINT ENERGY      -538.437370807575
                    ***********************HURRAY********************

CARTESIAN COORDINATES (ANGSTROEM)
---------------------------------
  C    -20.837187   26.303623   46.201332
  C    -20.379952   27.742378   45.949473
  C    -20.400488   28.334708   47.378278
  C    -19.962699   27.141915   48.258969
  O    -20.164471   25.925197   47.431817
  H    -20.532886   25.560276   45.463658
  H    -19.363131   27.729386   45.541053
  H    -21.039726   28.265812   45.254971
  H    -19.735112   29.196344   47.488070
  H    -21.418010   28.646610   47.629852
  H    -20.550677   27.051028   49.176268
  H    -18.899525   27.172649   48.515853
  C    -22.703030   24.049289   45.371163
  H    -23.561952   23.387106   45.186864
  C    -23.070245   25.114984   46.406042
  C    -22.938443   24.324129   47.722220
  C    -21.754589   23.363181   47.459123
  O    -21.590136   23.312891   45.975643
  H    -22.357463   24.458420   44.419111
  O    -22.273588   26.341562   46.343482
  H    -24.087175   25.490163   46.262370
  H    -22.762250   24.989290   48.570442
  H    -23.868147   23.770923   47.899158
  H    -21.945744   22.346748   47.819327
  H    -20.818373   23.745387   47.862460

 Multiplicity           Mult            ....    1
 Number of Electrons    NEL             ....   86
 Basis Dimension        Dim             ....  127

ORBITAL ENERGIES
----------------

  NO   OCC          E(Eh)            E(eV)
   0   2.0000     -19.139990      -520.8256
   1   2.0000     -19.137757      -520.7649
   2   2.0000     -19.127415      -520.4834
   3   2.0000     -10.272245      -279.5220
   4   2.0000     -10.237918      -278.5879
   5   2.0000     -10.223198      -278.1874
   6   2.0000     -10.222178      -278.1596
   7   2.0000     -10.208565      -277.7892
   8   2.0000     -10.182354      -277.0759
   9   2.0000     -10.181609      -277.0557
  10   2.0000     -10.179149      -276.9887
  11   2.0000      -1.049167       -28.5493
  12   2.0000      -1.008089       -27.4315
  13   2.0000      -0.986502       -26.8441
  14   2.0000      -0.789835       -21.4925
  15   2.0000      -0.772151       -21.0113
  16   2.0000      -0.735285       -20.0081
  17   2.0000      -0.718600       -19.5541
  18   2.0000      -0.616195       -16.7675
  19   2.0000      -0.595033       -16.1917
  20   2.0000      -0.592312       -16.1176
  21   2.0000      -0.561955       -15.2916
  22   2.0000      -0.518521       -14.1097
  23   2.0000      -0.498618       -13.5681
  24   2.0000      -0.479690       -13.0530
  25   2.0000      -0.475012       -12.9257
  26   2.0000      -0.447473       -12.1764
  27   2.0000      -0.443829       -12.0772
  28   2.0000      -0.417300       -11.3553
  29   2.0000      -0.409018       -11.1299
  30   2.0000      -0.397236       -10.8093
  31   2.0000      -0.388161       -10.5624
  32   2.0000      -0.370326       -10.0771
  33   2.0000      -0.364515        -9.9189
  34   2.0000      -0.355095        -9.6626
  35   2.0000      -0.351380        -9.5615
  36   2.0000      -0.337867        -9.1938
  37   2.0000      -0.320268        -8.7149
  38   2.0000      -0.306519        -8.3408
  39   2.0000      -0.291863        -7.9420
  40   2.0000      -0.267446        -7.2776
  41   2.0000      -0.249383        -6.7861
  42   2.0000      -0.229599        -6.2477
  43   0.0000       0.079845         2.1727
  44   0.0000       0.097505         2.6533
  45   0.0000       0.104338         2.8392
  46   0.0000       0.114655         3.1199
  47   0.0000       0.116439         3.1685

MULLIKEN ATOMIC CHARGES
-----------------------
   0 C :    0.284031
   1 C :   -0.258535
   2 C :   -0.297029
   3 C :   -0.004801
   4 O :   -0.513761
   5 H :    0.171644
   6 H :    0.145698
   7 H :    0.155138
   8 H :    0.138760
   9 H :    0.160713
  10 H :    0.141802
  11 H :    0.143289
  12 C :   -0.032655
  13 H :    0.132883
  14 C :    0.090257
  15 C :   -0.286468
  16 C :   -0.018025
  17 O :   -0.528296
  18 H :    0.153715
  19 O :   -0.531903
  20 H :    0.144388
  21 H :    0.157032
  22 H :    0.135594
  23 H :    0.128943
  24 H :    0.187586
Sum of atomic charges:   -0.0000000

LOEWDIN ATOMIC CHARGES
----------------------
   0 C :    0.170567
   1 C :   -0.214437
   2 C :   -0.215544
   3 C :   -0.030373
   4 O :   -0.325599
   5 H :    0.110542
   6 H :    0.114074
   7 H :    0.123486
   8 H :    0.112364
   9 H :    0.118413
  10 H :    0.101765
  11 H :    0.102652
  12 C :   -0.053407
  13 H :    0.097731
  14 C :    0.042390
  15 C :   -0.231977
  16 C :   -0.039118
  17 O :   -0.338209
  18 H :    0.112200
  19 O :   -0.325051
  20 H :    0.111891
  21 H :    0.125246
  22 H :    0.111056
  23 H :    0.095366
  24 H :    0.123972

  Mayer bond orders larger than 0.100000
B(  0-C ,  1-C ) :   0.9442 B(  0-C ,  4-O ) :   0.8839 B(  0-C ,  5-H ) :   0.9083
B(  0-C , 19-O ) :   0.8542 B(  1-C ,  2-C ) :   0.9564 B(  1-C ,  6-H ) :   0.9411
B(  1-C ,  7-H ) :   0.9370 B(  2-C ,  3-C ) :   0.9551 B(  2-C ,  8-H ) :   0.9456
B(  2-C ,  9-H ) :   0.9443 B(  3-C ,  4-O ) :   0.8381 B(  3-C , 10-H ) :   0.9355
B(  3-C , 11-H ) :   0.9402 B( 12-C , 13-H ) :   0.9141 B( 12-C , 14-C ) :   0.9213
B( 12-C , 17-O ) :   0.8656 B( 12-C , 18-H ) :   0.9312 B( 14-C , 15-C ) :   0.9311
B( 14-C , 19-O ) :   0.8645 B( 14-C , 20-H ) :   0.9381 B( 15-C , 16-C ) :   0.9516
B( 15-C , 21-H ) :   0.9369 B( 15-C , 22-H ) :   0.9375 B( 16-C , 17-O ) :   0.8323
B( 16-C , 23-H ) :   0.9342 B( 16-C , 24-H ) :   0.9141

FINAL SINGLE POINT ENERGY      -538.437371977500

DIPOLE MOMENT
-------------
                                X             Y             Z
Electronic contribution:      0.08357      -2.24283      -1.84088
Nuclear contribution   :     -0.52409       2.94627       2.12265
                        -----------------------------------------
Total Dipole Moment    :     -0.44051       0.70344       0.28177
                        -----------------------------------------
Magnitude (a.u.)       :      0.87651
Magnitude (Debye)      :      2.22792

Rotational constants in cm-1:     0.073179     0.025867     0.023903
Rotational constants in MHz :  2193.858121   775.469406   716.584361

                             ****ORCA TERMINATED NORMALLY****
TOTAL RUN TIME: 0 days 0 hours 16 minutes 33 seconds 214 msec
