                         Program Version 4.2.0 -  RELEASE  -
|  1> # Test redundant internal optimization
|  2> #
|  3> ! RKS B3LYP  Opt TightSCF SmallPrint
|  4>
|  5> %basis
|  6>         Basis "6-31G"
|  7> end
|  8>
|  9> %geom
| 10> Constraints
| 11> { D 4  0  15  12  345.0   C } # D for Dihedral angle
| 12> { D 0  15  12  16  210.0   C } # D for Dihedral angle
| 13> { D 0  4  3  2   C } # D for Dihedral angle
| 14> { D 4  3  2  1   C } # D for Dihedral angle
| 15> { D 3  2  1  0   C } # D for Dihedral angle
| 16> { D 2  1  0  4   C } # D for Dihedral angle
| 17> { D 1  0  4  3   C } # D for Dihedral angle
| 18> { D 16  20  19  18   C } # D for Dihedral angle
| 19> { D 20  19  18  17   C } # D for Dihedral angle
| 20> { D 19  18  17  16   C } # D for Dihedral angle
| 21> { D 18  17  16  20   C } # D for Dihedral angle
| 22> { D 17  16  20  19   C } # D for Dihedral angle
| 23> { D 15  12  16  20   C } # D for Dihedral angle
| 24> end
| 25> end
| 26>
| 27>
| 28> #%pal
| 29> #nprocs 8
| 30> #end
| 31>
| 32> * xyz 0 1
| 33> C  -21.048   26.222   46.251
| 34> C  -20.361   27.558   45.944
| 35> C  -20.329   28.222   47.341
| 36> C  -20.110   27.022   48.296
| 37> O  -20.473   25.807   47.535
| 38> H  -20.833   25.428   45.533
| 39> H  -19.344   27.382   45.576
| 40> H  -20.898   28.157   45.201
| 41> H  -19.543   28.978   47.434
| 42> H  -21.289   28.710   47.548
| 43> H  -20.733   27.082   49.195
| 44> H  -19.064   26.913   48.597
| 45> C  -23.221   25.764   47.645
| 46> H  -22.624   24.897   47.956
| 47> H  -23.229   26.489   48.470
| 48> O  -22.586   26.394   46.375
| 49> C  -24.684   25.294   47.415
| 50> C  -25.316   24.785   48.716
| 51> C  -25.690   26.110   49.422
| 52> C  -26.093   27.034   48.245
| 53> O  -25.530   26.425   47.021
| 54> H  -24.704   24.576   46.592
| 55> O  -26.589   23.953   48.400
| 56> H  -24.636   24.165   49.310
| 57> H  -26.496   25.989   50.152
| 58> H  -24.818   26.515   49.949
| 59> H  -25.698   28.050   48.354
| 60> H  -27.177   27.088   48.109
| 61> H  -27.284   24.556   47.805
| 62> *
| 63>
| 64>                          ****END OF INPUT****
 Total Charge           Charge          ....    0
 Multiplicity           Mult            ....    1
 Number of Electrons    NEL             ....  102
FINAL SINGLE POINT ENERGY      -652.832411216902
FINAL SINGLE POINT ENERGY      -652.855012496220
FINAL SINGLE POINT ENERGY      -652.858882230155
FINAL SINGLE POINT ENERGY      -652.859570388196
FINAL SINGLE POINT ENERGY      -652.859659609421
FINAL SINGLE POINT ENERGY      -652.859671533462
                    ***********************HURRAY********************

CARTESIAN COORDINATES (ANGSTROEM)
---------------------------------
  C    -21.138285   26.173408   46.338172
  C    -20.543767   27.527378   45.952306
  C    -20.354947   28.192813   47.333213
  C    -19.975412   27.009339   48.249934
  O    -20.401958   25.781446   47.519437
  H    -20.990546   25.370577   45.610914
  H    -19.581283   27.371561   45.451032
  H    -21.206591   28.088978   45.290854
  H    -19.586359   28.971844   47.324169
  H    -21.297777   28.646411   47.654499
  H    -20.478126   27.032702   49.220816
  H    -18.896729   26.917006   48.405899
  C    -23.146833   25.781042   47.773737
  H    -22.583522   24.900983   48.105200
  H    -23.104463   26.534142   48.574015
  O    -22.570919   26.332261   46.557278
  C    -24.589453   25.386521   47.473496
  C    -25.344774   24.823270   48.687068
  C    -25.803493   26.121247   49.403640
  C    -26.095706   27.084558   48.225476
  O    -25.404739   26.525039   47.040546
  H    -24.589334   24.677153   46.640157
  O    -26.477588   24.015968   48.262659
  H    -24.745260   24.168068   49.320792
  H    -26.679884   25.928214   50.027403
  H    -25.000440   26.504172   50.043524
  H    -25.728240   28.099176   48.407517
  H    -27.162099   27.139420   47.983825
  H    -26.921473   24.460301   47.509418

 Multiplicity           Mult            ....    1
 Number of Electrons    NEL             ....  102
 Basis Dimension        Dim             ....  149

ORBITAL ENERGIES
----------------

  NO   OCC          E(Eh)            E(eV)
   0   2.0000     -19.150150      -521.1021
   1   2.0000     -19.137338      -520.7534
   2   2.0000     -19.136917      -520.7420
   3   2.0000     -19.135647      -520.7074
   4   2.0000     -10.277925      -279.6766
   5   2.0000     -10.241094      -278.6743
   6   2.0000     -10.232587      -278.4429
   7   2.0000     -10.230770      -278.3934
   8   2.0000     -10.228089      -278.3204
   9   2.0000     -10.227838      -278.3136
  10   2.0000     -10.189639      -277.2742
  11   2.0000     -10.188426      -277.2412
  12   2.0000     -10.184402      -277.1317
  13   2.0000      -1.054599       -28.6971
  14   2.0000      -1.033769       -28.1303
  15   2.0000      -1.004058       -27.3218
  16   2.0000      -0.989743       -26.9323
  17   2.0000      -0.792022       -21.5520
  18   2.0000      -0.781124       -21.2555
  19   2.0000      -0.766560       -20.8591
  20   2.0000      -0.732909       -19.9435
  21   2.0000      -0.671219       -18.2648
  22   2.0000      -0.603878       -16.4323
  23   2.0000      -0.602467       -16.3940
  24   2.0000      -0.593292       -16.1443
  25   2.0000      -0.575098       -15.6492
  26   2.0000      -0.526060       -14.3148
  27   2.0000      -0.506031       -13.7698
  28   2.0000      -0.497607       -13.5406
  29   2.0000      -0.492047       -13.3893
  30   2.0000      -0.474964       -12.9244
  31   2.0000      -0.459061       -12.4917
  32   2.0000      -0.452756       -12.3201
  33   2.0000      -0.436783       -11.8855
  34   2.0000      -0.417777       -11.3683
  35   2.0000      -0.413538       -11.2530
  36   2.0000      -0.400642       -10.9020
  37   2.0000      -0.391740       -10.6598
  38   2.0000      -0.372114       -10.1257
  39   2.0000      -0.369686       -10.0597
  40   2.0000      -0.360227        -9.8023
  41   2.0000      -0.355985        -9.6868
  42   2.0000      -0.350223        -9.5300
  43   2.0000      -0.340110        -9.2549
  44   2.0000      -0.324737        -8.8365
  45   2.0000      -0.307177        -8.3587
  46   2.0000      -0.300322        -8.1722
  47   2.0000      -0.269632        -7.3371
  48   2.0000      -0.263735        -7.1766
  49   2.0000      -0.253424        -6.8960
  50   2.0000      -0.237078        -6.4512
  51   0.0000       0.065701         1.7878
  52   0.0000       0.076709         2.0874
  53   0.0000       0.091835         2.4990
  54   0.0000       0.099851         2.7171
  55   0.0000       0.103509         2.8166

MULLIKEN ATOMIC CHARGES
-----------------------
   0 C :    0.295610
   1 C :   -0.255755
   2 C :   -0.306617
   3 C :   -0.015352
   4 O :   -0.514136
   5 H :    0.153179
   6 H :    0.142676
   7 H :    0.166788
   8 H :    0.146117
   9 H :    0.159482
  10 H :    0.142062
  11 H :    0.151033
  12 C :    0.003072
  13 H :    0.155578
  14 H :    0.121049
  15 O :   -0.526981
  16 C :    0.063131
  17 C :    0.075217
  18 C :   -0.294838
  19 C :   -0.029584
  20 O :   -0.508963
  21 H :    0.166365
  22 O :   -0.602245
  23 H :    0.151879
  24 H :    0.162936
  25 H :    0.140830
  26 H :    0.145976
  27 H :    0.145650
  28 H :    0.365840
Sum of atomic charges:    0.0000000

LOEWDIN ATOMIC CHARGES
----------------------
   0 C :    0.180958
   1 C :   -0.217385
   2 C :   -0.218562
   3 C :   -0.031878
   4 O :   -0.322683
   5 H :    0.102190
   6 H :    0.112714
   7 H :    0.129056
   8 H :    0.116686
   9 H :    0.117142
  10 H :    0.101499
  11 H :    0.106959
  12 C :   -0.041719
  13 H :    0.111956
  14 H :    0.089521
  15 O :   -0.332825
  16 C :    0.015821
  17 C :    0.034756
  18 C :   -0.241829
  19 C :   -0.038930
  20 O :   -0.320956
  21 H :    0.119749
  22 O :   -0.414747
  23 H :    0.115270
  24 H :    0.126530
  25 H :    0.111007
  26 H :    0.104013
  27 H :    0.101887
  28 H :    0.283798

  Mayer bond orders larger than 0.100000
B(  0-C ,  1-C ) :   0.9384 B(  0-C ,  4-O ) :   0.9032 B(  0-C ,  5-H ) :   0.9258
B(  0-C , 15-O ) :   0.8484 B(  1-C ,  2-C ) :   0.9522 B(  1-C ,  6-H ) :   0.9364
B(  1-C ,  7-H ) :   0.9346 B(  2-C ,  3-C ) :   0.9550 B(  2-C ,  8-H ) :   0.9446
B(  2-C ,  9-H ) :   0.9448 B(  3-C ,  4-O ) :   0.8302 B(  3-C , 10-H ) :   0.9344
B(  3-C , 11-H ) :   0.9402 B( 12-C , 13-H ) :   0.9067 B( 12-C , 14-H ) :   0.9219
B( 12-C , 15-O ) :   0.8317 B( 12-C , 16-C ) :   0.9004 B( 16-C , 17-C ) :   0.8997
B( 16-C , 20-O ) :   0.8607 B( 16-C , 21-H ) :   0.9242 B( 17-C , 18-C ) :   0.9115
B( 17-C , 22-O ) :   0.8938 B( 17-C , 23-H ) :   0.9329 B( 18-C , 19-C ) :   0.9398
B( 18-C , 24-H ) :   0.9368 B( 18-C , 25-H ) :   0.9344 B( 19-C , 20-O ) :   0.8548
B( 19-C , 26-H ) :   0.9342 B( 19-C , 27-H ) :   0.9375 B( 22-O , 28-H ) :   0.7934

FINAL SINGLE POINT ENERGY      -652.859673783387

DIPOLE MOMENT
-------------
                                X             Y             Z
Electronic contribution:     -2.52715      -4.35064      -3.05454
Nuclear contribution   :      3.13467       5.31590       3.69850
                        -----------------------------------------
Total Dipole Moment    :      0.60752       0.96526       0.64396
                        -----------------------------------------
Magnitude (a.u.)       :      1.30977
Magnitude (Debye)      :      3.32917

Rotational constants in cm-1:     0.059048     0.012212     0.011943
Rotational constants in MHz :  1770.210880   366.096327   358.044395

                             ****ORCA TERMINATED NORMALLY****
TOTAL RUN TIME: 0 days 1 hours 43 minutes 21 seconds 367 msec
