                         Program Version 4.2.0 -  RELEASE  -
|  1> # Test redundant internal optimization
|  2> #
|  3> ! RKS B3LYP  Opt TightSCF SmallPrint
|  4>
|  5> %basis
|  6>         Basis "6-31G"
|  7> end
|  8>
|  9> %geom
| 10> Constraints
| 11> { D 4  0  15  12  30.0   C } # D for Dihedral angle
| 12> { D 0  15  12  16  315.0   C } # D for Dihedral angle
| 13> { D 0  4  3  2   C } # D for Dihedral angle
| 14> { D 4  3  2  1   C } # D for Dihedral angle
| 15> { D 3  2  1  0   C } # D for Dihedral angle
| 16> { D 2  1  0  4   C } # D for Dihedral angle
| 17> { D 1  0  4  3   C } # D for Dihedral angle
| 18> { D 16  20  19  18   C } # D for Dihedral angle
| 19> { D 20  19  18  17   C } # D for Dihedral angle
| 20> { D 19  18  17  16   C } # D for Dihedral angle
| 21> { D 18  17  16  20   C } # D for Dihedral angle
| 22> { D 17  16  20  19   C } # D for Dihedral angle
| 23> { D 15  12  16  20   C } # D for Dihedral angle
| 24> end
| 25> end
| 26>
| 27>
| 28> #%pal
| 29> #nprocs 8
| 30> #end
| 31>
| 32> * xyz 0 1
| 33> C  -21.048   26.222   46.251
| 34> C  -20.361   27.558   45.944
| 35> C  -20.329   28.222   47.341
| 36> C  -20.110   27.022   48.296
| 37> O  -20.473   25.807   47.535
| 38> H  -20.833   25.428   45.533
| 39> H  -19.344   27.382   45.576
| 40> H  -20.898   28.157   45.201
| 41> H  -19.543   28.978   47.434
| 42> H  -21.289   28.710   47.548
| 43> H  -20.733   27.082   49.195
| 44> H  -19.064   26.913   48.597
| 45> C  -23.091   26.824   47.779
| 46> H  -22.878   27.890   47.930
| 47> H  -24.176   26.676   47.859
| 48> O  -22.586   26.394   46.375
| 49> C  -22.420   26.024   48.930
| 50> C  -23.024   26.392   50.290
| 51> C  -24.338   25.574   50.281
| 52> C  -23.942   24.283   49.523
| 53> O  -22.697   24.591   48.788
| 54> H  -21.337   26.149   48.868
| 55> H  -22.365   26.056   51.098
| 56> O  -23.266   27.917   50.458
| 57> H  -24.717   25.368   51.287
| 58> H  -25.117   26.120   49.735
| 59> H  -24.710   23.964   48.809
| 60> H  -23.721   23.452   50.199
| 61> H  -23.924   28.277   49.660
| 62> *
| 63>
| 64>                          ****END OF INPUT****
 Total Charge           Charge          ....    0
 Multiplicity           Mult            ....    1
 Number of Electrons    NEL             ....  102
FINAL SINGLE POINT ENERGY      -652.739425126108
FINAL SINGLE POINT ENERGY      -652.812676760582
FINAL SINGLE POINT ENERGY      -652.836011576655
FINAL SINGLE POINT ENERGY      -652.841932182846
FINAL SINGLE POINT ENERGY      -652.842846832145
FINAL SINGLE POINT ENERGY      -652.843131924264
FINAL SINGLE POINT ENERGY      -652.843186659778
FINAL SINGLE POINT ENERGY      -652.843196195422
FINAL SINGLE POINT ENERGY      -652.843198339585
FINAL SINGLE POINT ENERGY      -652.843199124602
                    ***********************HURRAY********************

CARTESIAN COORDINATES (ANGSTROEM)
---------------------------------
  C    -21.028859   26.340070   46.327747
  C    -20.393316   27.647779   45.841876
  C    -19.921411   28.290768   47.175281
  C    -19.497881   27.063958   48.015387
  O    -20.139844   25.885842   47.371249
  H    -21.017853   25.551630   45.573067
  H    -19.536653   27.412441   45.199829
  H    -21.099026   28.266880   45.284074
  H    -19.098794   28.998985   47.037597
  H    -20.749902   28.826869   47.651989
  H    -19.811477   27.126279   49.061232
  H    -18.419420   26.881600   47.981991
  C    -23.083457   26.771498   47.882808
  H    -23.022051   27.855419   48.077631
  H    -24.131543   26.517758   47.693259
  O    -22.447074   26.464003   46.615495
  C    -22.585941   26.050845   49.141868
  C    -23.406633   26.419248   50.391794
  C    -24.648399   25.483186   50.248608
  C    -24.037832   24.209820   49.620633
  O    -22.727460   24.600468   49.044799
  H    -21.526070   26.229449   49.292843
  H    -22.834312   26.153333   51.283583
  O    -23.709194   27.826336   50.558547
  H    -25.136043   25.294647   51.208576
  H    -25.384788   25.948593   49.579834
  H    -24.663076   23.783272   48.829828
  H    -23.840271   23.435727   50.368616
  H    -24.435420   28.095299   49.959957

 Multiplicity           Mult            ....    1
 Number of Electrons    NEL             ....  102
 Basis Dimension        Dim             ....  149

ORBITAL ENERGIES
----------------

  NO   OCC          E(Eh)            E(eV)
   0   2.0000     -19.150950      -521.1238
   1   2.0000     -19.145170      -520.9666
   2   2.0000     -19.132494      -520.6216
   3   2.0000     -19.132224      -520.6143
   4   2.0000     -10.275007      -279.5971
   5   2.0000     -10.245092      -278.7831
   6   2.0000     -10.231764      -278.4205
   7   2.0000     -10.229157      -278.3495
   8   2.0000     -10.227336      -278.3000
   9   2.0000     -10.226294      -278.2716
  10   2.0000     -10.194982      -277.4196
  11   2.0000     -10.190179      -277.2889
  12   2.0000     -10.182616      -277.0831
  13   2.0000      -1.046013       -28.4635
  14   2.0000      -1.032816       -28.1043
  15   2.0000      -1.012619       -27.5548
  16   2.0000      -0.989435       -26.9239
  17   2.0000      -0.786692       -21.4070
  18   2.0000      -0.781348       -21.2616
  19   2.0000      -0.767721       -20.8907
  20   2.0000      -0.732231       -19.9250
  21   2.0000      -0.681116       -18.5341
  22   2.0000      -0.610413       -16.6102
  23   2.0000      -0.605306       -16.4712
  24   2.0000      -0.599815       -16.3218
  25   2.0000      -0.562519       -15.3069
  26   2.0000      -0.521827       -14.1996
  27   2.0000      -0.508311       -13.8318
  28   2.0000      -0.502504       -13.6738
  29   2.0000      -0.489169       -13.3110
  30   2.0000      -0.466743       -12.7007
  31   2.0000      -0.454121       -12.3572
  32   2.0000      -0.445090       -12.1115
  33   2.0000      -0.429643       -11.6912
  34   2.0000      -0.426933       -11.6174
  35   2.0000      -0.414631       -11.2827
  36   2.0000      -0.410558       -11.1718
  37   2.0000      -0.399249       -10.8641
  38   2.0000      -0.379302       -10.3213
  39   2.0000      -0.372242       -10.1292
  40   2.0000      -0.359308        -9.7773
  41   2.0000      -0.357434        -9.7263
  42   2.0000      -0.339308        -9.2331
  43   2.0000      -0.332236        -9.0406
  44   2.0000      -0.318572        -8.6688
  45   2.0000      -0.313354        -8.5268
  46   2.0000      -0.301514        -8.2046
  47   2.0000      -0.271037        -7.3753
  48   2.0000      -0.258766        -7.0414
  49   2.0000      -0.248491        -6.7618
  50   2.0000      -0.230123        -6.2620
  51   0.0000       0.051135         1.3915
  52   0.0000       0.073928         2.0117
  53   0.0000       0.082917         2.2563
  54   0.0000       0.090029         2.4498
  55   0.0000       0.100604         2.7376

MULLIKEN ATOMIC CHARGES
-----------------------
   0 C :    0.312053
   1 C :   -0.265436
   2 C :   -0.314252
   3 C :   -0.026616
   4 O :   -0.497099
   5 H :    0.167652
   6 H :    0.147992
   7 H :    0.153770
   8 H :    0.148161
   9 H :    0.152447
  10 H :    0.143496
  11 H :    0.154013
  12 C :    0.005366
  13 H :    0.118391
  14 H :    0.143196
  15 O :   -0.542410
  16 C :    0.069801
  17 C :    0.083328
  18 C :   -0.325204
  19 C :   -0.013680
  20 O :   -0.499660
  21 H :    0.174886
  22 H :    0.166200
  23 O :   -0.601785
  24 H :    0.156371
  25 H :    0.134738
  26 H :    0.147276
  27 H :    0.150335
  28 H :    0.356668
Sum of atomic charges:   -0.0000000

LOEWDIN ATOMIC CHARGES
----------------------
   0 C :    0.185930
   1 C :   -0.226701
   2 C :   -0.222430
   3 C :   -0.037763
   4 O :   -0.309437
   5 H :    0.112873
   6 H :    0.115870
   7 H :    0.121744
   8 H :    0.117628
   9 H :    0.111469
  10 H :    0.099176
  11 H :    0.107496
  12 C :   -0.040760
  13 H :    0.087482
  14 H :    0.108021
  15 O :   -0.332428
  16 C :    0.005978
  17 C :    0.034298
  18 C :   -0.242282
  19 C :   -0.031727
  20 O :   -0.310454
  21 H :    0.122557
  22 H :    0.118451
  23 O :   -0.409274
  24 H :    0.121940
  25 H :    0.103891
  26 H :    0.104310
  27 H :    0.106102
  28 H :    0.278040

  Mayer bond orders larger than 0.100000
B(  0-C ,  1-C ) :   0.9155 B(  0-C ,  4-O ) :   0.9090 B(  0-C ,  5-H ) :   0.9353
B(  0-C , 15-O ) :   0.8662 B(  1-C ,  2-C ) :   0.9572 B(  1-C ,  6-H ) :   0.9354
B(  1-C ,  7-H ) :   0.9384 B(  2-C ,  3-C ) :   0.9495 B(  2-C ,  8-H ) :   0.9439
B(  2-C ,  9-H ) :   0.9445 B(  3-C ,  4-O ) :   0.8399 B(  3-C , 10-H ) :   0.9188
B(  3-C , 11-H ) :   0.9396 B( 12-C , 13-H ) :   0.8981 B( 12-C , 14-H ) :   0.9373
B( 12-C , 15-O ) :   0.8581 B( 12-C , 16-C ) :   0.8910 B( 16-C , 17-C ) :   0.8647
B( 16-C , 20-O ) :   0.8654 B( 16-C , 21-H ) :   0.9111 B( 17-C , 18-C ) :   0.9240
B( 17-C , 22-H ) :   0.9336 B( 17-C , 23-O ) :   0.8931 B( 18-C , 19-C ) :   0.9375
B( 18-C , 24-H ) :   0.9419 B( 18-C , 25-H ) :   0.9403 B( 19-C , 20-O ) :   0.8536
B( 19-C , 26-H ) :   0.9307 B( 19-C , 27-H ) :   0.9370 B( 23-O , 28-H ) :   0.7981

FINAL SINGLE POINT ENERGY      -652.843199755031

DIPOLE MOMENT
-------------
                                X             Y             Z
Electronic contribution:     -0.04213      -2.99295      -0.50966
Nuclear contribution   :     -0.44433       3.80247       0.65892
                        -----------------------------------------
Total Dipole Moment    :     -0.48646       0.80951       0.14927
                        -----------------------------------------
Magnitude (a.u.)       :      0.95615
Magnitude (Debye)      :      2.43035

Rotational constants in cm-1:     0.048344     0.015984     0.014699
Rotational constants in MHz :  1449.309676   479.198308   440.674632

                             ****ORCA TERMINATED NORMALLY****
TOTAL RUN TIME: 0 days 0 hours 32 minutes 23 seconds 625 msec
