                         Program Version 4.2.0 -  RELEASE  -
|  1> # Test redundant internal optimization
|  2> #
|  3> ! RKS B3LYP  Opt TightSCF SmallPrint
|  4>
|  5> %basis
|  6>         Basis "6-31G"
|  7> end
|  8>
|  9> %geom
| 10> Constraints
| 11> { D 4  0  15  12  210.0   C } # D for Dihedral angle
| 12> { D 0  15  12  16  180.0   C } # D for Dihedral angle
| 13> { D 0  4  3  2   C } # D for Dihedral angle
| 14> { D 4  3  2  1   C } # D for Dihedral angle
| 15> { D 3  2  1  0   C } # D for Dihedral angle
| 16> { D 2  1  0  4   C } # D for Dihedral angle
| 17> { D 1  0  4  3   C } # D for Dihedral angle
| 18> { D 16  20  19  18   C } # D for Dihedral angle
| 19> { D 20  19  18  17   C } # D for Dihedral angle
| 20> { D 19  18  17  16   C } # D for Dihedral angle
| 21> { D 18  17  16  20   C } # D for Dihedral angle
| 22> { D 17  16  20  19   C } # D for Dihedral angle
| 23> { D 15  12  16  20   C } # D for Dihedral angle
| 24> end
| 25> end
| 26>
| 27>
| 28> #%pal
| 29> #nprocs 8
| 30> #end
| 31>
| 32> * xyz 0 1
| 33> C  -21.048   26.222   46.251
| 34> C  -20.361   27.558   45.944
| 35> C  -20.329   28.222   47.341
| 36> C  -20.110   27.022   48.296
| 37> O  -20.473   25.807   47.535
| 38> H  -20.833   25.428   45.533
| 39> H  -19.344   27.382   45.576
| 40> H  -20.898   28.157   45.201
| 41> H  -19.543   28.978   47.434
| 42> H  -21.289   28.710   47.548
| 43> H  -20.733   27.082   49.195
| 44> H  -19.064   26.913   48.597
| 45> C  -23.389   26.110   45.076
| 46> H  -23.052   26.792   44.286
| 47> H  -23.219   25.081   44.736
| 48> O  -22.586   26.394   46.375
| 49> C  -24.920   26.299   45.263
| 50> C  -25.267   27.759   45.575
| 51> C  -25.203   28.403   44.169
| 52> C  -25.733   27.280   43.243
| 53> O  -25.628   26.019   44.009
| 54> H  -25.281   25.581   46.002
| 55> H  -26.281   27.825   45.985
| 56> O  -24.287   28.417   46.584
| 57> H  -25.797   29.320   44.095
| 58> H  -24.166   28.655   43.918
| 59> H  -25.151   27.188   42.320
| 60> H  -26.787   27.414   42.985
| 61> H  -23.265   28.362   46.194
| 62> *
| 63>
| 64>                          ****END OF INPUT****
 Total Charge           Charge          ....    0
 Multiplicity           Mult            ....    1
 Number of Electrons    NEL             ....  102
FINAL SINGLE POINT ENERGY      -652.828119117594
FINAL SINGLE POINT ENERGY      -652.853084203620
FINAL SINGLE POINT ENERGY      -652.859391064489
FINAL SINGLE POINT ENERGY      -652.862047931807
FINAL SINGLE POINT ENERGY      -652.863784464461
FINAL SINGLE POINT ENERGY      -652.865009168532
FINAL SINGLE POINT ENERGY      -652.865718724194
FINAL SINGLE POINT ENERGY      -652.865959690661
FINAL SINGLE POINT ENERGY      -652.865997399284
FINAL SINGLE POINT ENERGY      -652.866004424583
                    ***********************HURRAY********************

CARTESIAN COORDINATES (ANGSTROEM)
---------------------------------
  C    -21.097733   26.207509   46.196611
  C    -20.377520   27.515884   45.879787
  C    -20.426548   28.246573   47.242908
  C    -20.287223   27.095030   48.259174
  O    -20.625323   25.854805   47.501107
  H    -20.881305   25.369782   45.527199
  H    -19.344265   27.297152   45.587157
  H    -20.853747   28.083296   45.074982
  H    -19.629385   28.988971   47.345037
  H    -21.383865   28.764730   47.356968
  H    -20.969443   27.177466   49.108265
  H    -19.264360   26.965761   48.622810
  C    -23.277380   26.087982   45.017801
  H    -22.912358   26.715400   44.192619
  H    -23.129861   25.035528   44.747794
  O    -22.547541   26.397124   46.250702
  C    -24.763113   26.350337   45.285148
  C    -25.120972   27.810218   45.610290
  C    -25.142916   28.452705   44.192169
  C    -25.698118   27.320263   43.303663
  O    -25.527633   26.053325   44.076544
  H    -25.110327   25.660492   46.059321
  H    -26.131192   27.832519   46.036597
  O    -24.233294   28.483712   46.525795
  H    -25.758324   29.355717   44.163787
  H    -24.121063   28.733884   43.916723
  H    -25.174091   27.221473   42.348088
  H    -26.769351   27.422209   43.108992
  H    -23.478749   27.880151   46.727964

 Multiplicity           Mult            ....    1
 Number of Electrons    NEL             ....  102
 Basis Dimension        Dim             ....  149

ORBITAL ENERGIES
----------------

  NO   OCC          E(Eh)            E(eV)
   0   2.0000     -19.164940      -521.5045
   1   2.0000     -19.151158      -521.1295
   2   2.0000     -19.142346      -520.8897
   3   2.0000     -19.114634      -520.1356
   4   2.0000     -10.293235      -280.0932
   5   2.0000     -10.242236      -278.7054
   6   2.0000     -10.236788      -278.5572
   7   2.0000     -10.233000      -278.4541
   8   2.0000     -10.232352      -278.4365
   9   2.0000     -10.228532      -278.3325
  10   2.0000     -10.196738      -277.4673
  11   2.0000     -10.194187      -277.3979
  12   2.0000     -10.181628      -277.0562
  13   2.0000      -1.067370       -29.0446
  14   2.0000      -1.027990       -27.9730
  15   2.0000      -1.010277       -27.4910
  16   2.0000      -0.993919       -27.0459
  17   2.0000      -0.796566       -21.6757
  18   2.0000      -0.775426       -21.1004
  19   2.0000      -0.769938       -20.9511
  20   2.0000      -0.737675       -20.0732
  21   2.0000      -0.681224       -18.5370
  22   2.0000      -0.609202       -16.5772
  23   2.0000      -0.603541       -16.4232
  24   2.0000      -0.595204       -16.1963
  25   2.0000      -0.582874       -15.8608
  26   2.0000      -0.531288       -14.4571
  27   2.0000      -0.521019       -14.1776
  28   2.0000      -0.503003       -13.6874
  29   2.0000      -0.490751       -13.3540
  30   2.0000      -0.475726       -12.9452
  31   2.0000      -0.460514       -12.5312
  32   2.0000      -0.448166       -12.1952
  33   2.0000      -0.436960       -11.8903
  34   2.0000      -0.429879       -11.6976
  35   2.0000      -0.421234       -11.4623
  36   2.0000      -0.409085       -11.1318
  37   2.0000      -0.389764       -10.6060
  38   2.0000      -0.383394       -10.4327
  39   2.0000      -0.370593       -10.0843
  40   2.0000      -0.365326        -9.9410
  41   2.0000      -0.365079        -9.9343
  42   2.0000      -0.350190        -9.5291
  43   2.0000      -0.342848        -9.3294
  44   2.0000      -0.324268        -8.8238
  45   2.0000      -0.322188        -8.7672
  46   2.0000      -0.291948        -7.9443
  47   2.0000      -0.274920        -7.4810
  48   2.0000      -0.266198        -7.2436
  49   2.0000      -0.249691        -6.7944
  50   2.0000      -0.245589        -6.6828
  51   0.0000       0.053184         1.4472
  52   0.0000       0.071501         1.9456
  53   0.0000       0.093105         2.5335
  54   0.0000       0.095630         2.6022
  55   0.0000       0.101417         2.7597

MULLIKEN ATOMIC CHARGES
-----------------------
   0 C :    0.308470
   1 C :   -0.269085
   2 C :   -0.311605
   3 C :   -0.009046
   4 O :   -0.499397
   5 H :    0.147677
   6 H :    0.151648
   7 H :    0.148946
   8 H :    0.149703
   9 H :    0.170734
  10 H :    0.160731
  11 H :    0.148036
  12 C :   -0.011891
  13 H :    0.135414
  14 H :    0.159252
  15 O :   -0.551881
  16 C :    0.043238
  17 C :    0.117020
  18 C :   -0.298095
  19 C :   -0.022199
  20 O :   -0.520585
  21 H :    0.169871
  22 H :    0.147081
  23 O :   -0.652280
  24 H :    0.152778
  25 H :    0.140365
  26 H :    0.141344
  27 H :    0.151779
  28 H :    0.401973
Sum of atomic charges:    0.0000000

LOEWDIN ATOMIC CHARGES
----------------------
   0 C :    0.181371
   1 C :   -0.226997
   2 C :   -0.218700
   3 C :   -0.026175
   4 O :   -0.302590
   5 H :    0.103365
   6 H :    0.117753
   7 H :    0.117663
   8 H :    0.118832
   9 H :    0.121717
  10 H :    0.112543
  11 H :    0.106101
  12 C :   -0.043313
  13 H :    0.093492
  14 H :    0.111170
  15 O :   -0.341065
  16 C :    0.018873
  17 C :    0.041974
  18 C :   -0.234996
  19 C :   -0.032958
  20 O :   -0.322939
  21 H :    0.119834
  22 H :    0.104286
  23 O :   -0.441881
  24 H :    0.121927
  25 H :    0.108944
  26 H :    0.101580
  27 H :    0.107236
  28 H :    0.282951

  Mayer bond orders larger than 0.100000
B(  0-C ,  1-C ) :   0.9371 B(  0-C ,  4-O ) :   0.9495 B(  0-C ,  5-H ) :   0.9206
B(  0-C , 15-O ) :   0.7893 B(  1-C ,  2-C ) :   0.9500 B(  1-C ,  6-H ) :   0.9336
B(  1-C ,  7-H ) :   0.9352 B(  2-C ,  3-C ) :   0.9523 B(  2-C ,  8-H ) :   0.9444
B(  2-C ,  9-H ) :   0.9377 B(  3-C ,  4-O ) :   0.8293 B(  3-C , 10-H ) :   0.9337
B(  3-C , 11-H ) :   0.9393 B( 12-C , 13-H ) :   0.9167 B( 12-C , 14-H ) :   0.9206
B( 12-C , 15-O ) :   0.7908 B( 12-C , 16-C ) :   0.9090 B( 15-O , 28-H ) :   0.1042
B( 16-C , 17-C ) :   0.9175 B( 16-C , 20-O ) :   0.8566 B( 16-C , 21-H ) :   0.9264
B( 17-C , 18-C ) :   0.9045 B( 17-C , 22-H ) :   0.9274 B( 17-C , 23-O ) :   0.9318
B( 18-C , 19-C ) :   0.9404 B( 18-C , 24-H ) :   0.9441 B( 18-C , 25-H ) :   0.9435
B( 19-C , 20-O ) :   0.8331 B( 19-C , 26-H ) :   0.9343 B( 19-C , 27-H ) :   0.9379
B( 23-O , 28-H ) :   0.7023

FINAL SINGLE POINT ENERGY      -652.866005300722

DIPOLE MOMENT
-------------
                                X             Y             Z
Electronic contribution:     -2.11881      -4.54678       2.01709
Nuclear contribution   :      3.05299       5.10432      -2.76121
                        -----------------------------------------
Total Dipole Moment    :      0.93418       0.55755      -0.74412
                        -----------------------------------------
Magnitude (a.u.)       :      1.31805
Magnitude (Debye)      :      3.35022

Rotational constants in cm-1:     0.058493     0.013869     0.012902
Rotational constants in MHz :  1753.565083   415.777179   386.788800

                             ****ORCA TERMINATED NORMALLY****
TOTAL RUN TIME: 0 days 0 hours 28 minutes 44 seconds 22 msec
