                         Program Version 4.2.1 -  RELEASE  -
|  1> # Test redundant internal optimization
|  2> #
|  3> ! RKS B3LYP  Opt TightSCF SmallPrint
|  4>
|  5> %basis
|  6>         Basis "6-31G"
|  7> end
|  8>
|  9> %geom
| 10> Constraints
| 11> { D 4  0  19  14  315.0   C } # D for Dihedral angle
| 12> { D 0  19  14  12  15.0   C } # D for Dihedral angle
| 13> { D 0  4  3  2   C } # D for Dihedral angle
| 14> { D 4  3  2  1   C } # D for Dihedral angle
| 15> { D 3  2  1  0   C } # D for Dihedral angle
| 16> { D 2  1  0  4   C } # D for Dihedral angle
| 17> { D 1  0  4  3   C } # D for Dihedral angle
| 18> { D 14  15  16  17   C } # D for Dihedral angle
| 19> { D 15  16  17  12   C } # D for Dihedral angle
| 20> { D 16  17  12  14   C } # D for Dihedral angle
| 21> { D 17  12  14  15   C } # D for Dihedral angle
| 22> { D 12  14  15  16   C } # D for Dihedral angle
| 23> end
| 24> end
| 25>
| 26>
| 27> #%pal
| 28> #nprocs 8
| 29> #end
| 30>
| 31> * xyz 0 1
| 32> C  -21.048   26.222   46.251
| 33> C  -20.361   27.558   45.944
| 34> C  -20.329   28.222   47.341
| 35> C  -20.110   27.022   48.296
| 36> O  -20.473   25.807   47.535
| 37> H  -20.833   25.428   45.533
| 38> H  -19.344   27.382   45.576
| 39> H  -20.898   28.157   45.201
| 40> H  -19.543   28.978   47.434
| 41> H  -21.289   28.710   47.548
| 42> H  -20.733   27.082   49.195
| 43> H  -19.064   26.913   48.597
| 44> C  -22.103   24.478   47.838
| 45> H  -22.525   23.507   48.143
| 46> C  -23.132   25.318   47.072
| 47> C  -23.997   25.880   48.223
| 48> C  -22.970   26.100   49.362
| 49> O  -21.781   25.289   49.017
| 50> H  -21.167   24.309   47.302
| 51> O  -22.472   26.381   46.366
| 52> H  -23.712   24.732   46.350
| 53> H  -24.521   26.802   47.950
| 54> H  -24.753   25.143   48.522
| 55> H  -23.351   25.782   50.338
| 56> H  -22.640   27.141   49.432
| 57> *
| 58>
| 59>                          ****END OF INPUT****
 Total Charge           Charge          ....    0
 Multiplicity           Mult            ....    1
 Number of Electrons    NEL             ....   86
FINAL SINGLE POINT ENERGY      -538.353052583422
FINAL SINGLE POINT ENERGY      -538.424200707421
FINAL SINGLE POINT ENERGY      -538.427913981435
FINAL SINGLE POINT ENERGY      -538.428620480555
FINAL SINGLE POINT ENERGY      -538.428775483396
FINAL SINGLE POINT ENERGY      -538.428839367978
FINAL SINGLE POINT ENERGY      -538.428853093168
FINAL SINGLE POINT ENERGY      -538.428858177953
                    ***********************HURRAY********************

CARTESIAN COORDINATES (ANGSTROEM)
---------------------------------
  C    -20.847675   26.248448   46.226064
  C    -20.435300   27.683728   45.904713
  C    -20.320844   28.307142   47.315540
  C    -19.783718   27.135523   48.170021
  O    -20.059696   25.906593   47.378758
  H    -20.601854   25.501100   45.464467
  H    -19.462836   27.673439   45.398497
  H    -21.164102   28.188328   45.267338
  H    -19.656657   29.176481   47.338101
  H    -21.311067   28.617994   47.660137
  H    -20.274947   27.027800   49.138125
  H    -18.699286   27.174714   48.310742
  C    -22.319900   24.263832   48.030291
  H    -22.975007   23.397825   48.205278
  C    -23.057429   25.268280   47.142361
  C    -24.001645   25.939640   48.155379
  C    -23.168060   25.976065   49.459317
  O    -22.077215   24.991070   49.285248
  H    -21.350078   23.936524   47.663510
  O    -22.287766   26.283992   46.423967
  H    -23.631159   24.734578   46.371603
  H    -24.306484   26.929502   47.809896
  H    -24.897176   25.320144   48.277213
  H    -23.757646   25.708817   50.343317
  H    -22.701455   26.951441   49.626119

 Multiplicity           Mult            ....    1
 Number of Electrons    NEL             ....   86
 Basis Dimension        Dim             ....  127

ORBITAL ENERGIES
----------------

  NO   OCC          E(Eh)            E(eV)
   0   2.0000     -19.136861      -520.7405
   1   2.0000     -19.135829      -520.7124
   2   2.0000     -19.125295      -520.4257
   3   2.0000     -10.276058      -279.6257
   4   2.0000     -10.237219      -278.5689
   5   2.0000     -10.218966      -278.0722
   6   2.0000     -10.218411      -278.0571
   7   2.0000     -10.216806      -278.0134
   8   2.0000     -10.181892      -277.0634
   9   2.0000     -10.181683      -277.0577
  10   2.0000     -10.180572      -277.0274
  11   2.0000      -1.047052       -28.4917
  12   2.0000      -1.007192       -27.4071
  13   2.0000      -0.985392       -26.8139
  14   2.0000      -0.789861       -21.4932
  15   2.0000      -0.773662       -21.0524
  16   2.0000      -0.733981       -19.9726
  17   2.0000      -0.720251       -19.5990
  18   2.0000      -0.613316       -16.6892
  19   2.0000      -0.597109       -16.2482
  20   2.0000      -0.590745       -16.0750
  21   2.0000      -0.561774       -15.2867
  22   2.0000      -0.513997       -13.9866
  23   2.0000      -0.496867       -13.5204
  24   2.0000      -0.485468       -13.2103
  25   2.0000      -0.478276       -13.0146
  26   2.0000      -0.443450       -12.0669
  27   2.0000      -0.438441       -11.9306
  28   2.0000      -0.425719       -11.5844
  29   2.0000      -0.407303       -11.0833
  30   2.0000      -0.398853       -10.8533
  31   2.0000      -0.379787       -10.3345
  32   2.0000      -0.371962       -10.1216
  33   2.0000      -0.360305        -9.8044
  34   2.0000      -0.356929        -9.7125
  35   2.0000      -0.351179        -9.5561
  36   2.0000      -0.340233        -9.2582
  37   2.0000      -0.326589        -8.8869
  38   2.0000      -0.300865        -8.1869
  39   2.0000      -0.287520        -7.8238
  40   2.0000      -0.257081        -6.9955
  41   2.0000      -0.248736        -6.7685
  42   2.0000      -0.230102        -6.2614
  43   0.0000       0.074173         2.0184
  44   0.0000       0.093792         2.5522
  45   0.0000       0.102513         2.7895
  46   0.0000       0.114883         3.1261
  47   0.0000       0.119614         3.2549

MULLIKEN ATOMIC CHARGES
-----------------------
   0 C :    0.302446
   1 C :   -0.261011
   2 C :   -0.301591
   3 C :   -0.010356
   4 O :   -0.506175
   5 H :    0.140929
   6 H :    0.142904
   7 H :    0.157361
   8 H :    0.139727
   9 H :    0.153842
  10 H :    0.166286
  11 H :    0.143249
  12 C :   -0.015533
  13 H :    0.124701
  14 C :    0.102617
  15 C :   -0.295051
  16 C :   -0.000928
  17 O :   -0.519707
  18 H :    0.181164
  19 O :   -0.547880
  20 H :    0.131445
  21 H :    0.158894
  22 H :    0.141713
  23 H :    0.134171
  24 H :    0.136781
Sum of atomic charges:    0.0000000

LOEWDIN ATOMIC CHARGES
----------------------
   0 C :    0.179838
   1 C :   -0.214225
   2 C :   -0.217143
   3 C :   -0.028992
   4 O :   -0.313779
   5 H :    0.093525
   6 H :    0.112396
   7 H :    0.123916
   8 H :    0.113160
   9 H :    0.114003
  10 H :    0.114271
  11 H :    0.103063
  12 C :   -0.048762
  13 H :    0.093668
  14 C :    0.046141
  15 C :   -0.228420
  16 C :   -0.031661
  17 O :   -0.329302
  18 H :    0.128762
  19 O :   -0.342488
  20 H :    0.098275
  21 H :    0.126185
  22 H :    0.112462
  23 H :    0.097665
  24 H :    0.097443

  Mayer bond orders larger than 0.100000
B(  0-C ,  1-C ) :   0.9458 B(  0-C ,  4-O ) :   0.9154 B(  0-C ,  5-H ) :   0.9244
B(  0-C , 19-O ) :   0.8383 B(  1-C ,  2-C ) :   0.9572 B(  1-C ,  6-H ) :   0.9393
B(  1-C ,  7-H ) :   0.9368 B(  2-C ,  3-C ) :   0.9563 B(  2-C ,  8-H ) :   0.9447
B(  2-C ,  9-H ) :   0.9442 B(  3-C ,  4-O ) :   0.8248 B(  3-C , 10-H ) :   0.9243
B(  3-C , 11-H ) :   0.9404 B( 12-C , 13-H ) :   0.9104 B( 12-C , 14-C ) :   0.9276
B( 12-C , 17-O ) :   0.8511 B( 12-C , 18-H ) :   0.9200 B( 14-C , 15-C ) :   0.9413
B( 14-C , 19-O ) :   0.8432 B( 14-C , 20-H ) :   0.9291 B( 15-C , 16-C ) :   0.9467
B( 15-C , 21-H ) :   0.9380 B( 15-C , 22-H ) :   0.9393 B( 16-C , 17-O ) :   0.8638
B( 16-C , 23-H ) :   0.9341 B( 16-C , 24-H ) :   0.9344

FINAL SINGLE POINT ENERGY      -538.428859501643

DIPOLE MOMENT
-------------
                                X             Y             Z
Electronic contribution:      0.97008      -3.16781      -0.76184
Nuclear contribution   :     -1.40078       3.66880       0.42218
                        -----------------------------------------
Total Dipole Moment    :     -0.43069       0.50099      -0.33966
                        -----------------------------------------
Magnitude (a.u.)       :      0.74287
Magnitude (Debye)      :      1.88824

Rotational constants in cm-1:     0.063449     0.029035     0.026885
Rotational constants in MHz :  1902.165576   870.444439   805.990759

                             ****ORCA TERMINATED NORMALLY****
TOTAL RUN TIME: 0 days 0 hours 11 minutes 40 seconds 493 msec
