                         Program Version 4.2.0 -  RELEASE  -
|  1> # Test redundant internal optimization
|  2> #
|  3> ! RKS B3LYP  Opt TightSCF SmallPrint
|  4>
|  5> %basis
|  6>         Basis "6-31G"
|  7> end
|  8>
|  9> %geom
| 10> Constraints
| 11> { D 4  0  15  12  300.0   C } # D for Dihedral angle
| 12> { D 0  15  12  16  255.0   C } # D for Dihedral angle
| 13> { D 0  4  3  2   C } # D for Dihedral angle
| 14> { D 4  3  2  1   C } # D for Dihedral angle
| 15> { D 3  2  1  0   C } # D for Dihedral angle
| 16> { D 2  1  0  4   C } # D for Dihedral angle
| 17> { D 1  0  4  3   C } # D for Dihedral angle
| 18> { D 16  20  19  18   C } # D for Dihedral angle
| 19> { D 20  19  18  17   C } # D for Dihedral angle
| 20> { D 19  18  17  16   C } # D for Dihedral angle
| 21> { D 18  17  16  20   C } # D for Dihedral angle
| 22> { D 17  16  20  19   C } # D for Dihedral angle
| 23> { D 15  12  16  20   C } # D for Dihedral angle
| 24> end
| 25> end
| 26>
| 27>
| 28> #%pal
| 29> #nprocs 8
| 30> #end
| 31>
| 32> * xyz 0 1
| 33> C  -21.048   26.222   46.251
| 34> C  -20.361   27.558   45.944
| 35> C  -20.329   28.222   47.341
| 36> C  -20.110   27.022   48.296
| 37> O  -20.473   25.807   47.535
| 38> H  -20.833   25.428   45.533
| 39> H  -19.344   27.382   45.576
| 40> H  -20.898   28.157   45.201
| 41> H  -19.543   28.978   47.434
| 42> H  -21.289   28.710   47.548
| 43> H  -20.733   27.082   49.195
| 44> H  -19.064   26.913   48.597
| 45> C  -23.362   25.116   46.798
| 46> H  -22.655   24.381   47.202
| 47> H  -24.095   25.353   47.580
| 48> O  -22.586   26.394   46.375
| 49> C  -24.127   24.460   45.616
| 50> C  -24.972   23.272   46.090
| 51> C  -26.204   23.986   46.694
| 52> C  -26.387   25.215   45.769
| 53> O  -25.106   25.397   45.055
| 54> H  -23.419   24.221   44.819
| 55> O  -25.386   22.394   44.878
| 56> H  -24.451   22.637   46.816
| 57> H  -27.094   23.348   46.721
| 58> H  -25.990   24.304   47.721
| 59> H  -26.619   26.129   46.327
| 60> H  -27.159   25.056   45.011
| 61> H  -25.909   23.010   44.139
| 62> *
| 63>
| 64>                          ****END OF INPUT****
 Total Charge           Charge          ....    0
 Multiplicity           Mult            ....    1
 Number of Electrons    NEL             ....  102
FINAL SINGLE POINT ENERGY      -652.836450857292
FINAL SINGLE POINT ENERGY      -652.860281772997
FINAL SINGLE POINT ENERGY      -652.864327452541
FINAL SINGLE POINT ENERGY      -652.865077781215
FINAL SINGLE POINT ENERGY      -652.865179572602
FINAL SINGLE POINT ENERGY      -652.865190518461
FINAL SINGLE POINT ENERGY      -652.865192881159
                    ***********************HURRAY********************

CARTESIAN COORDINATES (ANGSTROEM)
---------------------------------
  C    -21.120585   26.130654   46.244150
  C    -20.505276   27.491911   45.920547
  C    -20.442977   28.148291   47.316926
  C    -20.135458   26.959725   48.254521
  O    -20.485096   25.735126   47.485544
  H    -20.911705   25.325908   45.531899
  H    -19.501916   27.345045   45.505288
  H    -21.110712   28.053532   45.206366
  H    -19.681978   28.932478   47.379914
  H    -21.415187   28.587527   47.557477
  H    -20.721276   26.977132   49.177069
  H    -19.073377   26.876504   48.503344
  C    -23.293651   25.162322   46.842620
  H    -22.613706   24.427843   47.291420
  H    -23.971987   25.522222   47.623152
  O    -22.542544   26.331377   46.394883
  C    -24.080098   24.541688   45.689485
  C    -24.935905   23.334107   46.101791
  C    -26.202754   24.026130   46.671687
  C    -26.355884   25.273558   45.766768
  O    -25.043785   25.482128   45.109767
  H    -23.391226   24.274066   44.881517
  O    -25.248410   22.502313   44.950269
  H    -24.449090   22.666853   46.814650
  H    -27.062977   23.353196   46.624443
  H    -26.042669   24.308042   47.718439
  H    -26.620247   26.174598   46.328616
  H    -27.095390   25.128335   44.972949
  H    -25.490135   23.081389   44.196500

 Multiplicity           Mult            ....    1
 Number of Electrons    NEL             ....  102
 Basis Dimension        Dim             ....  149

ORBITAL ENERGIES
----------------

  NO   OCC          E(Eh)            E(eV)
   0   2.0000     -19.141031      -520.8539
   1   2.0000     -19.140953      -520.8518
   2   2.0000     -19.139550      -520.8136
   3   2.0000     -19.138712      -520.7908
   4   2.0000     -10.276448      -279.6364
   5   2.0000     -10.242828      -278.7215
   6   2.0000     -10.232595      -278.4431
   7   2.0000     -10.229328      -278.3542
   8   2.0000     -10.227143      -278.2947
   9   2.0000     -10.225151      -278.2405
  10   2.0000     -10.189793      -277.2784
  11   2.0000     -10.183365      -277.1035
  12   2.0000     -10.182651      -277.0840
  13   2.0000      -1.053316       -28.6622
  14   2.0000      -1.035186       -28.1688
  15   2.0000      -1.005512       -27.3614
  16   2.0000      -0.990526       -26.9536
  17   2.0000      -0.789561       -21.4850
  18   2.0000      -0.780758       -21.2455
  19   2.0000      -0.764873       -20.8133
  20   2.0000      -0.730546       -19.8792
  21   2.0000      -0.671862       -18.2823
  22   2.0000      -0.604356       -16.4454
  23   2.0000      -0.600298       -16.3349
  24   2.0000      -0.594656       -16.1814
  25   2.0000      -0.574166       -15.6238
  26   2.0000      -0.526634       -14.3304
  27   2.0000      -0.508513       -13.8373
  28   2.0000      -0.493623       -13.4322
  29   2.0000      -0.491137       -13.3645
  30   2.0000      -0.472665       -12.8619
  31   2.0000      -0.454527       -12.3683
  32   2.0000      -0.453636       -12.3441
  33   2.0000      -0.436386       -11.8747
  34   2.0000      -0.424654       -11.5554
  35   2.0000      -0.408054       -11.1037
  36   2.0000      -0.400274       -10.8920
  37   2.0000      -0.393210       -10.6998
  38   2.0000      -0.371845       -10.1184
  39   2.0000      -0.368780       -10.0350
  40   2.0000      -0.356317        -9.6959
  41   2.0000      -0.355121        -9.6633
  42   2.0000      -0.345471        -9.4008
  43   2.0000      -0.335904        -9.1404
  44   2.0000      -0.327171        -8.9028
  45   2.0000      -0.307367        -8.3639
  46   2.0000      -0.294779        -8.0213
  47   2.0000      -0.272343        -7.4108
  48   2.0000      -0.270537        -7.3617
  49   2.0000      -0.255022        -6.9395
  50   2.0000      -0.237640        -6.4665
  51   0.0000       0.066820         1.8183
  52   0.0000       0.087690         2.3862
  53   0.0000       0.090130         2.4525
  54   0.0000       0.100160         2.7255
  55   0.0000       0.104165         2.8345

MULLIKEN ATOMIC CHARGES
-----------------------
   0 C :    0.278743
   1 C :   -0.260545
   2 C :   -0.299504
   3 C :   -0.004786
   4 O :   -0.515367
   5 H :    0.143348
   6 H :    0.143932
   7 H :    0.164682
   8 H :    0.140999
   9 H :    0.164159
  10 H :    0.144715
  11 H :    0.143676
  12 C :   -0.020776
  13 H :    0.155743
  14 H :    0.142825
  15 O :   -0.504871
  16 C :    0.068597
  17 C :    0.075079
  18 C :   -0.303257
  19 C :   -0.022785
  20 O :   -0.511804
  21 H :    0.157956
  22 O :   -0.601376
  23 H :    0.153696
  24 H :    0.163936
  25 H :    0.146085
  26 H :    0.146826
  27 H :    0.144921
  28 H :    0.365154
Sum of atomic charges:   -0.0000000

LOEWDIN ATOMIC CHARGES
----------------------
   0 C :    0.170315
   1 C :   -0.213466
   2 C :   -0.216241
   3 C :   -0.028205
   4 O :   -0.333077
   5 H :    0.094949
   6 H :    0.113627
   7 H :    0.128112
   8 H :    0.113413
   9 H :    0.120120
  10 H :    0.104184
  11 H :    0.103194
  12 C :   -0.047495
  13 H :    0.113322
  14 H :    0.107542
  15 O :   -0.317213
  16 C :    0.009678
  17 C :    0.034068
  18 C :   -0.242660
  19 C :   -0.037273
  20 O :   -0.323449
  21 H :    0.114149
  22 O :   -0.414298
  23 H :    0.115872
  24 H :    0.126920
  25 H :    0.113446
  26 H :    0.105056
  27 H :    0.101993
  28 H :    0.283421

  Mayer bond orders larger than 0.100000
B(  0-C ,  1-C ) :   0.9503 B(  0-C ,  4-O ) :   0.8954 B(  0-C ,  5-H ) :   0.9188
B(  0-C , 15-O ) :   0.8710 B(  1-C ,  2-C ) :   0.9555 B(  1-C ,  6-H ) :   0.9404
B(  1-C ,  7-H ) :   0.9347 B(  2-C ,  3-C ) :   0.9562 B(  2-C ,  8-H ) :   0.9452
B(  2-C ,  9-H ) :   0.9439 B(  3-C ,  4-O ) :   0.8348 B(  3-C , 10-H ) :   0.9363
B(  3-C , 11-H ) :   0.9406 B( 12-C , 13-H ) :   0.9079 B( 12-C , 14-H ) :   0.9375
B( 12-C , 15-O ) :   0.8428 B( 12-C , 16-C ) :   0.8865 B( 16-C , 17-C ) :   0.8981
B( 16-C , 20-O ) :   0.8643 B( 16-C , 21-H ) :   0.9270 B( 17-C , 18-C ) :   0.9120
B( 17-C , 22-O ) :   0.8924 B( 17-C , 23-H ) :   0.9329 B( 18-C , 19-C ) :   0.9386
B( 18-C , 24-H ) :   0.9375 B( 18-C , 25-H ) :   0.9338 B( 19-C , 20-O ) :   0.8515
B( 19-C , 26-H ) :   0.9349 B( 19-C , 27-H ) :   0.9379 B( 22-O , 28-H ) :   0.7938

FINAL SINGLE POINT ENERGY      -652.865193021661

DIPOLE MOMENT
-------------
                                X             Y             Z
Electronic contribution:     -0.77768      -3.00262      -2.89007
Nuclear contribution   :      0.75177       3.56172       3.43694
                        -----------------------------------------
Total Dipole Moment    :     -0.02591       0.55910       0.54687
                        -----------------------------------------
Magnitude (a.u.)       :      0.78252
Magnitude (Debye)      :      1.98900

Rotational constants in cm-1:     0.065587     0.011392     0.011009
Rotational constants in MHz :  1966.261172   341.533510   330.035444

                             ****ORCA TERMINATED NORMALLY****
TOTAL RUN TIME: 0 days 0 hours 24 minutes 18 seconds 808 msec
