                         Program Version 4.2.0 -  RELEASE  -
|  1> # Test redundant internal optimization
|  2> #
|  3> ! RKS B3LYP  Opt TightSCF SmallPrint
|  4>
|  5> %basis
|  6>         Basis "6-31G"
|  7> end
|  8>
|  9> %geom
| 10> Constraints
| 11> { D 4  0  15  12  60.0   C } # D for Dihedral angle
| 12> { D 0  15  12  16  165.0   C } # D for Dihedral angle
| 13> { D 0  4  3  2   C } # D for Dihedral angle
| 14> { D 4  3  2  1   C } # D for Dihedral angle
| 15> { D 3  2  1  0   C } # D for Dihedral angle
| 16> { D 2  1  0  4   C } # D for Dihedral angle
| 17> { D 1  0  4  3   C } # D for Dihedral angle
| 18> { D 16  20  19  18   C } # D for Dihedral angle
| 19> { D 20  19  18  17   C } # D for Dihedral angle
| 20> { D 19  18  17  16   C } # D for Dihedral angle
| 21> { D 18  17  16  20   C } # D for Dihedral angle
| 22> { D 17  16  20  19   C } # D for Dihedral angle
| 23> { D 15  12  16  20   C } # D for Dihedral angle
| 24> end
| 25> end
| 26>
| 27>
| 28> #%pal
| 29> #nprocs 8
| 30> #end
| 31>
| 32> * xyz 0 1
| 33> C  -21.048   26.222   46.251
| 34> C  -20.361   27.558   45.944
| 35> C  -20.329   28.222   47.341
| 36> C  -20.110   27.022   48.296
| 37> O  -20.473   25.807   47.535
| 38> H  -20.833   25.428   45.533
| 39> H  -19.344   27.382   45.576
| 40> H  -20.898   28.157   45.201
| 41> H  -19.543   28.978   47.434
| 42> H  -21.289   28.710   47.548
| 43> H  -20.733   27.082   49.195
| 44> H  -19.064   26.913   48.597
| 45> C  -23.051   27.452   47.413
| 46> H  -22.917   27.049   48.425
| 47> H  -22.449   28.366   47.326
| 48> O  -22.586   26.394   46.375
| 49> C  -24.543   27.849   47.239
| 50> C  -24.826   28.339   45.814
| 51> C  -24.932   27.003   45.040
| 52> C  -25.590   26.050   46.068
| 53> O  -25.407   26.675   47.397
| 54> H  -24.818   28.557   48.023
| 55> O  -26.177   29.104   45.773
| 56> H  -24.044   28.997   45.421
| 57> H  -25.517   27.092   44.119
| 58> H  -23.931   26.646   44.767
| 59> H  -25.131   25.056   46.073
| 60> H  -26.667   25.943   45.909
| 61> H  -26.976   28.463   46.162
| 62> *
| 63>
| 64>                          ****END OF INPUT****
 Total Charge           Charge          ....    0
 Multiplicity           Mult            ....    1
 Number of Electrons    NEL             ....  102
FINAL SINGLE POINT ENERGY      -652.804848902707
FINAL SINGLE POINT ENERGY      -652.836031417769
FINAL SINGLE POINT ENERGY      -652.853492808764
FINAL SINGLE POINT ENERGY      -652.856980622408
FINAL SINGLE POINT ENERGY      -652.857428562845
FINAL SINGLE POINT ENERGY      -652.857506055961
FINAL SINGLE POINT ENERGY      -652.857516874701
FINAL SINGLE POINT ENERGY      -652.857517680661
                    ***********************HURRAY********************

CARTESIAN COORDINATES (ANGSTROEM)
---------------------------------
  C    -21.195601   26.338955   46.468705
  C    -20.344530   27.522658   45.982359
  C    -20.006308   28.253377   47.317825
  C    -19.860793   27.073635   48.313147
  O    -20.528369   25.911719   47.677367
  H    -21.153453   25.486323   45.788775
  H    -19.435336   27.128618   45.517502
  H    -20.866422   28.153855   45.257934
  H    -19.080467   28.833298   47.245767
  H    -20.800347   28.942788   47.612025
  H    -20.328883   27.265804   49.283020
  H    -18.816167   26.790763   48.471012
  C    -23.194990   27.486544   47.528220
  H    -23.124482   27.083776   48.545214
  H    -22.678468   28.453092   47.489986
  O    -22.620708   26.528661   46.595130
  C    -24.663852   27.737066   47.187850
  C    -24.964397   28.310404   45.794791
  C    -25.004172   27.024397   44.924579
  C    -25.621338   25.976149   45.883537
  O    -25.470342   26.520906   47.253980
  H    -25.055449   28.413806   47.957815
  O    -26.235060   29.020004   45.796880
  H    -24.230651   29.041070   45.452338
  H    -25.605122   27.185824   44.025182
  H    -23.989720   26.739423   44.646257
  H    -25.106305   25.013836   45.834126
  H    -26.692334   25.821427   45.715398
  H    -26.912934   28.457822   46.228279

 Multiplicity           Mult            ....    1
 Number of Electrons    NEL             ....  102
 Basis Dimension        Dim             ....  149

ORBITAL ENERGIES
----------------

  NO   OCC          E(Eh)            E(eV)
   0   2.0000     -19.149846      -521.0938
   1   2.0000     -19.146908      -521.0139
   2   2.0000     -19.135285      -520.6976
   3   2.0000     -19.134879      -520.6865
   4   2.0000     -10.284241      -279.8484
   5   2.0000     -10.236748      -278.5561
   6   2.0000     -10.234847      -278.5043
   7   2.0000     -10.234147      -278.4853
   8   2.0000     -10.233976      -278.4806
   9   2.0000     -10.219881      -278.0971
  10   2.0000     -10.198678      -277.5201
  11   2.0000     -10.196585      -277.4632
  12   2.0000     -10.174968      -276.8750
  13   2.0000      -1.057472       -28.7753
  14   2.0000      -1.031514       -28.0689
  15   2.0000      -1.004957       -27.3463
  16   2.0000      -0.996705       -27.1217
  17   2.0000      -0.793673       -21.5969
  18   2.0000      -0.781543       -21.2669
  19   2.0000      -0.764493       -20.8029
  20   2.0000      -0.736489       -20.0409
  21   2.0000      -0.678389       -18.4599
  22   2.0000      -0.609847       -16.5948
  23   2.0000      -0.605488       -16.4762
  24   2.0000      -0.596042       -16.2191
  25   2.0000      -0.569404       -15.4943
  26   2.0000      -0.522864       -14.2278
  27   2.0000      -0.515233       -14.0202
  28   2.0000      -0.502463       -13.6727
  29   2.0000      -0.489190       -13.3115
  30   2.0000      -0.474071       -12.9001
  31   2.0000      -0.455492       -12.3946
  32   2.0000      -0.451441       -12.2843
  33   2.0000      -0.439132       -11.9494
  34   2.0000      -0.424276       -11.5451
  35   2.0000      -0.417658       -11.3651
  36   2.0000      -0.405683       -11.0392
  37   2.0000      -0.386470       -10.5164
  38   2.0000      -0.384986       -10.4760
  39   2.0000      -0.367432        -9.9983
  40   2.0000      -0.366518        -9.9735
  41   2.0000      -0.361472        -9.8362
  42   2.0000      -0.350114        -9.5271
  43   2.0000      -0.328133        -8.9290
  44   2.0000      -0.321158        -8.7392
  45   2.0000      -0.310637        -8.4529
  46   2.0000      -0.300020        -8.1640
  47   2.0000      -0.271190        -7.3795
  48   2.0000      -0.263875        -7.1804
  49   2.0000      -0.257312        -7.0018
  50   2.0000      -0.240075        -6.5328
  51   0.0000       0.061498         1.6735
  52   0.0000       0.074967         2.0400
  53   0.0000       0.085835         2.3357
  54   0.0000       0.102584         2.7915
  55   0.0000       0.106569         2.8999

MULLIKEN ATOMIC CHARGES
-----------------------
   0 C :    0.306046
   1 C :   -0.276502
   2 C :   -0.316927
   3 C :   -0.011111
   4 O :   -0.504406
   5 H :    0.165119
   6 H :    0.157884
   7 H :    0.148071
   8 H :    0.148107
   9 H :    0.150496
  10 H :    0.147095
  11 H :    0.150566
  12 C :    0.003380
  13 H :    0.159896
  14 H :    0.120660
  15 O :   -0.526530
  16 C :    0.066049
  17 C :    0.073138
  18 C :   -0.280756
  19 C :   -0.019488
  20 O :   -0.524418
  21 H :    0.155236
  22 O :   -0.602342
  23 H :    0.143847
  24 H :    0.146675
  25 H :    0.165136
  26 H :    0.156148
  27 H :    0.135464
  28 H :    0.363466
Sum of atomic charges:    0.0000000

LOEWDIN ATOMIC CHARGES
----------------------
   0 C :    0.175495
   1 C :   -0.229120
   2 C :   -0.223982
   3 C :   -0.033128
   4 O :   -0.318541
   5 H :    0.112765
   6 H :    0.123271
   7 H :    0.117929
   8 H :    0.116712
   9 H :    0.108126
  10 H :    0.103929
  11 H :    0.106351
  12 C :   -0.039936
  13 H :    0.112768
  14 H :    0.092229
  15 O :   -0.319387
  16 C :    0.014955
  17 C :    0.038160
  18 C :   -0.240946
  19 C :   -0.032673
  20 O :   -0.328148
  21 H :    0.115024
  22 O :   -0.416914
  23 H :    0.111696
  24 H :    0.117448
  25 H :    0.126273
  26 H :    0.111015
  27 H :    0.096075
  28 H :    0.282552

  Mayer bond orders larger than 0.100000
B(  0-C ,  1-C ) :   0.9164 B(  0-C ,  4-O ) :   0.9053 B(  0-C ,  5-H ) :   0.9369
B(  0-C , 15-O ) :   0.8879 B(  1-C ,  2-C ) :   0.9554 B(  1-C ,  6-H ) :   0.9343
B(  1-C ,  7-H ) :   0.9370 B(  2-C ,  3-C ) :   0.9468 B(  2-C ,  8-H ) :   0.9446
B(  2-C ,  9-H ) :   0.9376 B(  3-C ,  4-O ) :   0.8440 B(  3-C , 10-H ) :   0.9334
B(  3-C , 11-H ) :   0.9387 B( 12-C , 13-H ) :   0.9182 B( 12-C , 14-H ) :   0.8950
B( 12-C , 15-O ) :   0.8352 B( 12-C , 16-C ) :   0.9093 B( 16-C , 17-C ) :   0.9060
B( 16-C , 20-O ) :   0.8771 B( 16-C , 21-H ) :   0.9227 B( 17-C , 18-C ) :   0.9241
B( 17-C , 22-O ) :   0.8941 B( 17-C , 23-H ) :   0.9365 B( 18-C , 19-C ) :   0.9475
B( 18-C , 24-H ) :   0.9371 B( 18-C , 25-H ) :   0.9206 B( 19-C , 20-O ) :   0.8384
B( 19-C , 26-H ) :   0.9336 B( 19-C , 27-H ) :   0.9373 B( 22-O , 28-H ) :   0.7952

FINAL SINGLE POINT ENERGY      -652.857516461986

DIPOLE MOMENT
-------------
                                X             Y             Z
Electronic contribution:     -4.05518      -2.60830       1.35121
Nuclear contribution   :      5.08818       3.24561      -1.62401
                        -----------------------------------------
Total Dipole Moment    :      1.03299       0.63732      -0.27280
                        -----------------------------------------
Magnitude (a.u.)       :      1.24405
Magnitude (Debye)      :      3.16213

Rotational constants in cm-1:     0.056743     0.013782     0.013236
Rotational constants in MHz :  1701.120082   413.181879   396.811447

                             ****ORCA TERMINATED NORMALLY****
TOTAL RUN TIME: 0 days 1 hours 35 minutes 23 seconds 227 msec
