                         Program Version 4.2.1 -  RELEASE  -
|  1> # Test redundant internal optimization
|  2> #
|  3> ! RKS B3LYP  Opt TightSCF SmallPrint
|  4>
|  5> %basis
|  6>         Basis "6-31G"
|  7> end
|  8>
|  9> %geom
| 10> Constraints
| 11> { D 4  0  19  14  270.0   C } # D for Dihedral angle
| 12> { D 0  19  14  12  285.0   C } # D for Dihedral angle
| 13> { D 0  4  3  2   C } # D for Dihedral angle
| 14> { D 4  3  2  1   C } # D for Dihedral angle
| 15> { D 3  2  1  0   C } # D for Dihedral angle
| 16> { D 2  1  0  4   C } # D for Dihedral angle
| 17> { D 1  0  4  3   C } # D for Dihedral angle
| 18> { D 14  15  16  17   C } # D for Dihedral angle
| 19> { D 15  16  17  12   C } # D for Dihedral angle
| 20> { D 16  17  12  14   C } # D for Dihedral angle
| 21> { D 17  12  14  15   C } # D for Dihedral angle
| 22> { D 12  14  15  16   C } # D for Dihedral angle
| 23> end
| 24> end
| 25>
| 26>
| 27> #%pal
| 28> #nprocs 8
| 29> #end
| 30>
| 31> * xyz 0 1
| 32> C  -21.048   26.222   46.251
| 33> C  -20.361   27.558   45.944
| 34> C  -20.329   28.222   47.341
| 35> C  -20.110   27.022   48.296
| 36> O  -20.473   25.807   47.535
| 37> H  -20.833   25.428   45.533
| 38> H  -19.344   27.382   45.576
| 39> H  -20.898   28.157   45.201
| 40> H  -19.543   28.978   47.434
| 41> H  -21.289   28.710   47.548
| 42> H  -20.733   27.082   49.195
| 43> H  -19.064   26.913   48.597
| 44> C  -23.252   24.934   44.571
| 45> H  -24.044   24.217   44.301
| 46> C  -23.226   25.191   46.082
| 47> C  -22.484   23.938   46.602
| 48> C  -21.457   23.645   45.479
| 49> O  -21.930   24.369   44.278
| 50> H  -23.358   25.832   43.961
| 51> O  -22.472   26.381   46.366
| 52> H  -24.225   25.304   46.517
| 53> H  -22.005   24.099   47.573
| 54> H  -23.186   23.101   46.710
| 55> H  -21.380   22.578   45.247
| 56> H  -20.460   24.029   45.714
| 57> *
| 58>
| 59>                          ****END OF INPUT****
 Total Charge           Charge          ....    0
 Multiplicity           Mult            ....    1
 Number of Electrons    NEL             ....   86
FINAL SINGLE POINT ENERGY      -538.412214260012
FINAL SINGLE POINT ENERGY      -538.433146957481
FINAL SINGLE POINT ENERGY      -538.435783930779
FINAL SINGLE POINT ENERGY      -538.436241375676
FINAL SINGLE POINT ENERGY      -538.436293738452
FINAL SINGLE POINT ENERGY      -538.436309167493
FINAL SINGLE POINT ENERGY      -538.436310236045
                    ***********************HURRAY********************

CARTESIAN COORDINATES (ANGSTROEM)
---------------------------------
  C    -20.833485   26.313086   46.207983
  C    -20.356920   27.751489   45.995191
  C    -20.426797   28.325803   47.431342
  C    -20.030687   27.115385   48.307288
  O    -20.211267   25.915843   47.453633
  H    -20.527419   25.604351   45.440104
  H    -19.324630   27.739299   45.626984
  H    -20.984492   28.289788   45.282581
  H    -19.759145   29.180139   47.577119
  H    -21.450629   28.641509   47.650626
  H    -20.654492   27.011632   49.198942
  H    -18.977619   27.133072   48.604279
  C    -23.205092   24.888226   44.544574
  H    -24.126233   24.325137   44.335395
  C    -23.079414   25.183467   46.043231
  C    -22.563700   23.832672   46.582752
  C    -21.648239   23.313040   45.448718
  O    -22.020065   24.077198   44.226956
  H    -23.171300   25.785392   43.925082
  O    -22.275891   26.366163   46.330172
  H    -24.048575   25.441760   46.479397
  H    -22.031171   23.954614   47.528580
  H    -23.418229   23.165263   46.737827
  H    -21.789109   22.245485   45.246519
  H    -20.589400   23.499190   45.646726

 Multiplicity           Mult            ....    1
 Number of Electrons    NEL             ....   86
 Basis Dimension        Dim             ....  127

ORBITAL ENERGIES
----------------

  NO   OCC          E(Eh)            E(eV)
   0   2.0000     -19.139803      -520.8205
   1   2.0000     -19.136268      -520.7243
   2   2.0000     -19.134669      -520.6808
   3   2.0000     -10.271473      -279.5010
   4   2.0000     -10.238734      -278.6101
   5   2.0000     -10.222098      -278.1574
   6   2.0000     -10.222041      -278.1559
   7   2.0000     -10.221942      -278.1532
   8   2.0000     -10.183483      -277.1067
   9   2.0000     -10.180953      -277.0378
  10   2.0000     -10.179851      -277.0078
  11   2.0000      -1.049480       -28.5578
  12   2.0000      -1.013951       -27.5910
  13   2.0000      -0.987491       -26.8710
  14   2.0000      -0.789206       -21.4754
  15   2.0000      -0.772264       -21.0144
  16   2.0000      -0.742587       -20.2068
  17   2.0000      -0.717901       -19.5351
  18   2.0000      -0.614269       -16.7151
  19   2.0000      -0.599887       -16.3238
  20   2.0000      -0.593436       -16.1482
  21   2.0000      -0.566136       -15.4053
  22   2.0000      -0.521131       -14.1807
  23   2.0000      -0.499814       -13.6006
  24   2.0000      -0.477858       -13.0032
  25   2.0000      -0.475277       -12.9330
  26   2.0000      -0.448463       -12.2033
  27   2.0000      -0.446930       -12.1616
  28   2.0000      -0.418617       -11.3912
  29   2.0000      -0.412500       -11.2247
  30   2.0000      -0.404017       -10.9939
  31   2.0000      -0.393361       -10.7039
  32   2.0000      -0.369904       -10.0656
  33   2.0000      -0.367104        -9.9894
  34   2.0000      -0.354391        -9.6435
  35   2.0000      -0.351357        -9.5609
  36   2.0000      -0.340393        -9.2626
  37   2.0000      -0.318781        -8.6745
  38   2.0000      -0.311770        -8.4837
  39   2.0000      -0.290859        -7.9147
  40   2.0000      -0.268267        -7.2999
  41   2.0000      -0.249184        -6.7806
  42   2.0000      -0.235920        -6.4197
  43   0.0000       0.077706         2.1145
  44   0.0000       0.100926         2.7463
  45   0.0000       0.104788         2.8514
  46   0.0000       0.109584         2.9819
  47   0.0000       0.119055         3.2397

MULLIKEN ATOMIC CHARGES
-----------------------
   0 C :    0.269588
   1 C :   -0.254173
   2 C :   -0.296821
   3 C :   -0.001862
   4 O :   -0.517208
   5 H :    0.175075
   6 H :    0.143832
   7 H :    0.152546
   8 H :    0.137860
   9 H :    0.161587
  10 H :    0.145336
  11 H :    0.140856
  12 C :   -0.010618
  13 H :    0.127084
  14 C :    0.079500
  15 C :   -0.309059
  16 C :   -0.035760
  17 O :   -0.525094
  18 H :    0.161086
  19 O :   -0.524082
  20 H :    0.145648
  21 H :    0.183381
  22 H :    0.146224
  23 H :    0.143263
  24 H :    0.161811
Sum of atomic charges:   -0.0000000

LOEWDIN ATOMIC CHARGES
----------------------
   0 C :    0.166241
   1 C :   -0.213280
   2 C :   -0.215834
   3 C :   -0.027598
   4 O :   -0.331579
   5 H :    0.113006
   6 H :    0.112936
   7 H :    0.121875
   8 H :    0.112064
   9 H :    0.118932
  10 H :    0.104269
  11 H :    0.101585
  12 C :   -0.049145
  13 H :    0.094507
  14 C :    0.040787
  15 C :   -0.240694
  16 C :   -0.040663
  17 O :   -0.340337
  18 H :    0.117749
  19 O :   -0.321705
  20 H :    0.112138
  21 H :    0.137395
  22 H :    0.117322
  23 H :    0.102263
  24 H :    0.107767

  Mayer bond orders larger than 0.100000
B(  0-C ,  1-C ) :   0.9475 B(  0-C ,  4-O ) :   0.8930 B(  0-C ,  5-H ) :   0.8987
B(  0-C , 19-O ) :   0.8446 B(  1-C ,  2-C ) :   0.9565 B(  1-C ,  6-H ) :   0.9411
B(  1-C ,  7-H ) :   0.9380 B(  2-C ,  3-C ) :   0.9553 B(  2-C ,  8-H ) :   0.9458
B(  2-C ,  9-H ) :   0.9440 B(  3-C ,  4-O ) :   0.8370 B(  3-C , 10-H ) :   0.9360
B(  3-C , 11-H ) :   0.9403 B( 12-C , 13-H ) :   0.9145 B( 12-C , 14-C ) :   0.9151
B( 12-C , 17-O ) :   0.8602 B( 12-C , 18-H ) :   0.9329 B( 14-C , 15-C ) :   0.9332
B( 14-C , 19-O ) :   0.8768 B( 14-C , 20-H ) :   0.9376 B( 15-C , 16-C ) :   0.9435
B( 15-C , 21-H ) :   0.9246 B( 15-C , 22-H ) :   0.9368 B( 16-C , 17-O ) :   0.8425
B( 16-C , 23-H ) :   0.9366 B( 16-C , 24-H ) :   0.9286

FINAL SINGLE POINT ENERGY      -538.436310425255

DIPOLE MOMENT
-------------
                                X             Y             Z
Electronic contribution:     -0.55404      -1.43891      -1.46987
Nuclear contribution   :      0.27998       1.74601       1.93355
                        -----------------------------------------
Total Dipole Moment    :     -0.27405       0.30710       0.46368
                        -----------------------------------------
Magnitude (a.u.)       :      0.62001
Magnitude (Debye)      :      1.57595

Rotational constants in cm-1:     0.077851     0.023519     0.022045
Rotational constants in MHz :  2333.903185   705.094922   660.891047

                             ****ORCA TERMINATED NORMALLY****
TOTAL RUN TIME: 0 days 0 hours 8 minutes 24 seconds 208 msec
