                         Program Version 4.2.1 -  RELEASE  -
|  1> # Test redundant internal optimization
|  2> #
|  3> ! RKS B3LYP  Opt TightSCF SmallPrint
|  4>
|  5> %basis
|  6>         Basis "6-31G"
|  7> end
|  8>
|  9> %geom
| 10> Constraints
| 11> { D 4  0  19  14  225.0   C } # D for Dihedral angle
| 12> { D 0  19  14  12  330.0   C } # D for Dihedral angle
| 13> { D 0  4  3  2   C } # D for Dihedral angle
| 14> { D 4  3  2  1   C } # D for Dihedral angle
| 15> { D 3  2  1  0   C } # D for Dihedral angle
| 16> { D 2  1  0  4   C } # D for Dihedral angle
| 17> { D 1  0  4  3   C } # D for Dihedral angle
| 18> { D 14  15  16  17   C } # D for Dihedral angle
| 19> { D 15  16  17  12   C } # D for Dihedral angle
| 20> { D 16  17  12  14   C } # D for Dihedral angle
| 21> { D 17  12  14  15   C } # D for Dihedral angle
| 22> { D 12  14  15  16   C } # D for Dihedral angle
| 23> end
| 24> end
| 25>
| 26>
| 27> #%pal
| 28> #nprocs 8
| 29> #end
| 30>
| 31> * xyz 0 1
| 32> C  -21.048   26.222   46.251
| 33> C  -20.361   27.558   45.944
| 34> C  -20.329   28.222   47.341
| 35> C  -20.110   27.022   48.296
| 36> O  -20.473   25.807   47.535
| 37> H  -20.833   25.428   45.533
| 38> H  -19.344   27.382   45.576
| 39> H  -20.898   28.157   45.201
| 40> H  -19.543   28.978   47.434
| 41> H  -21.289   28.710   47.548
| 42> H  -20.733   27.082   49.195
| 43> H  -19.064   26.913   48.597
| 44> C  -22.395   25.829   43.997
| 45> H  -23.028   25.667   43.111
| 46> C  -23.222   25.800   45.287
| 47> C  -23.408   24.281   45.507
| 48> C  -22.072   23.685   44.998
| 49> O  -21.442   24.724   44.154
| 50> H  -21.808   26.738   43.855
| 51> O  -22.472   26.381   46.366
| 52> H  -24.173   26.337   45.199
| 53> H  -23.609   24.024   46.551
| 54> H  -24.249   23.913   44.905
| 55> H  -22.215   22.777   44.402
| 56> H  -21.374   23.467   45.813
| 57> *
| 58>
| 59>                          ****END OF INPUT****
 Total Charge           Charge          ....    0
 Multiplicity           Mult            ....    1
 Number of Electrons    NEL             ....   86
FINAL SINGLE POINT ENERGY      -538.411679250667
FINAL SINGLE POINT ENERGY      -538.428728966201
FINAL SINGLE POINT ENERGY      -538.430795391765
FINAL SINGLE POINT ENERGY      -538.431204667395
FINAL SINGLE POINT ENERGY      -538.431266381362
FINAL SINGLE POINT ENERGY      -538.431291202625
FINAL SINGLE POINT ENERGY      -538.431293180872
                    ***********************HURRAY********************

CARTESIAN COORDINATES (ANGSTROEM)
---------------------------------
  C    -20.810317   26.257407   46.260630
  C    -20.227501   27.651404   46.029372
  C    -20.384792   28.301643   47.426586
  C    -20.143631   27.114209   48.384158
  O    -20.327298   25.890626   47.565354
  H    -20.496430   25.491407   45.551749
  H    -19.168868   27.562685   45.756725
  H    -20.748663   28.199969   45.241321
  H    -19.681524   29.123017   47.592159
  H    -21.403232   28.684698   47.538927
  H    -20.847895   27.086348   49.219839
  H    -19.120622   27.082195   48.771719
  C    -22.483433   25.706866   43.871745
  H    -23.270322   25.613026   43.109896
  C    -23.103763   25.763652   45.271709
  C    -23.409850   24.273947   45.534505
  C    -22.242334   23.533304   44.842076
  O    -21.635292   24.507293   43.891107
  H    -21.844926   26.557201   43.625184
  O    -22.270632   26.350250   46.314947
  H    -24.012238   26.371723   45.290352
  H    -23.465578   24.077180   46.607195
  H    -24.370320   24.008217   45.077630
  H    -22.566819   22.653768   44.277697
  H    -21.455719   23.241963   45.543417

 Multiplicity           Mult            ....    1
 Number of Electrons    NEL             ....   86
 Basis Dimension        Dim             ....  127

ORBITAL ENERGIES
----------------

  NO   OCC          E(Eh)            E(eV)
   0   2.0000     -19.141196      -520.8584
   1   2.0000     -19.133336      -520.6445
   2   2.0000     -19.132092      -520.6107
   3   2.0000     -10.267786      -279.4007
   4   2.0000     -10.241979      -278.6984
   5   2.0000     -10.231142      -278.4035
   6   2.0000     -10.225566      -278.2518
   7   2.0000     -10.218429      -278.0576
   8   2.0000     -10.184382      -277.1311
   9   2.0000     -10.179522      -276.9989
  10   2.0000     -10.178701      -276.9765
  11   2.0000      -1.045100       -28.4386
  12   2.0000      -1.019306       -27.7367
  13   2.0000      -0.983821       -26.7711
  14   2.0000      -0.786962       -21.4143
  15   2.0000      -0.773853       -21.0576
  16   2.0000      -0.742134       -20.1945
  17   2.0000      -0.720763       -19.6130
  18   2.0000      -0.616154       -16.7664
  19   2.0000      -0.601730       -16.3739
  20   2.0000      -0.591407       -16.0930
  21   2.0000      -0.564334       -15.3563
  22   2.0000      -0.521820       -14.1995
  23   2.0000      -0.502448       -13.6723
  24   2.0000      -0.479349       -13.0438
  25   2.0000      -0.477473       -12.9927
  26   2.0000      -0.451295       -12.2804
  27   2.0000      -0.446101       -12.1390
  28   2.0000      -0.422523       -11.4974
  29   2.0000      -0.413061       -11.2400
  30   2.0000      -0.401190       -10.9169
  31   2.0000      -0.390809       -10.6345
  32   2.0000      -0.373553       -10.1649
  33   2.0000      -0.368068       -10.0156
  34   2.0000      -0.355961        -9.6862
  35   2.0000      -0.349859        -9.5201
  36   2.0000      -0.343680        -9.3520
  37   2.0000      -0.319239        -8.6869
  38   2.0000      -0.306948        -8.3525
  39   2.0000      -0.295716        -8.0468
  40   2.0000      -0.259638        -7.0651
  41   2.0000      -0.243982        -6.6391
  42   2.0000      -0.239113        -6.5066
  43   0.0000       0.077546         2.1101
  44   0.0000       0.093552         2.5457
  45   0.0000       0.099765         2.7148
  46   0.0000       0.106217         2.8903
  47   0.0000       0.119775         3.2593

MULLIKEN ATOMIC CHARGES
-----------------------
   0 C :    0.263742
   1 C :   -0.255038
   2 C :   -0.298614
   3 C :   -0.000462
   4 O :   -0.509165
   5 H :    0.187438
   6 H :    0.143187
   7 H :    0.139106
   8 H :    0.137568
   9 H :    0.159792
  10 H :    0.148934
  11 H :    0.138675
  12 C :   -0.037354
  13 H :    0.138988
  14 C :    0.082623
  15 C :   -0.283154
  16 C :   -0.028746
  17 O :   -0.522132
  18 H :    0.158345
  19 O :   -0.528417
  20 H :    0.147854
  21 H :    0.173212
  22 H :    0.136155
  23 H :    0.144756
  24 H :    0.162709
Sum of atomic charges:    0.0000000

LOEWDIN ATOMIC CHARGES
----------------------
   0 C :    0.166845
   1 C :   -0.222821
   2 C :   -0.217216
   3 C :   -0.026654
   4 O :   -0.312743
   5 H :    0.119057
   6 H :    0.112468
   7 H :    0.112207
   8 H :    0.112206
   9 H :    0.118116
  10 H :    0.106230
  11 H :    0.100513
  12 C :   -0.055472
  13 H :    0.101905
  14 C :    0.042469
  15 C :   -0.234037
  16 C :   -0.036913
  17 O :   -0.337255
  18 H :    0.114455
  19 O :   -0.334789
  20 H :    0.112462
  21 H :    0.132615
  22 H :    0.111474
  23 H :    0.104107
  24 H :    0.110771

  Mayer bond orders larger than 0.100000
B(  0-C ,  1-C ) :   0.9381 B(  0-C ,  4-O ) :   0.9180 B(  0-C ,  5-H ) :   0.8887
B(  0-C , 19-O ) :   0.8123 B(  1-C ,  2-C ) :   0.9544 B(  1-C ,  6-H ) :   0.9363
B(  1-C ,  7-H ) :   0.9384 B(  2-C ,  3-C ) :   0.9553 B(  2-C ,  8-H ) :   0.9455
B(  2-C ,  9-H ) :   0.9438 B(  3-C ,  4-O ) :   0.8399 B(  3-C , 10-H ) :   0.9352
B(  3-C , 11-H ) :   0.9400 B( 12-C , 13-H ) :   0.9156 B( 12-C , 14-C ) :   0.9236
B( 12-C , 17-O ) :   0.8522 B( 12-C , 18-H ) :   0.9293 B( 14-C , 15-C ) :   0.9217
B( 14-C , 19-O ) :   0.8814 B( 14-C , 20-H ) :   0.9339 B( 15-C , 16-C ) :   0.9483
B( 15-C , 21-H ) :   0.9353 B( 15-C , 22-H ) :   0.9384 B( 16-C , 17-O ) :   0.8376
B( 16-C , 23-H ) :   0.9365 B( 16-C , 24-H ) :   0.9335

FINAL SINGLE POINT ENERGY      -538.431293798182

DIPOLE MOMENT
-------------
                                X             Y             Z
Electronic contribution:      0.23948      -2.01345      -0.21456
Nuclear contribution   :     -0.78681       2.54492       0.00063
                        -----------------------------------------
Total Dipole Moment    :     -0.54733       0.53147      -0.21393
                        -----------------------------------------
Magnitude (a.u.)       :      0.79234
Magnitude (Debye)      :      2.01397

Rotational constants in cm-1:     0.078545     0.022685     0.021678
Rotational constants in MHz :  2354.720546   680.085338   649.895493

                             ****ORCA TERMINATED NORMALLY****
TOTAL RUN TIME: 0 days 0 hours 10 minutes 7 seconds 271 msec
