                         Program Version 4.2.1 -  RELEASE  -
|  1> # Test redundant internal optimization
|  2> #
|  3> ! RKS B3LYP  Opt TightSCF SmallPrint
|  4>
|  5> %basis
|  6>         Basis "6-31G"
|  7> end
|  8>
|  9> %geom
| 10> Constraints
| 11> { D 4  0  19  14  255.0   C } # D for Dihedral angle
| 12> { D 0  19  14  12  285.0   C } # D for Dihedral angle
| 13> { D 0  4  3  2   C } # D for Dihedral angle
| 14> { D 4  3  2  1   C } # D for Dihedral angle
| 15> { D 3  2  1  0   C } # D for Dihedral angle
| 16> { D 2  1  0  4   C } # D for Dihedral angle
| 17> { D 1  0  4  3   C } # D for Dihedral angle
| 18> { D 14  15  16  17   C } # D for Dihedral angle
| 19> { D 15  16  17  12   C } # D for Dihedral angle
| 20> { D 16  17  12  14   C } # D for Dihedral angle
| 21> { D 17  12  14  15   C } # D for Dihedral angle
| 22> { D 12  14  15  16   C } # D for Dihedral angle
| 23> end
| 24> end
| 25>
| 26>
| 27> #%pal
| 28> #nprocs 8
| 29> #end
| 30>
| 31> * xyz 0 1
| 32> C  -21.048   26.222   46.251
| 33> C  -20.361   27.558   45.944
| 34> C  -20.329   28.222   47.341
| 35> C  -20.110   27.022   48.296
| 36> O  -20.473   25.807   47.535
| 37> H  -20.833   25.428   45.533
| 38> H  -19.344   27.382   45.576
| 39> H  -20.898   28.157   45.201
| 40> H  -19.543   28.978   47.434
| 41> H  -21.289   28.710   47.548
| 42> H  -20.733   27.082   49.195
| 43> H  -19.064   26.913   48.597
| 44> C  -23.220   25.461   44.240
| 45> H  -24.015   24.858   43.775
| 46> C  -23.236   25.322   45.767
| 47> C  -22.533   23.960   45.966
| 48> C  -21.477   23.940   44.833
| 49> O  -21.899   24.959   43.846
| 50> H  -23.292   26.488   43.878
| 51> O  -22.472   26.381   46.366
| 52> H  -24.247   25.344   46.190
| 53> H  -22.082   23.855   46.958
| 54> H  -23.252   23.141   45.838
| 55> H  -21.411   22.966   44.336
| 56> H  -20.481   24.226   45.185
| 57> *
| 58>
| 59>                          ****END OF INPUT****
 Total Charge           Charge          ....    0
 Multiplicity           Mult            ....    1
 Number of Electrons    NEL             ....   86
FINAL SINGLE POINT ENERGY      -538.401837751145
FINAL SINGLE POINT ENERGY      -538.429578288710
FINAL SINGLE POINT ENERGY      -538.432236191476
FINAL SINGLE POINT ENERGY      -538.432720482580
FINAL SINGLE POINT ENERGY      -538.432798750917
FINAL SINGLE POINT ENERGY      -538.432825465284
FINAL SINGLE POINT ENERGY      -538.432825715948
FINAL SINGLE POINT ENERGY      -538.432826222071
                    ***********************HURRAY********************

CARTESIAN COORDINATES (ANGSTROEM)
---------------------------------
  C    -20.792682   26.318728   46.229576
  C    -20.312190   27.757378   46.031422
  C    -20.435532   28.335817   47.462839
  C    -20.068619   27.127583   48.353902
  O    -20.216126   25.927787   47.495411
  H    -20.452966   25.616774   45.472530
  H    -19.266364   27.748662   45.702710
  H    -20.912375   28.293566   45.294058
  H    -19.775969   29.192346   47.629933
  H    -21.467647   28.648978   47.644502
  H    -20.724442   27.021884   49.222059
  H    -19.026964   27.147874   48.688856
  C    -23.173305   25.405747   44.199765
  H    -24.110996   24.950569   43.850032
  C    -23.066944   25.317804   45.726307
  C    -22.619370   23.855375   45.920791
  C    -21.700578   23.590010   44.702673
  O    -22.014703   24.646588   43.704100
  H    -23.092398   26.424814   43.819053
  O    -22.240560   26.357596   46.318919
  H    -24.039133   25.495249   46.196051
  H    -22.108042   23.716049   46.877143
  H    -23.501676   23.207587   45.897966
  H    -21.884684   22.612834   44.242324
  H    -20.637736   23.664402   44.946078

 Multiplicity           Mult            ....    1
 Number of Electrons    NEL             ....   86
 Basis Dimension        Dim             ....  127

ORBITAL ENERGIES
----------------

  NO   OCC          E(Eh)            E(eV)
   0   2.0000     -19.138597      -520.7877
   1   2.0000     -19.136311      -520.7255
   2   2.0000     -19.134103      -520.6654
   3   2.0000     -10.272260      -279.5224
   4   2.0000     -10.240244      -278.6512
   5   2.0000     -10.225458      -278.2489
   6   2.0000     -10.223202      -278.1875
   7   2.0000     -10.220450      -278.1126
   8   2.0000     -10.187053      -277.2038
   9   2.0000     -10.180055      -277.0134
  10   2.0000     -10.178876      -276.9813
  11   2.0000      -1.048431       -28.5293
  12   2.0000      -1.015523       -27.6338
  13   2.0000      -0.987344       -26.8670
  14   2.0000      -0.789110       -21.4728
  15   2.0000      -0.773318       -21.0430
  16   2.0000      -0.744344       -20.2546
  17   2.0000      -0.718587       -19.5537
  18   2.0000      -0.615178       -16.7398
  19   2.0000      -0.602958       -16.4073
  20   2.0000      -0.592584       -16.1250
  21   2.0000      -0.567003       -15.4289
  22   2.0000      -0.522412       -14.2156
  23   2.0000      -0.501591       -13.6490
  24   2.0000      -0.478338       -13.0162
  25   2.0000      -0.475797       -12.9471
  26   2.0000      -0.450232       -12.2514
  27   2.0000      -0.444686       -12.1005
  28   2.0000      -0.422783       -11.5045
  29   2.0000      -0.413166       -11.2428
  30   2.0000      -0.404410       -11.0046
  31   2.0000      -0.394770       -10.7422
  32   2.0000      -0.371367       -10.1054
  33   2.0000      -0.367753       -10.0071
  34   2.0000      -0.354730        -9.6527
  35   2.0000      -0.350616        -9.5407
  36   2.0000      -0.341648        -9.2967
  37   2.0000      -0.315903        -8.5962
  38   2.0000      -0.312823        -8.5123
  39   2.0000      -0.291357        -7.9282
  40   2.0000      -0.265967        -7.2373
  41   2.0000      -0.249131        -6.7792
  42   2.0000      -0.236196        -6.4272
  43   0.0000       0.075521         2.0550
  44   0.0000       0.099307         2.7023
  45   0.0000       0.102141         2.7794
  46   0.0000       0.107887         2.9358
  47   0.0000       0.117472         3.1966

MULLIKEN ATOMIC CHARGES
-----------------------
   0 C :    0.269594
   1 C :   -0.249724
   2 C :   -0.297117
   3 C :   -0.000540
   4 O :   -0.513091
   5 H :    0.170153
   6 H :    0.142277
   7 H :    0.149502
   8 H :    0.137338
   9 H :    0.161219
  10 H :    0.146967
  11 H :    0.139576
  12 C :   -0.011279
  13 H :    0.126959
  14 C :    0.086928
  15 C :   -0.307650
  16 C :   -0.030037
  17 O :   -0.526754
  18 H :    0.160816
  19 O :   -0.525775
  20 H :    0.146351
  21 H :    0.177739
  22 H :    0.149389
  23 H :    0.140982
  24 H :    0.156178
Sum of atomic charges:    0.0000000

LOEWDIN ATOMIC CHARGES
----------------------
   0 C :    0.169125
   1 C :   -0.214234
   2 C :   -0.216275
   3 C :   -0.026877
   4 O :   -0.327176
   5 H :    0.111915
   6 H :    0.112029
   7 H :    0.119866
   8 H :    0.111983
   9 H :    0.118758
  10 H :    0.105116
  11 H :    0.100952
  12 C :   -0.048880
  13 H :    0.094515
  14 C :    0.042365
  15 C :   -0.239291
  16 C :   -0.039777
  17 O :   -0.340563
  18 H :    0.117651
  19 O :   -0.323125
  20 H :    0.112353
  21 H :    0.134636
  22 H :    0.119544
  23 H :    0.101253
  24 H :    0.104141

  Mayer bond orders larger than 0.100000
B(  0-C ,  1-C ) :   0.9461 B(  0-C ,  4-O ) :   0.9086 B(  0-C ,  5-H ) :   0.9014
B(  0-C , 19-O ) :   0.8355 B(  1-C ,  2-C ) :   0.9569 B(  1-C ,  6-H ) :   0.9401
B(  1-C ,  7-H ) :   0.9387 B(  2-C ,  3-C ) :   0.9545 B(  2-C ,  8-H ) :   0.9459
B(  2-C ,  9-H ) :   0.9439 B(  3-C ,  4-O ) :   0.8381 B(  3-C , 10-H ) :   0.9357
B(  3-C , 11-H ) :   0.9403 B( 12-C , 13-H ) :   0.9141 B( 12-C , 14-C ) :   0.9123
B( 12-C , 17-O ) :   0.8586 B( 12-C , 18-H ) :   0.9337 B( 14-C , 15-C ) :   0.9298
B( 14-C , 19-O ) :   0.8800 B( 14-C , 20-H ) :   0.9376 B( 15-C , 16-C ) :   0.9437
B( 15-C , 21-H ) :   0.9301 B( 15-C , 22-H ) :   0.9373 B( 16-C , 17-O ) :   0.8469
B( 16-C , 23-H ) :   0.9364 B( 16-C , 24-H ) :   0.9284

FINAL SINGLE POINT ENERGY      -538.432826630544

DIPOLE MOMENT
-------------
                                X             Y             Z
Electronic contribution:     -0.44310      -1.30156      -0.97306
Nuclear contribution   :      0.13042       1.47869       1.27411
                        -----------------------------------------
Total Dipole Moment    :     -0.31268       0.17713       0.30105
                        -----------------------------------------
Magnitude (a.u.)       :      0.46880
Magnitude (Debye)      :      1.19160

Rotational constants in cm-1:     0.078610     0.022678     0.021409
Rotational constants in MHz :  2356.658153   679.876789   641.828462

                             ****ORCA TERMINATED NORMALLY****
TOTAL RUN TIME: 0 days 0 hours 9 minutes 17 seconds 264 msec
