                         Program Version 4.2.0 -  RELEASE  -
|  1> # Test redundant internal optimization
|  2> #
|  3> ! RKS B3LYP  Opt TightSCF SmallPrint
|  4>
|  5> %basis
|  6>         Basis "6-31G"
|  7> end
|  8>
|  9> %geom
| 10> Constraints
| 11> { D 4  0  15  12  315.0   C } # D for Dihedral angle
| 12> { D 0  15  12  16  345.0   C } # D for Dihedral angle
| 13> { D 0  4  3  2   C } # D for Dihedral angle
| 14> { D 4  3  2  1   C } # D for Dihedral angle
| 15> { D 3  2  1  0   C } # D for Dihedral angle
| 16> { D 2  1  0  4   C } # D for Dihedral angle
| 17> { D 1  0  4  3   C } # D for Dihedral angle
| 18> { D 16  20  19  18   C } # D for Dihedral angle
| 19> { D 20  19  18  17   C } # D for Dihedral angle
| 20> { D 19  18  17  16   C } # D for Dihedral angle
| 21> { D 18  17  16  20   C } # D for Dihedral angle
| 22> { D 17  16  20  19   C } # D for Dihedral angle
| 23> { D 15  12  16  20   C } # D for Dihedral angle
| 24> end
| 25> end
| 26>
| 27>
| 28> #%pal
| 29> #nprocs 8
| 30> #end
| 31>
| 32> * xyz 0 1
| 33> C  -21.048   26.222   46.251
| 34> C  -20.361   27.558   45.944
| 35> C  -20.329   28.222   47.341
| 36> C  -20.110   27.022   48.296
| 37> O  -20.473   25.807   47.535
| 38> H  -20.833   25.428   45.533
| 39> H  -19.344   27.382   45.576
| 40> H  -20.898   28.157   45.201
| 41> H  -19.543   28.978   47.434
| 42> H  -21.289   28.710   47.548
| 43> H  -20.733   27.082   49.195
| 44> H  -19.064   26.913   48.597
| 45> C  -23.319   25.255   47.135
| 46> H  -23.607   25.611   48.132
| 47> H  -24.231   24.960   46.599
| 48> O  -22.586   26.394   46.375
| 49> C  -22.440   23.984   47.306
| 50> C  -23.231   22.844   47.955
| 51> C  -24.047   22.306   46.755
| 52> C  -23.076   22.482   45.562
| 53> O  -22.048   23.453   45.996
| 54> H  -21.521   24.253   47.830
| 55> H  -22.546   22.076   48.331
| 56> O  -24.129   23.316   49.131
| 57> H  -24.361   21.265   46.888
| 58> H  -24.950   22.912   46.612
| 59> H  -23.577   22.867   44.666
| 60> H  -22.556   21.554   45.306
| 61> H  -24.826   24.084   48.778
| 62> *
| 63>
| 64>                          ****END OF INPUT****
 Total Charge           Charge          ....    0
 Multiplicity           Mult            ....    1
 Number of Electrons    NEL             ....  102
FINAL SINGLE POINT ENERGY      -652.826119564274
FINAL SINGLE POINT ENERGY      -652.849711185316
FINAL SINGLE POINT ENERGY      -652.854882041563
FINAL SINGLE POINT ENERGY      -652.857294633247
FINAL SINGLE POINT ENERGY      -652.857580673813
FINAL SINGLE POINT ENERGY      -652.857654735184
FINAL SINGLE POINT ENERGY      -652.857660058291
FINAL SINGLE POINT ENERGY      -652.857661031344
                    ***********************HURRAY********************

CARTESIAN COORDINATES (ANGSTROEM)
---------------------------------
  C    -20.951928   26.235103   46.242857
  C    -20.454549   27.655433   45.967651
  C    -20.407636   28.253124   47.392045
  C    -19.982222   27.052307   48.267364
  O    -20.253509   25.837158   47.452021
  H    -20.699338   25.474405   45.501871
  H    -19.454353   27.604805   45.522696
  H    -21.120376   28.198111   45.293775
  H    -19.710435   29.092605   47.475307
  H    -21.405007   28.602169   47.674414
  H    -20.542291   26.983664   49.204145
  H    -18.910847   27.045895   48.488997
  C    -23.148135   25.263804   47.074529
  H    -23.458486   25.663494   48.049108
  H    -24.042644   25.123449   46.456478
  O    -22.388802   26.309791   46.392209
  C    -22.443932   23.925826   47.319540
  C    -23.360574   22.874576   47.971637
  C    -24.153376   22.332491   46.740599
  C    -23.098505   22.381492   45.611284
  O    -22.023606   23.298317   46.065166
  H    -21.531365   24.093702   47.888482
  H    -22.744708   22.084215   48.406232
  O    -24.178539   23.344982   49.069894
  H    -24.546228   21.326933   46.911291
  H    -25.002113   22.995901   46.528921
  H    -23.506220   22.748887   44.664198
  H    -22.634932   21.405822   45.438628
  H    -24.921343   23.888538   48.736663

 Multiplicity           Mult            ....    1
 Number of Electrons    NEL             ....  102
 Basis Dimension        Dim             ....  149

ORBITAL ENERGIES
----------------

  NO   OCC          E(Eh)            E(eV)
   0   2.0000     -19.148183      -521.0485
   1   2.0000     -19.138086      -520.7738
   2   2.0000     -19.135943      -520.7155
   3   2.0000     -19.133112      -520.6384
   4   2.0000     -10.268480      -279.4195
   5   2.0000     -10.242897      -278.7234
   6   2.0000     -10.228888      -278.3422
   7   2.0000     -10.226116      -278.2668
   8   2.0000     -10.222441      -278.1668
   9   2.0000     -10.221368      -278.1376
  10   2.0000     -10.193849      -277.3887
  11   2.0000     -10.181270      -277.0464
  12   2.0000     -10.179068      -276.9865
  13   2.0000      -1.045400       -28.4468
  14   2.0000      -1.030829       -28.0503
  15   2.0000      -1.012956       -27.5639
  16   2.0000      -0.984059       -26.7776
  17   2.0000      -0.785348       -21.3704
  18   2.0000      -0.779314       -21.2062
  19   2.0000      -0.760025       -20.6813
  20   2.0000      -0.728987       -19.8367
  21   2.0000      -0.675741       -18.3878
  22   2.0000      -0.610078       -16.6011
  23   2.0000      -0.596676       -16.2364
  24   2.0000      -0.594036       -16.1645
  25   2.0000      -0.559404       -15.2222
  26   2.0000      -0.524649       -14.2764
  27   2.0000      -0.507417       -13.8075
  28   2.0000      -0.496034       -13.4978
  29   2.0000      -0.480496       -13.0750
  30   2.0000      -0.462943       -12.5973
  31   2.0000      -0.455020       -12.3817
  32   2.0000      -0.439573       -11.9614
  33   2.0000      -0.427130       -11.6228
  34   2.0000      -0.426437       -11.6039
  35   2.0000      -0.409921       -11.1545
  36   2.0000      -0.403931       -10.9915
  37   2.0000      -0.395876       -10.7723
  38   2.0000      -0.379789       -10.3346
  39   2.0000      -0.366323        -9.9681
  40   2.0000      -0.356205        -9.6928
  41   2.0000      -0.352533        -9.5929
  42   2.0000      -0.342211        -9.3120
  43   2.0000      -0.329468        -8.9653
  44   2.0000      -0.320206        -8.7132
  45   2.0000      -0.312905        -8.5146
  46   2.0000      -0.294581        -8.0160
  47   2.0000      -0.269268        -7.3271
  48   2.0000      -0.261655        -7.1200
  49   2.0000      -0.244211        -6.6453
  50   2.0000      -0.234514        -6.3815
  51   0.0000       0.052382         1.4254
  52   0.0000       0.078839         2.1453
  53   0.0000       0.092774         2.5245
  54   0.0000       0.095343         2.5944
  55   0.0000       0.108237         2.9453

MULLIKEN ATOMIC CHARGES
-----------------------
   0 C :    0.300267
   1 C :   -0.262219
   2 C :   -0.298574
   3 C :   -0.009835
   4 O :   -0.517755
   5 H :    0.174658
   6 H :    0.144617
   7 H :    0.159031
   8 H :    0.139753
   9 H :    0.158016
  10 H :    0.143178
  11 H :    0.145364
  12 C :    0.015597
  13 H :    0.132286
  14 H :    0.131641
  15 O :   -0.549870
  16 C :    0.045712
  17 C :    0.083380
  18 C :   -0.323111
  19 C :   -0.004801
  20 O :   -0.520004
  21 H :    0.208113
  22 H :    0.169520
  23 O :   -0.599590
  24 H :    0.155130
  25 H :    0.132881
  26 H :    0.141755
  27 H :    0.149109
  28 H :    0.355751
Sum of atomic charges:   -0.0000000

LOEWDIN ATOMIC CHARGES
----------------------
   0 C :    0.177789
   1 C :   -0.213541
   2 C :   -0.216438
   3 C :   -0.031797
   4 O :   -0.326633
   5 H :    0.111114
   6 H :    0.113755
   7 H :    0.125488
   8 H :    0.112893
   9 H :    0.117086
  10 H :    0.102677
  11 H :    0.103807
  12 C :   -0.042598
  13 H :    0.100347
  14 H :    0.099492
  15 O :   -0.334285
  16 C :   -0.002925
  17 C :    0.038001
  18 C :   -0.241734
  19 C :   -0.029448
  20 O :   -0.324011
  21 H :    0.137319
  22 H :    0.119868
  23 O :   -0.406763
  24 H :    0.121621
  25 H :    0.103314
  26 H :    0.102041
  27 H :    0.105807
  28 H :    0.277752

  Mayer bond orders larger than 0.100000
B(  0-C ,  1-C ) :   0.9426 B(  0-C ,  4-O ) :   0.8780 B(  0-C ,  5-H ) :   0.9132
B(  0-C , 15-O ) :   0.8482 B(  1-C ,  2-C ) :   0.9543 B(  1-C ,  6-H ) :   0.9397
B(  1-C ,  7-H ) :   0.9364 B(  2-C ,  3-C ) :   0.9560 B(  2-C ,  8-H ) :   0.9453
B(  2-C ,  9-H ) :   0.9450 B(  3-C ,  4-O ) :   0.8351 B(  3-C , 10-H ) :   0.9358
B(  3-C , 11-H ) :   0.9405 B( 12-C , 13-H ) :   0.9100 B( 12-C , 14-H ) :   0.9333
B( 12-C , 15-O ) :   0.8414 B( 12-C , 16-C ) :   0.9068 B( 16-C , 17-C ) :   0.8659
B( 16-C , 20-O ) :   0.8364 B( 16-C , 21-H ) :   0.8970 B( 17-C , 18-C ) :   0.9199
B( 17-C , 22-H ) :   0.9335 B( 17-C , 23-O ) :   0.9002 B( 18-C , 19-C ) :   0.9396
B( 18-C , 24-H ) :   0.9424 B( 18-C , 25-H ) :   0.9408 B( 19-C , 20-O ) :   0.8469
B( 19-C , 26-H ) :   0.9326 B( 19-C , 27-H ) :   0.9383 B( 23-O , 28-H ) :   0.7981

FINAL SINGLE POINT ENERGY      -652.857660855062

DIPOLE MOMENT
-------------
                                X             Y             Z
Electronic contribution:      0.26169      -2.33769       0.39113
Nuclear contribution   :     -0.84271       2.59508      -0.63643
                        -----------------------------------------
Total Dipole Moment    :     -0.58102       0.25739      -0.24530
                        -----------------------------------------
Magnitude (a.u.)       :      0.68118
Magnitude (Debye)      :      1.73142

Rotational constants in cm-1:     0.055094     0.014544     0.013309
Rotational constants in MHz :  1651.688805   436.008884   398.992608

                             ****ORCA TERMINATED NORMALLY****
TOTAL RUN TIME: 0 days 1 hours 6 minutes 56 seconds 678 msec
