                         Program Version 4.2.1 -  RELEASE  -
|  1> # Test redundant internal optimization
|  2> #
|  3> ! RKS B3LYP  Opt TightSCF SmallPrint
|  4>
|  5> %basis
|  6>         Basis "6-31G"
|  7> end
|  8>
|  9> %geom
| 10> Constraints
| 11> { D 4  0  19  14  120.0   C } # D for Dihedral angle
| 12> { D 0  19  14  12  75.0   C } # D for Dihedral angle
| 13> { D 0  4  3  2   C } # D for Dihedral angle
| 14> { D 4  3  2  1   C } # D for Dihedral angle
| 15> { D 3  2  1  0   C } # D for Dihedral angle
| 16> { D 2  1  0  4   C } # D for Dihedral angle
| 17> { D 1  0  4  3   C } # D for Dihedral angle
| 18> { D 14  15  16  17   C } # D for Dihedral angle
| 19> { D 15  16  17  12   C } # D for Dihedral angle
| 20> { D 16  17  12  14   C } # D for Dihedral angle
| 21> { D 17  12  14  15   C } # D for Dihedral angle
| 22> { D 12  14  15  16   C } # D for Dihedral angle
| 23> end
| 24> end
| 25>
| 26>
| 27> #%pal
| 28> #nprocs 8
| 29> #end
| 30>
| 31> * xyz 0 1
| 32> C  -21.048   26.222   46.251
| 33> C  -20.361   27.558   45.944
| 34> C  -20.329   28.222   47.341
| 35> C  -20.110   27.022   48.296
| 36> O  -20.473   25.807   47.535
| 37> H  -20.833   25.428   45.533
| 38> H  -19.344   27.382   45.576
| 39> H  -20.898   28.157   45.201
| 40> H  -19.543   28.978   47.434
| 41> H  -21.289   28.710   47.548
| 42> H  -20.733   27.082   49.195
| 43> H  -19.064   26.913   48.597
| 44> C  -22.917   27.945   44.555
| 45> H  -22.992   29.018   44.319
| 46> C  -22.946   27.704   46.069
| 47> C  -24.456   27.826   46.378
| 48> C  -25.124   27.222   45.117
| 49> O  -24.095   27.228   44.053
| 50> H  -22.048   27.527   44.047
| 51> O  -22.472   26.381   46.366
| 52> H  -22.339   28.423   46.630
| 53> H  -24.746   27.302   47.294
| 54> H  -24.734   28.881   46.494
| 55> H  -25.990   27.803   44.780
| 56> H  -25.430   26.182   45.263
| 57> *
| 58>
| 59>                          ****END OF INPUT****
 Total Charge           Charge          ....    0
 Multiplicity           Mult            ....    1
 Number of Electrons    NEL             ....   86
FINAL SINGLE POINT ENERGY      -538.396937061399
FINAL SINGLE POINT ENERGY      -538.420575233049
FINAL SINGLE POINT ENERGY      -538.422824812062
FINAL SINGLE POINT ENERGY      -538.423191674236
FINAL SINGLE POINT ENERGY      -538.423221660221
FINAL SINGLE POINT ENERGY      -538.423233109802
                    ***********************HURRAY********************

CARTESIAN COORDINATES (ANGSTROEM)
---------------------------------
  C    -21.086496   26.299442   46.332923
  C    -20.124326   27.439711   45.976973
  C    -19.995491   28.195226   47.332822
  C    -20.066452   27.039136   48.360389
  O    -20.653757   25.886335   47.645010
  H    -20.987288   25.416332   45.700237
  H    -19.162592   26.997400   45.696659
  H    -20.453591   28.078790   45.156280
  H    -19.058670   28.755874   47.405691
  H    -20.819051   28.902173   47.471146
  H    -20.688737   27.275384   49.228339
  H    -19.076203   26.727499   48.705149
  C    -23.124137   28.181861   44.527092
  H    -23.380612   29.239963   44.360031
  C    -23.109636   27.877413   46.025541
  C    -24.612377   27.721082   46.326251
  C    -25.168952   27.063871   45.041128
  O    -24.155164   27.295127   43.985572
  H    -22.199938   27.948912   43.998012
  O    -22.510510   26.591401   46.351295
  H    -22.658986   28.688487   46.610402
  H    -24.761385   27.110660   47.218887
  H    -25.057786   28.708665   46.492363
  H    -26.121584   27.500475   44.723445
  H    -25.280281   25.981780   45.144363

 Multiplicity           Mult            ....    1
 Number of Electrons    NEL             ....   86
 Basis Dimension        Dim             ....  127

ORBITAL ENERGIES
----------------

  NO   OCC          E(Eh)            E(eV)
   0   2.0000     -19.138280      -520.7791
   1   2.0000     -19.137479      -520.7573
   2   2.0000     -19.128551      -520.5143
   3   2.0000     -10.279765      -279.7266
   4   2.0000     -10.243945      -278.7519
   5   2.0000     -10.228020      -278.3186
   6   2.0000     -10.225207      -278.2420
   7   2.0000     -10.218359      -278.0557
   8   2.0000     -10.196222      -277.4533
   9   2.0000     -10.196061      -277.4489
  10   2.0000     -10.184641      -277.1382
  11   2.0000      -1.050249       -28.5787
  12   2.0000      -1.014619       -27.6092
  13   2.0000      -0.988180       -26.8897
  14   2.0000      -0.791896       -21.5486
  15   2.0000      -0.785591       -21.3770
  16   2.0000      -0.738634       -20.0992
  17   2.0000      -0.728228       -19.8161
  18   2.0000      -0.621966       -16.9246
  19   2.0000      -0.607272       -16.5247
  20   2.0000      -0.596256       -16.2250
  21   2.0000      -0.565114       -15.3775
  22   2.0000      -0.523524       -14.2458
  23   2.0000      -0.503478       -13.7003
  24   2.0000      -0.490506       -13.3473
  25   2.0000      -0.485125       -13.2009
  26   2.0000      -0.453481       -12.3398
  27   2.0000      -0.447988       -12.1904
  28   2.0000      -0.431714       -11.7475
  29   2.0000      -0.416145       -11.3239
  30   2.0000      -0.413050       -11.2397
  31   2.0000      -0.388370       -10.5681
  32   2.0000      -0.370392       -10.0789
  33   2.0000      -0.369198       -10.0464
  34   2.0000      -0.366393        -9.9701
  35   2.0000      -0.360223        -9.8022
  36   2.0000      -0.349511        -9.5107
  37   2.0000      -0.313706        -8.5364
  38   2.0000      -0.305952        -8.3254
  39   2.0000      -0.289839        -7.8869
  40   2.0000      -0.265712        -7.2304
  41   2.0000      -0.250105        -6.8057
  42   2.0000      -0.234768        -6.3884
  43   0.0000       0.068521         1.8645
  44   0.0000       0.090427         2.4606
  45   0.0000       0.094321         2.5666
  46   0.0000       0.104867         2.8536
  47   0.0000       0.110142         2.9971

MULLIKEN ATOMIC CHARGES
-----------------------
   0 C :    0.320516
   1 C :   -0.300738
   2 C :   -0.312291
   3 C :   -0.001614
   4 O :   -0.495580
   5 H :    0.163934
   6 H :    0.158468
   7 H :    0.142424
   8 H :    0.146416
   9 H :    0.151279
  10 H :    0.147251
  11 H :    0.145029
  12 C :   -0.001064
  13 H :    0.121516
  14 C :    0.067679
  15 C :   -0.284944
  16 C :    0.001064
  17 O :   -0.522221
  18 H :    0.154904
  19 O :   -0.527581
  20 H :    0.123944
  21 H :    0.170381
  22 H :    0.137969
  23 H :    0.132425
  24 H :    0.160833
Sum of atomic charges:   -0.0000000

LOEWDIN ATOMIC CHARGES
----------------------
   0 C :    0.183651
   1 C :   -0.232493
   2 C :   -0.221032
   3 C :   -0.030139
   4 O :   -0.311893
   5 H :    0.109850
   6 H :    0.124140
   7 H :    0.113861
   8 H :    0.116491
   9 H :    0.107994
  10 H :    0.104876
  11 H :    0.103909
  12 C :   -0.049712
  13 H :    0.090934
  14 C :    0.038113
  15 C :   -0.220347
  16 C :   -0.026792
  17 O :   -0.331041
  18 H :    0.111708
  19 O :   -0.325437
  20 H :    0.091757
  21 H :    0.132403
  22 H :    0.110197
  23 H :    0.097240
  24 H :    0.111765

  Mayer bond orders larger than 0.100000
B(  0-C ,  1-C ) :   0.9288 B(  0-C ,  4-O ) :   0.9141 B(  0-C ,  5-H ) :   0.9307
B(  0-C , 19-O ) :   0.8689 B(  1-C ,  2-C ) :   0.9500 B(  1-C ,  6-H ) :   0.9343
B(  1-C ,  7-H ) :   0.9258 B(  2-C ,  3-C ) :   0.9487 B(  2-C ,  8-H ) :   0.9453
B(  2-C ,  9-H ) :   0.9381 B(  3-C ,  4-O ) :   0.8471 B(  3-C , 10-H ) :   0.9344
B(  3-C , 11-H ) :   0.9392 B( 12-C , 13-H ) :   0.9097 B( 12-C , 14-C ) :   0.9085
B( 12-C , 17-O ) :   0.8723 B( 12-C , 18-H ) :   0.9283 B( 14-C , 15-C ) :   0.9545
B( 14-C , 19-O ) :   0.8381 B( 14-C , 20-H ) :   0.9058 B( 15-C , 16-C ) :   0.9486
B( 15-C , 21-H ) :   0.9352 B( 15-C , 22-H ) :   0.9421 B( 16-C , 17-O ) :   0.8518
B( 16-C , 23-H ) :   0.9338 B( 16-C , 24-H ) :   0.9351

FINAL SINGLE POINT ENERGY      -538.423233751024

DIPOLE MOMENT
-------------
                                X             Y             Z
Electronic contribution:     -1.01860      -4.35658      -1.02785
Nuclear contribution   :      1.56981       5.76916       1.44042
                        -----------------------------------------
Total Dipole Moment    :      0.55121       1.41258       0.41257
                        -----------------------------------------
Magnitude (a.u.)       :      1.57144
Magnitude (Debye)      :      3.99428

Rotational constants in cm-1:     0.083938     0.021049     0.020068
Rotational constants in MHz :  2516.399425   631.044613   601.615258

                             ****ORCA TERMINATED NORMALLY****
TOTAL RUN TIME: 0 days 0 hours 7 minutes 18 seconds 532 msec
