                         Program Version 4.2.0 -  RELEASE  -
|  1> # Test redundant internal optimization
|  2> #
|  3> ! RKS B3LYP  Opt TightSCF SmallPrint
|  4>
|  5> %basis
|  6>         Basis "6-31G"
|  7> end
|  8>
|  9> %geom
| 10> Constraints
| 11> { D 4  0  15  12  0.0   C } # D for Dihedral angle
| 12> { D 0  15  12  16  315.0   C } # D for Dihedral angle
| 13> { D 0  4  3  2   C } # D for Dihedral angle
| 14> { D 4  3  2  1   C } # D for Dihedral angle
| 15> { D 3  2  1  0   C } # D for Dihedral angle
| 16> { D 2  1  0  4   C } # D for Dihedral angle
| 17> { D 1  0  4  3   C } # D for Dihedral angle
| 18> { D 16  20  19  18   C } # D for Dihedral angle
| 19> { D 20  19  18  17   C } # D for Dihedral angle
| 20> { D 19  18  17  16   C } # D for Dihedral angle
| 21> { D 18  17  16  20   C } # D for Dihedral angle
| 22> { D 17  16  20  19   C } # D for Dihedral angle
| 23> { D 15  12  16  20   C } # D for Dihedral angle
| 24> end
| 25> end
| 26>
| 27>
| 28> #%pal
| 29> #nprocs 8
| 30> #end
| 31>
| 32> * xyz 0 1
| 33> C  -21.048   26.222   46.251
| 34> C  -20.361   27.558   45.944
| 35> C  -20.329   28.222   47.341
| 36> C  -20.110   27.022   48.296
| 37> O  -20.473   25.807   47.535
| 38> H  -20.833   25.428   45.533
| 39> H  -19.344   27.382   45.576
| 40> H  -20.898   28.157   45.201
| 41> H  -19.543   28.978   47.434
| 42> H  -21.289   28.710   47.548
| 43> H  -20.733   27.082   49.195
| 44> H  -19.064   26.913   48.597
| 45> C  -23.172   26.101   47.783
| 46> H  -22.943   26.939   48.453
| 47> H  -24.263   25.993   47.730
| 48> O  -22.586   26.394   46.375
| 49> C  -22.598   24.802   48.414
| 50> C  -23.281   24.482   49.748
| 51> C  -24.612   23.849   49.275
| 52> C  -24.200   23.081   47.995
| 53> O  -22.901   23.643   47.566
| 54> H  -21.511   24.881   48.470
| 55> H  -22.686   23.755   50.312
| 56> O  -23.495   25.735   50.640
| 57> H  -25.061   23.193   50.028
| 58> H  -25.339   24.634   49.038
| 59> H  -24.927   23.199   47.183
| 60> H  -24.045   22.014   48.179
| 61> H  -24.090   26.478   50.097
| 62> *
| 63>
| 64>                          ****END OF INPUT****
 Total Charge           Charge          ....    0
 Multiplicity           Mult            ....    1
 Number of Electrons    NEL             ....  102
FINAL SINGLE POINT ENERGY      -652.809109183797
FINAL SINGLE POINT ENERGY      -652.832056416494
FINAL SINGLE POINT ENERGY      -652.847069932044
FINAL SINGLE POINT ENERGY      -652.849478903801
FINAL SINGLE POINT ENERGY      -652.849955038362
FINAL SINGLE POINT ENERGY      -652.850035657323
FINAL SINGLE POINT ENERGY      -652.850049293931
FINAL SINGLE POINT ENERGY      -652.850051048599
                    ***********************HURRAY********************

CARTESIAN COORDINATES (ANGSTROEM)
---------------------------------
  C    -20.999806   26.270368   46.291478
  C    -20.465014   27.658157   45.930467
  C    -20.224495   28.278978   47.328571
  C    -19.764071   27.070965   48.174369
  O    -20.191960   25.859881   47.417065
  H    -20.856552   25.506175   45.525429
  H    -19.522916   27.551870   45.379677
  H    -21.174949   28.221549   45.321870
  H    -19.478175   29.079258   47.312059
  H    -21.158959   28.696122   47.717980
  H    -20.215297   27.040151   49.170442
  H    -18.676353   27.007240   48.270352
  C    -23.098148   26.045121   47.778490
  H    -22.980725   26.893904   48.471773
  H    -24.152493   25.982342   47.489399
  O    -22.436824   26.347268   46.520381
  C    -22.660429   24.775275   48.522602
  C    -23.484225   24.518440   49.797059
  C    -24.767059   23.842260   49.219828
  C    -24.208938   23.015970   48.038566
  O    -22.871004   23.570961   47.719997
  H    -21.591296   24.814236   48.716460
  H    -22.942405   23.819846   50.438866
  O    -23.723956   25.676295   50.636105
  H    -25.282094   23.227981   49.963632
  H    -25.467221   24.616273   48.877752
  H    -24.841074   23.069563   47.146126
  H    -24.065149   21.964051   48.304302
  H    -24.433413   26.233499   50.255901

 Multiplicity           Mult            ....    1
 Number of Electrons    NEL             ....  102
 Basis Dimension        Dim             ....  149

ORBITAL ENERGIES
----------------

  NO   OCC          E(Eh)            E(eV)
   0   2.0000     -19.148221      -521.0496
   1   2.0000     -19.147474      -521.0293
   2   2.0000     -19.130567      -520.5692
   3   2.0000     -19.130404      -520.5648
   4   2.0000     -10.275144      -279.6009
   5   2.0000     -10.241463      -278.6844
   6   2.0000     -10.229764      -278.3660
   7   2.0000     -10.228859      -278.3414
   8   2.0000     -10.225931      -278.2617
   9   2.0000     -10.218291      -278.0538
  10   2.0000     -10.193044      -277.3668
  11   2.0000     -10.188894      -277.2539
  12   2.0000     -10.182211      -277.0720
  13   2.0000      -1.048871       -28.5412
  14   2.0000      -1.029796       -28.0222
  15   2.0000      -1.009963       -27.4825
  16   2.0000      -0.986745       -26.8507
  17   2.0000      -0.788324       -21.4514
  18   2.0000      -0.778328       -21.1794
  19   2.0000      -0.762831       -20.7577
  20   2.0000      -0.731669       -19.9097
  21   2.0000      -0.676716       -18.4144
  22   2.0000      -0.607973       -16.5438
  23   2.0000      -0.601188       -16.3592
  24   2.0000      -0.598354       -16.2820
  25   2.0000      -0.561874       -15.2894
  26   2.0000      -0.518820       -14.1178
  27   2.0000      -0.510476       -13.8908
  28   2.0000      -0.499505       -13.5922
  29   2.0000      -0.488004       -13.2793
  30   2.0000      -0.464179       -12.6310
  31   2.0000      -0.455035       -12.3821
  32   2.0000      -0.439663       -11.9638
  33   2.0000      -0.427597       -11.6355
  34   2.0000      -0.424983       -11.5644
  35   2.0000      -0.412849       -11.2342
  36   2.0000      -0.407222       -11.0811
  37   2.0000      -0.397050       -10.8043
  38   2.0000      -0.377704       -10.2779
  39   2.0000      -0.369937       -10.0665
  40   2.0000      -0.357956        -9.7405
  41   2.0000      -0.356499        -9.7008
  42   2.0000      -0.345815        -9.4101
  43   2.0000      -0.330058        -8.9813
  44   2.0000      -0.319779        -8.7016
  45   2.0000      -0.311853        -8.4859
  46   2.0000      -0.302357        -8.2275
  47   2.0000      -0.269421        -7.3313
  48   2.0000      -0.258322        -7.0293
  49   2.0000      -0.247253        -6.7281
  50   2.0000      -0.227404        -6.1880
  51   0.0000       0.052485         1.4282
  52   0.0000       0.074599         2.0299
  53   0.0000       0.086367         2.3502
  54   0.0000       0.093516         2.5447
  55   0.0000       0.105665         2.8753

MULLIKEN ATOMIC CHARGES
-----------------------
   0 C :    0.313648
   1 C :   -0.259183
   2 C :   -0.309790
   3 C :   -0.022915
   4 O :   -0.511595
   5 H :    0.166053
   6 H :    0.144101
   7 H :    0.159679
   8 H :    0.147067
   9 H :    0.154473
  10 H :    0.149816
  11 H :    0.153284
  12 C :   -0.000779
  13 H :    0.118292
  14 H :    0.142967
  15 O :   -0.545578
  16 C :    0.062930
  17 C :    0.080160
  18 C :   -0.325458
  19 C :   -0.013059
  20 O :   -0.509856
  21 H :    0.202390
  22 H :    0.167634
  23 O :   -0.602756
  24 H :    0.155771
  25 H :    0.131572
  26 H :    0.145531
  27 H :    0.149907
  28 H :    0.355693
Sum of atomic charges:    0.0000000

LOEWDIN ATOMIC CHARGES
----------------------
   0 C :    0.188223
   1 C :   -0.220203
   2 C :   -0.219384
   3 C :   -0.035365
   4 O :   -0.315068
   5 H :    0.110609
   6 H :    0.113220
   7 H :    0.125237
   8 H :    0.117014
   9 H :    0.113776
  10 H :    0.104681
  11 H :    0.107855
  12 C :   -0.041681
  13 H :    0.087802
  14 H :    0.107378
  15 O :   -0.337891
  16 C :   -0.001245
  17 C :    0.034721
  18 C :   -0.242878
  19 C :   -0.031889
  20 O :   -0.317798
  21 H :    0.134268
  22 H :    0.118765
  23 O :   -0.410411
  24 H :    0.121308
  25 H :    0.102689
  26 H :    0.103160
  27 H :    0.105781
  28 H :    0.277329

  Mayer bond orders larger than 0.100000
B(  0-C ,  1-C ) :   0.9294 B(  0-C ,  4-O ) :   0.8964 B(  0-C ,  5-H ) :   0.9290
B(  0-C , 15-O ) :   0.8451 B(  1-C ,  2-C ) :   0.9538 B(  1-C ,  6-H ) :   0.9355
B(  1-C ,  7-H ) :   0.9368 B(  2-C ,  3-C ) :   0.9538 B(  2-C ,  8-H ) :   0.9447
B(  2-C ,  9-H ) :   0.9454 B(  3-C ,  4-O ) :   0.8294 B(  3-C , 10-H ) :   0.9311
B(  3-C , 11-H ) :   0.9395 B( 12-C , 13-H ) :   0.9021 B( 12-C , 14-H ) :   0.9386
B( 12-C , 15-O ) :   0.8521 B( 12-C , 16-C ) :   0.8906 B( 16-C , 17-C ) :   0.8646
B( 16-C , 20-O ) :   0.8550 B( 16-C , 21-H ) :   0.9024 B( 17-C , 18-C ) :   0.9236
B( 17-C , 22-H ) :   0.9336 B( 17-C , 23-O ) :   0.8927 B( 18-C , 19-C ) :   0.9395
B( 18-C , 24-H ) :   0.9423 B( 18-C , 25-H ) :   0.9403 B( 19-C , 20-O ) :   0.8541
B( 19-C , 26-H ) :   0.9307 B( 19-C , 27-H ) :   0.9370 B( 23-O , 28-H ) :   0.7988

FINAL SINGLE POINT ENERGY      -652.850050999738

DIPOLE MOMENT
-------------
                                X             Y             Z
Electronic contribution:      0.48513      -2.96053      -0.62511
Nuclear contribution   :     -0.99184       3.69925       0.82209
                        -----------------------------------------
Total Dipole Moment    :     -0.50671       0.73871       0.19697
                        -----------------------------------------
Magnitude (a.u.)       :      0.91720
Magnitude (Debye)      :      2.33133

Rotational constants in cm-1:     0.051453     0.015410     0.013875
Rotational constants in MHz :  1542.533947   461.990456   415.960055

                             ****ORCA TERMINATED NORMALLY****
TOTAL RUN TIME: 0 days 1 hours 44 minutes 42 seconds 171 msec
