                         Program Version 4.2.0 -  RELEASE  -
|  1> # Test redundant internal optimization
|  2> #
|  3> ! RKS B3LYP  Opt TightSCF SmallPrint
|  4>
|  5> %basis
|  6>         Basis "6-31G"
|  7> end
|  8>
|  9> %geom
| 10> Constraints
| 11> { D 4  0  15  12  270.0   C } # D for Dihedral angle
| 12> { D 0  15  12  16  120.0   C } # D for Dihedral angle
| 13> { D 0  4  3  2   C } # D for Dihedral angle
| 14> { D 4  3  2  1   C } # D for Dihedral angle
| 15> { D 3  2  1  0   C } # D for Dihedral angle
| 16> { D 2  1  0  4   C } # D for Dihedral angle
| 17> { D 1  0  4  3   C } # D for Dihedral angle
| 18> { D 16  20  19  18   C } # D for Dihedral angle
| 19> { D 20  19  18  17   C } # D for Dihedral angle
| 20> { D 19  18  17  16   C } # D for Dihedral angle
| 21> { D 18  17  16  20   C } # D for Dihedral angle
| 22> { D 17  16  20  19   C } # D for Dihedral angle
| 23> { D 15  12  16  20   C } # D for Dihedral angle
| 24> end
| 25> end
| 26>
| 27>
| 28> #%pal
| 29> #nprocs 8
| 30> #end
| 31>
| 32> * xyz 0 1
| 33> C  -21.048   26.222   46.251
| 34> C  -20.361   27.558   45.944
| 35> C  -20.329   28.222   47.341
| 36> C  -20.110   27.022   48.296
| 37> O  -20.473   25.807   47.535
| 38> H  -20.833   25.428   45.533
| 39> H  -19.344   27.382   45.576
| 40> H  -20.898   28.157   45.201
| 41> H  -19.543   28.978   47.434
| 42> H  -21.289   28.710   47.548
| 43> H  -20.733   27.082   49.195
| 44> H  -19.064   26.913   48.597
| 45> C  -23.420   25.119   46.072
| 46> H  -24.087   25.316   45.224
| 47> H  -22.760   24.284   45.803
| 48> O  -22.586   26.394   46.375
| 49> C  -24.285   24.666   47.281
| 50> C  -25.356   25.710   47.620
| 51> C  -26.429   25.418   46.544
| 52> C  -26.351   23.880   46.377
| 53> O  -25.050   23.462   46.941
| 54> H  -23.629   24.405   48.113
| 55> O  -25.920   25.449   49.043
| 56> H  -24.983   26.739   47.581
| 57> H  -27.428   25.756   46.840
| 58> H  -26.169   25.924   45.607
| 59> H  -26.404   23.569   45.328
| 60> H  -27.129   23.359   46.940
| 61> H  -26.302   24.423   49.107
| 62> *
| 63>
| 64>                          ****END OF INPUT****
 Total Charge           Charge          ....    0
 Multiplicity           Mult            ....    1
 Number of Electrons    NEL             ....  102
FINAL SINGLE POINT ENERGY      -652.840236450914
FINAL SINGLE POINT ENERGY      -652.863388199365
FINAL SINGLE POINT ENERGY      -652.867089796885
FINAL SINGLE POINT ENERGY      -652.867740567915
FINAL SINGLE POINT ENERGY      -652.867828047575
FINAL SINGLE POINT ENERGY      -652.867840152443
FINAL SINGLE POINT ENERGY      -652.867843085132
                    ***********************HURRAY********************

CARTESIAN COORDINATES (ANGSTROEM)
---------------------------------
  C    -21.089814   26.118337   46.232488
  C    -20.510516   27.511238   45.982899
  C    -20.590539   28.145549   47.391531
  C    -20.307694   26.949721   48.328468
  O    -20.540413   25.730553   47.512437
  H    -20.798365   25.341776   45.519162
  H    -19.469122   27.415449   45.654808
  H    -21.073897   28.061428   45.226854
  H    -19.873024   28.960057   47.528530
  H    -21.597492   28.538102   47.560680
  H    -20.967562   26.921681   49.199070
  H    -19.266604   26.907984   48.662202
  C    -23.318568   25.055374   45.979970
  H    -23.938324   25.276575   45.102629
  H    -22.674117   24.200435   45.744818
  O    -22.527177   26.242555   46.282687
  C    -24.179677   24.711920   47.195796
  C    -25.208347   25.784367   47.583580
  C    -26.349065   25.502098   46.573615
  C    -26.315143   23.961297   46.420326
  O    -24.987154   23.519090   46.915526
  H    -23.524373   24.472696   48.037853
  O    -25.649213   25.608146   48.958762
  H    -24.809499   26.795691   47.526063
  H    -27.303425   25.871315   46.957168
  H    -26.146549   26.003258   45.620814
  H    -26.435240   23.633584   45.383272
  H    -27.070297   23.460358   47.033772
  H    -25.791789   24.653367   49.131221

 Multiplicity           Mult            ....    1
 Number of Electrons    NEL             ....  102
 Basis Dimension        Dim             ....  149

ORBITAL ENERGIES
----------------

  NO   OCC          E(Eh)            E(eV)
   0   2.0000     -19.147022      -521.0170
   1   2.0000     -19.142572      -520.8959
   2   2.0000     -19.138331      -520.7805
   3   2.0000     -19.133224      -520.6415
   4   2.0000     -10.280912      -279.7578
   5   2.0000     -10.233478      -278.4671
   6   2.0000     -10.231637      -278.4170
   7   2.0000     -10.229816      -278.3674
   8   2.0000     -10.228694      -278.3369
   9   2.0000     -10.223425      -278.1935
  10   2.0000     -10.185626      -277.1650
  11   2.0000     -10.185319      -277.1566
  12   2.0000     -10.184457      -277.1332
  13   2.0000      -1.054268       -28.6881
  14   2.0000      -1.033305       -28.1176
  15   2.0000      -1.002037       -27.2668
  16   2.0000      -0.995435       -27.0872
  17   2.0000      -0.789359       -21.4796
  18   2.0000      -0.776612       -21.1327
  19   2.0000      -0.765183       -20.8217
  20   2.0000      -0.728768       -19.8308
  21   2.0000      -0.673568       -18.3287
  22   2.0000      -0.601958       -16.3801
  23   2.0000      -0.597615       -16.2619
  24   2.0000      -0.592672       -16.1274
  25   2.0000      -0.581574       -15.8254
  26   2.0000      -0.520432       -14.1617
  27   2.0000      -0.517802       -14.0901
  28   2.0000      -0.495368       -13.4796
  29   2.0000      -0.486384       -13.2352
  30   2.0000      -0.467816       -12.7299
  31   2.0000      -0.457024       -12.4363
  32   2.0000      -0.448799       -12.2124
  33   2.0000      -0.438864       -11.9421
  34   2.0000      -0.424069       -11.5395
  35   2.0000      -0.412255       -11.2180
  36   2.0000      -0.399528       -10.8717
  37   2.0000      -0.390580       -10.6282
  38   2.0000      -0.372805       -10.1446
  39   2.0000      -0.364753        -9.9254
  40   2.0000      -0.357239        -9.7210
  41   2.0000      -0.354065        -9.6346
  42   2.0000      -0.347619        -9.4592
  43   2.0000      -0.328592        -8.9414
  44   2.0000      -0.325155        -8.8479
  45   2.0000      -0.307144        -8.3578
  46   2.0000      -0.300066        -8.1652
  47   2.0000      -0.280598        -7.6355
  48   2.0000      -0.263983        -7.1833
  49   2.0000      -0.251933        -6.8554
  50   2.0000      -0.240569        -6.5462
  51   0.0000       0.065290         1.7766
  52   0.0000       0.078619         2.1393
  53   0.0000       0.096672         2.6306
  54   0.0000       0.101846         2.7714
  55   0.0000       0.105932         2.8825

MULLIKEN ATOMIC CHARGES
-----------------------
   0 C :    0.282352
   1 C :   -0.256651
   2 C :   -0.299169
   3 C :   -0.004234
   4 O :   -0.508061
   5 H :    0.143471
   6 H :    0.145174
   7 H :    0.152163
   8 H :    0.141115
   9 H :    0.163088
  10 H :    0.153496
  11 H :    0.141966
  12 C :   -0.015525
  13 H :    0.136727
  14 H :    0.152089
  15 O :   -0.524715
  16 C :    0.060580
  17 C :    0.096239
  18 C :   -0.301876
  19 C :   -0.027694
  20 O :   -0.528115
  21 H :    0.173730
  22 O :   -0.606620
  23 H :    0.171063
  24 H :    0.160139
  25 H :    0.146265
  26 H :    0.143079
  27 H :    0.146823
  28 H :    0.363100
Sum of atomic charges:   -0.0000000

LOEWDIN ATOMIC CHARGES
----------------------
   0 C :    0.173315
   1 C :   -0.216539
   2 C :   -0.215723
   3 C :   -0.027829
   4 O :   -0.327898
   5 H :    0.098355
   6 H :    0.113987
   7 H :    0.121764
   8 H :    0.113586
   9 H :    0.119251
  10 H :    0.108476
  11 H :    0.102524
  12 C :   -0.037648
  13 H :    0.099492
  14 H :    0.110745
  15 O :   -0.331615
  16 C :    0.011304
  17 C :    0.038751
  18 C :   -0.242081
  19 C :   -0.038097
  20 O :   -0.332489
  21 H :    0.122314
  22 O :   -0.416401
  23 H :    0.125175
  24 H :    0.126037
  25 H :    0.113913
  26 H :    0.102671
  27 H :    0.102791
  28 H :    0.281869

  Mayer bond orders larger than 0.100000
B(  0-C ,  1-C ) :   0.9484 B(  0-C ,  4-O ) :   0.9187 B(  0-C ,  5-H ) :   0.9196
B(  0-C , 15-O ) :   0.8544 B(  1-C ,  2-C ) :   0.9577 B(  1-C ,  6-H ) :   0.9394
B(  1-C ,  7-H ) :   0.9372 B(  2-C ,  3-C ) :   0.9544 B(  2-C ,  8-H ) :   0.9454
B(  2-C ,  9-H ) :   0.9440 B(  3-C ,  4-O ) :   0.8359 B(  3-C , 10-H ) :   0.9346
B(  3-C , 11-H ) :   0.9403 B( 12-C , 13-H ) :   0.9332 B( 12-C , 14-H ) :   0.9189
B( 12-C , 15-O ) :   0.8261 B( 12-C , 16-C ) :   0.8957 B( 16-C , 17-C ) :   0.9142
B( 16-C , 20-O ) :   0.8387 B( 16-C , 21-H ) :   0.9226 B( 17-C , 18-C ) :   0.9118
B( 17-C , 22-O ) :   0.8888 B( 17-C , 23-H ) :   0.9254 B( 18-C , 19-C ) :   0.9410
B( 18-C , 24-H ) :   0.9385 B( 18-C , 25-H ) :   0.9344 B( 19-C , 20-O ) :   0.8452
B( 19-C , 26-H ) :   0.9364 B( 19-C , 27-H ) :   0.9378 B( 22-O , 28-H ) :   0.7958

FINAL SINGLE POINT ENERGY      -652.867843347901

DIPOLE MOMENT
-------------
                                X             Y             Z
Electronic contribution:     -0.59216      -3.84354       1.76399
Nuclear contribution   :      0.64432       4.36209      -2.66290
                        -----------------------------------------
Total Dipole Moment    :      0.05215       0.51856      -0.89890
                        -----------------------------------------
Magnitude (a.u.)       :      1.03906
Magnitude (Debye)      :      2.64109

Rotational constants in cm-1:     0.055280     0.012962     0.012274
Rotational constants in MHz :  1657.239223   388.593618   367.968118

                             ****ORCA TERMINATED NORMALLY****
TOTAL RUN TIME: 0 days 0 hours 52 minutes 16 seconds 659 msec
