                         Program Version 4.2.0 -  RELEASE  -
|  1> # Test redundant internal optimization
|  2> #
|  3> ! RKS B3LYP  Opt TightSCF SmallPrint
|  4>
|  5> %basis
|  6>         Basis "6-31G"
|  7> end
|  8>
|  9> %geom
| 10> Constraints
| 11> { D 4  0  15  12  150.0   C } # D for Dihedral angle
| 12> { D 0  15  12  16  255.0   C } # D for Dihedral angle
| 13> { D 0  4  3  2   C } # D for Dihedral angle
| 14> { D 4  3  2  1   C } # D for Dihedral angle
| 15> { D 3  2  1  0   C } # D for Dihedral angle
| 16> { D 2  1  0  4   C } # D for Dihedral angle
| 17> { D 1  0  4  3   C } # D for Dihedral angle
| 18> { D 16  20  19  18   C } # D for Dihedral angle
| 19> { D 20  19  18  17   C } # D for Dihedral angle
| 20> { D 19  18  17  16   C } # D for Dihedral angle
| 21> { D 18  17  16  20   C } # D for Dihedral angle
| 22> { D 17  16  20  19   C } # D for Dihedral angle
| 23> { D 15  12  16  20   C } # D for Dihedral angle
| 24> end
| 25> end
| 26>
| 27>
| 28> #%pal
| 29> #nprocs 8
| 30> #end
| 31>
| 32> * xyz 0 1
| 33> C  -21.048   26.222   46.251
| 34> C  -20.361   27.558   45.944
| 35> C  -20.329   28.222   47.341
| 36> C  -20.110   27.022   48.296
| 37> O  -20.473   25.807   47.535
| 38> H  -20.833   25.428   45.533
| 39> H  -19.344   27.382   45.576
| 40> H  -20.898   28.157   45.201
| 41> H  -19.543   28.978   47.434
| 42> H  -21.289   28.710   47.548
| 43> H  -20.733   27.082   49.195
| 44> H  -19.064   26.913   48.597
| 45> C  -23.210   27.459   45.431
| 46> H  -22.488   27.712   44.645
| 47> H  -24.115   27.064   44.952
| 48> O  -22.586   26.394   46.375
| 49> C  -23.600   28.766   46.176
| 50> C  -24.316   29.746   45.240
| 51> C  -25.746   29.157   45.203
| 52> C  -25.937   28.608   46.640
| 53> O  -24.585   28.483   47.225
| 54> H  -22.716   29.175   46.668
| 55> O  -24.325   31.169   45.864
| 56> H  -23.856   29.807   44.248
| 57> H  -26.505   29.900   44.936
| 58> H  -25.800   28.344   44.469
| 59> H  -26.426   27.627   46.652
| 60> H  -26.503   29.294   47.277
| 61> H  -24.782   31.131   46.859
| 62> *
| 63>
| 64>                          ****END OF INPUT****
 Total Charge           Charge          ....    0
 Multiplicity           Mult            ....    1
 Number of Electrons    NEL             ....  102
FINAL SINGLE POINT ENERGY      -652.818814519516
FINAL SINGLE POINT ENERGY      -652.842097595995
FINAL SINGLE POINT ENERGY      -652.846520540536
FINAL SINGLE POINT ENERGY      -652.848811282010
FINAL SINGLE POINT ENERGY      -652.849040987435
FINAL SINGLE POINT ENERGY      -652.849084988113
                    ***********************HURRAY********************

CARTESIAN COORDINATES (ANGSTROEM)
---------------------------------
  C    -21.077646   26.312500   46.218395
  C    -20.208730   27.544602   45.953900
  C    -20.202838   28.246215   47.342033
  C    -20.212597   27.047289   48.316726
  O    -20.667494   25.882064   47.521489
  H    -20.879546   25.475108   45.542978
  H    -19.201879   27.200846   45.693511
  H    -20.558784   28.191875   45.145157
  H    -19.324438   28.884652   47.477283
  H    -21.093454   28.863317   47.474992
  H    -20.895865   27.184672   49.158379
  H    -19.215992   26.799585   48.693334
  C    -23.189802   27.495107   45.396551
  H    -22.558525   27.794865   44.547089
  H    -24.063073   26.973316   44.988999
  O    -22.526020   26.517481   46.238683
  C    -23.646943   28.749143   46.147864
  C    -24.402038   29.743937   45.253870
  C    -25.833478   29.142329   45.247909
  C    -25.971296   28.563083   46.679108
  O    -24.596285   28.438083   47.217461
  H    -22.795210   29.237282   46.624929
  O    -24.377765   31.079256   45.830453
  H    -23.977303   29.858455   44.255481
  H    -26.575529   29.912503   45.023143
  H    -25.912496   28.355810   44.489272
  H    -26.449796   27.579347   46.693371
  H    -26.522972   29.228150   47.351320
  H    -24.583205   31.016128   46.787319

 Multiplicity           Mult            ....    1
 Number of Electrons    NEL             ....  102
 Basis Dimension        Dim             ....  149

ORBITAL ENERGIES
----------------

  NO   OCC          E(Eh)            E(eV)
   0   2.0000     -19.143359      -520.9173
   1   2.0000     -19.142327      -520.8892
   2   2.0000     -19.137514      -520.7582
   3   2.0000     -19.135149      -520.6939
   4   2.0000     -10.279177      -279.7106
   5   2.0000     -10.247082      -278.8373
   6   2.0000     -10.236308      -278.5441
   7   2.0000     -10.236150      -278.5398
   8   2.0000     -10.232253      -278.4337
   9   2.0000     -10.223649      -278.1996
  10   2.0000     -10.193511      -277.3795
  11   2.0000     -10.193280      -277.3732
  12   2.0000     -10.190405      -277.2950
  13   2.0000      -1.049159       -28.5491
  14   2.0000      -1.039092       -28.2751
  15   2.0000      -1.009520       -27.4704
  16   2.0000      -0.989815       -26.9342
  17   2.0000      -0.788379       -21.4529
  18   2.0000      -0.788067       -21.4444
  19   2.0000      -0.770355       -20.9624
  20   2.0000      -0.734530       -19.9876
  21   2.0000      -0.679688       -18.4953
  22   2.0000      -0.608518       -16.5586
  23   2.0000      -0.607423       -16.5288
  24   2.0000      -0.596411       -16.2292
  25   2.0000      -0.576865       -15.6973
  26   2.0000      -0.524051       -14.2602
  27   2.0000      -0.513453       -13.9718
  28   2.0000      -0.501340       -13.6422
  29   2.0000      -0.496475       -13.5098
  30   2.0000      -0.472974       -12.8703
  31   2.0000      -0.459537       -12.5046
  32   2.0000      -0.455261       -12.3883
  33   2.0000      -0.440601       -11.9894
  34   2.0000      -0.432302       -11.7635
  35   2.0000      -0.411795       -11.2055
  36   2.0000      -0.406170       -11.0524
  37   2.0000      -0.396981       -10.8024
  38   2.0000      -0.380132       -10.3439
  39   2.0000      -0.375886       -10.2284
  40   2.0000      -0.365557        -9.9473
  41   2.0000      -0.356355        -9.6969
  42   2.0000      -0.352429        -9.5901
  43   2.0000      -0.335517        -9.1299
  44   2.0000      -0.313225        -8.5233
  45   2.0000      -0.308355        -8.3908
  46   2.0000      -0.292132        -7.9493
  47   2.0000      -0.274384        -7.4664
  48   2.0000      -0.267679        -7.2839
  49   2.0000      -0.254142        -6.9156
  50   2.0000      -0.235779        -6.4159
  51   0.0000       0.061833         1.6826
  52   0.0000       0.076596         2.0843
  53   0.0000       0.085669         2.3312
  54   0.0000       0.087296         2.3755
  55   0.0000       0.095977         2.6117

MULLIKEN ATOMIC CHARGES
-----------------------
   0 C :    0.319271
   1 C :   -0.300184
   2 C :   -0.311408
   3 C :   -0.000858
   4 O :   -0.494917
   5 H :    0.148321
   6 H :    0.155587
   7 H :    0.140046
   8 H :    0.145158
   9 H :    0.164372
  10 H :    0.159468
  11 H :    0.142087
  12 C :   -0.007929
  13 H :    0.119403
  14 H :    0.149466
  15 O :   -0.510685
  16 C :    0.055249
  17 C :    0.074340
  18 C :   -0.298455
  19 C :   -0.033252
  20 O :   -0.505246
  21 H :    0.164461
  22 O :   -0.599261
  23 H :    0.148505
  24 H :    0.163024
  25 H :    0.146510
  26 H :    0.154870
  27 H :    0.147489
  28 H :    0.364567
Sum of atomic charges:   -0.0000000

LOEWDIN ATOMIC CHARGES
----------------------
   0 C :    0.185712
   1 C :   -0.234816
   2 C :   -0.219501
   3 C :   -0.026195
   4 O :   -0.302319
   5 H :    0.099237
   6 H :    0.121966
   7 H :    0.111336
   8 H :    0.115885
   9 H :    0.113099
  10 H :    0.111890
  11 H :    0.102651
  12 C :   -0.040688
  13 H :    0.092809
  14 H :    0.109672
  15 O :   -0.327034
  16 C :    0.006346
  17 C :    0.033787
  18 C :   -0.241913
  19 C :   -0.039245
  20 O :   -0.319509
  21 H :    0.111323
  22 O :   -0.413657
  23 H :    0.113666
  24 H :    0.126936
  25 H :    0.113867
  26 H :    0.108513
  27 H :    0.102876
  28 H :    0.283304

  Mayer bond orders larger than 0.100000
B(  0-C ,  1-C ) :   0.9276 B(  0-C ,  4-O ) :   0.9351 B(  0-C ,  5-H ) :   0.9267
B(  0-C , 15-O ) :   0.8489 B(  1-C ,  2-C ) :   0.9519 B(  1-C ,  6-H ) :   0.9328
B(  1-C ,  7-H ) :   0.9290 B(  2-C ,  3-C ) :   0.9524 B(  2-C ,  8-H ) :   0.9448
B(  2-C ,  9-H ) :   0.9277 B(  3-C ,  4-O ) :   0.8373 B(  3-C , 10-H ) :   0.9330
B(  3-C , 11-H ) :   0.9399 B( 12-C , 13-H ) :   0.9094 B( 12-C , 14-H ) :   0.9317
B( 12-C , 15-O ) :   0.8642 B( 12-C , 16-C ) :   0.8779 B( 16-C , 17-C ) :   0.8904
B( 16-C , 20-O ) :   0.8748 B( 16-C , 21-H ) :   0.9076 B( 17-C , 18-C ) :   0.9141
B( 17-C , 22-O ) :   0.8951 B( 17-C , 23-H ) :   0.9333 B( 18-C , 19-C ) :   0.9395
B( 18-C , 24-H ) :   0.9371 B( 18-C , 25-H ) :   0.9335 B( 19-C , 20-O ) :   0.8489
B( 19-C , 26-H ) :   0.9329 B( 19-C , 27-H ) :   0.9370 B( 22-O , 28-H ) :   0.7941

FINAL SINGLE POINT ENERGY      -652.849088044014

DIPOLE MOMENT
-------------
                                X             Y             Z
Electronic contribution:     -0.87598      -2.49311       1.81103
Nuclear contribution   :      0.95247       3.19997      -2.62977
                        -----------------------------------------
Total Dipole Moment    :      0.07649       0.70686      -0.81873
                        -----------------------------------------
Magnitude (a.u.)       :      1.08436
Magnitude (Debye)      :      2.75622

Rotational constants in cm-1:     0.052956     0.013881     0.013148
Rotational constants in MHz :  1587.577312   416.147235   394.173765

                             ****ORCA TERMINATED NORMALLY****
TOTAL RUN TIME: 0 days 0 hours 53 minutes 53 seconds 874 msec
