                         Program Version 4.2.0 -  RELEASE  -
|  1> # Test redundant internal optimization
|  2> #
|  3> ! RKS B3LYP  Opt TightSCF SmallPrint
|  4>
|  5> %basis
|  6>         Basis "6-31G"
|  7> end
|  8>
|  9> %geom
| 10> Constraints
| 11> { D 4  0  15  12  345.0   C } # D for Dihedral angle
| 12> { D 0  15  12  16  240.0   C } # D for Dihedral angle
| 13> { D 0  4  3  2   C } # D for Dihedral angle
| 14> { D 4  3  2  1   C } # D for Dihedral angle
| 15> { D 3  2  1  0   C } # D for Dihedral angle
| 16> { D 2  1  0  4   C } # D for Dihedral angle
| 17> { D 1  0  4  3   C } # D for Dihedral angle
| 18> { D 16  20  19  18   C } # D for Dihedral angle
| 19> { D 20  19  18  17   C } # D for Dihedral angle
| 20> { D 19  18  17  16   C } # D for Dihedral angle
| 21> { D 18  17  16  20   C } # D for Dihedral angle
| 22> { D 17  16  20  19   C } # D for Dihedral angle
| 23> { D 15  12  16  20   C } # D for Dihedral angle
| 24> end
| 25> end
| 26>
| 27>
| 28> #%pal
| 29> #nprocs 8
| 30> #end
| 31>
| 32> * xyz 0 1
| 33> C  -21.048   26.222   46.251
| 34> C  -20.361   27.558   45.944
| 35> C  -20.329   28.222   47.341
| 36> C  -20.110   27.022   48.296
| 37> O  -20.473   25.807   47.535
| 38> H  -20.833   25.428   45.533
| 39> H  -19.344   27.382   45.576
| 40> H  -20.898   28.157   45.201
| 41> H  -19.543   28.978   47.434
| 42> H  -21.289   28.710   47.548
| 43> H  -20.733   27.082   49.195
| 44> H  -19.064   26.913   48.597
| 45> C  -23.221   25.764   47.645
| 46> H  -22.433   25.301   48.252
| 47> H  -23.712   26.536   48.252
| 48> O  -22.586   26.394   46.375
| 49> C  -24.281   24.679   47.311
| 50> C  -25.373   25.232   46.387
| 51> C  -24.669   25.187   45.010
| 52> C  -23.794   23.912   45.103
| 53> O  -23.674   23.588   46.542
| 54> H  -24.654   24.245   48.241
| 55> O  -26.609   24.293   46.401
| 56> H  -25.701   26.240   46.663
| 57> H  -25.374   25.149   44.173
| 58> H  -24.041   26.077   44.878
| 59> H  -22.793   24.058   44.684
| 60> H  -24.259   23.050   44.617
| 61> H  -26.304   23.277   46.127
| 62> *
| 63>
| 64>                          ****END OF INPUT****
 Total Charge           Charge          ....    0
 Multiplicity           Mult            ....    1
 Number of Electrons    NEL             ....  102
FINAL SINGLE POINT ENERGY      -652.836463402661
FINAL SINGLE POINT ENERGY      -652.858446480044
FINAL SINGLE POINT ENERGY      -652.862550902177
FINAL SINGLE POINT ENERGY      -652.863763973214
FINAL SINGLE POINT ENERGY      -652.863889863187
FINAL SINGLE POINT ENERGY      -652.863909534775
                    ***********************HURRAY********************

CARTESIAN COORDINATES (ANGSTROEM)
---------------------------------
  C    -21.046514   26.205901   46.334578
  C    -20.434646   27.568287   46.012282
  C    -20.346524   28.214357   47.413395
  C    -20.025213   27.019156   48.335224
  O    -20.394177   25.801270   47.554379
  H    -20.848923   25.413875   45.608683
  H    -19.438104   27.423382   45.579271
  H    -21.048797   28.139106   45.312627
  H    -19.583415   28.996640   47.468858
  H    -21.311379   28.659568   47.676029
  H    -20.595476   27.022697   49.267728
  H    -18.960032   26.925988   48.562846
  C    -23.180882   25.797205   47.611948
  H    -22.444631   25.320383   48.264536
  H    -23.664703   26.621510   48.152971
  O    -22.498551   26.359743   46.452026
  C    -24.229691   24.758459   47.214964
  C    -25.373052   25.231609   46.304622
  C    -24.726198   25.115784   44.899430
  C    -23.820825   23.866612   45.035234
  O    -23.633922   23.636414   46.487063
  H    -24.645732   24.346300   48.142927
  O    -26.537381   24.368508   46.451224
  H    -25.730421   26.235871   46.534478
  H    -25.491840   25.006926   44.126361
  H    -24.125398   26.005662   44.704119
  H    -22.841400   24.006733   44.568737
  H    -24.280126   22.961788   44.622890
  H    -26.245047   23.433264   46.412569

 Multiplicity           Mult            ....    1
 Number of Electrons    NEL             ....  102
 Basis Dimension        Dim             ....  149

ORBITAL ENERGIES
----------------

  NO   OCC          E(Eh)            E(eV)
   0   2.0000     -19.154126      -521.2103
   1   2.0000     -19.142036      -520.8813
   2   2.0000     -19.134602      -520.6790
   3   2.0000     -19.130537      -520.5684
   4   2.0000     -10.282644      -279.8050
   5   2.0000     -10.234872      -278.5050
   6   2.0000     -10.232077      -278.4290
   7   2.0000     -10.227577      -278.3065
   8   2.0000     -10.225208      -278.2421
   9   2.0000     -10.221253      -278.1344
  10   2.0000     -10.193071      -277.3676
  11   2.0000     -10.189136      -277.2605
  12   2.0000     -10.173145      -276.8253
  13   2.0000      -1.058192       -28.7949
  14   2.0000      -1.028916       -27.9982
  15   2.0000      -1.000230       -27.2176
  16   2.0000      -0.990998       -26.9664
  17   2.0000      -0.794783       -21.6271
  18   2.0000      -0.773390       -21.0450
  19   2.0000      -0.761779       -20.7290
  20   2.0000      -0.734881       -19.9971
  21   2.0000      -0.670353       -18.2412
  22   2.0000      -0.606974       -16.5166
  23   2.0000      -0.599291       -16.3075
  24   2.0000      -0.593256       -16.1433
  25   2.0000      -0.566569       -15.4171
  26   2.0000      -0.525213       -14.2918
  27   2.0000      -0.508535       -13.8379
  28   2.0000      -0.494665       -13.4605
  29   2.0000      -0.487809       -13.2740
  30   2.0000      -0.470263       -12.7965
  31   2.0000      -0.461489       -12.5578
  32   2.0000      -0.447101       -12.1662
  33   2.0000      -0.438262       -11.9257
  34   2.0000      -0.418624       -11.3913
  35   2.0000      -0.409079       -11.1316
  36   2.0000      -0.397460       -10.8154
  37   2.0000      -0.384371       -10.4593
  38   2.0000      -0.374015       -10.1775
  39   2.0000      -0.368929       -10.0391
  40   2.0000      -0.363120        -9.8810
  41   2.0000      -0.357976        -9.7410
  42   2.0000      -0.348764        -9.4903
  43   2.0000      -0.336346        -9.1524
  44   2.0000      -0.323019        -8.7898
  45   2.0000      -0.305781        -8.3207
  46   2.0000      -0.294137        -8.0039
  47   2.0000      -0.270190        -7.3522
  48   2.0000      -0.266489        -7.2515
  49   2.0000      -0.256474        -6.9790
  50   2.0000      -0.235128        -6.3982
  51   0.0000       0.068570         1.8659
  52   0.0000       0.079948         2.1755
  53   0.0000       0.100297         2.7292
  54   0.0000       0.102561         2.7908
  55   0.0000       0.107930         2.9369

MULLIKEN ATOMIC CHARGES
-----------------------
   0 C :    0.304507
   1 C :   -0.257766
   2 C :   -0.305242
   3 C :   -0.015474
   4 O :   -0.507073
   5 H :    0.157568
   6 H :    0.145376
   7 H :    0.158987
   8 H :    0.147910
   9 H :    0.157279
  10 H :    0.146596
  11 H :    0.152703
  12 C :   -0.021663
  13 H :    0.181874
  14 H :    0.127424
  15 O :   -0.544632
  16 C :    0.075042
  17 C :    0.078368
  18 C :   -0.282533
  19 C :   -0.022785
  20 O :   -0.526065
  21 H :    0.149116
  22 O :   -0.604950
  23 H :    0.148147
  24 H :    0.147438
  25 H :    0.169983
  26 H :    0.142885
  27 H :    0.135512
  28 H :    0.361468
Sum of atomic charges:   -0.0000000

LOEWDIN ATOMIC CHARGES
----------------------
   0 C :    0.184383
   1 C :   -0.218639
   2 C :   -0.218072
   3 C :   -0.031123
   4 O :   -0.313001
   5 H :    0.103496
   6 H :    0.114129
   7 H :    0.125053
   8 H :    0.117467
   9 H :    0.116280
  10 H :    0.104350
  11 H :    0.108404
  12 C :   -0.046016
  13 H :    0.124249
  14 H :    0.097852
  15 O :   -0.346153
  16 C :    0.010369
  17 C :    0.038203
  18 C :   -0.241603
  19 C :   -0.033819
  20 O :   -0.330288
  21 H :    0.113328
  22 O :   -0.418814
  23 H :    0.114529
  24 H :    0.118037
  25 H :    0.128449
  26 H :    0.101939
  27 H :    0.096038
  28 H :    0.280975

  Mayer bond orders larger than 0.100000
B(  0-C ,  1-C ) :   0.9372 B(  0-C ,  4-O ) :   0.9142 B(  0-C ,  5-H ) :   0.9237
B(  0-C , 15-O ) :   0.8298 B(  1-C ,  2-C ) :   0.9529 B(  1-C ,  6-H ) :   0.9358
B(  1-C ,  7-H ) :   0.9358 B(  2-C ,  3-C ) :   0.9545 B(  2-C ,  8-H ) :   0.9447
B(  2-C ,  9-H ) :   0.9453 B(  3-C ,  4-O ) :   0.8270 B(  3-C , 10-H ) :   0.9345
B(  3-C , 11-H ) :   0.9404 B( 12-C , 13-H ) :   0.9014 B( 12-C , 14-H ) :   0.9225
B( 12-C , 15-O ) :   0.8486 B( 12-C , 16-C ) :   0.8959 B( 16-C , 17-C ) :   0.9119
B( 16-C , 20-O ) :   0.8678 B( 16-C , 21-H ) :   0.9197 B( 17-C , 18-C ) :   0.9243
B( 17-C , 22-O ) :   0.8874 B( 17-C , 23-H ) :   0.9366 B( 18-C , 19-C ) :   0.9458
B( 18-C , 24-H ) :   0.9373 B( 18-C , 25-H ) :   0.9198 B( 19-C , 20-O ) :   0.8424
B( 19-C , 26-H ) :   0.9331 B( 19-C , 27-H ) :   0.9376 B( 22-O , 28-H ) :   0.7970

FINAL SINGLE POINT ENERGY      -652.863910051003

DIPOLE MOMENT
-------------
                                X             Y             Z
Electronic contribution:     -2.57579      -4.50889       0.88715
Nuclear contribution   :      3.46040       5.51427      -0.97014
                        -----------------------------------------
Total Dipole Moment    :      0.88461       1.00537      -0.08299
                        -----------------------------------------
Magnitude (a.u.)       :      1.34171
Magnitude (Debye)      :      3.41036

Rotational constants in cm-1:     0.062990     0.013518     0.013309
Rotational constants in MHz :  1888.378998   405.250745   398.995033

                             ****ORCA TERMINATED NORMALLY****
TOTAL RUN TIME: 0 days 1 hours 6 minutes 30 seconds 97 msec
