                         Program Version 4.2.1 -  RELEASE  -
|  1> # Test redundant internal optimization
|  2> #
|  3> ! RKS B3LYP  Opt TightSCF SmallPrint
|  4>
|  5> %basis
|  6>         Basis "6-31G"
|  7> end
|  8>
|  9> %geom
| 10> Constraints
| 11> { D 4  0  19  14  285.0   C } # D for Dihedral angle
| 12> { D 0  19  14  12  210.0   C } # D for Dihedral angle
| 13> { D 0  4  3  2   C } # D for Dihedral angle
| 14> { D 4  3  2  1   C } # D for Dihedral angle
| 15> { D 3  2  1  0   C } # D for Dihedral angle
| 16> { D 2  1  0  4   C } # D for Dihedral angle
| 17> { D 1  0  4  3   C } # D for Dihedral angle
| 18> { D 14  15  16  17   C } # D for Dihedral angle
| 19> { D 15  16  17  12   C } # D for Dihedral angle
| 20> { D 16  17  12  14   C } # D for Dihedral angle
| 21> { D 17  12  14  15   C } # D for Dihedral angle
| 22> { D 12  14  15  16   C } # D for Dihedral angle
| 23> end
| 24> end
| 25>
| 26>
| 27> #%pal
| 28> #nprocs 8
| 29> #end
| 30>
| 31> * xyz 0 1
| 32> C  -21.048   26.222   46.251
| 33> C  -20.361   27.558   45.944
| 34> C  -20.329   28.222   47.341
| 35> C  -20.110   27.022   48.296
| 36> O  -20.473   25.807   47.535
| 37> H  -20.833   25.428   45.533
| 38> H  -19.344   27.382   45.576
| 39> H  -20.898   28.157   45.201
| 40> H  -19.543   28.978   47.434
| 41> H  -21.289   28.710   47.548
| 42> H  -20.733   27.082   49.195
| 43> H  -19.064   26.913   48.597
| 44> C  -24.597   25.333   45.811
| 45> H  -25.273   24.510   46.094
| 46> C  -23.203   25.146   46.420
| 47> C  -22.581   24.100   45.466
| 48> C  -23.179   24.480   44.088
| 49> O  -24.362   25.326   44.362
| 50> H  -25.073   26.285   46.052
| 51> O  -22.472   26.381   46.366
| 52> H  -23.232   24.807   47.462
| 53> H  -21.487   24.122   45.467
| 54> H  -22.895   23.089   45.757
| 55> H  -23.491   23.604   43.509
| 56> H  -22.489   25.078   43.484
| 57> *
| 58>
| 59>                          ****END OF INPUT****
 Total Charge           Charge          ....    0
 Multiplicity           Mult            ....    1
 Number of Electrons    NEL             ....   86
FINAL SINGLE POINT ENERGY      -538.421257213531
FINAL SINGLE POINT ENERGY      -538.432364496854
FINAL SINGLE POINT ENERGY      -538.434110878888
FINAL SINGLE POINT ENERGY      -538.434523747561
FINAL SINGLE POINT ENERGY      -538.434550043078
FINAL SINGLE POINT ENERGY      -538.434557498907
                    ***********************HURRAY********************

CARTESIAN COORDINATES (ANGSTROEM)
---------------------------------
  C    -20.908022   26.234069   46.217319
  C    -20.407843   27.660877   45.982207
  C    -20.439680   28.247231   47.413427
  C    -20.050773   27.038256   48.294866
  O    -20.269654   25.833029   47.457003
  H    -20.602490   25.504693   45.465716
  H    -19.383500   27.624576   45.594086
  H    -21.040255   28.204116   45.277597
  H    -19.753227   29.089983   47.538985
  H    -21.452881   28.585761   47.647332
  H    -20.658464   26.956245   49.199914
  H    -18.992059   27.038710   48.571823
  C    -24.495683   25.464681   45.767418
  H    -25.279956   24.761342   46.083094
  C    -23.149445   25.091242   46.384461
  C    -22.694184   23.944794   45.465373
  C    -23.227136   24.365646   44.074090
  O    -24.269653   25.384232   44.320741
  H    -24.792952   26.487517   45.999826
  O    -22.335904   26.311944   46.338998
  H    -23.227858   24.769236   47.428962
  H    -21.618849   23.756136   45.483494
  H    -23.186306   23.027583   45.807545
  H    -23.664272   23.525456   43.523023
  H    -22.457952   24.834645   43.451699

 Multiplicity           Mult            ....    1
 Number of Electrons    NEL             ....   86
 Basis Dimension        Dim             ....  127

ORBITAL ENERGIES
----------------

  NO   OCC          E(Eh)            E(eV)
   0   2.0000     -19.141726      -520.8728
   1   2.0000     -19.136001      -520.7171
   2   2.0000     -19.128786      -520.5207
   3   2.0000     -10.276440      -279.6362
   4   2.0000     -10.239654      -278.6351
   5   2.0000     -10.224075      -278.2112
   6   2.0000     -10.222593      -278.1709
   7   2.0000     -10.220502      -278.1140
   8   2.0000     -10.190273      -277.2914
   9   2.0000     -10.181948      -277.0649
  10   2.0000     -10.181787      -277.0605
  11   2.0000      -1.051598       -28.6154
  12   2.0000      -1.013544       -27.5799
  13   2.0000      -0.987166       -26.8622
  14   2.0000      -0.792009       -21.5516
  15   2.0000      -0.775013       -21.0892
  16   2.0000      -0.745801       -20.2943
  17   2.0000      -0.717556       -19.5257
  18   2.0000      -0.614550       -16.7227
  19   2.0000      -0.601387       -16.3646
  20   2.0000      -0.593113       -16.1394
  21   2.0000      -0.564629       -15.3643
  22   2.0000      -0.528244       -14.3742
  23   2.0000      -0.498173       -13.5560
  24   2.0000      -0.486138       -13.2285
  25   2.0000      -0.476797       -12.9743
  26   2.0000      -0.456348       -12.4178
  27   2.0000      -0.436986       -11.8910
  28   2.0000      -0.425405       -11.5759
  29   2.0000      -0.418033       -11.3753
  30   2.0000      -0.401304       -10.9200
  31   2.0000      -0.388549       -10.5730
  32   2.0000      -0.372155       -10.1269
  33   2.0000      -0.364783        -9.9263
  34   2.0000      -0.359225        -9.7750
  35   2.0000      -0.353082        -9.6078
  36   2.0000      -0.341893        -9.3034
  37   2.0000      -0.324384        -8.8269
  38   2.0000      -0.303129        -8.2486
  39   2.0000      -0.294531        -8.0146
  40   2.0000      -0.267093        -7.2680
  41   2.0000      -0.247939        -6.7468
  42   2.0000      -0.236108        -6.4248
  43   0.0000       0.076573         2.0837
  44   0.0000       0.098628         2.6838
  45   0.0000       0.101654         2.7661
  46   0.0000       0.112278         3.0552
  47   0.0000       0.117050         3.1851

MULLIKEN ATOMIC CHARGES
-----------------------
   0 C :    0.286950
   1 C :   -0.258723
   2 C :   -0.296023
   3 C :   -0.002808
   4 O :   -0.516931
   5 H :    0.141169
   6 H :    0.142188
   7 H :    0.161365
   8 H :    0.138796
   9 H :    0.161731
  10 H :    0.144630
  11 H :    0.141017
  12 C :    0.002959
  13 H :    0.123550
  14 C :    0.097525
  15 C :   -0.330751
  16 C :   -0.001434
  17 O :   -0.519981
  18 H :    0.166693
  19 O :   -0.524882
  20 H :    0.143561
  21 H :    0.163669
  22 H :    0.149545
  23 H :    0.140448
  24 H :    0.145736
Sum of atomic charges:   -0.0000000

LOEWDIN ATOMIC CHARGES
----------------------
   0 C :    0.170518
   1 C :   -0.213902
   2 C :   -0.215544
   3 C :   -0.027867
   4 O :   -0.335566
   5 H :    0.095142
   6 H :    0.112219
   7 H :    0.126329
   8 H :    0.112421
   9 H :    0.118951
  10 H :    0.103867
  11 H :    0.101621
  12 C :   -0.033612
  13 H :    0.090583
  14 C :    0.043700
  15 C :   -0.239819
  16 C :   -0.031708
  17 O :   -0.330148
  18 H :    0.122940
  19 O :   -0.320688
  20 H :    0.104475
  21 H :    0.123809
  22 H :    0.119617
  23 H :    0.100331
  24 H :    0.102330

  Mayer bond orders larger than 0.100000
B(  0-C ,  1-C ) :   0.9471 B(  0-C ,  4-O ) :   0.9013 B(  0-C ,  5-H ) :   0.9125
B(  0-C , 19-O ) :   0.8672 B(  1-C ,  2-C ) :   0.9573 B(  1-C ,  6-H ) :   0.9412
B(  1-C ,  7-H ) :   0.9352 B(  2-C ,  3-C ) :   0.9549 B(  2-C ,  8-H ) :   0.9455
B(  2-C ,  9-H ) :   0.9443 B(  3-C ,  4-O ) :   0.8396 B(  3-C , 10-H ) :   0.9360
B(  3-C , 11-H ) :   0.9404 B( 12-C , 13-H ) :   0.9157 B( 12-C , 14-C ) :   0.9303
B( 12-C , 17-O ) :   0.8662 B( 12-C , 18-H ) :   0.9305 B( 14-C , 15-C ) :   0.9372
B( 14-C , 19-O ) :   0.8273 B( 14-C , 20-H ) :   0.9243 B( 15-C , 16-C ) :   0.9416
B( 15-C , 21-H ) :   0.9284 B( 15-C , 22-H ) :   0.9361 B( 16-C , 17-O ) :   0.8616
B( 16-C , 23-H ) :   0.9321 B( 16-C , 24-H ) :   0.9353

FINAL SINGLE POINT ENERGY      -538.434557995642

DIPOLE MOMENT
-------------
                                X             Y             Z
Electronic contribution:     -1.67634      -0.85830      -0.50123
Nuclear contribution   :      2.13952       0.71550       0.87107
                        -----------------------------------------
Total Dipole Moment    :      0.46318      -0.14280       0.36984
                        -----------------------------------------
Magnitude (a.u.)       :      0.60968
Magnitude (Debye)      :      1.54967

Rotational constants in cm-1:     0.084436     0.020552     0.019918
Rotational constants in MHz :  2531.317432   616.146241   597.121118

                             ****ORCA TERMINATED NORMALLY****
TOTAL RUN TIME: 0 days 0 hours 7 minutes 0 seconds 566 msec
