                         Program Version 4.2.0 -  RELEASE  -
|  1> # Test redundant internal optimization
|  2> #
|  3> ! RKS B3LYP  Opt TightSCF SmallPrint
|  4>
|  5> %basis
|  6>         Basis "6-31G"
|  7> end
|  8>
|  9> %geom
| 10> Constraints
| 11> { D 4  0  15  12  225.0   C } # D for Dihedral angle
| 12> { D 0  15  12  16  330.0   C } # D for Dihedral angle
| 13> { D 0  4  3  2   C } # D for Dihedral angle
| 14> { D 4  3  2  1   C } # D for Dihedral angle
| 15> { D 3  2  1  0   C } # D for Dihedral angle
| 16> { D 2  1  0  4   C } # D for Dihedral angle
| 17> { D 1  0  4  3   C } # D for Dihedral angle
| 18> { D 16  20  19  18   C } # D for Dihedral angle
| 19> { D 20  19  18  17   C } # D for Dihedral angle
| 20> { D 19  18  17  16   C } # D for Dihedral angle
| 21> { D 18  17  16  20   C } # D for Dihedral angle
| 22> { D 17  16  20  19   C } # D for Dihedral angle
| 23> { D 15  12  16  20   C } # D for Dihedral angle
| 24> end
| 25> end
| 26>
| 27>
| 28> #%pal
| 29> #nprocs 8
| 30> #end
| 31>
| 32> * xyz 0 1
| 33> C  -21.048   26.222   46.251
| 34> C  -20.361   27.558   45.944
| 35> C  -20.329   28.222   47.341
| 36> C  -20.110   27.022   48.296
| 37> O  -20.473   25.807   47.535
| 38> H  -20.833   25.428   45.533
| 39> H  -19.344   27.382   45.576
| 40> H  -20.898   28.157   45.201
| 41> H  -19.543   28.978   47.434
| 42> H  -21.289   28.710   47.548
| 43> H  -20.733   27.082   49.195
| 44> H  -19.064   26.913   48.597
| 45> C  -23.415   25.773   45.218
| 46> H  -23.674   24.738   45.473
| 47> H  -24.348   26.333   45.070
| 48> O  -22.586   26.394   46.375
| 49> C  -22.649   25.766   43.866
| 50> C  -23.536   25.254   42.726
| 51> C  -24.393   26.504   42.410
| 52> C  -23.407   27.675   42.648
| 53> O  -22.301   27.133   43.467
| 54> H  -21.711   25.220   43.989
| 55> H  -22.920   24.980   41.863
| 56> O  -24.394   24.022   43.126
| 57> H  -24.795   26.497   41.392
| 58> H  -25.239   26.565   43.104
| 59> H  -23.871   28.512   43.181
| 60> H  -22.968   28.046   41.718
| 61> H  -25.021   24.273   43.988
| 62> *
| 63>
| 64>                          ****END OF INPUT****
 Total Charge           Charge          ....    0
 Multiplicity           Mult            ....    1
 Number of Electrons    NEL             ....  102
FINAL SINGLE POINT ENERGY      -652.822441003817
FINAL SINGLE POINT ENERGY      -652.846087181972
FINAL SINGLE POINT ENERGY      -652.850443376873
FINAL SINGLE POINT ENERGY      -652.852333478295
FINAL SINGLE POINT ENERGY      -652.852548007738
FINAL SINGLE POINT ENERGY      -652.852593882382
FINAL SINGLE POINT ENERGY      -652.852596481435
                    ***********************HURRAY********************

CARTESIAN COORDINATES (ANGSTROEM)
---------------------------------
  C    -20.923792   26.218087   46.214159
  C    -20.287290   27.588922   45.993923
  C    -20.402670   28.222231   47.398970
  C    -20.200540   27.016485   48.342245
  O    -20.442666   25.809332   47.510642
  H    -20.621694   25.440220   45.511695
  H    -19.234851   27.458077   45.712606
  H    -20.797284   28.147715   45.208353
  H    -19.665065   29.012616   47.567935
  H    -21.402812   28.646730   47.528799
  H    -20.896690   27.006260   49.185000
  H    -19.175559   26.937245   48.717833
  C    -23.228486   25.812077   45.230624
  H    -23.528642   24.790610   45.508289
  H    -24.115693   26.453180   45.256597
  O    -22.370585   26.349280   46.276528
  C    -22.650338   25.753874   43.813278
  C    -23.659539   25.232906   42.772944
  C    -24.485849   26.519898   42.455750
  C    -23.422292   27.636852   42.551064
  O    -22.274708   27.073808   43.310243
  H    -21.738054   25.153614   43.797519
  H    -23.117319   24.905273   41.883294
  O    -24.436519   24.079794   43.166494
  H    -24.961929   26.469403   41.473292
  H    -25.274356   26.647647   43.208606
  H    -23.785086   28.529535   43.068842
  H    -23.039848   27.928745   41.569206
  H    -25.112846   24.325582   43.830273

 Multiplicity           Mult            ....    1
 Number of Electrons    NEL             ....  102
 Basis Dimension        Dim             ....  149

ORBITAL ENERGIES
----------------

  NO   OCC          E(Eh)            E(eV)
   0   2.0000     -19.156279      -521.2688
   1   2.0000     -19.148816      -521.0658
   2   2.0000     -19.131656      -520.5988
   3   2.0000     -19.128310      -520.5078
   4   2.0000     -10.269486      -279.4469
   5   2.0000     -10.253699      -279.0173
   6   2.0000     -10.240476      -278.6575
   7   2.0000     -10.238816      -278.6124
   8   2.0000     -10.233009      -278.4543
   9   2.0000     -10.214518      -277.9512
  10   2.0000     -10.202743      -277.6308
  11   2.0000     -10.174084      -276.8509
  12   2.0000     -10.168555      -276.7004
  13   2.0000      -1.045055       -28.4374
  14   2.0000      -1.037866       -28.2418
  15   2.0000      -1.024037       -27.8655
  16   2.0000      -0.983007       -26.7490
  17   2.0000      -0.790626       -21.5140
  18   2.0000      -0.775840       -21.1117
  19   2.0000      -0.768187       -20.9034
  20   2.0000      -0.728978       -19.8365
  21   2.0000      -0.681331       -18.5400
  22   2.0000      -0.619495       -16.8573
  23   2.0000      -0.605645       -16.4804
  24   2.0000      -0.586779       -15.9671
  25   2.0000      -0.560946       -15.2641
  26   2.0000      -0.537093       -14.6150
  27   2.0000      -0.515965       -14.0401
  28   2.0000      -0.493292       -13.4232
  29   2.0000      -0.481590       -13.1047
  30   2.0000      -0.468054       -12.7364
  31   2.0000      -0.453179       -12.3316
  32   2.0000      -0.444083       -12.0841
  33   2.0000      -0.435602       -11.8533
  34   2.0000      -0.433445       -11.7946
  35   2.0000      -0.422394       -11.4939
  36   2.0000      -0.409242       -11.1360
  37   2.0000      -0.391486       -10.6529
  38   2.0000      -0.386038       -10.5046
  39   2.0000      -0.366716        -9.9789
  40   2.0000      -0.357669        -9.7327
  41   2.0000      -0.349190        -9.5019
  42   2.0000      -0.341453        -9.2914
  43   2.0000      -0.335120        -9.1191
  44   2.0000      -0.323101        -8.7920
  45   2.0000      -0.304263        -8.2794
  46   2.0000      -0.299268        -8.1435
  47   2.0000      -0.279378        -7.6023
  48   2.0000      -0.259594        -7.0639
  49   2.0000      -0.246846        -6.7170
  50   2.0000      -0.234284        -6.3752
  51   0.0000       0.046350         1.2613
  52   0.0000       0.071515         1.9460
  53   0.0000       0.081456         2.2165
  54   0.0000       0.096960         2.6384
  55   0.0000       0.097319         2.6482

MULLIKEN ATOMIC CHARGES
-----------------------
   0 C :    0.290176
   1 C :   -0.255075
   2 C :   -0.301123
   3 C :   -0.000498
   4 O :   -0.508799
   5 H :    0.140192
   6 H :    0.134027
   7 H :    0.172357
   8 H :    0.135805
   9 H :    0.157866
  10 H :    0.148025
  11 H :    0.136579
  12 C :    0.013357
  13 H :    0.134289
  14 H :    0.137382
  15 O :   -0.525823
  16 C :    0.057776
  17 C :    0.082616
  18 C :   -0.321952
  19 C :   -0.008865
  20 O :   -0.515395
  21 H :    0.162514
  22 H :    0.170959
  23 O :   -0.595275
  24 H :    0.160343
  25 H :    0.138295
  26 H :    0.148734
  27 H :    0.152585
  28 H :    0.358927
Sum of atomic charges:   -0.0000000

LOEWDIN ATOMIC CHARGES
----------------------
   0 C :    0.180869
   1 C :   -0.224074
   2 C :   -0.217935
   3 C :   -0.026714
   4 O :   -0.314460
   5 H :    0.096993
   6 H :    0.108919
   7 H :    0.129630
   8 H :    0.111250
   9 H :    0.116968
  10 H :    0.105668
  11 H :    0.099555
  12 C :   -0.043130
  13 H :    0.099483
  14 H :    0.104898
  15 O :   -0.331632
  16 C :    0.002779
  17 C :    0.037474
  18 C :   -0.240637
  19 C :   -0.028375
  20 O :   -0.323334
  21 H :    0.113857
  22 H :    0.120614
  23 O :   -0.402974
  24 H :    0.124466
  25 H :    0.106349
  26 H :    0.105596
  27 H :    0.107936
  28 H :    0.279960

  Mayer bond orders larger than 0.100000
B(  0-C ,  1-C ) :   0.9402 B(  0-C ,  4-O ) :   0.9208 B(  0-C ,  5-H ) :   0.9174
B(  0-C , 15-O ) :   0.8296 B(  1-C ,  2-C ) :   0.9536 B(  1-C ,  6-H ) :   0.9370
B(  1-C ,  7-H ) :   0.9245 B(  2-C ,  3-C ) :   0.9542 B(  2-C ,  8-H ) :   0.9457
B(  2-C ,  9-H ) :   0.9445 B(  3-C ,  4-O ) :   0.8408 B(  3-C , 10-H ) :   0.9354
B(  3-C , 11-H ) :   0.9402 B( 12-C , 13-H ) :   0.9019 B( 12-C , 14-H ) :   0.9339
B( 12-C , 15-O ) :   0.8653 B( 12-C , 16-C ) :   0.8997 B( 16-C , 17-C ) :   0.8671
B( 16-C , 20-O ) :   0.8510 B( 16-C , 21-H ) :   0.9224 B( 17-C , 18-C ) :   0.9217
B( 17-C , 22-H ) :   0.9321 B( 17-C , 23-O ) :   0.9067 B( 18-C , 19-C ) :   0.9395
B( 18-C , 24-H ) :   0.9414 B( 18-C , 25-H ) :   0.9406 B( 19-C , 20-O ) :   0.8398
B( 19-C , 26-H ) :   0.9319 B( 19-C , 27-H ) :   0.9378 B( 23-O , 28-H ) :   0.7956

FINAL SINGLE POINT ENERGY      -652.852596693101

DIPOLE MOMENT
-------------
                                X             Y             Z
Electronic contribution:     -0.04408      -4.34134       0.18469
Nuclear contribution   :     -0.68826       5.26278      -0.94916
                        -----------------------------------------
Total Dipole Moment    :     -0.73234       0.92144      -0.76447
                        -----------------------------------------
Magnitude (a.u.)       :      1.40349
Magnitude (Debye)      :      3.56738

Rotational constants in cm-1:     0.059240     0.013364     0.011840
Rotational constants in MHz :  1775.982121   400.642876   354.942512

                             ****ORCA TERMINATED NORMALLY****
TOTAL RUN TIME: 0 days 1 hours 12 minutes 49 seconds 889 msec
