                         Program Version 4.2.0 -  RELEASE  -
|  1> # Test redundant internal optimization
|  2> #
|  3> ! RKS B3LYP  Opt TightSCF SmallPrint
|  4>
|  5> %basis
|  6>         Basis "6-31G"
|  7> end
|  8>
|  9> %geom
| 10> Constraints
| 11> { D 4  0  15  12  0.0   C } # D for Dihedral angle
| 12> { D 0  15  12  16  180.0   C } # D for Dihedral angle
| 13> { D 0  4  3  2   C } # D for Dihedral angle
| 14> { D 4  3  2  1   C } # D for Dihedral angle
| 15> { D 3  2  1  0   C } # D for Dihedral angle
| 16> { D 2  1  0  4   C } # D for Dihedral angle
| 17> { D 1  0  4  3   C } # D for Dihedral angle
| 18> { D 16  20  19  18   C } # D for Dihedral angle
| 19> { D 20  19  18  17   C } # D for Dihedral angle
| 20> { D 19  18  17  16   C } # D for Dihedral angle
| 21> { D 18  17  16  20   C } # D for Dihedral angle
| 22> { D 17  16  20  19   C } # D for Dihedral angle
| 23> { D 15  12  16  20   C } # D for Dihedral angle
| 24> end
| 25> end
| 26>
| 27>
| 28> #%pal
| 29> #nprocs 8
| 30> #end
| 31>
| 32> * xyz 0 1
| 33> C  -21.048   26.222   46.251
| 34> C  -20.361   27.558   45.944
| 35> C  -20.329   28.222   47.341
| 36> C  -20.110   27.022   48.296
| 37> O  -20.473   25.807   47.535
| 38> H  -20.833   25.428   45.533
| 39> H  -19.344   27.382   45.576
| 40> H  -20.898   28.157   45.201
| 41> H  -19.543   28.978   47.434
| 42> H  -21.289   28.710   47.548
| 43> H  -20.733   27.082   49.195
| 44> H  -19.064   26.913   48.597
| 45> C  -23.172   26.101   47.783
| 46> H  -22.940   25.066   48.063
| 47> H  -22.724   26.767   48.532
| 48> O  -22.586   26.394   46.375
| 49> C  -24.713   26.290   47.844
| 50> C  -25.121   27.692   47.377
| 51> C  -25.045   27.544   45.839
| 52> C  -25.509   26.085   45.602
| 53> O  -25.378   25.387   46.899
| 54> H  -25.067   26.026   48.842
| 55> H  -26.146   27.910   47.694
| 56> O  -24.191   28.811   47.921
| 57> H  -25.670   28.272   45.311
| 58> H  -24.011   27.681   45.498
| 59> H  -24.901   25.568   44.852
| 60> H  -26.561   26.024   45.308
| 61> H  -23.158   28.613   47.615
| 62> *
| 63>
| 64>                          ****END OF INPUT****
 Total Charge           Charge          ....    0
 Multiplicity           Mult            ....    1
 Number of Electrons    NEL             ....  102
FINAL SINGLE POINT ENERGY      -652.830361759899
FINAL SINGLE POINT ENERGY      -652.853382319901
FINAL SINGLE POINT ENERGY      -652.858227870937
FINAL SINGLE POINT ENERGY      -652.860139963672
FINAL SINGLE POINT ENERGY      -652.860358060365
FINAL SINGLE POINT ENERGY      -652.860404461685
                    ***********************HURRAY********************

CARTESIAN COORDINATES (ANGSTROEM)
---------------------------------
  C    -21.079090   26.186891   46.375304
  C    -20.441907   27.523297   45.991385
  C    -20.285055   28.209379   47.370500
  C    -19.962912   27.027742   48.312847
  O    -20.392182   25.802174   47.583194
  H    -20.916805   25.379238   45.658242
  H    -19.462761   27.336221   45.536041
  H    -21.055633   28.090521   45.288064
  H    -19.499312   28.970674   47.376338
  H    -21.220991   28.696397   47.666419
  H    -20.493497   27.073780   49.267424
  H    -18.891620   26.916761   48.502159
  C    -23.128512   26.072303   47.826269
  H    -22.915779   25.045809   48.140568
  H    -22.730415   26.756625   48.586883
  O    -22.527112   26.325887   46.519767
  C    -24.638966   26.272756   47.754887
  C    -25.109479   27.680556   47.349774
  C    -25.086909   27.592888   45.792794
  C    -25.513459   26.131571   45.532893
  O    -25.308767   25.396236   46.805410
  H    -25.027603   26.002548   48.744524
  H    -26.120960   27.855071   47.722756
  O    -24.313853   28.762114   47.898309
  H    -25.760241   28.319761   45.329367
  H    -24.066722   27.764656   45.443130
  H    -24.915946   25.652638   44.752928
  H    -26.575270   26.043002   45.282614
  H    -23.476240   28.824503   47.395207

 Multiplicity           Mult            ....    1
 Number of Electrons    NEL             ....  102
 Basis Dimension        Dim             ....  149

ORBITAL ENERGIES
----------------

  NO   OCC          E(Eh)            E(eV)
   0   2.0000     -19.156621      -521.2782
   1   2.0000     -19.145736      -520.9820
   2   2.0000     -19.140662      -520.8439
   3   2.0000     -19.129681      -520.5451
   4   2.0000     -10.286101      -279.8990
   5   2.0000     -10.238886      -278.6143
   6   2.0000     -10.234821      -278.5036
   7   2.0000     -10.227353      -278.3004
   8   2.0000     -10.226782      -278.2849
   9   2.0000     -10.218529      -278.0603
  10   2.0000     -10.201680      -277.6018
  11   2.0000     -10.195556      -277.4352
  12   2.0000     -10.178000      -276.9574
  13   2.0000      -1.061499       -28.8849
  14   2.0000      -1.026323       -27.9277
  15   2.0000      -1.008556       -27.4442
  16   2.0000      -0.995591       -27.0914
  17   2.0000      -0.799499       -21.7555
  18   2.0000      -0.773465       -21.0470
  19   2.0000      -0.765054       -20.8182
  20   2.0000      -0.737170       -20.0594
  21   2.0000      -0.675587       -18.3837
  22   2.0000      -0.612574       -16.6690
  23   2.0000      -0.601121       -16.3573
  24   2.0000      -0.599337       -16.3088
  25   2.0000      -0.562556       -15.3079
  26   2.0000      -0.526539       -14.3279
  27   2.0000      -0.516839       -14.0639
  28   2.0000      -0.502848       -13.6832
  29   2.0000      -0.491485       -13.3740
  30   2.0000      -0.469730       -12.7820
  31   2.0000      -0.454310       -12.3624
  32   2.0000      -0.448837       -12.2135
  33   2.0000      -0.425088       -11.5672
  34   2.0000      -0.423561       -11.5257
  35   2.0000      -0.421404       -11.4670
  36   2.0000      -0.400535       -10.8991
  37   2.0000      -0.399025       -10.8580
  38   2.0000      -0.381877       -10.3914
  39   2.0000      -0.371916       -10.1203
  40   2.0000      -0.368809       -10.0358
  41   2.0000      -0.359883        -9.7929
  42   2.0000      -0.351480        -9.5643
  43   2.0000      -0.335668        -9.1340
  44   2.0000      -0.322114        -8.7652
  45   2.0000      -0.310908        -8.4602
  46   2.0000      -0.307355        -8.3635
  47   2.0000      -0.270180        -7.3520
  48   2.0000      -0.262372        -7.1395
  49   2.0000      -0.253711        -6.9038
  50   2.0000      -0.236265        -6.4291
  51   0.0000       0.039980         1.0879
  52   0.0000       0.079730         2.1696
  53   0.0000       0.091719         2.4958
  54   0.0000       0.097919         2.6645
  55   0.0000       0.102847         2.7986

MULLIKEN ATOMIC CHARGES
-----------------------
   0 C :    0.308379
   1 C :   -0.261566
   2 C :   -0.315567
   3 C :   -0.017196
   4 O :   -0.507929
   5 H :    0.162431
   6 H :    0.150526
   7 H :    0.153656
   8 H :    0.154911
   9 H :    0.144362
  10 H :    0.152816
  11 H :    0.154718
  12 C :   -0.002187
  13 H :    0.161149
  14 H :    0.130791
  15 O :   -0.556480
  16 C :    0.094693
  17 C :    0.082996
  18 C :   -0.311672
  19 C :    0.001851
  20 O :   -0.522693
  21 H :    0.146192
  22 H :    0.159738
  23 O :   -0.614544
  24 H :    0.141787
  25 H :    0.158750
  26 H :    0.147189
  27 H :    0.137627
  28 H :    0.365271
Sum of atomic charges:   -0.0000000

LOEWDIN ATOMIC CHARGES
----------------------
   0 C :    0.183300
   1 C :   -0.221890
   2 C :   -0.219771
   3 C :   -0.032290
   4 O :   -0.314236
   5 H :    0.108235
   6 H :    0.117312
   7 H :    0.120893
   8 H :    0.121122
   9 H :    0.106064
  10 H :    0.105855
  11 H :    0.109140
  12 C :   -0.040873
  13 H :    0.113714
  14 H :    0.095564
  15 O :   -0.349833
  16 C :    0.021424
  17 C :    0.037389
  18 C :   -0.242243
  19 C :   -0.023530
  20 O :   -0.322194
  21 H :    0.113334
  22 H :    0.115177
  23 O :   -0.413372
  24 H :    0.113738
  25 H :    0.118148
  26 H :    0.105942
  27 H :    0.099352
  28 H :    0.274529

  Mayer bond orders larger than 0.100000
B(  0-C ,  1-C ) :   0.9310 B(  0-C ,  4-O ) :   0.9147 B(  0-C ,  5-H ) :   0.9292
B(  0-C , 15-O ) :   0.8327 B(  1-C ,  2-C ) :   0.9514 B(  1-C ,  6-H ) :   0.9340
B(  1-C ,  7-H ) :   0.9368 B(  2-C ,  3-C ) :   0.9518 B(  2-C ,  8-H ) :   0.9435
B(  2-C ,  9-H ) :   0.9375 B(  3-C ,  4-O ) :   0.8294 B(  3-C , 10-H ) :   0.9300
B(  3-C , 11-H ) :   0.9393 B( 12-C , 13-H ) :   0.9220 B( 12-C , 14-H ) :   0.9004
B( 12-C , 15-O ) :   0.8151 B( 12-C , 16-C ) :   0.9162 B( 16-C , 17-C ) :   0.8832
B( 16-C , 20-O ) :   0.8768 B( 16-C , 21-H ) :   0.9301 B( 17-C , 18-C ) :   0.9354
B( 17-C , 22-H ) :   0.9365 B( 17-C , 23-O ) :   0.8960 B( 18-C , 19-C ) :   0.9478
B( 18-C , 24-H ) :   0.9410 B( 18-C , 25-H ) :   0.9267 B( 19-C , 20-O ) :   0.8401
B( 19-C , 26-H ) :   0.9323 B( 19-C , 27-H ) :   0.9381 B( 23-O , 28-H ) :   0.7807

FINAL SINGLE POINT ENERGY      -652.860405722956

DIPOLE MOMENT
-------------
                                X             Y             Z
Electronic contribution:     -2.24088      -3.91287       1.04173
Nuclear contribution   :      3.17575       4.80005      -1.47563
                        -----------------------------------------
Total Dipole Moment    :      0.93487       0.88719      -0.43390
                        -----------------------------------------
Magnitude (a.u.)       :      1.35991
Magnitude (Debye)      :      3.45661

Rotational constants in cm-1:     0.047941     0.016663     0.015569
Rotational constants in MHz :  1437.226833   499.534708   466.755359

                             ****ORCA TERMINATED NORMALLY****
TOTAL RUN TIME: 0 days 0 hours 29 minutes 6 seconds 847 msec
