                         Program Version 4.2.0 -  RELEASE  -
|  1> # Test redundant internal optimization
|  2> #
|  3> ! RKS B3LYP  Opt TightSCF SmallPrint
|  4>
|  5> %basis
|  6>         Basis "6-31G"
|  7> end
|  8>
|  9> %geom
| 10> Constraints
| 11> { D 4  0  15  12  0.0   C } # D for Dihedral angle
| 12> { D 0  15  12  16  345.0   C } # D for Dihedral angle
| 13> { D 0  4  3  2   C } # D for Dihedral angle
| 14> { D 4  3  2  1   C } # D for Dihedral angle
| 15> { D 3  2  1  0   C } # D for Dihedral angle
| 16> { D 2  1  0  4   C } # D for Dihedral angle
| 17> { D 1  0  4  3   C } # D for Dihedral angle
| 18> { D 16  20  19  18   C } # D for Dihedral angle
| 19> { D 20  19  18  17   C } # D for Dihedral angle
| 20> { D 19  18  17  16   C } # D for Dihedral angle
| 21> { D 18  17  16  20   C } # D for Dihedral angle
| 22> { D 17  16  20  19   C } # D for Dihedral angle
| 23> { D 15  12  16  20   C } # D for Dihedral angle
| 24> end
| 25> end
| 26>
| 27>
| 28> #%pal
| 29> #nprocs 8
| 30> #end
| 31>
| 32> * xyz 0 1
| 33> C  -21.048   26.222   46.251
| 34> C  -20.361   27.558   45.944
| 35> C  -20.329   28.222   47.341
| 36> C  -20.110   27.022   48.296
| 37> O  -20.473   25.807   47.535
| 38> H  -20.833   25.428   45.533
| 39> H  -19.344   27.382   45.576
| 40> H  -20.898   28.157   45.201
| 41> H  -19.543   28.978   47.434
| 42> H  -21.289   28.710   47.548
| 43> H  -20.733   27.082   49.195
| 44> H  -19.064   26.913   48.597
| 45> C  -23.172   26.101   47.783
| 46> H  -23.435   27.048   48.270
| 47> H  -24.082   25.493   47.702
| 48> O  -22.586   26.394   46.375
| 49> C  -22.176   25.339   48.702
| 50> C  -22.826   24.966   50.038
| 51> C  -23.656   23.720   49.646
| 52> C  -22.771   23.030   48.578
| 53> O  -21.812   24.050   48.105
| 54> H  -21.257   25.922   48.793
| 55> H  -22.055   24.702   50.771
| 56> O  -23.696   26.106   50.633
| 57> H  -23.869   23.066   50.498
| 58> H  -24.615   24.028   49.213
| 59> H  -23.353   22.662   47.726
| 60> H  -22.186   22.204   48.992
| 61> H  -24.476   26.388   49.918
| 62> *
| 63>
| 64>                          ****END OF INPUT****
 Total Charge           Charge          ....    0
 Multiplicity           Mult            ....    1
 Number of Electrons    NEL             ....  102
FINAL SINGLE POINT ENERGY      -652.728850062027
FINAL SINGLE POINT ENERGY      -652.811977156130
FINAL SINGLE POINT ENERGY      -652.834887789753
FINAL SINGLE POINT ENERGY      -652.839945186916
FINAL SINGLE POINT ENERGY      -652.840730623516
FINAL SINGLE POINT ENERGY      -652.840915146311
FINAL SINGLE POINT ENERGY      -652.840946589604
FINAL SINGLE POINT ENERGY      -652.840953633712
FINAL SINGLE POINT ENERGY      -652.840955326863
                    ***********************HURRAY********************

CARTESIAN COORDINATES (ANGSTROEM)
---------------------------------
  C    -20.948141   26.351629   46.260942
  C    -20.500671   27.762118   45.872834
  C    -20.126519   28.367332   47.248468
  C    -19.537993   27.160526   48.011396
  O    -20.009356   25.951093   47.280119
  H    -20.839721   25.611519   45.464905
  H    -19.619579   27.691369   45.223896
  H    -21.286416   28.314509   45.354239
  H    -19.414664   29.194507   47.167814
  H    -21.026392   28.742706   47.747442
  H    -19.868764   27.104986   49.053259
  H    -18.444538   27.129292   47.985107
  C    -23.037785   26.005213   47.830236
  H    -23.399188   26.940040   48.283266
  H    -23.911236   25.425146   47.506784
  O    -22.365682   26.353768   46.590343
  C    -22.294598   25.234500   48.926727
  C    -23.206402   24.898184   50.121071
  C    -23.942688   23.616665   49.613262
  C    -22.851023   22.910917   48.779068
  O    -21.817082   23.930934   48.472250
  H    -21.411263   25.781836   49.247471
  H    -22.582759   24.657494   50.984949
  O    -24.068927   25.966793   50.580434
  H    -24.314850   23.002377   50.437411
  H    -24.800998   23.905941   48.993047
  H    -23.233724   22.496814   47.841033
  H    -22.356313   22.112300   49.339666
  H    -24.830729   26.079492   49.976561

 Multiplicity           Mult            ....    1
 Number of Electrons    NEL             ....  102
 Basis Dimension        Dim             ....  149

ORBITAL ENERGIES
----------------

  NO   OCC          E(Eh)            E(eV)
   0   2.0000     -19.149656      -521.0886
   1   2.0000     -19.141902      -520.8776
   2   2.0000     -19.131488      -520.5943
   3   2.0000     -19.127452      -520.4844
   4   2.0000     -10.273880      -279.5665
   5   2.0000     -10.244324      -278.7622
   6   2.0000     -10.230217      -278.3784
   7   2.0000     -10.227007      -278.2910
   8   2.0000     -10.226906      -278.2883
   9   2.0000     -10.226049      -278.2649
  10   2.0000     -10.193817      -277.3879
  11   2.0000     -10.186495      -277.1886
  12   2.0000     -10.179524      -276.9989
  13   2.0000      -1.043604       -28.3979
  14   2.0000      -1.031717       -28.0745
  15   2.0000      -1.011414       -27.5220
  16   2.0000      -0.984411       -26.7872
  17   2.0000      -0.786007       -21.3883
  18   2.0000      -0.780172       -21.2295
  19   2.0000      -0.765359       -20.8265
  20   2.0000      -0.731090       -19.8940
  21   2.0000      -0.678634       -18.4666
  22   2.0000      -0.609596       -16.5879
  23   2.0000      -0.603052       -16.4099
  24   2.0000      -0.596222       -16.2240
  25   2.0000      -0.561623       -15.2825
  26   2.0000      -0.520694       -14.1688
  27   2.0000      -0.507694       -13.8151
  28   2.0000      -0.499389       -13.5891
  29   2.0000      -0.484012       -13.1706
  30   2.0000      -0.464255       -12.6330
  31   2.0000      -0.455365       -12.3911
  32   2.0000      -0.443666       -12.0728
  33   2.0000      -0.426631       -11.6092
  34   2.0000      -0.426345       -11.6014
  35   2.0000      -0.410708       -11.1759
  36   2.0000      -0.409368       -11.1395
  37   2.0000      -0.397013       -10.8033
  38   2.0000      -0.378718       -10.3055
  39   2.0000      -0.367485        -9.9998
  40   2.0000      -0.357443        -9.7265
  41   2.0000      -0.354950        -9.6587
  42   2.0000      -0.340295        -9.2599
  43   2.0000      -0.332056        -9.0357
  44   2.0000      -0.319481        -8.6935
  45   2.0000      -0.311461        -8.4753
  46   2.0000      -0.294597        -8.0164
  47   2.0000      -0.269749        -7.3402
  48   2.0000      -0.257376        -7.0036
  49   2.0000      -0.240300        -6.5389
  50   2.0000      -0.230604        -6.2751
  51   0.0000       0.051609         1.4043
  52   0.0000       0.076386         2.0786
  53   0.0000       0.083357         2.2683
  54   0.0000       0.093507         2.5445
  55   0.0000       0.107732         2.9315

MULLIKEN ATOMIC CHARGES
-----------------------
   0 C :    0.322703
   1 C :   -0.259115
   2 C :   -0.310343
   3 C :   -0.028052
   4 O :   -0.491495
   5 H :    0.158756
   6 H :    0.144043
   7 H :    0.156097
   8 H :    0.145332
   9 H :    0.153818
  10 H :    0.141526
  11 H :    0.154402
  12 C :    0.026049
  13 H :    0.127034
  14 H :    0.131176
  15 O :   -0.564387
  16 C :    0.071762
  17 C :    0.080574
  18 C :   -0.324862
  19 C :   -0.010643
  20 O :   -0.496803
  21 H :    0.164695
  22 H :    0.167533
  23 O :   -0.599518
  24 H :    0.156936
  25 H :    0.132949
  26 H :    0.144254
  27 H :    0.148773
  28 H :    0.356807
Sum of atomic charges:   -0.0000000

LOEWDIN ATOMIC CHARGES
----------------------
   0 C :    0.193202
   1 C :   -0.221668
   2 C :   -0.220862
   3 C :   -0.037480
   4 O :   -0.303664
   5 H :    0.105910
   6 H :    0.113160
   7 H :    0.123608
   8 H :    0.116378
   9 H :    0.113676
  10 H :    0.097951
  11 H :    0.107690
  12 C :   -0.034298
  13 H :    0.095636
  14 H :    0.099155
  15 O :   -0.349647
  16 C :    0.007960
  17 C :    0.035020
  18 C :   -0.242837
  19 C :   -0.031586
  20 O :   -0.309186
  21 H :    0.118022
  22 H :    0.118942
  23 O :   -0.407722
  24 H :    0.121887
  25 H :    0.103526
  26 H :    0.103067
  27 H :    0.105598
  28 H :    0.278560

  Mayer bond orders larger than 0.100000
B(  0-C ,  1-C ) :   0.9256 B(  0-C ,  4-O ) :   0.9158 B(  0-C ,  5-H ) :   0.9315
B(  0-C , 15-O ) :   0.8379 B(  1-C ,  2-C ) :   0.9566 B(  1-C ,  6-H ) :   0.9360
B(  1-C ,  7-H ) :   0.9374 B(  2-C ,  3-C ) :   0.9527 B(  2-C ,  8-H ) :   0.9446
B(  2-C ,  9-H ) :   0.9456 B(  3-C ,  4-O ) :   0.8410 B(  3-C , 10-H ) :   0.9209
B(  3-C , 11-H ) :   0.9390 B( 12-C , 13-H ) :   0.9054 B( 12-C , 14-H ) :   0.9311
B( 12-C , 15-O ) :   0.8494 B( 12-C , 16-C ) :   0.9015 B( 16-C , 17-C ) :   0.8638
B( 16-C , 20-O ) :   0.8580 B( 16-C , 21-H ) :   0.9155 B( 17-C , 18-C ) :   0.9242
B( 17-C , 22-H ) :   0.9332 B( 17-C , 23-O ) :   0.8984 B( 18-C , 19-C ) :   0.9375
B( 18-C , 24-H ) :   0.9415 B( 18-C , 25-H ) :   0.9397 B( 19-C , 20-O ) :   0.8545
B( 19-C , 26-H ) :   0.9312 B( 19-C , 27-H ) :   0.9375 B( 23-O , 28-H ) :   0.7977

FINAL SINGLE POINT ENERGY      -652.840955965976

DIPOLE MOMENT
-------------
                                X             Y             Z
Electronic contribution:      0.11293      -2.07236      -0.32963
Nuclear contribution   :     -0.59910       2.35208       0.42790
                        -----------------------------------------
Total Dipole Moment    :     -0.48617       0.27971       0.09827
                        -----------------------------------------
Magnitude (a.u.)       :      0.56944
Magnitude (Debye)      :      1.44739

Rotational constants in cm-1:     0.050174     0.015574     0.014591
Rotational constants in MHz :  1504.185853   466.903802   437.433290

                             ****ORCA TERMINATED NORMALLY****
TOTAL RUN TIME: 0 days 2 hours 19 minutes 24 seconds 422 msec
