                         Program Version 4.2.0 -  RELEASE  -
|  1> # Test redundant internal optimization
|  2> #
|  3> ! RKS B3LYP  Opt TightSCF SmallPrint
|  4>
|  5> %basis
|  6>         Basis "6-31G"
|  7> end
|  8>
|  9> %geom
| 10> Constraints
| 11> { D 4  0  15  12  225.0   C } # D for Dihedral angle
| 12> { D 0  15  12  16  90.0   C } # D for Dihedral angle
| 13> { D 0  4  3  2   C } # D for Dihedral angle
| 14> { D 4  3  2  1   C } # D for Dihedral angle
| 15> { D 3  2  1  0   C } # D for Dihedral angle
| 16> { D 2  1  0  4   C } # D for Dihedral angle
| 17> { D 1  0  4  3   C } # D for Dihedral angle
| 18> { D 16  20  19  18   C } # D for Dihedral angle
| 19> { D 20  19  18  17   C } # D for Dihedral angle
| 20> { D 19  18  17  16   C } # D for Dihedral angle
| 21> { D 18  17  16  20   C } # D for Dihedral angle
| 22> { D 17  16  20  19   C } # D for Dihedral angle
| 23> { D 15  12  16  20   C } # D for Dihedral angle
| 24> end
| 25> end
| 26>
| 27>
| 28> #%pal
| 29> #nprocs 8
| 30> #end
| 31>
| 32> * xyz 0 1
| 33> C  -21.048   26.222   46.251
| 34> C  -20.361   27.558   45.944
| 35> C  -20.329   28.222   47.341
| 36> C  -20.110   27.022   48.296
| 37> O  -20.473   25.807   47.535
| 38> H  -20.833   25.428   45.533
| 39> H  -19.344   27.382   45.576
| 40> H  -20.898   28.157   45.201
| 41> H  -19.543   28.978   47.434
| 42> H  -21.289   28.710   47.548
| 43> H  -20.733   27.082   49.195
| 44> H  -19.064   26.913   48.597
| 45> C  -23.415   25.773   45.218
| 46> H  -24.332   26.358   45.075
| 47> H  -22.844   25.796   44.281
| 48> O  -22.586   26.394   46.375
| 49> C  -23.816   24.297   45.491
| 50> C  -24.531   23.681   44.284
| 51> C  -23.342   23.347   43.352
| 52> C  -22.224   22.938   44.342
| 53> O  -22.621   23.465   45.665
| 54> H  -24.380   24.246   46.425
| 55> O  -25.276   22.386   44.708
| 56> H  -25.256   24.360   43.821
| 57> H  -23.575   22.554   42.634
| 58> H  -23.048   24.238   42.783
| 59> H  -21.248   23.356   44.068
| 60> H  -22.130   21.853   44.441
| 61> H  -24.569   21.691   45.174
| 62> *
| 63>
| 64>                          ****END OF INPUT****
 Total Charge           Charge          ....    0
 Multiplicity           Mult            ....    1
 Number of Electrons    NEL             ....  102
FINAL SINGLE POINT ENERGY      -652.832425331123
FINAL SINGLE POINT ENERGY      -652.854933238362
FINAL SINGLE POINT ENERGY      -652.858809076174
FINAL SINGLE POINT ENERGY      -652.859491247961
FINAL SINGLE POINT ENERGY      -652.859567281486
FINAL SINGLE POINT ENERGY      -652.859575899298
                    ***********************HURRAY********************

CARTESIAN COORDINATES (ANGSTROEM)
---------------------------------
  C    -21.013409   26.212340   46.176510
  C    -20.390057   27.590207   45.961495
  C    -20.454895   28.197139   47.383862
  C    -20.213622   26.971683   48.290897
  O    -20.483645   25.783433   47.441692
  H    -20.758041   25.446262   45.443434
  H    -19.349329   27.473883   45.634741
  H    -20.927961   28.182313   45.216463
  H    -19.714858   28.987556   47.540378
  H    -21.451622   28.613422   47.558263
  H    -20.878254   26.940033   49.157719
  H    -19.175357   26.888160   48.626404
  C    -23.268100   25.803606   45.199304
  H    -24.171622   26.421141   45.160731
  H    -22.744580   25.906598   44.235878
  O    -22.462438   26.348074   46.273985
  C    -23.658199   24.347318   45.453877
  C    -24.488052   23.695696   44.337912
  C    -23.384330   23.264504   43.336396
  C    -22.207545   22.864005   44.260574
  O    -22.482704   23.478178   45.583852
  H    -24.176538   24.295092   46.415883
  O    -25.233228   22.554490   44.842174
  H    -25.236273   24.356251   43.896204
  H    -23.733621   22.441164   42.708086
  H    -23.113866   24.103063   42.684902
  H    -21.239948   23.220254   43.893860
  H    -22.142651   21.782702   44.415577
  H    -24.663255   22.045433   45.456946

 Multiplicity           Mult            ....    1
 Number of Electrons    NEL             ....  102
 Basis Dimension        Dim             ....  149

ORBITAL ENERGIES
----------------

  NO   OCC          E(Eh)            E(eV)
   0   2.0000     -19.145014      -520.9623
   1   2.0000     -19.140143      -520.8298
   2   2.0000     -19.135740      -520.7099
   3   2.0000     -19.131044      -520.5822
   4   2.0000     -10.271553      -279.5032
   5   2.0000     -10.245353      -278.7902
   6   2.0000     -10.235489      -278.5218
   7   2.0000     -10.233593      -278.4702
   8   2.0000     -10.233071      -278.4560
   9   2.0000     -10.217722      -278.0384
  10   2.0000     -10.192893      -277.3627
  11   2.0000     -10.180338      -277.0211
  12   2.0000     -10.180179      -277.0168
  13   2.0000      -1.047076       -28.4924
  14   2.0000      -1.036601       -28.2074
  15   2.0000      -1.008050       -27.4304
  16   2.0000      -0.988294       -26.8928
  17   2.0000      -0.787638       -21.4327
  18   2.0000      -0.780040       -21.2260
  19   2.0000      -0.766968       -20.8703
  20   2.0000      -0.727690       -19.8015
  21   2.0000      -0.675190       -18.3728
  22   2.0000      -0.606281       -16.4977
  23   2.0000      -0.597394       -16.2559
  24   2.0000      -0.591371       -16.0920
  25   2.0000      -0.579180       -15.7603
  26   2.0000      -0.526930       -14.3385
  27   2.0000      -0.507675       -13.8145
  28   2.0000      -0.497479       -13.5371
  29   2.0000      -0.485242       -13.2041
  30   2.0000      -0.473728       -12.8908
  31   2.0000      -0.457197       -12.4410
  32   2.0000      -0.449857       -12.2412
  33   2.0000      -0.441824       -12.0226
  34   2.0000      -0.423606       -11.5269
  35   2.0000      -0.410170       -11.1613
  36   2.0000      -0.396967       -10.8020
  37   2.0000      -0.392569       -10.6824
  38   2.0000      -0.375724       -10.2240
  39   2.0000      -0.368347       -10.0232
  40   2.0000      -0.361909        -9.8480
  41   2.0000      -0.351275        -9.5587
  42   2.0000      -0.346641        -9.4326
  43   2.0000      -0.334889        -9.1128
  44   2.0000      -0.310305        -8.4438
  45   2.0000      -0.305438        -8.3114
  46   2.0000      -0.301100        -8.1933
  47   2.0000      -0.273582        -7.4446
  48   2.0000      -0.266968        -7.2646
  49   2.0000      -0.250809        -6.8249
  50   2.0000      -0.232601        -6.3294
  51   0.0000       0.058027         1.5790
  52   0.0000       0.082893         2.2556
  53   0.0000       0.087502         2.3811
  54   0.0000       0.100445         2.7333
  55   0.0000       0.106931         2.9097

MULLIKEN ATOMIC CHARGES
-----------------------
   0 C :    0.297449
   1 C :   -0.256370
   2 C :   -0.299846
   3 C :   -0.000595
   4 O :   -0.495961
   5 H :    0.147981
   6 H :    0.139502
   7 H :    0.139532
   8 H :    0.138326
   9 H :    0.161099
  10 H :    0.151326
  11 H :    0.138098
  12 C :   -0.023985
  13 H :    0.150703
  14 H :    0.117159
  15 O :   -0.510981
  16 C :    0.072962
  17 C :    0.079201
  18 C :   -0.296043
  19 C :   -0.031729
  20 O :   -0.509217
  21 H :    0.174084
  22 O :   -0.602175
  23 H :    0.151859
  24 H :    0.165166
  25 H :    0.141730
  26 H :    0.141245
  27 H :    0.152321
  28 H :    0.367159
Sum of atomic charges:   -0.0000000

LOEWDIN ATOMIC CHARGES
----------------------
   0 C :    0.180256
   1 C :   -0.225902
   2 C :   -0.217118
   3 C :   -0.026624
   4 O :   -0.303516
   5 H :    0.103230
   6 H :    0.110505
   7 H :    0.114077
   8 H :    0.112329
   9 H :    0.118724
  10 H :    0.107694
  11 H :    0.100386
  12 C :   -0.040671
  13 H :    0.114295
  14 H :    0.088205
  15 O :   -0.329984
  16 C :    0.007007
  17 C :    0.034814
  18 C :   -0.241711
  19 C :   -0.039897
  20 O :   -0.321313
  21 H :    0.122897
  22 O :   -0.413654
  23 H :    0.115318
  24 H :    0.127830
  25 H :    0.111376
  26 H :    0.101039
  27 H :    0.105586
  28 H :    0.284822

  Mayer bond orders larger than 0.100000
B(  0-C ,  1-C ) :   0.9353 B(  0-C ,  4-O ) :   0.9352 B(  0-C ,  5-H ) :   0.9162
B(  0-C , 15-O ) :   0.8187 B(  1-C ,  2-C ) :   0.9557 B(  1-C ,  6-H ) :   0.9362
B(  1-C ,  7-H ) :   0.9392 B(  2-C ,  3-C ) :   0.9542 B(  2-C ,  8-H ) :   0.9456
B(  2-C ,  9-H ) :   0.9437 B(  3-C ,  4-O ) :   0.8420 B(  3-C , 10-H ) :   0.9345
B(  3-C , 11-H ) :   0.9398 B( 12-C , 13-H ) :   0.9285 B( 12-C , 14-H ) :   0.9235
B( 12-C , 15-O ) :   0.8767 B( 12-C , 16-C ) :   0.8838 B( 16-C , 17-C ) :   0.8938
B( 16-C , 20-O ) :   0.8599 B( 16-C , 21-H ) :   0.9234 B( 17-C , 18-C ) :   0.9102
B( 17-C , 22-O ) :   0.8918 B( 17-C , 23-H ) :   0.9334 B( 18-C , 19-C ) :   0.9400
B( 18-C , 24-H ) :   0.9368 B( 18-C , 25-H ) :   0.9339 B( 19-C , 20-O ) :   0.8501
B( 19-C , 26-H ) :   0.9337 B( 19-C , 27-H ) :   0.9373 B( 22-O , 28-H ) :   0.7931

FINAL SINGLE POINT ENERGY      -652.859578046491

DIPOLE MOMENT
-------------
                                X             Y             Z
Electronic contribution:     -2.66282      -3.90676       2.46727
Nuclear contribution   :      3.14026       4.62018      -3.53904
                        -----------------------------------------
Total Dipole Moment    :      0.47744       0.71342      -1.07177
                        -----------------------------------------
Magnitude (a.u.)       :      1.37318
Magnitude (Debye)      :      3.49033

Rotational constants in cm-1:     0.067452     0.012218     0.011997
Rotational constants in MHz :  2022.152415   366.278077   359.673566

                             ****ORCA TERMINATED NORMALLY****
TOTAL RUN TIME: 0 days 0 hours 19 minutes 44 seconds 874 msec
