                         Program Version 4.2.0 -  RELEASE  -
|  1> # Test redundant internal optimization
|  2> #
|  3> ! RKS B3LYP  Opt TightSCF SmallPrint
|  4>
|  5> %basis
|  6>         Basis "6-31G"
|  7> end
|  8>
|  9> %geom
| 10> Constraints
| 11> { D 4  0  15  12  345.0   C } # D for Dihedral angle
| 12> { D 0  15  12  16  240.0   C } # D for Dihedral angle
| 13> { D 0  4  3  2   C } # D for Dihedral angle
| 14> { D 4  3  2  1   C } # D for Dihedral angle
| 15> { D 3  2  1  0   C } # D for Dihedral angle
| 16> { D 2  1  0  4   C } # D for Dihedral angle
| 17> { D 1  0  4  3   C } # D for Dihedral angle
| 18> { D 16  20  19  18   C } # D for Dihedral angle
| 19> { D 20  19  18  17   C } # D for Dihedral angle
| 20> { D 19  18  17  16   C } # D for Dihedral angle
| 21> { D 18  17  16  20   C } # D for Dihedral angle
| 22> { D 17  16  20  19   C } # D for Dihedral angle
| 23> { D 15  12  16  20   C } # D for Dihedral angle
| 24> end
| 25> end
| 26>
| 27>
| 28> #%pal
| 29> #nprocs 8
| 30> #end
| 31>
| 32> * xyz 0 1
| 33> C  -21.048   26.222   46.251
| 34> C  -20.361   27.558   45.944
| 35> C  -20.329   28.222   47.341
| 36> C  -20.110   27.022   48.296
| 37> O  -20.473   25.807   47.535
| 38> H  -20.833   25.428   45.533
| 39> H  -19.344   27.382   45.576
| 40> H  -20.898   28.157   45.201
| 41> H  -19.543   28.978   47.434
| 42> H  -21.289   28.710   47.548
| 43> H  -20.733   27.082   49.195
| 44> H  -19.064   26.913   48.597
| 45> C  -23.221   25.764   47.645
| 46> H  -22.433   25.301   48.252
| 47> H  -23.712   26.536   48.252
| 48> O  -22.586   26.394   46.375
| 49> C  -24.281   24.679   47.311
| 50> C  -23.644   23.476   46.608
| 51> C  -23.014   22.714   47.798
| 52> C  -24.026   22.957   48.946
| 53> O  -24.847   24.119   48.544
| 54> H  -25.105   25.140   46.763
| 55> O  -24.742   22.615   45.925
| 56> H  -22.908   23.761   45.848
| 57> H  -22.867   21.649   47.591
| 58> H  -22.037   23.145   48.046
| 59> H  -23.533   23.179   49.899
| 60> H  -24.707   22.114   49.088
| 61> H  -25.491   22.316   46.668
| 62> *
| 63>
| 64>                          ****END OF INPUT****
 Total Charge           Charge          ....    0
 Multiplicity           Mult            ....    1
 Number of Electrons    NEL             ....  102
FINAL SINGLE POINT ENERGY      -652.838221753031
FINAL SINGLE POINT ENERGY      -652.860067329783
FINAL SINGLE POINT ENERGY      -652.863552222255
FINAL SINGLE POINT ENERGY      -652.864117494583
FINAL SINGLE POINT ENERGY      -652.864201896806
FINAL SINGLE POINT ENERGY      -652.864214535311
                    ***********************HURRAY********************

CARTESIAN COORDINATES (ANGSTROEM)
---------------------------------
  C    -21.068931   26.165107   46.342312
  C    -20.497226   27.528865   45.956293
  C    -20.389823   28.225689   47.331136
  C    -20.017751   27.072180   48.287133
  O    -20.376542   25.817751   47.560605
  H    -20.864723   25.355872   45.636174
  H    -19.509161   27.392080   45.501729
  H    -21.144897   28.057725   45.254228
  H    -19.643766   29.026154   47.339919
  H    -21.357943   28.657660   47.602483
  H    -20.565358   27.097455   49.232678
  H    -18.945281   27.011544   48.490798
  C    -23.163330   25.753413   47.688208
  H    -22.412160   25.341739   48.368021
  H    -23.681329   26.576419   48.190722
  O    -22.517259   26.289081   46.493021
  C    -24.186316   24.685981   47.292057
  C    -23.594370   23.444355   46.610573
  C    -23.043851   22.652221   47.824665
  C    -24.074835   22.954742   48.940285
  O    -24.821450   24.163632   48.509586
  H    -24.975502   25.128274   46.678174
  O    -24.625034   22.700345   45.901425
  H    -22.841378   23.681438   45.860855
  H    -22.971464   21.587183   47.589755
  H    -22.045936   23.015849   48.091275
  H    -23.606317   23.152762   49.909167
  H    -24.808473   22.151968   49.065730
  H    -25.428595   22.652516   46.460994

 Multiplicity           Mult            ....    1
 Number of Electrons    NEL             ....  102
 Basis Dimension        Dim             ....  149

ORBITAL ENERGIES
----------------

  NO   OCC          E(Eh)            E(eV)
   0   2.0000     -19.156821      -521.2836
   1   2.0000     -19.141024      -520.8537
   2   2.0000     -19.140915      -520.8508
   3   2.0000     -19.131540      -520.5957
   4   2.0000     -10.283917      -279.8396
   5   2.0000     -10.236450      -278.5480
   6   2.0000     -10.233057      -278.4556
   7   2.0000     -10.227832      -278.3134
   8   2.0000     -10.226794      -278.2852
   9   2.0000     -10.223472      -278.1948
  10   2.0000     -10.192980      -277.3651
  11   2.0000     -10.188729      -277.2494
  12   2.0000     -10.182332      -277.0753
  13   2.0000      -1.058987       -28.8165
  14   2.0000      -1.031669       -28.0731
  15   2.0000      -1.000489       -27.2247
  16   2.0000      -0.994287       -27.0559
  17   2.0000      -0.795110       -21.6360
  18   2.0000      -0.775055       -21.0903
  19   2.0000      -0.765217       -20.8226
  20   2.0000      -0.734732       -19.9931
  21   2.0000      -0.671954       -18.2848
  22   2.0000      -0.607064       -16.5191
  23   2.0000      -0.598300       -16.2806
  24   2.0000      -0.594279       -16.1712
  25   2.0000      -0.575014       -15.6469
  26   2.0000      -0.521459       -14.1896
  27   2.0000      -0.516146       -14.0450
  28   2.0000      -0.502407       -13.6712
  29   2.0000      -0.487778       -13.2731
  30   2.0000      -0.471755       -12.8371
  31   2.0000      -0.457928       -12.4609
  32   2.0000      -0.451910       -12.2971
  33   2.0000      -0.432825       -11.7778
  34   2.0000      -0.418562       -11.3897
  35   2.0000      -0.412609       -11.2277
  36   2.0000      -0.406781       -11.0691
  37   2.0000      -0.388123       -10.5614
  38   2.0000      -0.376713       -10.2509
  39   2.0000      -0.364945        -9.9307
  40   2.0000      -0.363095        -9.8803
  41   2.0000      -0.357867        -9.7381
  42   2.0000      -0.352287        -9.5862
  43   2.0000      -0.335804        -9.1377
  44   2.0000      -0.326782        -8.8922
  45   2.0000      -0.304583        -8.2881
  46   2.0000      -0.302155        -8.2220
  47   2.0000      -0.271955        -7.4003
  48   2.0000      -0.269011        -7.3202
  49   2.0000      -0.259511        -7.0616
  50   2.0000      -0.236081        -6.4241
  51   0.0000       0.068698         1.8694
  52   0.0000       0.072598         1.9755
  53   0.0000       0.094405         2.5689
  54   0.0000       0.098440         2.6787
  55   0.0000       0.104420         2.8414

MULLIKEN ATOMIC CHARGES
-----------------------
   0 C :    0.297819
   1 C :   -0.256616
   2 C :   -0.305463
   3 C :   -0.015604
   4 O :   -0.516817
   5 H :    0.153189
   6 H :    0.144547
   7 H :    0.164841
   8 H :    0.147993
   9 H :    0.160652
  10 H :    0.147527
  11 H :    0.152667
  12 C :   -0.025790
  13 H :    0.161867
  14 H :    0.148460
  15 O :   -0.540893
  16 C :    0.063184
  17 C :    0.086969
  18 C :   -0.303898
  19 C :   -0.031812
  20 O :   -0.528807
  21 H :    0.163781
  22 O :   -0.604239
  23 H :    0.163228
  24 H :    0.160286
  25 H :    0.159470
  26 H :    0.145150
  27 H :    0.146140
  28 H :    0.362168
Sum of atomic charges:   -0.0000000

LOEWDIN ATOMIC CHARGES
----------------------
   0 C :    0.180498
   1 C :   -0.217340
   2 C :   -0.217728
   3 C :   -0.030708
   4 O :   -0.322276
   5 H :    0.099766
   6 H :    0.113663
   7 H :    0.128115
   8 H :    0.117706
   9 H :    0.118046
  10 H :    0.104852
  11 H :    0.108156
  12 C :   -0.047218
  13 H :    0.111385
  14 H :    0.108088
  15 O :   -0.344550
  16 C :    0.013114
  17 C :    0.037682
  18 C :   -0.243804
  19 C :   -0.039011
  20 O :   -0.333082
  21 H :    0.116697
  22 O :   -0.415966
  23 H :    0.120546
  24 H :    0.125616
  25 H :    0.120726
  26 H :    0.103438
  27 H :    0.102233
  28 H :    0.281357

  Mayer bond orders larger than 0.100000
B(  0-C ,  1-C ) :   0.9383 B(  0-C ,  4-O ) :   0.9086 B(  0-C ,  5-H ) :   0.9225
B(  0-C , 15-O ) :   0.8424 B(  1-C ,  2-C ) :   0.9530 B(  1-C ,  6-H ) :   0.9360
B(  1-C ,  7-H ) :   0.9350 B(  2-C ,  3-C ) :   0.9554 B(  2-C ,  8-H ) :   0.9445
B(  2-C ,  9-H ) :   0.9447 B(  3-C ,  4-O ) :   0.8235 B(  3-C , 10-H ) :   0.9346
B(  3-C , 11-H ) :   0.9405 B( 12-C , 13-H ) :   0.9079 B( 12-C , 14-H ) :   0.9297
B( 12-C , 15-O ) :   0.8252 B( 12-C , 16-C ) :   0.8963 B( 16-C , 17-C ) :   0.9132
B( 16-C , 20-O ) :   0.8357 B( 16-C , 21-H ) :   0.9273 B( 17-C , 18-C ) :   0.9141
B( 17-C , 22-O ) :   0.8905 B( 17-C , 23-H ) :   0.9269 B( 18-C , 19-C ) :   0.9415
B( 18-C , 24-H ) :   0.9376 B( 18-C , 25-H ) :   0.9299 B( 19-C , 20-O ) :   0.8447
B( 19-C , 26-H ) :   0.9359 B( 19-C , 27-H ) :   0.9376 B( 22-O , 28-H ) :   0.7961

FINAL SINGLE POINT ENERGY      -652.864216457726

DIPOLE MOMENT
-------------
                                X             Y             Z
Electronic contribution:     -4.07214      -2.38879      -1.86324
Nuclear contribution   :      5.05097       3.00174       2.50066
                        -----------------------------------------
Total Dipole Moment    :      0.97883       0.61295       0.63742
                        -----------------------------------------
Magnitude (a.u.)       :      1.31913
Magnitude (Debye)      :      3.35297

Rotational constants in cm-1:     0.056071     0.013739     0.013082
Rotational constants in MHz :  1680.957069   411.874779   392.178794

                             ****ORCA TERMINATED NORMALLY****
TOTAL RUN TIME: 0 days 1 hours 53 minutes 59 seconds 856 msec
