                         Program Version 4.2.0 -  RELEASE  -
|  1> # Test redundant internal optimization
|  2> #
|  3> ! RKS B3LYP  Opt TightSCF SmallPrint
|  4>
|  5> %basis
|  6>         Basis "6-31G"
|  7> end
|  8>
|  9> %geom
| 10> Constraints
| 11> { D 4  0  15  12  210.0   C } # D for Dihedral angle
| 12> { D 0  15  12  16  60.0   C } # D for Dihedral angle
| 13> { D 0  4  3  2   C } # D for Dihedral angle
| 14> { D 4  3  2  1   C } # D for Dihedral angle
| 15> { D 3  2  1  0   C } # D for Dihedral angle
| 16> { D 2  1  0  4   C } # D for Dihedral angle
| 17> { D 1  0  4  3   C } # D for Dihedral angle
| 18> { D 16  20  19  18   C } # D for Dihedral angle
| 19> { D 20  19  18  17   C } # D for Dihedral angle
| 20> { D 19  18  17  16   C } # D for Dihedral angle
| 21> { D 18  17  16  20   C } # D for Dihedral angle
| 22> { D 17  16  20  19   C } # D for Dihedral angle
| 23> { D 15  12  16  20   C } # D for Dihedral angle
| 24> end
| 25> end
| 26>
| 27>
| 28> #%pal
| 29> #nprocs 8
| 30> #end
| 31>
| 32> * xyz 0 1
| 33> C  -21.048   26.222   46.251
| 34> C  -20.361   27.558   45.944
| 35> C  -20.329   28.222   47.341
| 36> C  -20.110   27.022   48.296
| 37> O  -20.473   25.807   47.535
| 38> H  -20.833   25.428   45.533
| 39> H  -19.344   27.382   45.576
| 40> H  -20.898   28.157   45.201
| 41> H  -19.543   28.978   47.434
| 42> H  -21.289   28.710   47.548
| 43> H  -20.733   27.082   49.195
| 44> H  -19.064   26.913   48.597
| 45> C  -23.389   26.110   45.076
| 46> H  -24.457   26.268   45.269
| 47> H  -23.080   26.796   44.276
| 48> O  -22.586   26.394   46.375
| 49> C  -23.196   24.659   44.556
| 50> C  -23.761   23.634   45.545
| 51> C  -25.277   23.706   45.241
| 52> C  -25.317   23.956   43.712
| 53> O  -23.975   24.446   43.331
| 54> H  -22.147   24.508   44.298
| 55> H  -23.369   22.636   45.318
| 56> O  -23.427   23.965   47.025
| 57> H  -25.811   22.796   45.529
| 58> H  -25.729   24.546   45.782
| 59> H  -26.066   24.702   43.429
| 60> H  -25.499   23.039   43.144
| 61> H  -23.812   24.960   47.275
| 62> *
| 63>
| 64>                          ****END OF INPUT****
 Total Charge           Charge          ....    0
 Multiplicity           Mult            ....    1
 Number of Electrons    NEL             ....  102
FINAL SINGLE POINT ENERGY      -652.827549907852
FINAL SINGLE POINT ENERGY      -652.852663141828
FINAL SINGLE POINT ENERGY      -652.859148982339
FINAL SINGLE POINT ENERGY      -652.861452809871
FINAL SINGLE POINT ENERGY      -652.862368853954
FINAL SINGLE POINT ENERGY      -652.862727072505
FINAL SINGLE POINT ENERGY      -652.862817590606
FINAL SINGLE POINT ENERGY      -652.862829356220
                    ***********************HURRAY********************

CARTESIAN COORDINATES (ANGSTROEM)
---------------------------------
  C    -21.037387   26.188826   46.213742
  C    -20.322740   27.507918   45.932593
  C    -20.433734   28.227763   47.296444
  C    -20.318735   27.072348   48.310935
  O    -20.610672   25.832350   47.535160
  H    -20.783057   25.360040   45.552543
  H    -19.276141   27.305028   45.676742
  H    -20.777610   28.071194   45.112650
  H    -19.655442   28.983956   47.435592
  H    -21.409515   28.715240   47.376342
  H    -21.034441   27.142299   49.133233
  H    -19.309212   26.952949   48.713758
  C    -23.282616   26.113824   45.057230
  H    -24.304485   26.364679   45.350185
  H    -22.988869   26.782857   44.237652
  O    -22.488851   26.395068   46.261051
  C    -23.189491   24.660576   44.569342
  C    -23.755749   23.622705   45.552873
  C    -25.287277   23.762502   45.311125
  C    -25.380275   24.060930   43.801095
  O    -24.020664   24.517643   43.373846
  H    -22.171742   24.415911   44.255244
  H    -23.429870   22.624724   45.241937
  O    -23.356266   23.769063   46.928322
  H    -25.824404   22.854568   45.597959
  H    -25.675431   24.585645   45.920980
  H    -26.104792   24.843581   43.555045
  H    -25.606594   23.170815   43.207457
  H    -23.086939   24.696999   47.120920

 Multiplicity           Mult            ....    1
 Number of Electrons    NEL             ....  102
 Basis Dimension        Dim             ....  149

ORBITAL ENERGIES
----------------

  NO   OCC          E(Eh)            E(eV)
   0   2.0000     -19.159658      -521.3608
   1   2.0000     -19.149566      -521.0862
   2   2.0000     -19.143353      -520.9171
   3   2.0000     -19.116275      -520.1803
   4   2.0000     -10.289493      -279.9913
   5   2.0000     -10.239695      -278.6363
   6   2.0000     -10.236760      -278.5564
   7   2.0000     -10.232438      -278.4388
   8   2.0000     -10.230862      -278.3959
   9   2.0000     -10.229018      -278.3457
  10   2.0000     -10.193643      -277.3831
  11   2.0000     -10.191425      -277.3228
  12   2.0000     -10.181231      -277.0454
  13   2.0000      -1.063555       -28.9408
  14   2.0000      -1.026990       -27.9458
  15   2.0000      -1.004760       -27.3409
  16   2.0000      -0.993933       -27.0463
  17   2.0000      -0.793589       -21.5947
  18   2.0000      -0.774005       -21.0618
  19   2.0000      -0.767733       -20.8911
  20   2.0000      -0.739570       -20.1247
  21   2.0000      -0.681472       -18.5438
  22   2.0000      -0.610239       -16.6055
  23   2.0000      -0.605533       -16.4774
  24   2.0000      -0.597192       -16.2504
  25   2.0000      -0.572301       -15.5731
  26   2.0000      -0.529559       -14.4100
  27   2.0000      -0.524993       -14.2858
  28   2.0000      -0.497371       -13.5342
  29   2.0000      -0.488108       -13.2821
  30   2.0000      -0.469169       -12.7667
  31   2.0000      -0.461696       -12.5634
  32   2.0000      -0.451841       -12.2952
  33   2.0000      -0.429335       -11.6828
  34   2.0000      -0.425476       -11.5778
  35   2.0000      -0.417589       -11.3632
  36   2.0000      -0.406972       -11.0743
  37   2.0000      -0.393123       -10.6974
  38   2.0000      -0.381042       -10.3687
  39   2.0000      -0.373167       -10.1544
  40   2.0000      -0.363452        -9.8900
  41   2.0000      -0.361630        -9.8405
  42   2.0000      -0.350515        -9.5380
  43   2.0000      -0.337130        -9.1738
  44   2.0000      -0.323274        -8.7967
  45   2.0000      -0.319846        -8.7035
  46   2.0000      -0.294863        -8.0236
  47   2.0000      -0.274222        -7.4620
  48   2.0000      -0.266081        -7.2404
  49   2.0000      -0.248362        -6.7583
  50   2.0000      -0.240335        -6.5398
  51   0.0000       0.056988         1.5507
  52   0.0000       0.077235         2.1017
  53   0.0000       0.088764         2.4154
  54   0.0000       0.093494         2.5441
  55   0.0000       0.105089         2.8596

MULLIKEN ATOMIC CHARGES
-----------------------
   0 C :    0.279238
   1 C :   -0.259164
   2 C :   -0.299179
   3 C :   -0.006273
   4 O :   -0.499778
   5 H :    0.155726
   6 H :    0.149638
   7 H :    0.147443
   8 H :    0.145209
   9 H :    0.164169
  10 H :    0.158137
  11 H :    0.147517
  12 C :   -0.039036
  13 H :    0.163517
  14 H :    0.152506
  15 O :   -0.534127
  16 C :    0.042721
  17 C :    0.127077
  18 C :   -0.306878
  19 C :   -0.025862
  20 O :   -0.522166
  21 H :    0.155292
  22 H :    0.147694
  23 O :   -0.633197
  24 H :    0.153338
  25 H :    0.147432
  26 H :    0.143591
  27 H :    0.152726
  28 H :    0.392684
Sum of atomic charges:   -0.0000000

LOEWDIN ATOMIC CHARGES
----------------------
   0 C :    0.172682
   1 C :   -0.222953
   2 C :   -0.216232
   3 C :   -0.025180
   4 O :   -0.303632
   5 H :    0.103828
   6 H :    0.116130
   7 H :    0.117593
   8 H :    0.116138
   9 H :    0.120215
  10 H :    0.111456
  11 H :    0.105689
  12 C :   -0.052559
  13 H :    0.117851
  14 H :    0.105677
  15 O :   -0.339362
  16 C :    0.002999
  17 C :    0.042950
  18 C :   -0.238961
  19 C :   -0.033356
  20 O :   -0.323954
  21 H :    0.109291
  22 H :    0.107372
  23 O :   -0.426331
  24 H :    0.122511
  25 H :    0.111710
  26 H :    0.102496
  27 H :    0.107734
  28 H :    0.288198

  Mayer bond orders larger than 0.100000
B(  0-C ,  1-C ) :   0.9385 B(  0-C ,  4-O ) :   0.9369 B(  0-C ,  5-H ) :   0.9124
B(  0-C , 15-O ) :   0.7943 B(  1-C ,  2-C ) :   0.9521 B(  1-C ,  6-H ) :   0.9346
B(  1-C ,  7-H ) :   0.9369 B(  2-C ,  3-C ) :   0.9548 B(  2-C ,  8-H ) :   0.9445
B(  2-C ,  9-H ) :   0.9435 B(  3-C ,  4-O ) :   0.8281 B(  3-C , 10-H ) :   0.9345
B(  3-C , 11-H ) :   0.9395 B( 12-C , 13-H ) :   0.9372 B( 12-C , 14-H ) :   0.9234
B( 12-C , 15-O ) :   0.8142 B( 12-C , 16-C ) :   0.8827 B( 16-C , 17-C ) :   0.9040
B( 16-C , 20-O ) :   0.8462 B( 16-C , 21-H ) :   0.9266 B( 17-C , 18-C ) :   0.9008
B( 17-C , 22-H ) :   0.9333 B( 17-C , 23-O ) :   0.9374 B( 18-C , 19-C ) :   0.9394
B( 18-C , 24-H ) :   0.9441 B( 18-C , 25-H ) :   0.9426 B( 19-C , 20-O ) :   0.8305
B( 19-C , 26-H ) :   0.9338 B( 19-C , 27-H ) :   0.9381 B( 23-O , 28-H ) :   0.7263

FINAL SINGLE POINT ENERGY      -652.862830765508

DIPOLE MOMENT
-------------
                                X             Y             Z
Electronic contribution:      0.27433      -3.21633      -0.00808
Nuclear contribution   :     -0.14172       4.40612      -0.39866
                        -----------------------------------------
Total Dipole Moment    :      0.13261       1.18980      -0.40674
                        -----------------------------------------
Magnitude (a.u.)       :      1.26437
Magnitude (Debye)      :      3.21378

Rotational constants in cm-1:     0.063472     0.013728     0.012331
Rotational constants in MHz :  1902.830629   411.570047   369.664004

                             ****ORCA TERMINATED NORMALLY****
TOTAL RUN TIME: 0 days 0 hours 17 minutes 6 seconds 146 msec
