                         Program Version 4.2.0 -  RELEASE  -
|  1> # Test redundant internal optimization
|  2> #
|  3> ! RKS B3LYP  Opt TightSCF SmallPrint
|  4>
|  5> %basis
|  6>         Basis "6-31G"
|  7> end
|  8>
|  9> %geom
| 10> Constraints
| 11> { D 4  0  15  12  0.0   C } # D for Dihedral angle
| 12> { D 0  15  12  16  135.0   C } # D for Dihedral angle
| 13> { D 0  4  3  2   C } # D for Dihedral angle
| 14> { D 4  3  2  1   C } # D for Dihedral angle
| 15> { D 3  2  1  0   C } # D for Dihedral angle
| 16> { D 2  1  0  4   C } # D for Dihedral angle
| 17> { D 1  0  4  3   C } # D for Dihedral angle
| 18> { D 16  20  19  18   C } # D for Dihedral angle
| 19> { D 20  19  18  17   C } # D for Dihedral angle
| 20> { D 19  18  17  16   C } # D for Dihedral angle
| 21> { D 18  17  16  20   C } # D for Dihedral angle
| 22> { D 17  16  20  19   C } # D for Dihedral angle
| 23> { D 15  12  16  20   C } # D for Dihedral angle
| 24> end
| 25> end
| 26>
| 27>
| 28> #%pal
| 29> #nprocs 8
| 30> #end
| 31>
| 32> * xyz 0 1
| 33> C  -21.048   26.222   46.251
| 34> C  -20.361   27.558   45.944
| 35> C  -20.329   28.222   47.341
| 36> C  -20.110   27.022   48.296
| 37> O  -20.473   25.807   47.535
| 38> H  -20.833   25.428   45.533
| 39> H  -19.344   27.382   45.576
| 40> H  -20.898   28.157   45.201
| 41> H  -19.543   28.978   47.434
| 42> H  -21.289   28.710   47.548
| 43> H  -20.733   27.082   49.195
| 44> H  -19.064   26.913   48.597
| 45> C  -23.172   26.101   47.783
| 46> H  -23.674   25.125   47.770
| 47> H  -22.371   26.064   48.533
| 48> O  -22.586   26.394   46.375
| 49> C  -24.199   27.173   48.242
| 50> C  -24.668   26.916   49.678
| 51> C  -23.483   27.476   50.500
| 52> C  -23.011   28.687   49.657
| 53> O  -23.567   28.496   48.300
| 54> H  -25.004   27.235   47.507
| 55> O  -25.965   27.720   49.967
| 56> H  -24.865   25.858   49.883
| 57> H  -23.770   27.763   51.517
| 58> H  -22.688   26.725   50.576
| 59> H  -21.919   28.751   49.591
| 60> H  -23.400   29.636   50.034
| 61> H  -25.791   28.784   49.768
| 62> *
| 63>
| 64>                          ****END OF INPUT****
 Total Charge           Charge          ....    0
 Multiplicity           Mult            ....    1
 Number of Electrons    NEL             ....  102
FINAL SINGLE POINT ENERGY      -652.829367379882
FINAL SINGLE POINT ENERGY      -652.852514987967
FINAL SINGLE POINT ENERGY      -652.856242825366
FINAL SINGLE POINT ENERGY      -652.859653787475
FINAL SINGLE POINT ENERGY      -652.859932423702
FINAL SINGLE POINT ENERGY      -652.859987538088
FINAL SINGLE POINT ENERGY      -652.859991579875
                    ***********************HURRAY********************

CARTESIAN COORDINATES (ANGSTROEM)
---------------------------------
  C    -21.125045   26.253984   46.300897
  C    -20.497524   27.599056   45.933753
  C    -20.200443   28.199040   47.327168
  C    -19.818285   26.964740   48.171088
  O    -20.338624   25.785174   47.418402
  H    -21.032367   25.487953   45.526507
  H    -19.576597   27.421398   45.365828
  H    -21.175203   28.215740   45.339823
  H    -19.399662   28.944846   47.302408
  H    -21.111009   28.668686   47.707473
  H    -20.259700   26.965228   49.172668
  H    -18.737270   26.820733   48.258312
  C    -23.109146   26.073080   47.865297
  H    -23.662350   25.124948   47.794788
  H    -22.308911   25.935955   48.598905
  O    -22.550851   26.390888   46.567079
  C    -24.084161   27.174406   48.277975
  C    -24.740156   26.965493   49.651500
  C    -23.665554   27.550877   50.604811
  C    -23.078807   28.731439   49.794332
  O    -23.454793   28.499077   48.375151
  H    -24.843425   27.268959   47.495395
  O    -25.997142   27.688798   49.746075
  H    -24.988168   25.925707   49.869247
  H    -24.116728   27.864158   51.549204
  H    -22.902062   26.795303   50.821430
  H    -21.988668   28.798684   49.868738
  H    -23.506920   29.695060   50.085752
  H    -25.888430   28.575591   49.341995

 Multiplicity           Mult            ....    1
 Number of Electrons    NEL             ....  102
 Basis Dimension        Dim             ....  149

ORBITAL ENERGIES
----------------

  NO   OCC          E(Eh)            E(eV)
   0   2.0000     -19.149868      -521.0944
   1   2.0000     -19.149138      -521.0745
   2   2.0000     -19.140724      -520.8456
   3   2.0000     -19.133861      -520.6588
   4   2.0000     -10.276681      -279.6427
   5   2.0000     -10.245935      -278.8061
   6   2.0000     -10.236545      -278.5506
   7   2.0000     -10.234436      -278.4932
   8   2.0000     -10.231465      -278.4123
   9   2.0000     -10.229608      -278.3618
  10   2.0000     -10.193871      -277.3893
  11   2.0000     -10.181344      -277.0484
  12   2.0000     -10.180037      -277.0129
  13   2.0000      -1.052846       -28.6494
  14   2.0000      -1.039228       -28.2788
  15   2.0000      -1.009512       -27.4702
  16   2.0000      -0.990139       -26.9431
  17   2.0000      -0.790660       -21.5150
  18   2.0000      -0.783299       -21.3147
  19   2.0000      -0.770260       -20.9598
  20   2.0000      -0.734261       -19.9803
  21   2.0000      -0.674370       -18.3505
  22   2.0000      -0.608611       -16.5611
  23   2.0000      -0.602156       -16.3855
  24   2.0000      -0.593030       -16.1372
  25   2.0000      -0.576668       -15.6919
  26   2.0000      -0.527019       -14.3409
  27   2.0000      -0.513222       -13.9655
  28   2.0000      -0.496997       -13.5240
  29   2.0000      -0.489028       -13.3071
  30   2.0000      -0.479213       -13.0401
  31   2.0000      -0.460963       -12.5434
  32   2.0000      -0.449951       -12.2438
  33   2.0000      -0.447866       -12.1870
  34   2.0000      -0.418609       -11.3909
  35   2.0000      -0.409452       -11.1417
  36   2.0000      -0.400875       -10.9084
  37   2.0000      -0.398274       -10.8376
  38   2.0000      -0.376614       -10.2482
  39   2.0000      -0.368788       -10.0352
  40   2.0000      -0.365299        -9.9403
  41   2.0000      -0.355746        -9.6803
  42   2.0000      -0.344051        -9.3621
  43   2.0000      -0.336529        -9.1574
  44   2.0000      -0.328696        -8.9443
  45   2.0000      -0.310938        -8.4610
  46   2.0000      -0.301522        -8.2048
  47   2.0000      -0.275087        -7.4855
  48   2.0000      -0.264668        -7.2020
  49   2.0000      -0.257784        -7.0147
  50   2.0000      -0.238834        -6.4990
  51   0.0000       0.051320         1.3965
  52   0.0000       0.079769         2.1706
  53   0.0000       0.091940         2.5018
  54   0.0000       0.095735         2.6051
  55   0.0000       0.097849         2.6626

MULLIKEN ATOMIC CHARGES
-----------------------
   0 C :    0.304530
   1 C :   -0.255107
   2 C :   -0.328360
   3 C :   -0.025921
   4 O :   -0.514059
   5 H :    0.154497
   6 H :    0.140600
   7 H :    0.164614
   8 H :    0.140209
   9 H :    0.194814
  10 H :    0.135073
  11 H :    0.151412
  12 C :   -0.005878
  13 H :    0.134145
  14 H :    0.151041
  15 O :   -0.535035
  16 C :    0.074151
  17 C :    0.071998
  18 C :   -0.295842
  19 C :   -0.033696
  20 O :   -0.513881
  21 H :    0.171240
  22 O :   -0.600495
  23 H :    0.155536
  24 H :    0.165000
  25 H :    0.145793
  26 H :    0.139949
  27 H :    0.147710
  28 H :    0.365965
Sum of atomic charges:   -0.0000000

LOEWDIN ATOMIC CHARGES
----------------------
   0 C :    0.186505
   1 C :   -0.218318
   2 C :   -0.229166
   3 C :   -0.033606
   4 O :   -0.321188
   5 H :    0.102860
   6 H :    0.111369
   7 H :    0.128405
   8 H :    0.114198
   9 H :    0.131024
  10 H :    0.094973
  11 H :    0.106511
  12 C :   -0.038771
  13 H :    0.100536
  14 H :    0.106446
  15 O :   -0.336150
  16 C :    0.013138
  17 C :    0.035285
  18 C :   -0.240720
  19 C :   -0.041146
  20 O :   -0.324938
  21 H :    0.120772
  22 O :   -0.413042
  23 H :    0.117302
  24 H :    0.127940
  25 H :    0.113429
  26 H :    0.099001
  27 H :    0.103551
  28 H :    0.283800

  Mayer bond orders larger than 0.100000
B(  0-C ,  1-C ) :   0.9302 B(  0-C ,  4-O ) :   0.9110 B(  0-C ,  5-H ) :   0.9303
B(  0-C , 15-O ) :   0.8445 B(  1-C ,  2-C ) :   0.9541 B(  1-C ,  6-H ) :   0.9362
B(  1-C ,  7-H ) :   0.9350 B(  2-C ,  3-C ) :   0.9545 B(  2-C ,  8-H ) :   0.9443
B(  2-C ,  9-H ) :   0.9134 B(  3-C ,  4-O ) :   0.8283 B(  3-C , 10-H ) :   0.9306
B(  3-C , 11-H ) :   0.9405 B( 12-C , 13-H ) :   0.9188 B( 12-C , 14-H ) :   0.9091
B( 12-C , 15-O ) :   0.8444 B( 12-C , 16-C ) :   0.8958 B( 16-C , 17-C ) :   0.8965
B( 16-C , 20-O ) :   0.8507 B( 16-C , 21-H ) :   0.9231 B( 17-C , 18-C ) :   0.9112
B( 17-C , 22-O ) :   0.8938 B( 17-C , 23-H ) :   0.9328 B( 18-C , 19-C ) :   0.9433
B( 18-C , 24-H ) :   0.9370 B( 18-C , 25-H ) :   0.9333 B( 19-C , 20-O ) :   0.8488
B( 19-C , 26-H ) :   0.9279 B( 19-C , 27-H ) :   0.9385 B( 22-O , 28-H ) :   0.7940

FINAL SINGLE POINT ENERGY      -652.859990049053

DIPOLE MOMENT
-------------
                                X             Y             Z
Electronic contribution:     -3.91532      -2.21273      -2.61362
Nuclear contribution   :      4.72814       2.70465       3.24122
                        -----------------------------------------
Total Dipole Moment    :      0.81283       0.49192       0.62760
                        -----------------------------------------
Magnitude (a.u.)       :      1.13866
Magnitude (Debye)      :      2.89425

Rotational constants in cm-1:     0.052576     0.016062     0.014852
Rotational constants in MHz :  1576.182075   481.524800   445.258901

                             ****ORCA TERMINATED NORMALLY****
TOTAL RUN TIME: 0 days 1 hours 54 minutes 28 seconds 777 msec
