                         Program Version 4.2.0 -  RELEASE  -
|  1> # Test redundant internal optimization
|  2> #
|  3> ! RKS B3LYP  Opt TightSCF SmallPrint
|  4>
|  5> %basis
|  6>         Basis "6-31G"
|  7> end
|  8>
|  9> %geom
| 10> Constraints
| 11> { D 4  0  15  12  240.0   C } # D for Dihedral angle
| 12> { D 0  15  12  16  240.0   C } # D for Dihedral angle
| 13> { D 0  4  3  2   C } # D for Dihedral angle
| 14> { D 4  3  2  1   C } # D for Dihedral angle
| 15> { D 3  2  1  0   C } # D for Dihedral angle
| 16> { D 2  1  0  4   C } # D for Dihedral angle
| 17> { D 1  0  4  3   C } # D for Dihedral angle
| 18> { D 16  20  19  18   C } # D for Dihedral angle
| 19> { D 20  19  18  17   C } # D for Dihedral angle
| 20> { D 19  18  17  16   C } # D for Dihedral angle
| 21> { D 18  17  16  20   C } # D for Dihedral angle
| 22> { D 17  16  20  19   C } # D for Dihedral angle
| 23> { D 15  12  16  20   C } # D for Dihedral angle
| 24> end
| 25> end
| 26>
| 27>
| 28> #%pal
| 29> #nprocs 8
| 30> #end
| 31>
| 32> * xyz 0 1
| 33> C  -21.048   26.222   46.251
| 34> C  -20.361   27.558   45.944
| 35> C  -20.329   28.222   47.341
| 36> C  -20.110   27.022   48.296
| 37> O  -20.473   25.807   47.535
| 38> H  -20.833   25.428   45.533
| 39> H  -19.344   27.382   45.576
| 40> H  -20.898   28.157   45.201
| 41> H  -19.543   28.978   47.434
| 42> H  -21.289   28.710   47.548
| 43> H  -20.733   27.082   49.195
| 44> H  -19.064   26.913   48.597
| 45> C  -23.430   25.483   45.442
| 46> H  -22.757   24.852   44.848
| 47> H  -24.082   24.827   46.033
| 48> O  -22.586   26.394   46.375
| 49> C  -24.330   26.291   44.467
| 50> C  -25.239   27.265   45.227
| 51> C  -24.264   28.427   45.534
| 52> C  -23.351   28.461   44.283
| 53> O  -23.512   27.154   43.609
| 54> H  -24.860   25.597   43.812
| 55> H  -26.052   27.605   44.576
| 56> O  -25.861   26.647   46.508
| 57> H  -24.778   29.379   45.701
| 58> H  -23.679   28.200   46.433
| 59> H  -22.296   28.606   44.537
| 60> H  -23.652   29.231   43.566
| 61> H  -25.064   26.300   47.174
| 62> *
| 63>
| 64>                          ****END OF INPUT****
 Total Charge           Charge          ....    0
 Multiplicity           Mult            ....    1
 Number of Electrons    NEL             ....  102
FINAL SINGLE POINT ENERGY      -652.829400896544
FINAL SINGLE POINT ENERGY      -652.851991326889
FINAL SINGLE POINT ENERGY      -652.857923560879
FINAL SINGLE POINT ENERGY      -652.861238393119
FINAL SINGLE POINT ENERGY      -652.861537143496
FINAL SINGLE POINT ENERGY      -652.861587240065
FINAL SINGLE POINT ENERGY      -652.861590887008
                    ***********************HURRAY********************

CARTESIAN COORDINATES (ANGSTROEM)
---------------------------------
  C    -21.003392   26.161995   46.241064
  C    -20.322978   27.505168   45.979042
  C    -20.312924   28.141356   47.390889
  C    -20.099884   26.920288   48.313496
  O    -20.452053   25.732294   47.499174
  H    -20.785734   25.380730   45.507468
  H    -19.299051   27.321499   45.632241
  H    -20.843612   28.097746   45.227576
  H    -19.528254   28.894633   47.508875
  H    -21.278245   28.616160   47.593719
  H    -20.734731   26.936502   49.202917
  H    -19.056092   26.796071   48.616860
  C    -23.292134   25.511436   45.494641
  H    -22.662555   24.849898   44.885474
  H    -23.928477   24.883274   46.130576
  O    -22.444485   26.324462   46.360081
  C    -24.196001   26.313863   44.562487
  C    -25.222586   27.226964   45.256188
  C    -24.402556   28.537606   45.452784
  C    -23.515711   28.577255   44.191118
  O    -23.510198   27.199302   43.630626
  H    -24.710849   25.569338   43.940909
  H    -26.078242   27.391452   44.598142
  O    -25.786403   26.684165   46.472258
  H    -25.044101   29.417950   45.549269
  H    -23.791703   28.434842   46.354543
  H    -22.489625   28.886274   44.400677
  H    -23.927287   29.227782   43.412711
  H    -25.098135   26.659693   47.170195

 Multiplicity           Mult            ....    1
 Number of Electrons    NEL             ....  102
 Basis Dimension        Dim             ....  149

ORBITAL ENERGIES
----------------

  NO   OCC          E(Eh)            E(eV)
   0   2.0000     -19.148850      -521.0667
   1   2.0000     -19.141636      -520.8704
   2   2.0000     -19.140749      -520.8463
   3   2.0000     -19.140438      -520.8378
   4   2.0000     -10.284060      -279.8435
   5   2.0000     -10.238596      -278.6064
   6   2.0000     -10.233841      -278.4770
   7   2.0000     -10.232103      -278.4297
   8   2.0000     -10.228132      -278.3216
   9   2.0000     -10.227797      -278.3125
  10   2.0000     -10.190298      -277.2921
  11   2.0000     -10.188211      -277.2353
  12   2.0000     -10.184296      -277.1288
  13   2.0000      -1.055790       -28.7295
  14   2.0000      -1.029962       -28.0267
  15   2.0000      -1.012433       -27.5497
  16   2.0000      -0.997178       -27.1346
  17   2.0000      -0.790496       -21.5105
  18   2.0000      -0.775606       -21.1053
  19   2.0000      -0.769370       -20.9356
  20   2.0000      -0.734241       -19.9797
  21   2.0000      -0.681608       -18.5475
  22   2.0000      -0.605669       -16.4811
  23   2.0000      -0.602567       -16.3967
  24   2.0000      -0.597645       -16.2627
  25   2.0000      -0.577575       -15.7166
  26   2.0000      -0.527333       -14.3495
  27   2.0000      -0.509589       -13.8666
  28   2.0000      -0.498991       -13.5782
  29   2.0000      -0.492233       -13.3944
  30   2.0000      -0.470013       -12.7897
  31   2.0000      -0.463664       -12.6169
  32   2.0000      -0.444356       -12.0915
  33   2.0000      -0.435535       -11.8515
  34   2.0000      -0.424199       -11.5430
  35   2.0000      -0.419544       -11.4164
  36   2.0000      -0.407226       -11.0812
  37   2.0000      -0.394054       -10.7228
  38   2.0000      -0.385276       -10.4839
  39   2.0000      -0.367695       -10.0055
  40   2.0000      -0.360697        -9.8151
  41   2.0000      -0.354293        -9.6408
  42   2.0000      -0.350212        -9.5298
  43   2.0000      -0.330354        -8.9894
  44   2.0000      -0.319276        -8.6879
  45   2.0000      -0.314082        -8.5466
  46   2.0000      -0.307820        -8.3762
  47   2.0000      -0.274545        -7.4708
  48   2.0000      -0.264908        -7.2085
  49   2.0000      -0.256303        -6.9743
  50   2.0000      -0.238925        -6.5015
  51   0.0000       0.063168         1.7189
  52   0.0000       0.070469         1.9176
  53   0.0000       0.085863         2.3364
  54   0.0000       0.095080         2.5873
  55   0.0000       0.103139         2.8065

MULLIKEN ATOMIC CHARGES
-----------------------
   0 C :    0.293380
   1 C :   -0.267737
   2 C :   -0.305409
   3 C :   -0.000148
   4 O :   -0.501000
   5 H :    0.148506
   6 H :    0.147784
   7 H :    0.160662
   8 H :    0.144237
   9 H :    0.156059
  10 H :    0.149469
  11 H :    0.143242
  12 C :   -0.029808
  13 H :    0.141473
  14 H :    0.152905
  15 O :   -0.535750
  16 C :    0.099794
  17 C :    0.086324
  18 C :   -0.313125
  19 C :   -0.016990
  20 O :   -0.524528
  21 H :    0.149302
  22 H :    0.163903
  23 O :   -0.604819
  24 H :    0.146390
  25 H :    0.161684
  26 H :    0.140091
  27 H :    0.146590
  28 H :    0.367517
Sum of atomic charges:   -0.0000000

LOEWDIN ATOMIC CHARGES
----------------------
   0 C :    0.181046
   1 C :   -0.221412
   2 C :   -0.217690
   3 C :   -0.026533
   4 O :   -0.314741
   5 H :    0.101883
   6 H :    0.115902
   7 H :    0.120332
   8 H :    0.115062
   9 H :    0.114146
  10 H :    0.106693
  11 H :    0.102984
  12 C :   -0.044540
  13 H :    0.105199
  14 H :    0.110664
  15 O :   -0.344602
  16 C :    0.010783
  17 C :    0.036919
  18 C :   -0.241654
  19 C :   -0.027664
  20 O :   -0.325508
  21 H :    0.114772
  22 H :    0.116653
  23 O :   -0.408856
  24 H :    0.117034
  25 H :    0.118116
  26 H :    0.097473
  27 H :    0.102771
  28 H :    0.284766

  Mayer bond orders larger than 0.100000
B(  0-C ,  1-C ) :   0.9424 B(  0-C ,  4-O ) :   0.9313 B(  0-C ,  5-H ) :   0.9157
B(  0-C , 15-O ) :   0.8339 B(  1-C ,  2-C ) :   0.9571 B(  1-C ,  6-H ) :   0.9354
B(  1-C ,  7-H ) :   0.9234 B(  2-C ,  3-C ) :   0.9532 B(  2-C ,  8-H ) :   0.9449
B(  2-C ,  9-H ) :   0.9437 B(  3-C ,  4-O ) :   0.8390 B(  3-C , 10-H ) :   0.9351
B(  3-C , 11-H ) :   0.9396 B( 12-C , 13-H ) :   0.9227 B( 12-C , 14-H ) :   0.9127
B( 12-C , 15-O ) :   0.8485 B( 12-C , 16-C ) :   0.9001 B( 16-C , 17-C ) :   0.8869
B( 16-C , 20-O ) :   0.8729 B( 16-C , 21-H ) :   0.9227 B( 17-C , 18-C ) :   0.9289
B( 17-C , 22-H ) :   0.9362 B( 17-C , 23-O ) :   0.9049 B( 18-C , 19-C ) :   0.9463
B( 18-C , 24-H ) :   0.9413 B( 18-C , 25-H ) :   0.9283 B( 19-C , 20-O ) :   0.8451
B( 19-C , 26-H ) :   0.9174 B( 19-C , 27-H ) :   0.9371 B( 23-O , 28-H ) :   0.7906

FINAL SINGLE POINT ENERGY      -652.861589655295

DIPOLE MOMENT
-------------
                                X             Y             Z
Electronic contribution:     -2.62237      -4.51326      -0.83169
Nuclear contribution   :      3.28746       5.38412       0.89367
                        -----------------------------------------
Total Dipole Moment    :      0.66509       0.87086       0.06199
                        -----------------------------------------
Magnitude (a.u.)       :      1.09753
Magnitude (Debye)      :      2.78970

Rotational constants in cm-1:     0.045506     0.016244     0.015271
Rotational constants in MHz :  1364.228655   486.993906   457.827471

                             ****ORCA TERMINATED NORMALLY****
TOTAL RUN TIME: 0 days 0 hours 55 minutes 3 seconds 101 msec
