                         Program Version 4.2.0 -  RELEASE  -
|  1> # Test redundant internal optimization
|  2> #
|  3> ! RKS B3LYP  Opt TightSCF SmallPrint
|  4>
|  5> %basis
|  6>         Basis "6-31G"
|  7> end
|  8>
|  9> %geom
| 10> Constraints
| 11> { D 4  0  15  12  195.0   C } # D for Dihedral angle
| 12> { D 0  15  12  16  150.0   C } # D for Dihedral angle
| 13> { D 0  4  3  2   C } # D for Dihedral angle
| 14> { D 4  3  2  1   C } # D for Dihedral angle
| 15> { D 3  2  1  0   C } # D for Dihedral angle
| 16> { D 2  1  0  4   C } # D for Dihedral angle
| 17> { D 1  0  4  3   C } # D for Dihedral angle
| 18> { D 16  20  19  18   C } # D for Dihedral angle
| 19> { D 20  19  18  17   C } # D for Dihedral angle
| 20> { D 19  18  17  16   C } # D for Dihedral angle
| 21> { D 18  17  16  20   C } # D for Dihedral angle
| 22> { D 17  16  20  19   C } # D for Dihedral angle
| 23> { D 15  12  16  20   C } # D for Dihedral angle
| 24> end
| 25> end
| 26>
| 27>
| 28> #%pal
| 29> #nprocs 8
| 30> #end
| 31>
| 32> * xyz 0 1
| 33> C  -21.048   26.222   46.251
| 34> C  -20.361   27.558   45.944
| 35> C  -20.329   28.222   47.341
| 36> C  -20.110   27.022   48.296
| 37> O  -20.473   25.807   47.535
| 38> H  -20.833   25.428   45.533
| 39> H  -19.344   27.382   45.576
| 40> H  -20.898   28.157   45.201
| 41> H  -19.543   28.978   47.434
| 42> H  -21.289   28.710   47.548
| 43> H  -20.733   27.082   49.195
| 44> H  -19.064   26.913   48.597
| 45> C  -23.353   26.472   45.026
| 46> H  -23.409   27.519   44.702
| 47> H  -22.826   25.901   44.251
| 48> O  -22.586   26.394   46.375
| 49> C  -24.799   25.913   45.124
| 50> C  -25.484   25.898   43.754
| 51> C  -24.873   24.631   43.110
| 52> C  -24.714   23.668   44.314
| 53> O  -24.777   24.504   45.532
| 54> H  -25.343   26.461   45.896
| 55> O  -27.020   25.739   43.927
| 56> H  -25.295   26.805   43.169
| 57> H  -25.502   24.210   42.320
| 58> H  -23.896   24.865   42.672
| 59> H  -23.759   23.131   44.297
| 60> H  -25.528   22.942   44.378
| 61> H  -27.233   24.836   44.510
| 62> *
| 63>
| 64>                          ****END OF INPUT****
 Total Charge           Charge          ....    0
 Multiplicity           Mult            ....    1
 Number of Electrons    NEL             ....  102
FINAL SINGLE POINT ENERGY      -652.829292642930
FINAL SINGLE POINT ENERGY      -652.852883167084
FINAL SINGLE POINT ENERGY      -652.856732326532
FINAL SINGLE POINT ENERGY      -652.857476378274
FINAL SINGLE POINT ENERGY      -652.857585388879
FINAL SINGLE POINT ENERGY      -652.857596195681
                    ***********************HURRAY********************

CARTESIAN COORDINATES (ANGSTROEM)
---------------------------------
  C    -21.078857   26.230345   46.155230
  C    -20.381470   27.570879   45.935022
  C    -20.461519   28.210578   47.342859
  C    -20.310736   26.994373   48.280096
  O    -20.613358   25.803999   47.441180
  H    -20.829465   25.445223   45.432184
  H    -19.338989   27.394737   45.643861
  H    -20.855108   28.181914   45.160726
  H    -19.686168   28.964764   47.506598
  H    -21.439402   28.682080   47.478825
  H    -21.004659   27.009370   49.123734
  H    -19.289311   26.864106   48.649515
  C    -23.205812   26.475572   44.951107
  H    -23.279060   27.524199   44.624567
  H    -22.645701   25.919025   44.183009
  O    -22.524320   26.381174   46.225584
  C    -24.607893   25.890857   45.112608
  C    -25.439768   25.885953   43.823352
  C    -24.935645   24.595402   43.125075
  C    -24.672369   23.637213   44.313828
  O    -24.579643   24.486840   45.526314
  H    -25.119033   26.433443   45.913765
  O    -26.860197   25.814164   44.123718
  H    -25.320281   26.781848   43.212125
  H    -25.687434   24.217538   42.427367
  H    -24.017069   24.798986   42.562928
  H    -23.743556   23.068806   44.204177
  H    -25.494272   22.932713   44.475234
  H    -27.000905   25.173898   44.853414

 Multiplicity           Mult            ....    1
 Number of Electrons    NEL             ....  102
 Basis Dimension        Dim             ....  149

ORBITAL ENERGIES
----------------

  NO   OCC          E(Eh)            E(eV)
   0   2.0000     -19.140112      -520.8289
   1   2.0000     -19.139327      -520.8076
   2   2.0000     -19.139266      -520.8059
   3   2.0000     -19.138549      -520.7864
   4   2.0000     -10.278832      -279.7012
   5   2.0000     -10.244464      -278.7660
   6   2.0000     -10.236262      -278.5429
   7   2.0000     -10.234552      -278.4963
   8   2.0000     -10.230297      -278.3805
   9   2.0000     -10.223296      -278.1900
  10   2.0000     -10.191515      -277.3252
  11   2.0000     -10.187003      -277.2024
  12   2.0000     -10.186061      -277.1768
  13   2.0000      -1.053465       -28.6662
  14   2.0000      -1.036383       -28.2014
  15   2.0000      -1.006854       -27.3979
  16   2.0000      -0.993503       -27.0346
  17   2.0000      -0.788155       -21.4468
  18   2.0000      -0.783566       -21.3219
  19   2.0000      -0.768595       -20.9145
  20   2.0000      -0.730710       -19.8836
  21   2.0000      -0.676299       -18.4030
  22   2.0000      -0.605078       -16.4650
  23   2.0000      -0.600942       -16.3525
  24   2.0000      -0.590699       -16.0737
  25   2.0000      -0.585310       -15.9271
  26   2.0000      -0.526745       -14.3334
  27   2.0000      -0.510559       -13.8930
  28   2.0000      -0.495644       -13.4872
  29   2.0000      -0.490341       -13.3429
  30   2.0000      -0.476849       -12.9757
  31   2.0000      -0.460755       -12.5378
  32   2.0000      -0.453171       -12.3314
  33   2.0000      -0.446095       -12.1389
  34   2.0000      -0.422933       -11.5086
  35   2.0000      -0.411950       -11.2097
  36   2.0000      -0.398455       -10.8425
  37   2.0000      -0.394469       -10.7341
  38   2.0000      -0.374557       -10.1922
  39   2.0000      -0.372158       -10.1269
  40   2.0000      -0.363287        -9.8855
  41   2.0000      -0.357055        -9.7159
  42   2.0000      -0.351724        -9.5709
  43   2.0000      -0.333644        -9.0789
  44   2.0000      -0.312374        -8.5001
  45   2.0000      -0.306655        -8.3445
  46   2.0000      -0.304046        -8.2735
  47   2.0000      -0.272010        -7.4018
  48   2.0000      -0.259746        -7.0680
  49   2.0000      -0.251450        -6.8423
  50   2.0000      -0.242918        -6.6101
  51   0.0000       0.062938         1.7126
  52   0.0000       0.081089         2.2066
  53   0.0000       0.085147         2.3170
  54   0.0000       0.096667         2.6304
  55   0.0000       0.108099         2.9415

MULLIKEN ATOMIC CHARGES
-----------------------
   0 C :    0.303491
   1 C :   -0.273599
   2 C :   -0.298288
   3 C :   -0.001220
   4 O :   -0.500233
   5 H :    0.137778
   6 H :    0.144777
   7 H :    0.140378
   8 H :    0.141877
   9 H :    0.159958
  10 H :    0.157046
  11 H :    0.141021
  12 C :   -0.007012
  13 H :    0.128190
  14 H :    0.120184
  15 O :   -0.497136
  16 C :    0.069553
  17 C :    0.077452
  18 C :   -0.301543
  19 C :   -0.030225
  20 O :   -0.503522
  21 H :    0.173424
  22 O :   -0.601189
  23 H :    0.148563
  24 H :    0.165421
  25 H :    0.141821
  26 H :    0.148196
  27 H :    0.148370
  28 H :    0.366468
Sum of atomic charges:   -0.0000000

LOEWDIN ATOMIC CHARGES
----------------------
   0 C :    0.180931
   1 C :   -0.231988
   2 C :   -0.216779
   3 C :   -0.024643
   4 O :   -0.300718
   5 H :    0.095178
   6 H :    0.113902
   7 H :    0.112394
   8 H :    0.114243
   9 H :    0.118055
  10 H :    0.110869
  11 H :    0.102115
  12 C :   -0.043876
  13 H :    0.093580
  14 H :    0.090484
  15 O :   -0.321957
  16 C :    0.016800
  17 C :    0.035260
  18 C :   -0.243333
  19 C :   -0.039048
  20 O :   -0.315982
  21 H :    0.122494
  22 O :   -0.413741
  23 H :    0.113757
  24 H :    0.127601
  25 H :    0.111166
  26 H :    0.105141
  27 H :    0.103607
  28 H :    0.284487

  Mayer bond orders larger than 0.100000
B(  0-C ,  1-C ) :   0.9262 B(  0-C ,  4-O ) :   0.9421 B(  0-C ,  5-H ) :   0.9182
B(  0-C , 15-O ) :   0.8340 B(  1-C ,  2-C ) :   0.9536 B(  1-C ,  6-H ) :   0.9342
B(  1-C ,  7-H ) :   0.9363 B(  2-C ,  3-C ) :   0.9555 B(  2-C ,  8-H ) :   0.9451
B(  2-C ,  9-H ) :   0.9444 B(  3-C ,  4-O ) :   0.8358 B(  3-C , 10-H ) :   0.9340
B(  3-C , 11-H ) :   0.9397 B( 12-C , 13-H ) :   0.9091 B( 12-C , 14-H ) :   0.9129
B( 12-C , 15-O ) :   0.8520 B( 12-C , 16-C ) :   0.8966 B( 16-C , 17-C ) :   0.8995
B( 16-C , 20-O ) :   0.8707 B( 16-C , 21-H ) :   0.9225 B( 17-C , 18-C ) :   0.9107
B( 17-C , 22-O ) :   0.8949 B( 17-C , 23-H ) :   0.9331 B( 18-C , 19-C ) :   0.9402
B( 18-C , 24-H ) :   0.9371 B( 18-C , 25-H ) :   0.9339 B( 19-C , 20-O ) :   0.8529
B( 19-C , 26-H ) :   0.9339 B( 19-C , 27-H ) :   0.9372 B( 22-O , 28-H ) :   0.7929

FINAL SINGLE POINT ENERGY      -652.857598458077

DIPOLE MOMENT
-------------
                                X             Y             Z
Electronic contribution:     -3.45350      -2.78612       2.42514
Nuclear contribution   :      4.21714       3.39185      -3.40894
                        -----------------------------------------
Total Dipole Moment    :      0.76363       0.60573      -0.98380
                        -----------------------------------------
Magnitude (a.u.)       :      1.38488
Magnitude (Debye)      :      3.52010

Rotational constants in cm-1:     0.067529     0.011274     0.010837
Rotational constants in MHz :  2024.469385   337.972411   324.879929

                             ****ORCA TERMINATED NORMALLY****
TOTAL RUN TIME: 0 days 0 hours 18 minutes 7 seconds 28 msec
