                         Program Version 4.2.1 -  RELEASE  -
|  1> # Test redundant internal optimization
|  2> #
|  3> ! RKS B3LYP  Opt TightSCF SmallPrint
|  4>
|  5> %basis
|  6>         Basis "6-31G"
|  7> end
|  8>
|  9> %geom
| 10> Constraints
| 11> { D 4  0  19  14  240.0   C } # D for Dihedral angle
| 12> { D 0  19  14  12  330.0   C } # D for Dihedral angle
| 13> { D 0  4  3  2   C } # D for Dihedral angle
| 14> { D 4  3  2  1   C } # D for Dihedral angle
| 15> { D 3  2  1  0   C } # D for Dihedral angle
| 16> { D 2  1  0  4   C } # D for Dihedral angle
| 17> { D 1  0  4  3   C } # D for Dihedral angle
| 18> { D 14  15  16  17   C } # D for Dihedral angle
| 19> { D 15  16  17  12   C } # D for Dihedral angle
| 20> { D 16  17  12  14   C } # D for Dihedral angle
| 21> { D 17  12  14  15   C } # D for Dihedral angle
| 22> { D 12  14  15  16   C } # D for Dihedral angle
| 23> end
| 24> end
| 25>
| 26>
| 27> #%pal
| 28> #nprocs 8
| 29> #end
| 30>
| 31> * xyz 0 1
| 32> C  -21.048   26.222   46.251
| 33> C  -20.361   27.558   45.944
| 34> C  -20.329   28.222   47.341
| 35> C  -20.110   27.022   48.296
| 36> O  -20.473   25.807   47.535
| 37> H  -20.833   25.428   45.533
| 38> H  -19.344   27.382   45.576
| 39> H  -20.898   28.157   45.201
| 40> H  -19.543   28.978   47.434
| 41> H  -21.289   28.710   47.548
| 42> H  -20.733   27.082   49.195
| 43> H  -19.064   26.913   48.597
| 44> C  -22.443   25.241   44.216
| 45> H  -23.095   24.846   43.421
| 46> C  -23.235   25.530   45.496
| 47> C  -23.378   24.115   46.103
| 48> C  -22.041   23.431   45.722
| 49> O  -21.460   24.230   44.621
| 50> H  -21.882   26.093   43.828
| 51> O  -22.472   26.381   46.366
| 52> H  -24.201   26.010   45.304
| 53> H  -23.546   24.132   47.184
| 54> H  -24.225   23.590   45.642
| 55> H  -22.178   22.399   45.383
| 56> H  -21.318   23.441   46.544
| 57> *
| 58>
| 59>                          ****END OF INPUT****
 Total Charge           Charge          ....    0
 Multiplicity           Mult            ....    1
 Number of Electrons    NEL             ....   86
FINAL SINGLE POINT ENERGY      -538.414084485166
FINAL SINGLE POINT ENERGY      -538.430508530016
FINAL SINGLE POINT ENERGY      -538.432535332764
FINAL SINGLE POINT ENERGY      -538.432941504420
FINAL SINGLE POINT ENERGY      -538.433001231747
FINAL SINGLE POINT ENERGY      -538.433024476096
FINAL SINGLE POINT ENERGY      -538.433026184976
                    ***********************HURRAY********************

CARTESIAN COORDINATES (ANGSTROEM)
---------------------------------
  C    -20.813931   26.260262   46.242900
  C    -20.263552   27.667688   46.009349
  C    -20.401926   28.302650   47.414728
  C    -20.115992   27.112822   48.358462
  O    -20.292988   25.890814   47.537613
  H    -20.499699   25.492521   45.536115
  H    -19.209888   27.601519   45.712646
  H    -20.816594   28.207066   45.237170
  H    -19.711253   29.136297   47.572269
  H    -21.424672   28.665381   47.552862
  H    -20.800398   27.068256   49.209950
  H    -19.084357   27.100117   48.723808
  C    -22.534898   25.098952   44.121071
  H    -23.337282   24.792787   43.434623
  C    -23.121167   25.501108   45.478111
  C    -23.370591   24.123236   46.126960
  C    -22.196492   23.258627   45.612091
  O    -21.647930   23.969146   44.422443
  H    -21.932834   25.875180   43.643605
  O    -22.269774   26.343483   46.312518
  H    -24.043184   26.079282   45.374441
  H    -23.390144   24.210678   47.215443
  H    -24.332934   23.722232   45.787656
  H    -22.504377   22.254436   45.305979
  H    -21.382143   23.185460   46.338188

 Multiplicity           Mult            ....    1
 Number of Electrons    NEL             ....   86
 Basis Dimension        Dim             ....  127

ORBITAL ENERGIES
----------------

  NO   OCC          E(Eh)            E(eV)
   0   2.0000     -19.139174      -520.8034
   1   2.0000     -19.134080      -520.6648
   2   2.0000     -19.131051      -520.5824
   3   2.0000     -10.266795      -279.3737
   4   2.0000     -10.241775      -278.6929
   5   2.0000     -10.230570      -278.3880
   6   2.0000     -10.222904      -278.1794
   7   2.0000     -10.217871      -278.0424
   8   2.0000     -10.183019      -277.0940
   9   2.0000     -10.178823      -276.9798
  10   2.0000     -10.177951      -276.9561
  11   2.0000      -1.044617       -28.4255
  12   2.0000      -1.017852       -27.6972
  13   2.0000      -0.983446       -26.7609
  14   2.0000      -0.787074       -21.4174
  15   2.0000      -0.772389       -21.0178
  16   2.0000      -0.740866       -20.1600
  17   2.0000      -0.719410       -19.5761
  18   2.0000      -0.616038       -16.7633
  19   2.0000      -0.599597       -16.3159
  20   2.0000      -0.590674       -16.0731
  21   2.0000      -0.563468       -15.3327
  22   2.0000      -0.522299       -14.2125
  23   2.0000      -0.501694       -13.6518
  24   2.0000      -0.477082       -12.9821
  25   2.0000      -0.476111       -12.9556
  26   2.0000      -0.450672       -12.2634
  27   2.0000      -0.446166       -12.1408
  28   2.0000      -0.419588       -11.4176
  29   2.0000      -0.413249       -11.2451
  30   2.0000      -0.398071       -10.8321
  31   2.0000      -0.389707       -10.6045
  32   2.0000      -0.371248       -10.1022
  33   2.0000      -0.368422       -10.0253
  34   2.0000      -0.355200        -9.6655
  35   2.0000      -0.349348        -9.5062
  36   2.0000      -0.341593        -9.2952
  37   2.0000      -0.317377        -8.6363
  38   2.0000      -0.308701        -8.4002
  39   2.0000      -0.296018        -8.0550
  40   2.0000      -0.261180        -7.1071
  41   2.0000      -0.242116        -6.5883
  42   2.0000      -0.237802        -6.4709
  43   0.0000       0.078808         2.1445
  44   0.0000       0.098659         2.6846
  45   0.0000       0.101816         2.7705
  46   0.0000       0.107040         2.9127
  47   0.0000       0.119604         3.2546

MULLIKEN ATOMIC CHARGES
-----------------------
   0 C :    0.259061
   1 C :   -0.250823
   2 C :   -0.298247
   3 C :   -0.000186
   4 O :   -0.512634
   5 H :    0.190580
   6 H :    0.142096
   7 H :    0.141258
   8 H :    0.136974
   9 H :    0.160368
  10 H :    0.146413
  11 H :    0.138296
  12 C :   -0.044762
  13 H :    0.139920
  14 C :    0.085326
  15 C :   -0.283070
  16 C :   -0.030425
  17 O :   -0.520253
  18 H :    0.158760
  19 O :   -0.530249
  20 H :    0.147312
  21 H :    0.173674
  22 H :    0.134644
  23 H :    0.143242
  24 H :    0.172723
Sum of atomic charges:    0.0000000

LOEWDIN ATOMIC CHARGES
----------------------
   0 C :    0.163437
   1 C :   -0.220139
   2 C :   -0.216732
   3 C :   -0.027570
   4 O :   -0.319911
   5 H :    0.121133
   6 H :    0.111818
   7 H :    0.115083
   8 H :    0.111743
   9 H :    0.118331
  10 H :    0.104874
  11 H :    0.100267
  12 C :   -0.056823
  13 H :    0.102270
  14 C :    0.043653
  15 C :   -0.234091
  16 C :   -0.037596
  17 O :   -0.336201
  18 H :    0.114351
  19 O :   -0.332789
  20 H :    0.112305
  21 H :    0.132622
  22 H :    0.110322
  23 H :    0.103754
  24 H :    0.115889

  Mayer bond orders larger than 0.100000
B(  0-C ,  1-C ) :   0.9418 B(  0-C ,  4-O ) :   0.9086 B(  0-C ,  5-H ) :   0.8869
B(  0-C , 19-O ) :   0.8195 B(  1-C ,  2-C ) :   0.9558 B(  1-C ,  6-H ) :   0.9379
B(  1-C ,  7-H ) :   0.9396 B(  2-C ,  3-C ) :   0.9552 B(  2-C ,  8-H ) :   0.9458
B(  2-C ,  9-H ) :   0.9438 B(  3-C ,  4-O ) :   0.8414 B(  3-C , 10-H ) :   0.9354
B(  3-C , 11-H ) :   0.9401 B( 12-C , 13-H ) :   0.9155 B( 12-C , 14-C ) :   0.9242
B( 12-C , 17-O ) :   0.8529 B( 12-C , 18-H ) :   0.9304 B( 14-C , 15-C ) :   0.9223
B( 14-C , 19-O ) :   0.8790 B( 14-C , 20-H ) :   0.9346 B( 15-C , 16-C ) :   0.9507
B( 15-C , 21-H ) :   0.9344 B( 15-C , 22-H ) :   0.9386 B( 16-C , 17-O ) :   0.8328
B( 16-C , 23-H ) :   0.9360 B( 16-C , 24-H ) :   0.9302

FINAL SINGLE POINT ENERGY      -538.433027322214

DIPOLE MOMENT
-------------
                                X             Y             Z
Electronic contribution:      0.24806      -2.01110      -0.67262
Nuclear contribution   :     -0.81775       2.52294       0.53542
                        -----------------------------------------
Total Dipole Moment    :     -0.56970       0.51184      -0.13720
                        -----------------------------------------
Magnitude (a.u.)       :      0.77805
Magnitude (Debye)      :      1.97764

Rotational constants in cm-1:     0.077200     0.023146     0.022037
Rotational constants in MHz :  2314.388272   693.895594   660.666133

                             ****ORCA TERMINATED NORMALLY****
TOTAL RUN TIME: 0 days 0 hours 8 minutes 36 seconds 591 msec
