                         Program Version 4.2.0 -  RELEASE  -
|  1> # Test redundant internal optimization
|  2> #
|  3> ! RKS B3LYP  Opt TightSCF SmallPrint
|  4>
|  5> %basis
|  6>         Basis "6-31G"
|  7> end
|  8>
|  9> %geom
| 10> Constraints
| 11> { D 4  0  15  12  270.0   C } # D for Dihedral angle
| 12> { D 0  15  12  16  45.0   C } # D for Dihedral angle
| 13> { D 0  4  3  2   C } # D for Dihedral angle
| 14> { D 4  3  2  1   C } # D for Dihedral angle
| 15> { D 3  2  1  0   C } # D for Dihedral angle
| 16> { D 2  1  0  4   C } # D for Dihedral angle
| 17> { D 1  0  4  3   C } # D for Dihedral angle
| 18> { D 16  20  19  18   C } # D for Dihedral angle
| 19> { D 20  19  18  17   C } # D for Dihedral angle
| 20> { D 19  18  17  16   C } # D for Dihedral angle
| 21> { D 18  17  16  20   C } # D for Dihedral angle
| 22> { D 17  16  20  19   C } # D for Dihedral angle
| 23> { D 15  12  16  20   C } # D for Dihedral angle
| 24> end
| 25> end
| 26>
| 27>
| 28> #%pal
| 29> #nprocs 8
| 30> #end
| 31>
| 32> * xyz 0 1
| 33> C  -21.048   26.222   46.251
| 34> C  -20.361   27.558   45.944
| 35> C  -20.329   28.222   47.341
| 36> C  -20.110   27.022   48.296
| 37> O  -20.473   25.807   47.535
| 38> H  -20.833   25.428   45.533
| 39> H  -19.344   27.382   45.576
| 40> H  -20.898   28.157   45.201
| 41> H  -19.543   28.978   47.434
| 42> H  -21.289   28.710   47.548
| 43> H  -20.733   27.082   49.195
| 44> H  -19.064   26.913   48.597
| 45> C  -23.420   25.119   46.072
| 46> H  -24.446   25.264   46.432
| 47> H  -23.458   24.933   44.991
| 48> O  -22.586   26.394   46.375
| 49> C  -22.839   23.847   46.750
| 50> C  -22.905   23.951   48.278
| 51> C  -24.389   23.608   48.552
| 52> C  -24.710   22.549   47.468
| 53> O  -23.663   22.676   46.432
| 54> H  -21.841   23.653   46.353
| 55> H  -22.245   23.205   48.735
| 56> O  -22.502   25.353   48.812
| 57> H  -24.557   23.231   49.566
| 58> H  -25.012   24.500   48.418
| 59> H  -25.691   22.705   47.007
| 60> H  -24.660   21.527   47.854
| 61> H  -23.151   26.116   48.368
| 62> *
| 63>
| 64>                          ****END OF INPUT****
 Total Charge           Charge          ....    0
 Multiplicity           Mult            ....    1
 Number of Electrons    NEL             ....  102
FINAL SINGLE POINT ENERGY      -652.820858274254
FINAL SINGLE POINT ENERGY      -652.847532337512
FINAL SINGLE POINT ENERGY      -652.854600801875
FINAL SINGLE POINT ENERGY      -652.857340185945
FINAL SINGLE POINT ENERGY      -652.858492214509
FINAL SINGLE POINT ENERGY      -652.859220394637
FINAL SINGLE POINT ENERGY      -652.859912073201
FINAL SINGLE POINT ENERGY      -652.861483437585
FINAL SINGLE POINT ENERGY      -652.860302086351
FINAL SINGLE POINT ENERGY      -652.861849164008
FINAL SINGLE POINT ENERGY      -652.862711085021
FINAL SINGLE POINT ENERGY      -652.864470397460
FINAL SINGLE POINT ENERGY      -652.866140567047
FINAL SINGLE POINT ENERGY      -652.867616308420
FINAL SINGLE POINT ENERGY      -652.868516952690
FINAL SINGLE POINT ENERGY      -652.868706326641
FINAL SINGLE POINT ENERGY      -652.868852644262
FINAL SINGLE POINT ENERGY      -652.868805736801
FINAL SINGLE POINT ENERGY      -652.868837529082
                    ***********************HURRAY********************

CARTESIAN COORDINATES (ANGSTROEM)
---------------------------------
  C    -20.984305   26.212531   46.270358
  C    -20.438852   27.595362   45.891027
  C    -20.534486   28.349990   47.240699
  C    -20.221348   27.256122   48.285871
  O    -20.421284   25.949155   47.589285
  H    -20.643075   25.392434   45.630405
  H    -19.397648   27.501109   45.563706
  H    -21.029238   28.052349   45.095631
  H    -19.837321   29.190486   47.305360
  H    -21.551318   28.727786   47.377139
  H    -20.886542   27.287298   49.151970
  H    -19.180621   27.266827   48.619185
  C    -23.217483   25.083926   46.090337
  H    -24.220293   25.397690   46.386549
  H    -23.234059   24.854392   45.016474
  O    -22.412607   26.297083   46.295187
  C    -22.847083   23.775023   46.817058
  C    -22.938382   23.756757   48.352813
  C    -24.475239   23.644459   48.577723
  C    -24.930945   22.754298   47.402018
  O    -23.843520   22.791649   46.388410
  H    -21.879882   23.401421   46.465546
  H    -22.451252   22.831380   48.699341
  O    -22.424456   24.893940   49.052159
  H    -24.715232   23.214625   49.553464
  H    -24.900910   24.651769   48.534283
  H    -25.859117   23.098237   46.934722
  H    -25.051237   21.706106   47.691425
  H    -21.572265   25.177796   48.635856

 Multiplicity           Mult            ....    1
 Number of Electrons    NEL             ....  102
 Basis Dimension        Dim             ....  149

ORBITAL ENERGIES
----------------

  NO   OCC          E(Eh)            E(eV)
   0   2.0000     -19.165643      -521.5236
   1   2.0000     -19.150163      -521.1024
   2   2.0000     -19.138074      -520.7735
   3   2.0000     -19.105901      -519.8980
   4   2.0000     -10.291504      -280.0461
   5   2.0000     -10.236781      -278.5570
   6   2.0000     -10.230014      -278.3728
   7   2.0000     -10.228709      -278.3373
   8   2.0000     -10.226009      -278.2638
   9   2.0000     -10.222785      -278.1761
  10   2.0000     -10.193649      -277.3833
  11   2.0000     -10.192746      -277.3587
  12   2.0000     -10.174918      -276.8736
  13   2.0000      -1.066489       -29.0206
  14   2.0000      -1.022504       -27.8237
  15   2.0000      -1.005552       -27.3625
  16   2.0000      -0.989183       -26.9170
  17   2.0000      -0.796748       -21.6806
  18   2.0000      -0.765817       -20.8389
  19   2.0000      -0.763088       -20.7647
  20   2.0000      -0.737987       -20.0817
  21   2.0000      -0.674462       -18.3530
  22   2.0000      -0.608485       -16.5577
  23   2.0000      -0.604333       -16.4447
  24   2.0000      -0.589769       -16.0484
  25   2.0000      -0.572397       -15.5757
  26   2.0000      -0.527823       -14.3628
  27   2.0000      -0.507370       -13.8062
  28   2.0000      -0.499466       -13.5912
  29   2.0000      -0.492589       -13.4040
  30   2.0000      -0.468168       -12.7395
  31   2.0000      -0.453411       -12.3379
  32   2.0000      -0.445397       -12.1199
  33   2.0000      -0.436787       -11.8856
  34   2.0000      -0.426330       -11.6010
  35   2.0000      -0.413929       -11.2636
  36   2.0000      -0.403372       -10.9763
  37   2.0000      -0.379719       -10.3327
  38   2.0000      -0.371257       -10.1024
  39   2.0000      -0.367037        -9.9876
  40   2.0000      -0.363028        -9.8785
  41   2.0000      -0.357027        -9.7152
  42   2.0000      -0.349038        -9.4978
  43   2.0000      -0.341494        -9.2925
  44   2.0000      -0.327741        -8.9183
  45   2.0000      -0.312862        -8.5134
  46   2.0000      -0.295773        -8.0484
  47   2.0000      -0.271437        -7.3862
  48   2.0000      -0.265138        -7.2148
  49   2.0000      -0.246068        -6.6959
  50   2.0000      -0.234445        -6.3796
  51   0.0000       0.064360         1.7513
  52   0.0000       0.085586         2.3289
  53   0.0000       0.094519         2.5720
  54   0.0000       0.098371         2.6768
  55   0.0000       0.104468         2.8427

MULLIKEN ATOMIC CHARGES
-----------------------
   0 C :    0.285599
   1 C :   -0.253635
   2 C :   -0.296328
   3 C :   -0.018251
   4 O :   -0.545573
   5 H :    0.149887
   6 H :    0.147290
   7 H :    0.163436
   8 H :    0.145981
   9 H :    0.172872
  10 H :    0.171603
  11 H :    0.152381
  12 C :   -0.003669
  13 H :    0.156417
  14 H :    0.150712
  15 O :   -0.518647
  16 C :    0.035673
  17 C :    0.131809
  18 C :   -0.299560
  19 C :   -0.017756
  20 O :   -0.524474
  21 H :    0.145335
  22 H :    0.125413
  23 O :   -0.657325
  24 H :    0.146702
  25 H :    0.159821
  26 H :    0.139456
  27 H :    0.147821
  28 H :    0.407008
Sum of atomic charges:   -0.0000000

LOEWDIN ATOMIC CHARGES
----------------------
   0 C :    0.172448
   1 C :   -0.211556
   2 C :   -0.212507
   3 C :   -0.028253
   4 O :   -0.332601
   5 H :    0.099140
   6 H :    0.114944
   7 H :    0.127782
   8 H :    0.116505
   9 H :    0.124782
  10 H :    0.117662
  11 H :    0.108101
  12 C :   -0.043323
  13 H :    0.117396
  14 H :    0.104895
  15 O :   -0.319567
  16 C :    0.003041
  17 C :    0.043141
  18 C :   -0.225478
  19 C :   -0.031717
  20 O :   -0.322710
  21 H :    0.105248
  22 H :    0.089756
  23 O :   -0.445564
  24 H :    0.119594
  25 H :    0.118339
  26 H :    0.100411
  27 H :    0.104818
  28 H :    0.285272

  Mayer bond orders larger than 0.100000
B(  0-C ,  1-C ) :   0.9482 B(  0-C ,  4-O ) :   0.8387 B(  0-C ,  5-H ) :   0.9183
B(  0-C , 15-O ) :   0.8953 B(  1-C ,  2-C ) :   0.9566 B(  1-C ,  6-H ) :   0.9391
B(  1-C ,  7-H ) :   0.9373 B(  2-C ,  3-C ) :   0.9576 B(  2-C ,  8-H ) :   0.9448
B(  2-C ,  9-H ) :   0.9418 B(  3-C ,  4-O ) :   0.7975 B(  3-C , 10-H ) :   0.9310
B(  3-C , 11-H ) :   0.9405 B(  4-O , 28-H ) :   0.1179 B( 12-C , 13-H ) :   0.9404
B( 12-C , 14-H ) :   0.9234 B( 12-C , 15-O ) :   0.8211 B( 12-C , 16-C ) :   0.8834
B( 16-C , 17-C ) :   0.8939 B( 16-C , 20-O ) :   0.8363 B( 16-C , 21-H ) :   0.9305
B( 17-C , 18-C ) :   0.9263 B( 17-C , 22-H ) :   0.9177 B( 17-C , 23-O ) :   0.9498
B( 18-C , 19-C ) :   0.9419 B( 18-C , 24-H ) :   0.9456 B( 18-C , 25-H ) :   0.9381
B( 19-C , 20-O ) :   0.8311 B( 19-C , 26-H ) :   0.9353 B( 19-C , 27-H ) :   0.9384
B( 23-O , 28-H ) :   0.6855

FINAL SINGLE POINT ENERGY      -652.868837055946

DIPOLE MOMENT
-------------
                                X             Y             Z
Electronic contribution:      0.41527      -2.74176      -0.80221
Nuclear contribution   :      0.10257       3.43618       0.46503
                        -----------------------------------------
Total Dipole Moment    :      0.51784       0.69442      -0.33719
                        -----------------------------------------
Magnitude (a.u.)       :      0.92956
Magnitude (Debye)      :      2.36275

Rotational constants in cm-1:     0.060050     0.015564     0.013759
Rotational constants in MHz :  1800.268666   466.599200   412.485031

                             ****ORCA TERMINATED NORMALLY****
TOTAL RUN TIME: 0 days 2 hours 19 minutes 43 seconds 116 msec
