                         Program Version 4.2.0 -  RELEASE  -
|  1> # Test redundant internal optimization
|  2> #
|  3> ! RKS B3LYP  Opt TightSCF SmallPrint
|  4>
|  5> %basis
|  6>         Basis "6-31G"
|  7> end
|  8>
|  9> %geom
| 10> Constraints
| 11> { D 4  0  15  12  225.0   C } # D for Dihedral angle
| 12> { D 0  15  12  16  120.0   C } # D for Dihedral angle
| 13> { D 0  4  3  2   C } # D for Dihedral angle
| 14> { D 4  3  2  1   C } # D for Dihedral angle
| 15> { D 3  2  1  0   C } # D for Dihedral angle
| 16> { D 2  1  0  4   C } # D for Dihedral angle
| 17> { D 1  0  4  3   C } # D for Dihedral angle
| 18> { D 16  20  19  18   C } # D for Dihedral angle
| 19> { D 20  19  18  17   C } # D for Dihedral angle
| 20> { D 19  18  17  16   C } # D for Dihedral angle
| 21> { D 18  17  16  20   C } # D for Dihedral angle
| 22> { D 17  16  20  19   C } # D for Dihedral angle
| 23> { D 15  12  16  20   C } # D for Dihedral angle
| 24> end
| 25> end
| 26>
| 27>
| 28> #%pal
| 29> #nprocs 8
| 30> #end
| 31>
| 32> * xyz 0 1
| 33> C  -21.048   26.222   46.251
| 34> C  -20.361   27.558   45.944
| 35> C  -20.329   28.222   47.341
| 36> C  -20.110   27.022   48.296
| 37> O  -20.473   25.807   47.535
| 38> H  -20.833   25.428   45.533
| 39> H  -19.344   27.382   45.576
| 40> H  -20.898   28.157   45.201
| 41> H  -19.543   28.978   47.434
| 42> H  -21.289   28.710   47.548
| 43> H  -20.733   27.082   49.195
| 44> H  -19.064   26.913   48.597
| 45> C  -23.415   25.773   45.218
| 46> H  -23.989   26.564   44.718
| 47> H  -22.752   25.309   44.476
| 48> O  -22.586   26.394   46.375
| 49> C  -24.410   24.685   45.709
| 50> C  -25.126   24.014   44.532
| 51> C  -24.048   23.022   44.032
| 52> C  -23.346   22.579   45.340
| 53> O  -23.688   23.589   46.364
| 54> H  -25.077   25.120   46.455
| 55> O  -26.381   23.250   45.036
| 56> H  -25.441   24.723   43.759
| 57> H  -24.472   22.178   43.479
| 58> H  -23.342   23.537   43.370
| 59> H  -22.256   22.530   45.235
| 60> H  -23.711   21.614   45.703
| 61> H  -26.089   22.533   45.811
| 62> *
| 63>
| 64>                          ****END OF INPUT****
 Total Charge           Charge          ....    0
 Multiplicity           Mult            ....    1
 Number of Electrons    NEL             ....  102
FINAL SINGLE POINT ENERGY      -652.830776812241
FINAL SINGLE POINT ENERGY      -652.853339149623
FINAL SINGLE POINT ENERGY      -652.857127803677
FINAL SINGLE POINT ENERGY      -652.857800914701
FINAL SINGLE POINT ENERGY      -652.857877053118
FINAL SINGLE POINT ENERGY      -652.857886015626
FINAL SINGLE POINT ENERGY      -652.857887991399
                    ***********************HURRAY********************

CARTESIAN COORDINATES (ANGSTROEM)
---------------------------------
  C    -21.036266   26.201874   46.165734
  C    -20.406521   27.577633   45.955190
  C    -20.481872   28.186461   47.376679
  C    -20.252522   26.960534   48.286664
  O    -20.519240   25.772916   47.435219
  H    -20.764245   25.439335   45.428893
  H    -19.363085   27.458223   45.638497
  H    -20.935896   28.169903   45.204509
  H    -19.740146   28.974044   47.538659
  H    -21.478445   28.606631   47.542573
  H    -20.925408   26.930009   49.146886
  H    -19.217565   26.873375   48.631082
  C    -23.269638   25.782008   45.148967
  H    -23.851099   26.597219   44.698415
  H    -22.610521   25.365066   44.371996
  O    -22.481378   26.325520   46.235562
  C    -24.218691   24.709399   45.682123
  C    -25.081190   24.031707   44.608786
  C    -24.108287   22.958878   44.052186
  C    -23.306214   22.530343   45.306066
  O    -23.495425   23.603279   46.313152
  H    -24.836760   25.155656   46.467349
  O    -26.264573   23.427921   45.199494
  H    -25.455905   24.711951   43.842158
  H    -24.664009   22.135717   43.596873
  H    -23.455304   23.397027   43.288544
  H    -22.236771   22.411154   45.108213
  H    -23.683182   21.603054   45.747778
  H    -26.013841   22.998162   46.044752

 Multiplicity           Mult            ....    1
 Number of Electrons    NEL             ....  102
 Basis Dimension        Dim             ....  149

ORBITAL ENERGIES
----------------

  NO   OCC          E(Eh)            E(eV)
   0   2.0000     -19.139716      -520.8182
   1   2.0000     -19.138353      -520.7811
   2   2.0000     -19.137266      -520.7515
   3   2.0000     -19.133925      -520.6606
   4   2.0000     -10.277147      -279.6554
   5   2.0000     -10.243143      -278.7301
   6   2.0000     -10.235885      -278.5326
   7   2.0000     -10.231656      -278.4175
   8   2.0000     -10.229259      -278.3523
   9   2.0000     -10.219779      -278.0943
  10   2.0000     -10.190399      -277.2949
  11   2.0000     -10.182379      -277.0766
  12   2.0000     -10.182131      -277.0699
  13   2.0000      -1.049325       -28.5536
  14   2.0000      -1.034942       -28.1622
  15   2.0000      -1.005615       -27.3642
  16   2.0000      -0.990806       -26.9612
  17   2.0000      -0.787026       -21.4161
  18   2.0000      -0.780501       -21.2385
  19   2.0000      -0.766538       -20.8585
  20   2.0000      -0.728593       -19.8260
  21   2.0000      -0.674673       -18.3588
  22   2.0000      -0.603738       -16.4285
  23   2.0000      -0.596329       -16.2269
  24   2.0000      -0.591024       -16.0826
  25   2.0000      -0.584386       -15.9020
  26   2.0000      -0.525728       -14.3058
  27   2.0000      -0.509505       -13.8643
  28   2.0000      -0.495095       -13.4722
  29   2.0000      -0.485883       -13.2215
  30   2.0000      -0.474079       -12.9004
  31   2.0000      -0.457618       -12.4524
  32   2.0000      -0.452191       -12.3047
  33   2.0000      -0.441807       -12.0222
  34   2.0000      -0.422970       -11.5096
  35   2.0000      -0.410022       -11.1573
  36   2.0000      -0.395291       -10.7564
  37   2.0000      -0.393649       -10.7117
  38   2.0000      -0.373423       -10.1614
  39   2.0000      -0.369896       -10.0654
  40   2.0000      -0.357712        -9.7338
  41   2.0000      -0.353416        -9.6169
  42   2.0000      -0.347965        -9.4686
  43   2.0000      -0.333261        -9.0685
  44   2.0000      -0.308579        -8.3969
  45   2.0000      -0.306357        -8.3364
  46   2.0000      -0.303996        -8.2722
  47   2.0000      -0.271056        -7.3758
  48   2.0000      -0.263480        -7.1697
  49   2.0000      -0.249379        -6.7859
  50   2.0000      -0.235813        -6.4168
  51   0.0000       0.062332         1.6961
  52   0.0000       0.084340         2.2950
  53   0.0000       0.085817         2.3352
  54   0.0000       0.100158         2.7254
  55   0.0000       0.109038         2.9671

MULLIKEN ATOMIC CHARGES
-----------------------
   0 C :    0.296804
   1 C :   -0.256178
   2 C :   -0.300498
   3 C :   -0.000601
   4 O :   -0.494794
   5 H :    0.134790
   6 H :    0.140203
   7 H :    0.141195
   8 H :    0.139646
   9 H :    0.162129
  10 H :    0.154591
  11 H :    0.138777
  12 C :   -0.010076
  13 H :    0.137984
  14 H :    0.119273
  15 O :   -0.507937
  16 C :    0.078072
  17 C :    0.074422
  18 C :   -0.295864
  19 C :   -0.029081
  20 O :   -0.505679
  21 H :    0.170445
  22 O :   -0.601943
  23 H :    0.149265
  24 H :    0.164121
  25 H :    0.138543
  26 H :    0.148932
  27 H :    0.146245
  28 H :    0.367214
Sum of atomic charges:   -0.0000000

LOEWDIN ATOMIC CHARGES
----------------------
   0 C :    0.181792
   1 C :   -0.225992
   2 C :   -0.217027
   3 C :   -0.025835
   4 O :   -0.304815
   5 H :    0.095242
   6 H :    0.111121
   7 H :    0.114850
   8 H :    0.113080
   9 H :    0.119192
  10 H :    0.109415
  11 H :    0.100809
  12 C :   -0.037925
  13 H :    0.102907
  14 H :    0.091097
  15 O :   -0.325892
  16 C :    0.011566
  17 C :    0.033687
  18 C :   -0.241441
  19 C :   -0.038221
  20 O :   -0.318220
  21 H :    0.121308
  22 O :   -0.414467
  23 H :    0.113958
  24 H :    0.127344
  25 H :    0.109726
  26 H :    0.105047
  27 H :    0.103047
  28 H :    0.284649

  Mayer bond orders larger than 0.100000
B(  0-C ,  1-C ) :   0.9358 B(  0-C ,  4-O ) :   0.9401 B(  0-C ,  5-H ) :   0.9184
B(  0-C , 15-O ) :   0.8340 B(  1-C ,  2-C ) :   0.9571 B(  1-C ,  6-H ) :   0.9355
B(  1-C ,  7-H ) :   0.9394 B(  2-C ,  3-C ) :   0.9540 B(  2-C ,  8-H ) :   0.9454
B(  2-C ,  9-H ) :   0.9436 B(  3-C ,  4-O ) :   0.8393 B(  3-C , 10-H ) :   0.9342
B(  3-C , 11-H ) :   0.9397 B( 12-C , 13-H ) :   0.9214 B( 12-C , 14-H ) :   0.9189
B( 12-C , 15-O ) :   0.8608 B( 12-C , 16-C ) :   0.8882 B( 16-C , 17-C ) :   0.8955
B( 16-C , 20-O ) :   0.8695 B( 16-C , 21-H ) :   0.9241 B( 17-C , 18-C ) :   0.9096
B( 17-C , 22-O ) :   0.8928 B( 17-C , 23-H ) :   0.9332 B( 18-C , 19-C ) :   0.9396
B( 18-C , 24-H ) :   0.9375 B( 18-C , 25-H ) :   0.9350 B( 19-C , 20-O ) :   0.8526
B( 19-C , 26-H ) :   0.9334 B( 19-C , 27-H ) :   0.9383 B( 22-O , 28-H ) :   0.7928

FINAL SINGLE POINT ENERGY      -652.857888138027

DIPOLE MOMENT
-------------
                                X             Y             Z
Electronic contribution:     -3.16250      -2.68355       2.33532
Nuclear contribution   :      3.82796       3.16777      -3.31023
                        -----------------------------------------
Total Dipole Moment    :      0.66546       0.48422      -0.97490
                        -----------------------------------------
Magnitude (a.u.)       :      1.27583
Magnitude (Debye)      :      3.24291

Rotational constants in cm-1:     0.067490     0.011811     0.011383
Rotational constants in MHz :  2023.305593   354.076885   341.262765

                             ****ORCA TERMINATED NORMALLY****
TOTAL RUN TIME: 0 days 1 hours 47 minutes 39 seconds 936 msec
