                         Program Version 4.2.0 -  RELEASE  -
|  1> # Test redundant internal optimization
|  2> #
|  3> ! RKS B3LYP  Opt TightSCF SmallPrint
|  4>
|  5> %basis
|  6>         Basis "6-31G"
|  7> end
|  8>
|  9> %geom
| 10> Constraints
| 11> { D 4  0  15  12  330.0   C } # D for Dihedral angle
| 12> { D 0  15  12  16  165.0   C } # D for Dihedral angle
| 13> { D 0  4  3  2   C } # D for Dihedral angle
| 14> { D 4  3  2  1   C } # D for Dihedral angle
| 15> { D 3  2  1  0   C } # D for Dihedral angle
| 16> { D 2  1  0  4   C } # D for Dihedral angle
| 17> { D 1  0  4  3   C } # D for Dihedral angle
| 18> { D 16  20  19  18   C } # D for Dihedral angle
| 19> { D 20  19  18  17   C } # D for Dihedral angle
| 20> { D 19  18  17  16   C } # D for Dihedral angle
| 21> { D 18  17  16  20   C } # D for Dihedral angle
| 22> { D 17  16  20  19   C } # D for Dihedral angle
| 23> { D 15  12  16  20   C } # D for Dihedral angle
| 24> end
| 25> end
| 26>
| 27>
| 28> #%pal
| 29> #nprocs 8
| 30> #end
| 31>
| 32> * xyz 0 1
| 33> C  -21.048   26.222   46.251
| 34> C  -20.361   27.558   45.944
| 35> C  -20.329   28.222   47.341
| 36> C  -20.110   27.022   48.296
| 37> O  -20.473   25.807   47.535
| 38> H  -20.833   25.428   45.533
| 39> H  -19.344   27.382   45.576
| 40> H  -20.898   28.157   45.201
| 41> H  -19.543   28.978   47.434
| 42> H  -21.289   28.710   47.548
| 43> H  -20.733   27.082   49.195
| 44> H  -19.064   26.913   48.597
| 45> C  -23.271   25.476   47.424
| 46> H  -23.319   24.452   47.032
| 47> H  -22.691   25.459   48.356
| 48> O  -22.586   26.394   46.375
| 49> C  -24.714   25.934   47.773
| 50> C  -24.736   27.393   48.244
| 51> C  -24.653   28.157   46.901
| 52> C  -25.465   27.260   45.934
| 53> O  -25.557   25.929   46.573
| 54> H  -25.154   25.225   48.476
| 55> O  -26.076   27.699   48.966
| 56> H  -23.913   27.639   48.924
| 57> H  -25.055   29.174   46.965
| 58> H  -23.608   28.231   46.574
| 59> H  -24.986   27.157   44.955
| 60> H  -26.488   27.620   45.792
| 61> H  -26.915   27.461   48.303
| 62> *
| 63>
| 64>                          ****END OF INPUT****
 Total Charge           Charge          ....    0
 Multiplicity           Mult            ....    1
 Number of Electrons    NEL             ....  102
FINAL SINGLE POINT ENERGY      -652.837589819533
FINAL SINGLE POINT ENERGY      -652.859872113843
FINAL SINGLE POINT ENERGY      -652.864246662624
FINAL SINGLE POINT ENERGY      -652.865343742955
FINAL SINGLE POINT ENERGY      -652.865466503519
FINAL SINGLE POINT ENERGY      -652.865486477119
                    ***********************HURRAY********************

CARTESIAN COORDINATES (ANGSTROEM)
---------------------------------
  C    -21.083260   26.144523   46.330977
  C    -20.466931   27.494927   45.965874
  C    -20.390093   28.189779   47.344339
  C    -20.077623   27.026026   48.310650
  O    -20.439956   25.782048   47.572787
  H    -20.866897   25.325445   45.637664
  H    -19.466945   27.331293   45.549269
  H    -21.070377   28.041205   45.237686
  H    -19.624045   28.970657   47.378061
  H    -21.353473   28.648432   47.586936
  H    -20.653412   27.066194   49.239201
  H    -19.014059   26.943423   48.550442
  C    -23.207228   25.480048   47.433747
  H    -23.276672   24.445597   47.070434
  H    -22.639228   25.472932   48.370311
  O    -22.525689   26.296973   46.434864
  C    -24.619048   26.001396   47.682786
  C    -24.751886   27.439534   48.206936
  C    -24.705475   28.263400   46.891533
  C    -25.439660   27.344742   45.882398
  O    -25.442351   25.987315   46.473519
  H    -25.091691   25.306859   48.388631
  O    -26.009373   27.611671   48.920878
  H    -23.977857   27.719160   48.922305
  H    -25.197006   29.231340   47.023314
  H    -23.669392   28.412039   46.586646
  H    -24.932672   27.303494   44.914808
  H    -26.485066   27.631818   45.727532
  H    -26.734635   27.228730   48.383473

 Multiplicity           Mult            ....    1
 Number of Electrons    NEL             ....  102
 Basis Dimension        Dim             ....  149

ORBITAL ENERGIES
----------------

  NO   OCC          E(Eh)            E(eV)
   0   2.0000     -19.153494      -521.1931
   1   2.0000     -19.146238      -520.9956
   2   2.0000     -19.134642      -520.6801
   3   2.0000     -19.134339      -520.6718
   4   2.0000     -10.284043      -279.8430
   5   2.0000     -10.236082      -278.5380
   6   2.0000     -10.235805      -278.5304
   7   2.0000     -10.231741      -278.4198
   8   2.0000     -10.227041      -278.2919
   9   2.0000     -10.220585      -278.1162
  10   2.0000     -10.194975      -277.4194
  11   2.0000     -10.192355      -277.3481
  12   2.0000     -10.175850      -276.8990
  13   2.0000      -1.060503       -28.8578
  14   2.0000      -1.030867       -28.0513
  15   2.0000      -1.002998       -27.2930
  16   2.0000      -0.994322       -27.0569
  17   2.0000      -0.796847       -21.6833
  18   2.0000      -0.775979       -21.1155
  19   2.0000      -0.763251       -20.7691
  20   2.0000      -0.735847       -20.0234
  21   2.0000      -0.671929       -18.2841
  22   2.0000      -0.608717       -16.5640
  23   2.0000      -0.598318       -16.2811
  24   2.0000      -0.595552       -16.2058
  25   2.0000      -0.571865       -15.5612
  26   2.0000      -0.524642       -14.2762
  27   2.0000      -0.511154       -13.9092
  28   2.0000      -0.500955       -13.6317
  29   2.0000      -0.490199       -13.3390
  30   2.0000      -0.470799       -12.8111
  31   2.0000      -0.461980       -12.5711
  32   2.0000      -0.448334       -12.1998
  33   2.0000      -0.430018       -11.7014
  34   2.0000      -0.422094       -11.4858
  35   2.0000      -0.413895       -11.2626
  36   2.0000      -0.404726       -11.0132
  37   2.0000      -0.385052       -10.4778
  38   2.0000      -0.380422       -10.3518
  39   2.0000      -0.366265        -9.9666
  40   2.0000      -0.365272        -9.9396
  41   2.0000      -0.356748        -9.7076
  42   2.0000      -0.351111        -9.5542
  43   2.0000      -0.343621        -9.3504
  44   2.0000      -0.322499        -8.7757
  45   2.0000      -0.305961        -8.3256
  46   2.0000      -0.300690        -8.1822
  47   2.0000      -0.269271        -7.3272
  48   2.0000      -0.265988        -7.2379
  49   2.0000      -0.257787        -7.0147
  50   2.0000      -0.239556        -6.5187
  51   0.0000       0.057964         1.5773
  52   0.0000       0.076886         2.0922
  53   0.0000       0.094085         2.5602
  54   0.0000       0.098278         2.6743
  55   0.0000       0.104659         2.8479

MULLIKEN ATOMIC CHARGES
-----------------------
   0 C :    0.304898
   1 C :   -0.262911
   2 C :   -0.307742
   3 C :   -0.014700
   4 O :   -0.512366
   5 H :    0.153613
   6 H :    0.148886
   7 H :    0.158750
   8 H :    0.148640
   9 H :    0.158130
  10 H :    0.146052
  11 H :    0.152128
  12 C :    0.009979
  13 H :    0.145107
  14 H :    0.150136
  15 O :   -0.541272
  16 C :    0.058125
  17 C :    0.072966
  18 C :   -0.288760
  19 C :   -0.018684
  20 O :   -0.525027
  21 H :    0.157446
  22 O :   -0.603222
  23 H :    0.143524
  24 H :    0.145883
  25 H :    0.169928
  26 H :    0.151369
  27 H :    0.135309
  28 H :    0.363813
Sum of atomic charges:   -0.0000000

LOEWDIN ATOMIC CHARGES
----------------------
   0 C :    0.180338
   1 C :   -0.215581
   2 C :   -0.218214
   3 C :   -0.030789
   4 O :   -0.321456
   5 H :    0.100332
   6 H :    0.116392
   7 H :    0.124408
   8 H :    0.117579
   9 H :    0.114158
  10 H :    0.103457
  11 H :    0.107725
  12 C :   -0.037879
  13 H :    0.104805
  14 H :    0.107711
  15 O :   -0.338325
  16 C :    0.013220
  17 C :    0.038734
  18 C :   -0.242446
  19 C :   -0.032874
  20 O :   -0.329681
  21 H :    0.116436
  22 O :   -0.417747
  23 H :    0.111427
  24 H :    0.117255
  25 H :    0.124337
  26 H :    0.108214
  27 H :    0.095906
  28 H :    0.282557

  Mayer bond orders larger than 0.100000
B(  0-C ,  1-C ) :   0.9441 B(  0-C ,  4-O ) :   0.9023 B(  0-C ,  5-H ) :   0.9226
B(  0-C , 15-O ) :   0.8438 B(  1-C ,  2-C ) :   0.9532 B(  1-C ,  6-H ) :   0.9371
B(  1-C ,  7-H ) :   0.9355 B(  2-C ,  3-C ) :   0.9542 B(  2-C ,  8-H ) :   0.9442
B(  2-C ,  9-H ) :   0.9414 B(  3-C ,  4-O ) :   0.8309 B(  3-C , 10-H ) :   0.9340
B(  3-C , 11-H ) :   0.9403 B( 12-C , 13-H ) :   0.9197 B( 12-C , 14-H ) :   0.9024
B( 12-C , 15-O ) :   0.8295 B( 12-C , 16-C ) :   0.9118 B( 16-C , 17-C ) :   0.9075
B( 16-C , 20-O ) :   0.8672 B( 16-C , 21-H ) :   0.9222 B( 17-C , 18-C ) :   0.9246
B( 17-C , 22-O ) :   0.8929 B( 17-C , 23-H ) :   0.9359 B( 18-C , 19-C ) :   0.9459
B( 18-C , 24-H ) :   0.9370 B( 18-C , 25-H ) :   0.9160 B( 19-C , 20-O ) :   0.8422
B( 19-C , 26-H ) :   0.9340 B( 19-C , 27-H ) :   0.9374 B( 22-O , 28-H ) :   0.7949

FINAL SINGLE POINT ENERGY      -652.865486114663

DIPOLE MOMENT
-------------
                                X             Y             Z
Electronic contribution:     -3.35809      -4.48691       0.33033
Nuclear contribution   :      4.27268       5.21021      -0.58334
                        -----------------------------------------
Total Dipole Moment    :      0.91459       0.72330      -0.25301
                        -----------------------------------------
Magnitude (a.u.)       :      1.19317
Magnitude (Debye)      :      3.03279

Rotational constants in cm-1:     0.048836     0.015464     0.015088
Rotational constants in MHz :  1464.058121   463.590432   452.325774

                             ****ORCA TERMINATED NORMALLY****
TOTAL RUN TIME: 0 days 0 hours 20 minutes 9 seconds 62 msec
