                         Program Version 4.2.1 -  RELEASE  -
|  1> # Test redundant internal optimization
|  2> #
|  3> ! RKS B3LYP  Opt TightSCF SmallPrint
|  4>
|  5> %basis
|  6>         Basis "6-31G"
|  7> end
|  8>
|  9> %geom
| 10> Constraints
| 11> { D 4  0  19  14  90.0   C } # D for Dihedral angle
| 12> { D 0  19  14  12  150.0   C } # D for Dihedral angle
| 13> { D 0  4  3  2   C } # D for Dihedral angle
| 14> { D 4  3  2  1   C } # D for Dihedral angle
| 15> { D 3  2  1  0   C } # D for Dihedral angle
| 16> { D 2  1  0  4   C } # D for Dihedral angle
| 17> { D 1  0  4  3   C } # D for Dihedral angle
| 18> { D 14  15  16  17   C } # D for Dihedral angle
| 19> { D 15  16  17  12   C } # D for Dihedral angle
| 20> { D 16  17  12  14   C } # D for Dihedral angle
| 21> { D 17  12  14  15   C } # D for Dihedral angle
| 22> { D 12  14  15  16   C } # D for Dihedral angle
| 23> end
| 24> end
| 25>
| 26>
| 27> #%pal
| 28> #nprocs 8
| 29> #end
| 30>
| 31> * xyz 0 1
| 32> C  -21.048   26.222   46.251
| 33> C  -20.361   27.558   45.944
| 34> C  -20.329   28.222   47.341
| 35> C  -20.110   27.022   48.296
| 36> O  -20.473   25.807   47.535
| 37> H  -20.833   25.428   45.533
| 38> H  -19.344   27.382   45.576
| 39> H  -20.898   28.157   45.201
| 40> H  -19.543   28.978   47.434
| 41> H  -21.289   28.710   47.548
| 42> H  -20.733   27.082   49.195
| 43> H  -19.064   26.913   48.597
| 44> C  -24.272   28.005   46.149
| 45> H  -24.489   29.085   46.172
| 46> C  -22.892   27.702   46.744
| 47> C  -23.182   27.769   48.262
| 48> C  -24.619   27.200   48.371
| 49> O  -25.206   27.277   47.015
| 50> H  -24.419   27.632   45.135
| 51> O  -22.472   26.381   46.366
| 52> H  -22.121   28.413   46.427
| 53> H  -22.462   27.201   48.858
| 54> H  -23.153   28.811   48.606
| 55> H  -25.245   27.769   49.066
| 56> H  -24.630   26.146   48.667
| 57> *
| 58>
| 59>                          ****END OF INPUT****
 Total Charge           Charge          ....    0
 Multiplicity           Mult            ....    1
 Number of Electrons    NEL             ....   86
FINAL SINGLE POINT ENERGY      -538.384567824865
FINAL SINGLE POINT ENERGY      -538.421418153145
FINAL SINGLE POINT ENERGY      -538.424366981966
FINAL SINGLE POINT ENERGY      -538.424870668825
FINAL SINGLE POINT ENERGY      -538.424921858867
FINAL SINGLE POINT ENERGY      -538.424944424306
FINAL SINGLE POINT ENERGY      -538.424945430030
                    ***********************HURRAY********************

CARTESIAN COORDINATES (ANGSTROEM)
---------------------------------
  C    -21.084008   26.355682   46.359184
  C    -20.180847   27.521037   45.925612
  C    -19.867766   28.215919   47.284914
  C    -19.793201   27.012782   48.261651
  O    -20.470932   25.885549   47.584154
  H    -21.040949   25.502696   45.680458
  H    -19.267949   27.106233   45.487685
  H    -20.647608   28.183407   45.191028
  H    -18.926428   28.773646   47.256458
  H    -20.657254   28.915153   47.571357
  H    -20.286738   27.208236   49.218649
  H    -18.763481   26.696910   48.453061
  C    -24.451740   27.965732   46.138411
  H    -24.812066   29.006052   46.150921
  C    -23.098375   27.857561   46.842147
  C    -23.516454   27.846601   48.327182
  C    -24.854967   27.069608   48.311626
  O    -25.331325   27.091498   46.912022
  H    -24.426032   27.590112   45.114966
  O    -22.504253   26.584772   46.453535
  H    -22.443622   28.695422   46.585010
  H    -22.762708   27.364647   48.954816
  H    -23.659858   28.875642   48.678206
  H    -25.612948   27.526490   48.957798
  H    -24.725488   26.020612   48.588147

 Multiplicity           Mult            ....    1
 Number of Electrons    NEL             ....   86
 Basis Dimension        Dim             ....  127

ORBITAL ENERGIES
----------------

  NO   OCC          E(Eh)            E(eV)
   0   2.0000     -19.142331      -520.8893
   1   2.0000     -19.141124      -520.8565
   2   2.0000     -19.124871      -520.4142
   3   2.0000     -10.280464      -279.7457
   4   2.0000     -10.243012      -278.7265
   5   2.0000     -10.231237      -278.4061
   6   2.0000     -10.220940      -278.1259
   7   2.0000     -10.217659      -278.0366
   8   2.0000     -10.197685      -277.4931
   9   2.0000     -10.196675      -277.4656
  10   2.0000     -10.185889      -277.1721
  11   2.0000      -1.052144       -28.6303
  12   2.0000      -1.013833       -27.5878
  13   2.0000      -0.991740       -26.9866
  14   2.0000      -0.792384       -21.5619
  15   2.0000      -0.786421       -21.3996
  16   2.0000      -0.741776       -20.1847
  17   2.0000      -0.724231       -19.7073
  18   2.0000      -0.623295       -16.9607
  19   2.0000      -0.607679       -16.5358
  20   2.0000      -0.597285       -16.2529
  21   2.0000      -0.564396       -15.3580
  22   2.0000      -0.526789       -14.3347
  23   2.0000      -0.507485       -13.8094
  24   2.0000      -0.485995       -13.2246
  25   2.0000      -0.480726       -13.0812
  26   2.0000      -0.452455       -12.3119
  27   2.0000      -0.449913       -12.2428
  28   2.0000      -0.427165       -11.6237
  29   2.0000      -0.420491       -11.4421
  30   2.0000      -0.409329       -11.1384
  31   2.0000      -0.389163       -10.5897
  32   2.0000      -0.377539       -10.2734
  33   2.0000      -0.368537       -10.0284
  34   2.0000      -0.365022        -9.9327
  35   2.0000      -0.364395        -9.9157
  36   2.0000      -0.348550        -9.4845
  37   2.0000      -0.317668        -8.6442
  38   2.0000      -0.302958        -8.2439
  39   2.0000      -0.290262        -7.8984
  40   2.0000      -0.269590        -7.3359
  41   2.0000      -0.254907        -6.9364
  42   2.0000      -0.230207        -6.2643
  43   0.0000       0.065398         1.7796
  44   0.0000       0.087358         2.3771
  45   0.0000       0.093185         2.5357
  46   0.0000       0.111484         3.0336
  47   0.0000       0.114642         3.1196

MULLIKEN ATOMIC CHARGES
-----------------------
   0 C :    0.308897
   1 C :   -0.294552
   2 C :   -0.315541
   3 C :   -0.007284
   4 O :   -0.501120
   5 H :    0.167892
   6 H :    0.159896
   7 H :    0.148586
   8 H :    0.147175
   9 H :    0.150241
  10 H :    0.140783
  11 H :    0.147618
  12 C :    0.012002
  13 H :    0.119927
  14 C :    0.054164
  15 C :   -0.294232
  16 C :    0.002261
  17 O :   -0.517187
  18 H :    0.163430
  19 O :   -0.513676
  20 H :    0.126191
  21 H :    0.165621
  22 H :    0.134152
  23 H :    0.133729
  24 H :    0.161028
Sum of atomic charges:   -0.0000000

LOEWDIN ATOMIC CHARGES
----------------------
   0 C :    0.175889
   1 C :   -0.231510
   2 C :   -0.224732
   3 C :   -0.033113
   4 O :   -0.321084
   5 H :    0.113791
   6 H :    0.124994
   7 H :    0.116456
   8 H :    0.116463
   9 H :    0.108184
  10 H :    0.099646
  11 H :    0.104613
  12 C :   -0.034932
  13 H :    0.088779
  14 C :    0.034015
  15 C :   -0.235387
  16 C :   -0.026847
  17 O :   -0.326817
  18 H :    0.121142
  19 O :   -0.310964
  20 H :    0.096280
  21 H :    0.126317
  22 H :    0.109077
  23 H :    0.097486
  24 H :    0.112252

  Mayer bond orders larger than 0.100000
B(  0-C ,  1-C ) :   0.9227 B(  0-C ,  4-O ) :   0.8971 B(  0-C ,  5-H ) :   0.9356
B(  0-C , 19-O ) :   0.9062 B(  1-C ,  2-C ) :   0.9533 B(  1-C ,  6-H ) :   0.9345
B(  1-C ,  7-H ) :   0.9332 B(  2-C ,  3-C ) :   0.9466 B(  2-C ,  8-H ) :   0.9455
B(  2-C ,  9-H ) :   0.9390 B(  3-C ,  4-O ) :   0.8517 B(  3-C , 10-H ) :   0.9305
B(  3-C , 11-H ) :   0.9389 B( 12-C , 13-H ) :   0.9142 B( 12-C , 14-C ) :   0.9329
B( 12-C , 17-O ) :   0.8751 B( 12-C , 18-H ) :   0.9309 B( 14-C , 15-C ) :   0.9355
B( 14-C , 19-O ) :   0.8318 B( 14-C , 20-H ) :   0.9095 B( 15-C , 16-C ) :   0.9485
B( 15-C , 21-H ) :   0.9342 B( 15-C , 22-H ) :   0.9370 B( 16-C , 17-O ) :   0.8563
B( 16-C , 23-H ) :   0.9328 B( 16-C , 24-H ) :   0.9343

FINAL SINGLE POINT ENERGY      -538.424944103805

DIPOLE MOMENT
-------------
                                X             Y             Z
Electronic contribution:     -2.68118      -4.59140      -1.76983
Nuclear contribution   :      3.85962       6.13362       1.93632
                        -----------------------------------------
Total Dipole Moment    :      1.17844       1.54221       0.16648
                        -----------------------------------------
Magnitude (a.u.)       :      1.94804
Magnitude (Debye)      :      4.95152

Rotational constants in cm-1:     0.076558     0.022583     0.021408
Rotational constants in MHz :  2295.136621   677.014957   641.792307

                             ****ORCA TERMINATED NORMALLY****
TOTAL RUN TIME: 0 days 0 hours 17 minutes 51 seconds 685 msec
