                         Program Version 4.2.0 -  RELEASE  -
|  1> # Test redundant internal optimization
|  2> #
|  3> ! RKS B3LYP  Opt TightSCF SmallPrint
|  4>
|  5> %basis
|  6>         Basis "6-31G"
|  7> end
|  8>
|  9> %geom
| 10> Constraints
| 11> { D 4  0  15  12  0.0   C } # D for Dihedral angle
| 12> { D 0  15  12  16  105.0   C } # D for Dihedral angle
| 13> { D 0  4  3  2   C } # D for Dihedral angle
| 14> { D 4  3  2  1   C } # D for Dihedral angle
| 15> { D 3  2  1  0   C } # D for Dihedral angle
| 16> { D 2  1  0  4   C } # D for Dihedral angle
| 17> { D 1  0  4  3   C } # D for Dihedral angle
| 18> { D 16  20  19  18   C } # D for Dihedral angle
| 19> { D 20  19  18  17   C } # D for Dihedral angle
| 20> { D 19  18  17  16   C } # D for Dihedral angle
| 21> { D 18  17  16  20   C } # D for Dihedral angle
| 22> { D 17  16  20  19   C } # D for Dihedral angle
| 23> { D 15  12  16  20   C } # D for Dihedral angle
| 24> end
| 25> end
| 26>
| 27>
| 28> #%pal
| 29> #nprocs 8
| 30> #end
| 31>
| 32> * xyz 0 1
| 33> C  -21.048   26.222   46.251
| 34> C  -20.361   27.558   45.944
| 35> C  -20.329   28.222   47.341
| 36> C  -20.110   27.022   48.296
| 37> O  -20.473   25.807   47.535
| 38> H  -20.833   25.428   45.533
| 39> H  -19.344   27.382   45.576
| 40> H  -20.898   28.157   45.201
| 41> H  -19.543   28.978   47.434
| 42> H  -21.289   28.710   47.548
| 43> H  -20.733   27.082   49.195
| 44> H  -19.064   26.913   48.597
| 45> C  -23.172   26.101   47.783
| 46> H  -24.069   25.477   47.680
| 47> H  -22.443   25.554   48.396
| 48> O  -22.586   26.394   46.375
| 49> C  -23.562   27.393   48.553
| 50> C  -24.703   28.137   47.849
| 51> C  -25.935   27.314   48.295
| 52> C  -25.572   26.893   49.741
| 53> O  -24.108   27.059   49.872
| 54> H  -22.666   27.994   48.720
| 55> H  -24.768   29.165   48.223
| 56> O  -24.538   28.187   46.305
| 57> H  -26.867   27.887   48.249
| 58> H  -26.052   26.433   47.653
| 59> H  -25.835   25.851   49.953
| 60> H  -26.038   27.535   50.493
| 61> H  -24.471   27.167   45.909
| 62> *
| 63>
| 64>                          ****END OF INPUT****
 Total Charge           Charge          ....    0
 Multiplicity           Mult            ....    1
 Number of Electrons    NEL             ....  102
FINAL SINGLE POINT ENERGY      -652.829131866987
FINAL SINGLE POINT ENERGY      -652.853477895585
FINAL SINGLE POINT ENERGY      -652.859760936686
FINAL SINGLE POINT ENERGY      -652.862403159518
FINAL SINGLE POINT ENERGY      -652.863497343479
FINAL SINGLE POINT ENERGY      -652.864054951529
FINAL SINGLE POINT ENERGY      -652.864180756290
FINAL SINGLE POINT ENERGY      -652.864210895557
                    ***********************HURRAY********************

CARTESIAN COORDINATES (ANGSTROEM)
---------------------------------
  C    -21.111746   26.212166   46.369802
  C    -20.506098   27.548845   45.941539
  C    -20.294250   28.252436   47.303671
  C    -19.918389   27.090143   48.246870
  O    -20.371395   25.847548   47.546111
  H    -20.963520   25.402411   45.652012
  H    -19.551117   27.356780   45.440323
  H    -21.158138   28.107877   45.266346
  H    -19.508850   29.013417   47.260502
  H    -21.217433   28.745621   47.618184
  H    -20.407042   27.136805   49.223342
  H    -18.839559   26.984309   48.386626
  C    -23.175667   26.020218   47.875382
  H    -24.029862   25.366708   47.674487
  H    -22.466317   25.486321   48.512143
  O    -22.564736   26.295097   46.566284
  C    -23.619604   27.315923   48.564119
  C    -24.715715   28.098199   47.820694
  C    -25.992193   27.305488   48.220959
  C    -25.697089   26.869459   49.671127
  O    -24.219132   26.993263   49.858304
  H    -22.749312   27.939913   48.781493
  H    -24.774562   29.110856   48.233931
  O    -24.518607   28.237820   46.399234
  H    -26.893224   27.919549   48.138529
  H    -26.110452   26.449595   47.547756
  H    -25.991621   25.837291   49.883219
  H    -26.159979   27.527711   50.411878
  H    -23.884387   27.550232   46.085135

 Multiplicity           Mult            ....    1
 Number of Electrons    NEL             ....  102
 Basis Dimension        Dim             ....  149

ORBITAL ENERGIES
----------------

  NO   OCC          E(Eh)            E(eV)
   0   2.0000     -19.161650      -521.4150
   1   2.0000     -19.156920      -521.2863
   2   2.0000     -19.140399      -520.8367
   3   2.0000     -19.116062      -520.1745
   4   2.0000     -10.291273      -280.0398
   5   2.0000     -10.240068      -278.6464
   6   2.0000     -10.232916      -278.4518
   7   2.0000     -10.232645      -278.4444
   8   2.0000     -10.231225      -278.4058
   9   2.0000     -10.226875      -278.2874
  10   2.0000     -10.197844      -277.4974
  11   2.0000     -10.195351      -277.4296
  12   2.0000     -10.180040      -277.0130
  13   2.0000      -1.065386       -28.9906
  14   2.0000      -1.025482       -27.9048
  15   2.0000      -1.005308       -27.3558
  16   2.0000      -0.992886       -27.0178
  17   2.0000      -0.799373       -21.7520
  18   2.0000      -0.775315       -21.0974
  19   2.0000      -0.768961       -20.9245
  20   2.0000      -0.738210       -20.0877
  21   2.0000      -0.679327       -18.4854
  22   2.0000      -0.612427       -16.6650
  23   2.0000      -0.600344       -16.3362
  24   2.0000      -0.596573       -16.2336
  25   2.0000      -0.577573       -15.7166
  26   2.0000      -0.532387       -14.4870
  27   2.0000      -0.513289       -13.9673
  28   2.0000      -0.506571       -13.7845
  29   2.0000      -0.487575       -13.2676
  30   2.0000      -0.476940       -12.9782
  31   2.0000      -0.460995       -12.5443
  32   2.0000      -0.448042       -12.1919
  33   2.0000      -0.427207       -11.6249
  34   2.0000      -0.425424       -11.5764
  35   2.0000      -0.417415       -11.3584
  36   2.0000      -0.412467       -11.2238
  37   2.0000      -0.388655       -10.5758
  38   2.0000      -0.383234       -10.4283
  39   2.0000      -0.370610       -10.0848
  40   2.0000      -0.368477       -10.0268
  41   2.0000      -0.358657        -9.7595
  42   2.0000      -0.352915        -9.6033
  43   2.0000      -0.346350        -9.4247
  44   2.0000      -0.329420        -8.9640
  45   2.0000      -0.318601        -8.6696
  46   2.0000      -0.287977        -7.8363
  47   2.0000      -0.276585        -7.5262
  48   2.0000      -0.274416        -7.4672
  49   2.0000      -0.248931        -6.7738
  50   2.0000      -0.238299        -6.4844
  51   0.0000       0.060348         1.6421
  52   0.0000       0.070200         1.9102
  53   0.0000       0.086844         2.3632
  54   0.0000       0.093431         2.5424
  55   0.0000       0.098821         2.6890

MULLIKEN ATOMIC CHARGES
-----------------------
   0 C :    0.316059
   1 C :   -0.268941
   2 C :   -0.317729
   3 C :   -0.025894
   4 O :   -0.508655
   5 H :    0.164710
   6 H :    0.153205
   7 H :    0.166134
   8 H :    0.153301
   9 H :    0.165495
  10 H :    0.159222
  11 H :    0.158002
  12 C :   -0.045884
  13 H :    0.156400
  14 H :    0.188180
  15 O :   -0.571595
  16 C :    0.050554
  17 C :    0.120340
  18 C :   -0.308382
  19 C :   -0.016516
  20 O :   -0.523689
  21 H :    0.147862
  22 H :    0.146453
  23 O :   -0.641861
  24 H :    0.151319
  25 H :    0.148380
  26 H :    0.141210
  27 H :    0.149590
  28 H :    0.392730
Sum of atomic charges:    0.0000000

LOEWDIN ATOMIC CHARGES
----------------------
   0 C :    0.186180
   1 C :   -0.220857
   2 C :   -0.221798
   3 C :   -0.032974
   4 O :   -0.312021
   5 H :    0.108343
   6 H :    0.119037
   7 H :    0.127902
   8 H :    0.120675
   9 H :    0.115453
  10 H :    0.109301
  11 H :    0.111348
  12 C :   -0.050977
  13 H :    0.110678
  14 H :    0.127499
  15 O :   -0.352964
  16 C :    0.005954
  17 C :    0.041003
  18 C :   -0.238881
  19 C :   -0.031100
  20 O :   -0.325263
  21 H :    0.105601
  22 H :    0.105066
  23 O :   -0.434858
  24 H :    0.121150
  25 H :    0.112561
  26 H :    0.102129
  27 H :    0.106015
  28 H :    0.285797

  Mayer bond orders larger than 0.100000
B(  0-C ,  1-C ) :   0.9320 B(  0-C ,  4-O ) :   0.9286 B(  0-C ,  5-H ) :   0.9307
B(  0-C , 15-O ) :   0.8035 B(  1-C ,  2-C ) :   0.9512 B(  1-C ,  6-H ) :   0.9342
B(  1-C ,  7-H ) :   0.9336 B(  2-C ,  3-C ) :   0.9532 B(  2-C ,  8-H ) :   0.9433
B(  2-C ,  9-H ) :   0.9316 B(  3-C ,  4-O ) :   0.8204 B(  3-C , 10-H ) :   0.9297
B(  3-C , 11-H ) :   0.9389 B( 12-C , 13-H ) :   0.9338 B( 12-C , 14-H ) :   0.9129
B( 12-C , 15-O ) :   0.7901 B( 12-C , 16-C ) :   0.8896 B( 16-C , 17-C ) :   0.9102
B( 16-C , 20-O ) :   0.8473 B( 16-C , 21-H ) :   0.9218 B( 17-C , 18-C ) :   0.9014
B( 17-C , 22-H ) :   0.9323 B( 17-C , 23-O ) :   0.9329 B( 18-C , 19-C ) :   0.9405
B( 18-C , 24-H ) :   0.9446 B( 18-C , 25-H ) :   0.9429 B( 19-C , 20-O ) :   0.8322
B( 19-C , 26-H ) :   0.9346 B( 19-C , 27-H ) :   0.9382 B( 23-O , 28-H ) :   0.7233

FINAL SINGLE POINT ENERGY      -652.864213202610

DIPOLE MOMENT
-------------
                                X             Y             Z
Electronic contribution:      0.05346      -2.38370      -0.57270
Nuclear contribution   :      0.51837       2.52025       0.64312
                        -----------------------------------------
Total Dipole Moment    :      0.57184       0.13655       0.07042
                        -----------------------------------------
Magnitude (a.u.)       :      0.59212
Magnitude (Debye)      :      1.50505

Rotational constants in cm-1:     0.050127     0.016363     0.014887
Rotational constants in MHz :  1502.758465   490.551997   446.311797

                             ****ORCA TERMINATED NORMALLY****
TOTAL RUN TIME: 0 days 1 hours 15 minutes 13 seconds 416 msec
