                         Program Version 4.2.0 -  RELEASE  -
|  1> # Test redundant internal optimization
|  2> #
|  3> ! RKS B3LYP  Opt TightSCF SmallPrint
|  4>
|  5> %basis
|  6>         Basis "6-31G"
|  7> end
|  8>
|  9> %geom
| 10> Constraints
| 11> { D 4  0  15  12  255.0   C } # D for Dihedral angle
| 12> { D 0  15  12  16  315.0   C } # D for Dihedral angle
| 13> { D 0  4  3  2   C } # D for Dihedral angle
| 14> { D 4  3  2  1   C } # D for Dihedral angle
| 15> { D 3  2  1  0   C } # D for Dihedral angle
| 16> { D 2  1  0  4   C } # D for Dihedral angle
| 17> { D 1  0  4  3   C } # D for Dihedral angle
| 18> { D 16  20  19  18   C } # D for Dihedral angle
| 19> { D 20  19  18  17   C } # D for Dihedral angle
| 20> { D 19  18  17  16   C } # D for Dihedral angle
| 21> { D 18  17  16  20   C } # D for Dihedral angle
| 22> { D 17  16  20  19   C } # D for Dihedral angle
| 23> { D 15  12  16  20   C } # D for Dihedral angle
| 24> end
| 25> end
| 26>
| 27>
| 28> #%pal
| 29> #nprocs 8
| 30> #end
| 31>
| 32> * xyz 0 1
| 33> C  -21.048   26.222   46.251
| 34> C  -20.361   27.558   45.944
| 35> C  -20.329   28.222   47.341
| 36> C  -20.110   27.022   48.296
| 37> O  -20.473   25.807   47.535
| 38> H  -20.833   25.428   45.533
| 39> H  -19.344   27.382   45.576
| 40> H  -20.898   28.157   45.201
| 41> H  -19.543   28.978   47.434
| 42> H  -21.289   28.710   47.548
| 43> H  -20.733   27.082   49.195
| 44> H  -19.064   26.913   48.597
| 45> C  -23.431   25.260   45.734
| 46> H  -23.397   24.373   46.379
| 47> H  -24.479   25.571   45.634
| 48> O  -22.586   26.394   46.375
| 49> C  -22.922   24.856   44.322
| 50> C  -23.845   23.819   43.673
| 51> C  -25.008   24.707   43.169
| 52> C  -24.295   26.016   42.750
| 53> O  -22.972   26.005   43.411
| 54> H  -21.877   24.549   44.393
| 55> H  -23.336   23.335   42.832
| 56> O  -24.315   22.716   44.661
| 57> H  -25.563   24.251   42.342
| 58> H  -25.717   24.897   43.983
| 59> H  -24.844   26.912   43.062
| 60> H  -24.116   26.068   41.672
| 61> H  -24.829   23.177   45.512
| 62> *
| 63>
| 64>                          ****END OF INPUT****
 Total Charge           Charge          ....    0
 Multiplicity           Mult            ....    1
 Number of Electrons    NEL             ....  102
FINAL SINGLE POINT ENERGY      -652.824575417954
FINAL SINGLE POINT ENERGY      -652.848685990860
FINAL SINGLE POINT ENERGY      -652.854003828480
FINAL SINGLE POINT ENERGY      -652.854972995849
FINAL SINGLE POINT ENERGY      -652.855141979310
FINAL SINGLE POINT ENERGY      -652.855175433846
FINAL SINGLE POINT ENERGY      -652.855180548242
FINAL SINGLE POINT ENERGY      -652.855182369387
                    ***********************HURRAY********************

CARTESIAN COORDINATES (ANGSTROEM)
---------------------------------
  C    -20.949491   26.194309   46.201188
  C    -20.381344   27.593425   45.960983
  C    -20.448905   28.210743   47.377358
  C    -20.148152   27.005510   48.296763
  O    -20.382186   25.794943   47.471906
  H    -20.649354   25.438542   45.476429
  H    -19.342545   27.510025   45.620117
  H    -20.960451   28.139835   45.214784
  H    -19.735594   29.028817   47.516260
  H    -21.457099   28.593149   47.562033
  H    -20.797493   26.964935   49.175271
  H    -19.102835   26.968290   48.619024
  C    -23.263848   25.309662   45.723430
  H    -23.295139   24.432888   46.388106
  H    -24.246586   25.790914   45.730370
  O    -22.386240   26.319391   46.296052
  C    -22.909726   24.826874   44.314323
  C    -23.927399   23.815948   43.755123
  C    -25.058759   24.755763   43.231723
  C    -24.269273   25.980065   42.716605
  O    -22.922126   25.914514   43.338795
  H    -21.901043   24.408693   44.292067
  H    -23.472708   23.274859   42.922679
  O    -24.358106   22.779381   44.666169
  H    -25.660253   24.278645   42.453645
  H    -25.726795   25.025622   44.059833
  H    -24.737192   26.932712   42.983499
  H    -24.120637   25.951501   41.632797
  H    -24.945721   23.147045   45.357668

 Multiplicity           Mult            ....    1
 Number of Electrons    NEL             ....  102
 Basis Dimension        Dim             ....  149

ORBITAL ENERGIES
----------------

  NO   OCC          E(Eh)            E(eV)
   0   2.0000     -19.153741      -521.1998
   1   2.0000     -19.143311      -520.9160
   2   2.0000     -19.136172      -520.7217
   3   2.0000     -19.129026      -520.5272
   4   2.0000     -10.270636      -279.4782
   5   2.0000     -10.250609      -278.9333
   6   2.0000     -10.236996      -278.5628
   7   2.0000     -10.235733      -278.5284
   8   2.0000     -10.232283      -278.4346
   9   2.0000     -10.216297      -277.9996
  10   2.0000     -10.199711      -277.5482
  11   2.0000     -10.176395      -276.9138
  12   2.0000     -10.174183      -276.8536
  13   2.0000      -1.045366       -28.4458
  14   2.0000      -1.036964       -28.2172
  15   2.0000      -1.020422       -27.7671
  16   2.0000      -0.985610       -26.8198
  17   2.0000      -0.787869       -21.4390
  18   2.0000      -0.778824       -21.1929
  19   2.0000      -0.766398       -20.8548
  20   2.0000      -0.729714       -19.8565
  21   2.0000      -0.680318       -18.5124
  22   2.0000      -0.616107       -16.7651
  23   2.0000      -0.605176       -16.4677
  24   2.0000      -0.588785       -16.0217
  25   2.0000      -0.561998       -15.2928
  26   2.0000      -0.536454       -14.5977
  27   2.0000      -0.513733       -13.9794
  28   2.0000      -0.494863       -13.4659
  29   2.0000      -0.482468       -13.1286
  30   2.0000      -0.467954       -12.7337
  31   2.0000      -0.452847       -12.3226
  32   2.0000      -0.441497       -12.0137
  33   2.0000      -0.433912       -11.8074
  34   2.0000      -0.431185       -11.7331
  35   2.0000      -0.424355       -11.5473
  36   2.0000      -0.406885       -11.0719
  37   2.0000      -0.393502       -10.7077
  38   2.0000      -0.383044       -10.4232
  39   2.0000      -0.366840        -9.9822
  40   2.0000      -0.357341        -9.7238
  41   2.0000      -0.347680        -9.4608
  42   2.0000      -0.341596        -9.2953
  43   2.0000      -0.335670        -9.1340
  44   2.0000      -0.320367        -8.7176
  45   2.0000      -0.310526        -8.4499
  46   2.0000      -0.297727        -8.1016
  47   2.0000      -0.276065        -7.5121
  48   2.0000      -0.264813        -7.2059
  49   2.0000      -0.244725        -6.6593
  50   2.0000      -0.236292        -6.4298
  51   0.0000       0.048659         1.3241
  52   0.0000       0.074956         2.0397
  53   0.0000       0.084085         2.2881
  54   0.0000       0.095346         2.5945
  55   0.0000       0.101605         2.7648

MULLIKEN ATOMIC CHARGES
-----------------------
   0 C :    0.281564
   1 C :   -0.249860
   2 C :   -0.299273
   3 C :    0.000129
   4 O :   -0.510277
   5 H :    0.146119
   6 H :    0.139045
   7 H :    0.162018
   8 H :    0.136644
   9 H :    0.160703
  10 H :    0.145567
  11 H :    0.137621
  12 C :    0.004137
  13 H :    0.137772
  14 H :    0.140203
  15 O :   -0.521391
  16 C :    0.058660
  17 C :    0.086434
  18 C :   -0.325598
  19 C :   -0.011048
  20 O :   -0.513578
  21 H :    0.163492
  22 H :    0.169500
  23 O :   -0.595869
  24 H :    0.159729
  25 H :    0.138492
  26 H :    0.146947
  27 H :    0.153873
  28 H :    0.358245
Sum of atomic charges:   -0.0000000

LOEWDIN ATOMIC CHARGES
----------------------
   0 C :    0.175559
   1 C :   -0.215685
   2 C :   -0.216975
   3 C :   -0.027368
   4 O :   -0.325878
   5 H :    0.099974
   6 H :    0.110839
   7 H :    0.126340
   8 H :    0.111413
   9 H :    0.118380
  10 H :    0.104455
  11 H :    0.100027
  12 C :   -0.045763
  13 H :    0.100094
  14 H :    0.107579
  15 O :   -0.322051
  16 C :    0.003443
  17 C :    0.037820
  18 C :   -0.241740
  19 C :   -0.029371
  20 O :   -0.322847
  21 H :    0.113769
  22 H :    0.120008
  23 O :   -0.403826
  24 H :    0.123829
  25 H :    0.106194
  26 H :    0.104712
  27 H :    0.107842
  28 H :    0.279226

  Mayer bond orders larger than 0.100000
B(  0-C ,  1-C ) :   0.9475 B(  0-C ,  4-O ) :   0.9112 B(  0-C ,  5-H ) :   0.9126
B(  0-C , 15-O ) :   0.8488 B(  1-C ,  2-C ) :   0.9571 B(  1-C ,  6-H ) :   0.9398
B(  1-C ,  7-H ) :   0.9350 B(  2-C ,  3-C ) :   0.9541 B(  2-C ,  8-H ) :   0.9457
B(  2-C ,  9-H ) :   0.9443 B(  3-C ,  4-O ) :   0.8425 B(  3-C , 10-H ) :   0.9356
B(  3-C , 11-H ) :   0.9403 B( 12-C , 13-H ) :   0.9018 B( 12-C , 14-H ) :   0.9378
B( 12-C , 15-O ) :   0.8633 B( 12-C , 16-C ) :   0.8934 B( 16-C , 17-C ) :   0.8666
B( 16-C , 20-O ) :   0.8625 B( 16-C , 21-H ) :   0.9212 B( 17-C , 18-C ) :   0.9203
B( 17-C , 22-H ) :   0.9333 B( 17-C , 23-O ) :   0.9050 B( 18-C , 19-C ) :   0.9393
B( 18-C , 24-H ) :   0.9420 B( 18-C , 25-H ) :   0.9405 B( 19-C , 20-O ) :   0.8433
B( 19-C , 26-H ) :   0.9321 B( 19-C , 27-H ) :   0.9371 B( 23-O , 28-H ) :   0.7956

FINAL SINGLE POINT ENERGY      -652.855182484948

DIPOLE MOMENT
-------------
                                X             Y             Z
Electronic contribution:      0.35457      -3.67958       0.00337
Nuclear contribution   :     -1.16752       4.23986      -0.43218
                        -----------------------------------------
Total Dipole Moment    :     -0.81295       0.56028      -0.42882
                        -----------------------------------------
Magnitude (a.u.)       :      1.07642
Magnitude (Debye)      :      2.73604

Rotational constants in cm-1:     0.059326     0.012787     0.011391
Rotational constants in MHz :  1778.544449   383.332536   341.479914

                             ****ORCA TERMINATED NORMALLY****
TOTAL RUN TIME: 0 days 0 hours 58 minutes 2 seconds 130 msec
