                         Program Version 4.2.1 -  RELEASE  -
|  1> # Test redundant internal optimization
|  2> #
|  3> ! RKS B3LYP  Opt TightSCF SmallPrint
|  4>
|  5> %basis
|  6>         Basis "6-31G"
|  7> end
|  8>
|  9> %geom
| 10> Constraints
| 11> { D 4  0  19  14  150.0   C } # D for Dihedral angle
| 12> { D 0  19  14  12  75.0   C } # D for Dihedral angle
| 13> { D 0  4  3  2   C } # D for Dihedral angle
| 14> { D 4  3  2  1   C } # D for Dihedral angle
| 15> { D 3  2  1  0   C } # D for Dihedral angle
| 16> { D 2  1  0  4   C } # D for Dihedral angle
| 17> { D 1  0  4  3   C } # D for Dihedral angle
| 18> { D 14  15  16  17   C } # D for Dihedral angle
| 19> { D 15  16  17  12   C } # D for Dihedral angle
| 20> { D 16  17  12  14   C } # D for Dihedral angle
| 21> { D 17  12  14  15   C } # D for Dihedral angle
| 22> { D 12  14  15  16   C } # D for Dihedral angle
| 23> end
| 24> end
| 25>
| 26>
| 27> #%pal
| 28> #nprocs 8
| 29> #end
| 30>
| 31> * xyz 0 1
| 32> C  -21.048   26.222   46.251
| 33> C  -20.361   27.558   45.944
| 34> C  -20.329   28.222   47.341
| 35> C  -20.110   27.022   48.296
| 36> O  -20.473   25.807   47.535
| 37> H  -20.833   25.428   45.533
| 38> H  -19.344   27.382   45.576
| 39> H  -20.898   28.157   45.201
| 40> H  -19.543   28.978   47.434
| 41> H  -21.289   28.710   47.548
| 42> H  -20.733   27.082   49.195
| 43> H  -19.064   26.913   48.597
| 44> C  -23.083   26.828   44.053
| 45> H  -23.226   27.640   43.322
| 46> C  -23.030   27.370   45.486
| 47> C  -24.530   27.590   45.793
| 48> C  -25.219   26.424   45.042
| 49> O  -24.240   25.927   44.049
| 50> H  -22.215   26.234   43.761
| 51> O  -22.472   26.381   46.366
| 52> H  -22.439   28.287   45.577
| 53> H  -24.750   27.584   46.865
| 54> H  -24.860   28.556   45.391
| 55> H  -26.130   26.738   44.521
| 56> H  -25.461   25.586   45.703
| 57> *
| 58>
| 59>                          ****END OF INPUT****
 Total Charge           Charge          ....    0
 Multiplicity           Mult            ....    1
 Number of Electrons    NEL             ....   86
FINAL SINGLE POINT ENERGY      -538.414047525172
FINAL SINGLE POINT ENERGY      -538.424148992251
FINAL SINGLE POINT ENERGY      -538.425928566022
FINAL SINGLE POINT ENERGY      -538.426387706537
FINAL SINGLE POINT ENERGY      -538.426413936188
FINAL SINGLE POINT ENERGY      -538.426426089131
                    ***********************HURRAY********************

CARTESIAN COORDINATES (ANGSTROEM)
---------------------------------
  C    -21.027650   26.249730   46.252612
  C    -20.172423   27.484376   45.964635
  C    -20.205575   28.226050   47.326718
  C    -20.217471   27.063465   48.342703
  O    -20.638600   25.863083   47.580546
  H    -20.833183   25.390951   45.606033
  H    -19.154602   27.148269   45.736825
  H    -20.514022   28.096449   45.126643
  H    -19.346051   28.889679   47.460680
  H    -21.117181   28.827346   47.412158
  H    -20.917811   27.220304   49.167087
  H    -19.224726   26.846035   48.747496
  C    -23.201845   26.961463   43.957375
  H    -23.471198   27.790042   43.283521
  C    -23.090066   27.462404   45.397261
  C    -24.570628   27.520267   45.821714
  C    -25.201962   26.316080   45.084939
  O    -24.257681   25.951443   44.003601
  H    -22.300800   26.472929   43.579561
  O    -22.468911   26.491630   46.285866
  H    -22.600053   28.440772   45.471667
  H    -24.660435   27.452071   46.908050
  H    -25.012163   28.466336   45.487682
  H    -26.175411   26.554655   44.643548
  H    -25.299553   25.440171   45.731079

 Multiplicity           Mult            ....    1
 Number of Electrons    NEL             ....   86
 Basis Dimension        Dim             ....  127

ORBITAL ENERGIES
----------------

  NO   OCC          E(Eh)            E(eV)
   0   2.0000     -19.139538      -520.8133
   1   2.0000     -19.137579      -520.7600
   2   2.0000     -19.127840      -520.4950
   3   2.0000     -10.279744      -279.7260
   4   2.0000     -10.242365      -278.7089
   5   2.0000     -10.227163      -278.2953
   6   2.0000     -10.224662      -278.2272
   7   2.0000     -10.217914      -278.0436
   8   2.0000     -10.194277      -277.4004
   9   2.0000     -10.193671      -277.3839
  10   2.0000     -10.184859      -277.1441
  11   2.0000      -1.052439       -28.6383
  12   2.0000      -1.014771       -27.6133
  13   2.0000      -0.987593       -26.8738
  14   2.0000      -0.791717       -21.5437
  15   2.0000      -0.783259       -21.3136
  16   2.0000      -0.737879       -20.0787
  17   2.0000      -0.727940       -19.8083
  18   2.0000      -0.620508       -16.8849
  19   2.0000      -0.605177       -16.4677
  20   2.0000      -0.594089       -16.1660
  21   2.0000      -0.564157       -15.3515
  22   2.0000      -0.527497       -14.3539
  23   2.0000      -0.501680       -13.6514
  24   2.0000      -0.492213       -13.3938
  25   2.0000      -0.482225       -13.1220
  26   2.0000      -0.453056       -12.3283
  27   2.0000      -0.449767       -12.2388
  28   2.0000      -0.429258       -11.6807
  29   2.0000      -0.420795       -11.4504
  30   2.0000      -0.405164       -11.0251
  31   2.0000      -0.384940       -10.4748
  32   2.0000      -0.371961       -10.1216
  33   2.0000      -0.366503        -9.9731
  34   2.0000      -0.364984        -9.9317
  35   2.0000      -0.359456        -9.7813
  36   2.0000      -0.352968        -9.6047
  37   2.0000      -0.313854        -8.5404
  38   2.0000      -0.306185        -8.3317
  39   2.0000      -0.294557        -8.0153
  40   2.0000      -0.261750        -7.1226
  41   2.0000      -0.251232        -6.8364
  42   2.0000      -0.234093        -6.3700
  43   0.0000       0.070165         1.9093
  44   0.0000       0.096254         2.6192
  45   0.0000       0.099350         2.7035
  46   0.0000       0.102390         2.7862
  47   0.0000       0.110679         3.0117

MULLIKEN ATOMIC CHARGES
-----------------------
   0 C :    0.316888
   1 C :   -0.298830
   2 C :   -0.300732
   3 C :    0.000098
   4 O :   -0.497302
   5 H :    0.155685
   6 H :    0.154774
   7 H :    0.141136
   8 H :    0.145324
   9 H :    0.152251
  10 H :    0.152093
  11 H :    0.143851
  12 C :   -0.000801
  13 H :    0.123745
  14 C :    0.057366
  15 C :   -0.287781
  16 C :    0.003903
  17 O :   -0.517981
  18 H :    0.150586
  19 O :   -0.514808
  20 H :    0.122184
  21 H :    0.169818
  22 H :    0.134767
  23 H :    0.133814
  24 H :    0.159950
Sum of atomic charges:    0.0000000

LOEWDIN ATOMIC CHARGES
----------------------
   0 C :    0.183564
   1 C :   -0.234724
   2 C :   -0.217601
   3 C :   -0.026464
   4 O :   -0.303926
   5 H :    0.103788
   6 H :    0.120973
   7 H :    0.112108
   8 H :    0.115810
   9 H :    0.111452
  10 H :    0.108127
  11 H :    0.103565
  12 C :   -0.049170
  13 H :    0.091200
  14 C :    0.033059
  15 C :   -0.221782
  16 C :   -0.025903
  17 O :   -0.328867
  18 H :    0.111304
  19 O :   -0.327634
  20 H :    0.091757
  21 H :    0.131039
  22 H :    0.108971
  23 H :    0.097500
  24 H :    0.111853

  Mayer bond orders larger than 0.100000
B(  0-C ,  1-C ) :   0.9286 B(  0-C ,  4-O ) :   0.9288 B(  0-C ,  5-H ) :   0.9240
B(  0-C , 19-O ) :   0.8410 B(  1-C ,  2-C ) :   0.9493 B(  1-C ,  6-H ) :   0.9339
B(  1-C ,  7-H ) :   0.9284 B(  2-C ,  3-C ) :   0.9531 B(  2-C ,  8-H ) :   0.9453
B(  2-C ,  9-H ) :   0.9441 B(  3-C ,  4-O ) :   0.8401 B(  3-C , 10-H ) :   0.9343
B(  3-C , 11-H ) :   0.9394 B( 12-C , 13-H ) :   0.9093 B( 12-C , 14-C ) :   0.9070
B( 12-C , 17-O ) :   0.8796 B( 12-C , 18-H ) :   0.9335 B( 14-C , 15-C ) :   0.9536
B( 14-C , 19-O ) :   0.8440 B( 14-C , 20-H ) :   0.9093 B( 15-C , 16-C ) :   0.9481
B( 15-C , 21-H ) :   0.9350 B( 15-C , 22-H ) :   0.9435 B( 16-C , 17-O ) :   0.8496
B( 16-C , 23-H ) :   0.9335 B( 16-C , 24-H ) :   0.9356

FINAL SINGLE POINT ENERGY      -538.426426864873

DIPOLE MOMENT
-------------
                                X             Y             Z
Electronic contribution:     -0.72272      -4.87544      -0.31089
Nuclear contribution   :      1.24384       6.56775       0.33253
                        -----------------------------------------
Total Dipole Moment    :      0.52112       1.69231       0.02164
                        -----------------------------------------
Magnitude (a.u.)       :      1.77086
Magnitude (Debye)      :      4.50117

Rotational constants in cm-1:     0.085093     0.020361     0.019970
Rotational constants in MHz :  2551.015685   610.393324   598.694745

                             ****ORCA TERMINATED NORMALLY****
TOTAL RUN TIME: 0 days 0 hours 7 minutes 12 seconds 655 msec
