                         Program Version 4.2.0 -  RELEASE  -
|  1> # Test redundant internal optimization
|  2> #
|  3> ! RKS B3LYP  Opt TightSCF SmallPrint
|  4>
|  5> %basis
|  6>         Basis "6-31G"
|  7> end
|  8>
|  9> %geom
| 10> Constraints
| 11> { D 4  0  15  12  45.0   C } # D for Dihedral angle
| 12> { D 0  15  12  16  240.0   C } # D for Dihedral angle
| 13> { D 0  4  3  2   C } # D for Dihedral angle
| 14> { D 4  3  2  1   C } # D for Dihedral angle
| 15> { D 3  2  1  0   C } # D for Dihedral angle
| 16> { D 2  1  0  4   C } # D for Dihedral angle
| 17> { D 1  0  4  3   C } # D for Dihedral angle
| 18> { D 16  20  19  18   C } # D for Dihedral angle
| 19> { D 20  19  18  17   C } # D for Dihedral angle
| 20> { D 19  18  17  16   C } # D for Dihedral angle
| 21> { D 18  17  16  20   C } # D for Dihedral angle
| 22> { D 17  16  20  19   C } # D for Dihedral angle
| 23> { D 15  12  16  20   C } # D for Dihedral angle
| 24> end
| 25> end
| 26>
| 27>
| 28> #%pal
| 29> #nprocs 8
| 30> #end
| 31>
| 32> * xyz 0 1
| 33> C  -21.048   26.222   46.251
| 34> C  -20.361   27.558   45.944
| 35> C  -20.329   28.222   47.341
| 36> C  -20.110   27.022   48.296
| 37> O  -20.473   25.807   47.535
| 38> H  -20.833   25.428   45.533
| 39> H  -19.344   27.382   45.576
| 40> H  -20.898   28.157   45.201
| 41> H  -19.543   28.978   47.434
| 42> H  -21.289   28.710   47.548
| 43> H  -20.733   27.082   49.195
| 44> H  -19.064   26.913   48.597
| 45> C  -23.065   27.161   47.638
| 46> H  -22.193   27.462   48.231
| 47> H  -23.613   28.068   47.351
| 48> O  -22.586   26.394   46.375
| 49> C  -24.000   26.309   48.540
| 50> C  -24.545   27.133   49.712
| 51> C  -25.679   27.936   49.031
| 52> C  -26.236   26.939   47.984
| 53> O  -25.198   25.903   47.797
| 54> H  -23.479   25.395   48.833
| 55> H  -24.951   26.469   50.483
| 56> O  -23.472   28.044   50.368
| 57> H  -26.445   28.271   49.737
| 58> H  -25.267   28.824   48.537
| 59> H  -26.444   27.416   47.020
| 60> H  -27.140   26.431   48.331
| 61> H  -23.051   28.720   49.615
| 62> *
| 63>
| 64>                          ****END OF INPUT****
 Total Charge           Charge          ....    0
 Multiplicity           Mult            ....    1
 Number of Electrons    NEL             ....  102
FINAL SINGLE POINT ENERGY      -652.809469388407
FINAL SINGLE POINT ENERGY      -652.835940924764
FINAL SINGLE POINT ENERGY      -652.847581935633
FINAL SINGLE POINT ENERGY      -652.849775296473
FINAL SINGLE POINT ENERGY      -652.850246818142
FINAL SINGLE POINT ENERGY      -652.850382371482
FINAL SINGLE POINT ENERGY      -652.850401392861
FINAL SINGLE POINT ENERGY      -652.850394929875
FINAL SINGLE POINT ENERGY      -652.850392030190
                    ***********************HURRAY********************

CARTESIAN COORDINATES (ANGSTROEM)
---------------------------------
  C    -21.156518   26.310013   46.399936
  C    -20.315082   27.489666   45.892972
  C    -19.949235   28.219230   47.217853
  C    -19.783708   27.044984   48.216252
  O    -20.466755   25.880204   47.597141
  H    -21.145834   25.458589   45.717676
  H    -19.415720   27.099068   45.404900
  H    -20.861591   28.116157   45.184022
  H    -19.031822   28.809695   47.130830
  H    -20.751588   28.899406   47.519622
  H    -20.227968   27.238159   49.197694
  H    -18.735672   26.761576   48.351200
  C    -23.082880   27.295881   47.701247
  H    -22.287156   27.609007   48.380752
  H    -23.592907   28.185656   47.309213
  O    -22.570184   26.550799   46.561678
  C    -24.040277   26.405695   48.494755
  C    -24.675930   27.108800   49.705557
  C    -25.874598   27.857500   49.049269
  C    -26.318453   26.878594   47.939226
  O    -25.185021   25.948919   47.713283
  H    -23.491260   25.503414   48.778094
  H    -25.032006   26.360109   50.416557
  O    -23.776058   27.952122   50.472496
  H    -26.669620   28.080016   49.765920
  H    -25.524591   28.809174   48.626601
  H    -26.561977   27.383481   46.999050
  H    -27.176096   26.270856   48.243413
  H    -23.688492   28.829229   50.046792

 Multiplicity           Mult            ....    1
 Number of Electrons    NEL             ....  102
 Basis Dimension        Dim             ....  149

ORBITAL ENERGIES
----------------

  NO   OCC          E(Eh)            E(eV)
   0   2.0000     -19.151308      -521.1336
   1   2.0000     -19.143513      -520.9215
   2   2.0000     -19.136468      -520.7298
   3   2.0000     -19.132669      -520.6264
   4   2.0000     -10.275133      -279.6006
   5   2.0000     -10.244030      -278.7542
   6   2.0000     -10.230417      -278.3838
   7   2.0000     -10.228383      -278.3284
   8   2.0000     -10.228162      -278.3224
   9   2.0000     -10.224523      -278.2234
  10   2.0000     -10.196403      -277.4582
  11   2.0000     -10.193890      -277.3898
  12   2.0000     -10.187111      -277.2054
  13   2.0000      -1.050594       -28.5881
  14   2.0000      -1.032717       -28.1017
  15   2.0000      -1.013293       -27.5731
  16   2.0000      -0.991238       -26.9730
  17   2.0000      -0.788259       -21.4496
  18   2.0000      -0.782026       -21.2800
  19   2.0000      -0.769442       -20.9376
  20   2.0000      -0.731843       -19.9145
  21   2.0000      -0.680442       -18.5158
  22   2.0000      -0.611323       -16.6349
  23   2.0000      -0.603585       -16.4244
  24   2.0000      -0.597941       -16.2708
  25   2.0000      -0.567019       -15.4294
  26   2.0000      -0.522299       -14.2125
  27   2.0000      -0.514500       -14.0003
  28   2.0000      -0.501884       -13.6570
  29   2.0000      -0.492997       -13.4151
  30   2.0000      -0.467057       -12.7093
  31   2.0000      -0.460048       -12.5186
  32   2.0000      -0.439609       -11.9624
  33   2.0000      -0.432807       -11.7773
  34   2.0000      -0.422612       -11.4999
  35   2.0000      -0.418956       -11.4004
  36   2.0000      -0.415764       -11.3135
  37   2.0000      -0.399460       -10.8698
  38   2.0000      -0.378878       -10.3098
  39   2.0000      -0.375127       -10.2077
  40   2.0000      -0.360397        -9.8069
  41   2.0000      -0.353824        -9.6281
  42   2.0000      -0.347333        -9.4514
  43   2.0000      -0.326819        -8.8932
  44   2.0000      -0.320687        -8.7263
  45   2.0000      -0.315479        -8.5846
  46   2.0000      -0.302651        -8.2356
  47   2.0000      -0.270914        -7.3719
  48   2.0000      -0.262702        -7.1485
  49   2.0000      -0.253240        -6.8910
  50   2.0000      -0.231523        -6.3001
  51   0.0000       0.046731         1.2716
  52   0.0000       0.074184         2.0186
  53   0.0000       0.084357         2.2955
  54   0.0000       0.092261         2.5106
  55   0.0000       0.103234         2.8092

MULLIKEN ATOMIC CHARGES
-----------------------
   0 C :    0.291860
   1 C :   -0.263081
   2 C :   -0.314420
   3 C :   -0.023067
   4 O :   -0.507121
   5 H :    0.167643
   6 H :    0.150643
   7 H :    0.152086
   8 H :    0.146619
   9 H :    0.142990
  10 H :    0.154784
  11 H :    0.149552
  12 C :   -0.027346
  13 H :    0.142340
  14 H :    0.125871
  15 O :   -0.508409
  16 C :    0.102104
  17 C :    0.080804
  18 C :   -0.329730
  19 C :   -0.005514
  20 O :   -0.502795
  21 H :    0.172971
  22 H :    0.169598
  23 O :   -0.601990
  24 H :    0.158824
  25 H :    0.128830
  26 H :    0.143701
  27 H :    0.148462
  28 H :    0.353787
Sum of atomic charges:   -0.0000000

LOEWDIN ATOMIC CHARGES
----------------------
   0 C :    0.176090
   1 C :   -0.227689
   2 C :   -0.224623
   3 C :   -0.038317
   4 O :   -0.321578
   5 H :    0.114091
   6 H :    0.118473
   7 H :    0.120700
   8 H :    0.116369
   9 H :    0.106612
  10 H :    0.104735
  11 H :    0.106201
  12 C :   -0.052661
  13 H :    0.106550
  14 H :    0.094862
  15 O :   -0.310938
  16 C :    0.018338
  17 C :    0.033011
  18 C :   -0.242218
  19 C :   -0.029240
  20 O :   -0.311227
  21 H :    0.124482
  22 H :    0.120230
  23 O :   -0.410981
  24 H :    0.122511
  25 H :    0.101537
  26 H :    0.102973
  27 H :    0.105567
  28 H :    0.276142

  Mayer bond orders larger than 0.100000
B(  0-C ,  1-C ) :   0.9135 B(  0-C ,  4-O ) :   0.8977 B(  0-C ,  5-H ) :   0.9347
B(  0-C , 15-O ) :   0.8999 B(  1-C ,  2-C ) :   0.9546 B(  1-C ,  6-H ) :   0.9350
B(  1-C ,  7-H ) :   0.9380 B(  2-C ,  3-C ) :   0.9474 B(  2-C ,  8-H ) :   0.9450
B(  2-C ,  9-H ) :   0.9435 B(  3-C ,  4-O ) :   0.8410 B(  3-C , 10-H ) :   0.9276
B(  3-C , 11-H ) :   0.9383 B( 12-C , 13-H ) :   0.8932 B( 12-C , 14-H ) :   0.9323
B( 12-C , 15-O ) :   0.8468 B( 12-C , 16-C ) :   0.8961 B( 16-C , 17-C ) :   0.8698
B( 16-C , 20-O ) :   0.8692 B( 16-C , 21-H ) :   0.9278 B( 17-C , 18-C ) :   0.9272
B( 17-C , 22-H ) :   0.9320 B( 17-C , 23-O ) :   0.8883 B( 18-C , 19-C ) :   0.9397
B( 18-C , 24-H ) :   0.9409 B( 18-C , 25-H ) :   0.9402 B( 19-C , 20-O ) :   0.8550
B( 19-C , 26-H ) :   0.9314 B( 19-C , 27-H ) :   0.9373 B( 23-O , 28-H ) :   0.8004

FINAL SINGLE POINT ENERGY      -652.850393572192

DIPOLE MOMENT
-------------
                                X             Y             Z
Electronic contribution:     -1.41133      -5.15470      -0.06680
Nuclear contribution   :      1.52660       6.92023       0.09814
                        -----------------------------------------
Total Dipole Moment    :      0.11527       1.76553       0.03134
                        -----------------------------------------
Magnitude (a.u.)       :      1.76957
Magnitude (Debye)      :      4.49789

Rotational constants in cm-1:     0.050304     0.014679     0.012982
Rotational constants in MHz :  1508.081370   440.075391   389.179777

                             ****ORCA TERMINATED NORMALLY****
TOTAL RUN TIME: 0 days 1 hours 20 minutes 34 seconds 258 msec
