                         Program Version 4.2.0 -  RELEASE  -
|  1> # Test redundant internal optimization
|  2> #
|  3> ! RKS B3LYP  Opt TightSCF SmallPrint
|  4>
|  5> %basis
|  6>         Basis "6-31G"
|  7> end
|  8>
|  9> %geom
| 10> Constraints
| 11> { D 4  0  15  12  180.0   C } # D for Dihedral angle
| 12> { D 0  15  12  16  195.0   C } # D for Dihedral angle
| 13> { D 0  4  3  2   C } # D for Dihedral angle
| 14> { D 4  3  2  1   C } # D for Dihedral angle
| 15> { D 3  2  1  0   C } # D for Dihedral angle
| 16> { D 2  1  0  4   C } # D for Dihedral angle
| 17> { D 1  0  4  3   C } # D for Dihedral angle
| 18> { D 16  20  19  18   C } # D for Dihedral angle
| 19> { D 20  19  18  17   C } # D for Dihedral angle
| 20> { D 19  18  17  16   C } # D for Dihedral angle
| 21> { D 18  17  16  20   C } # D for Dihedral angle
| 22> { D 17  16  20  19   C } # D for Dihedral angle
| 23> { D 15  12  16  20   C } # D for Dihedral angle
| 24> end
| 25> end
| 26>
| 27>
| 28> #%pal
| 29> #nprocs 8
| 30> #end
| 31>
| 32> * xyz 0 1
| 33> C  -21.048   26.222   46.251
| 34> C  -20.361   27.558   45.944
| 35> C  -20.329   28.222   47.341
| 36> C  -20.110   27.022   48.296
| 37> O  -20.473   25.807   47.535
| 38> H  -20.833   25.428   45.533
| 39> H  -19.344   27.382   45.576
| 40> H  -20.898   28.157   45.201
| 41> H  -19.543   28.978   47.434
| 42> H  -21.289   28.710   47.548
| 43> H  -20.733   27.082   49.195
| 44> H  -19.064   26.913   48.597
| 45> C  -23.309   26.834   45.072
| 46> H  -22.737   27.640   44.596
| 47> H  -23.372   25.995   44.367
| 48> O  -22.586   26.394   46.375
| 49> C  -24.753   27.345   45.330
| 50> C  -25.589   26.299   46.077
| 51> C  -25.098   26.488   47.533
| 52> C  -24.836   28.012   47.621
| 53> O  -24.734   28.503   46.229
| 54> H  -25.188   27.679   44.386
| 55> H  -26.654   26.541   45.995
| 56> O  -25.371   24.854   45.551
| 57> H  -25.826   26.146   48.275
| 58> H  -24.169   25.927   47.692
| 59> H  -23.910   28.249   48.154
| 60> H  -25.663   28.551   48.092
| 61> H  -24.311   24.591   45.625
| 62> *
| 63>
| 64>                          ****END OF INPUT****
 Total Charge           Charge          ....    0
 Multiplicity           Mult            ....    1
 Number of Electrons    NEL             ....  102
FINAL SINGLE POINT ENERGY      -652.832697036456
FINAL SINGLE POINT ENERGY      -652.855843708387
FINAL SINGLE POINT ENERGY      -652.860799040975
FINAL SINGLE POINT ENERGY      -652.862245513572
FINAL SINGLE POINT ENERGY      -652.862407321832
FINAL SINGLE POINT ENERGY      -652.862430829509
FINAL SINGLE POINT ENERGY      -652.862420430639
                    ***********************HURRAY********************

CARTESIAN COORDINATES (ANGSTROEM)
---------------------------------
  C    -21.056787   26.252565   46.150263
  C    -20.319389   27.566280   45.899017
  C    -20.391729   28.246252   47.288516
  C    -20.283106   27.053767   48.259533
  O    -20.613380   25.848133   47.451762
  H    -20.826558   25.442080   45.450856
  H    -19.282322   27.339444   45.625391
  H    -20.751670   28.179173   45.104741
  H    -19.593985   28.979910   47.437107
  H    -21.355021   28.753678   47.396873
  H    -20.981269   27.111795   49.098221
  H    -19.269045   26.903319   48.640587
  C    -23.210905   26.843840   45.040447
  H    -22.681869   27.667594   44.546221
  H    -23.291275   26.006451   44.330821
  O    -22.503819   26.428993   46.242623
  C    -24.610347   27.329694   45.403444
  C    -25.508079   26.289814   46.096973
  C    -25.085191   26.447331   47.591186
  C    -24.798220   27.959458   47.703860
  O    -24.615034   28.464091   46.316563
  H    -25.070638   27.684353   44.473272
  H    -26.558973   26.548159   45.949380
  O    -25.370451   24.945735   45.576694
  H    -25.870686   26.115417   48.276793
  H    -24.176710   25.866433   47.764983
  H    -23.891939   28.173208   48.277194
  H    -25.636920   28.517715   48.131785
  H    -24.525684   24.564317   45.895896

 Multiplicity           Mult            ....    1
 Number of Electrons    NEL             ....  102
 Basis Dimension        Dim             ....  149

ORBITAL ENERGIES
----------------

  NO   OCC          E(Eh)            E(eV)
   0   2.0000     -19.149827      -521.0933
   1   2.0000     -19.146687      -521.0078
   2   2.0000     -19.137088      -520.7467
   3   2.0000     -19.134227      -520.6688
   4   2.0000     -10.286945      -279.9220
   5   2.0000     -10.234596      -278.4975
   6   2.0000     -10.233162      -278.4585
   7   2.0000     -10.230590      -278.3885
   8   2.0000     -10.229997      -278.3724
   9   2.0000     -10.221184      -278.1326
  10   2.0000     -10.192246      -277.3451
  11   2.0000     -10.189886      -277.2809
  12   2.0000     -10.175977      -276.9024
  13   2.0000      -1.060558       -28.8593
  14   2.0000      -1.026153       -27.9230
  15   2.0000      -1.008138       -27.4328
  16   2.0000      -0.997948       -27.1556
  17   2.0000      -0.791095       -21.5268
  18   2.0000      -0.773031       -21.0352
  19   2.0000      -0.764358       -20.7992
  20   2.0000      -0.735151       -20.0045
  21   2.0000      -0.679257       -18.4835
  22   2.0000      -0.605788       -16.4843
  23   2.0000      -0.600612       -16.3435
  24   2.0000      -0.596027       -16.2187
  25   2.0000      -0.567950       -15.4547
  26   2.0000      -0.531588       -14.4652
  27   2.0000      -0.506477       -13.7819
  28   2.0000      -0.499760       -13.5992
  29   2.0000      -0.489547       -13.3213
  30   2.0000      -0.474350       -12.9077
  31   2.0000      -0.458158       -12.4671
  32   2.0000      -0.449808       -12.2399
  33   2.0000      -0.431119       -11.7313
  34   2.0000      -0.422429       -11.4949
  35   2.0000      -0.411032       -11.1848
  36   2.0000      -0.402623       -10.9559
  37   2.0000      -0.399982       -10.8841
  38   2.0000      -0.380824       -10.3628
  39   2.0000      -0.371353       -10.1050
  40   2.0000      -0.359512        -9.7828
  41   2.0000      -0.355462        -9.6726
  42   2.0000      -0.352069        -9.5803
  43   2.0000      -0.324973        -8.8430
  44   2.0000      -0.317050        -8.6274
  45   2.0000      -0.309075        -8.4104
  46   2.0000      -0.303933        -8.2704
  47   2.0000      -0.266676        -7.2566
  48   2.0000      -0.263934        -7.1820
  49   2.0000      -0.258699        -7.0396
  50   2.0000      -0.239724        -6.5232
  51   0.0000       0.064306         1.7498
  52   0.0000       0.077706         2.1145
  53   0.0000       0.094341         2.5672
  54   0.0000       0.097940         2.6651
  55   0.0000       0.100080         2.7233

MULLIKEN ATOMIC CHARGES
-----------------------
   0 C :    0.310144
   1 C :   -0.282475
   2 C :   -0.304262
   3 C :   -0.003110
   4 O :   -0.504709
   5 H :    0.142761
   6 H :    0.150039
   7 H :    0.151281
   8 H :    0.144697
   9 H :    0.173519
  10 H :    0.151125
  11 H :    0.144826
  12 C :   -0.020341
  13 H :    0.139111
  14 H :    0.137876
  15 O :   -0.532331
  16 C :    0.093238
  17 C :    0.086750
  18 C :   -0.315272
  19 C :   -0.006948
  20 O :   -0.524396
  21 H :    0.147137
  22 H :    0.160168
  23 O :   -0.610183
  24 H :    0.142178
  25 H :    0.180325
  26 H :    0.141215
  27 H :    0.141189
  28 H :    0.366444
Sum of atomic charges:    0.0000000

LOEWDIN ATOMIC CHARGES
----------------------
   0 C :    0.182152
   1 C :   -0.230557
   2 C :   -0.217290
   3 C :   -0.025311
   4 O :   -0.305419
   5 H :    0.097570
   6 H :    0.117257
   7 H :    0.117348
   8 H :    0.116003
   9 H :    0.122616
  10 H :    0.107414
  11 H :    0.104181
  12 C :   -0.051174
  13 H :    0.099992
  14 H :    0.099041
  15 O :   -0.341492
  16 C :    0.020332
  17 C :    0.038065
  18 C :   -0.244204
  19 C :   -0.025126
  20 O :   -0.325459
  21 H :    0.113317
  22 H :    0.115118
  23 O :   -0.412906
  24 H :    0.114318
  25 H :    0.128864
  26 H :    0.101039
  27 H :    0.100359
  28 H :    0.283951

  Mayer bond orders larger than 0.100000
B(  0-C ,  1-C ) :   0.9326 B(  0-C ,  4-O ) :   0.9407 B(  0-C ,  5-H ) :   0.9218
B(  0-C , 15-O ) :   0.8202 B(  1-C ,  2-C ) :   0.9497 B(  1-C ,  6-H ) :   0.9335
B(  1-C ,  7-H ) :   0.9282 B(  2-C ,  3-C ) :   0.9563 B(  2-C ,  8-H ) :   0.9445
B(  2-C ,  9-H ) :   0.9386 B(  3-C ,  4-O ) :   0.8313 B(  3-C , 10-H ) :   0.9345
B(  3-C , 11-H ) :   0.9395 B( 12-C , 13-H ) :   0.9114 B( 12-C , 14-H ) :   0.9034
B( 12-C , 15-O ) :   0.8318 B( 12-C , 16-C ) :   0.9136 B( 16-C , 17-C ) :   0.8880
B( 16-C , 20-O ) :   0.8807 B( 16-C , 21-H ) :   0.9289 B( 17-C , 18-C ) :   0.9352
B( 17-C , 22-H ) :   0.9363 B( 17-C , 23-O ) :   0.9010 B( 18-C , 19-C ) :   0.9465
B( 18-C , 24-H ) :   0.9408 B( 18-C , 25-H ) :   0.9220 B( 19-C , 20-O ) :   0.8368
B( 19-C , 26-H ) :   0.9305 B( 19-C , 27-H ) :   0.9377 B( 23-O , 28-H ) :   0.7913

FINAL SINGLE POINT ENERGY      -652.862416113239

DIPOLE MOMENT
-------------
                                X             Y             Z
Electronic contribution:     -2.47568      -3.00976      -1.63542
Nuclear contribution   :      3.35827       3.56655       1.68269
                        -----------------------------------------
Total Dipole Moment    :      0.88259       0.55679       0.04727
                        -----------------------------------------
Magnitude (a.u.)       :      1.04461
Magnitude (Debye)      :      2.65519

Rotational constants in cm-1:     0.045580     0.016821     0.015879
Rotational constants in MHz :  1366.445060   504.284083   476.053443

                             ****ORCA TERMINATED NORMALLY****
TOTAL RUN TIME: 0 days 0 hours 20 minutes 16 seconds 839 msec
