                         Program Version 4.2.1 -  RELEASE  -
|  1> # Test redundant internal optimization
|  2> #
|  3> ! RKS B3LYP  Opt TightSCF SmallPrint
|  4>
|  5> %basis
|  6>         Basis "6-31G"
|  7> end
|  8>
|  9> %geom
| 10> Constraints
| 11> { D 4  0  19  14  105.0   C } # D for Dihedral angle
| 12> { D 0  19  14  12  60.0   C } # D for Dihedral angle
| 13> { D 0  4  3  2   C } # D for Dihedral angle
| 14> { D 4  3  2  1   C } # D for Dihedral angle
| 15> { D 3  2  1  0   C } # D for Dihedral angle
| 16> { D 2  1  0  4   C } # D for Dihedral angle
| 17> { D 1  0  4  3   C } # D for Dihedral angle
| 18> { D 14  15  16  17   C } # D for Dihedral angle
| 19> { D 15  16  17  12   C } # D for Dihedral angle
| 20> { D 16  17  12  14   C } # D for Dihedral angle
| 21> { D 17  12  14  15   C } # D for Dihedral angle
| 22> { D 12  14  15  16   C } # D for Dihedral angle
| 23> end
| 24> end
| 25>
| 26>
| 27> #%pal
| 28> #nprocs 8
| 29> #end
| 30>
| 31> * xyz 0 1
| 32> C  -21.048   26.222   46.251
| 33> C  -20.361   27.558   45.944
| 34> C  -20.329   28.222   47.341
| 35> C  -20.110   27.022   48.296
| 36> O  -20.473   25.807   47.535
| 37> H  -20.833   25.428   45.533
| 38> H  -19.344   27.382   45.576
| 39> H  -20.898   28.157   45.201
| 40> H  -19.543   28.978   47.434
| 41> H  -21.289   28.710   47.548
| 42> H  -20.733   27.082   49.195
| 43> H  -19.064   26.913   48.597
| 44> C  -22.493   28.474   45.124
| 45> H  -22.554   29.567   45.244
| 46> C  -22.914   27.747   46.406
| 47> C  -24.456   27.826   46.320
| 48> C  -24.730   27.703   44.800
| 49> O  -23.456   28.015   44.116
| 50> H  -21.499   28.210   44.759
| 51> O  -22.472   26.381   46.366
| 52> H  -22.515   28.213   47.315
| 53> H  -24.955   27.042   46.899
| 54> H  -24.807   28.794   46.699
| 55> H  -25.502   28.399   44.455
| 56> H  -25.013   26.687   44.507
| 57> *
| 58>
| 59>                          ****END OF INPUT****
 Total Charge           Charge          ....    0
 Multiplicity           Mult            ....    1
 Number of Electrons    NEL             ....   86
FINAL SINGLE POINT ENERGY      -538.265353841937
FINAL SINGLE POINT ENERGY      -538.329401660564
FINAL SINGLE POINT ENERGY      -538.363797942442
FINAL SINGLE POINT ENERGY      -538.384285781379
FINAL SINGLE POINT ENERGY      -538.396128951586
FINAL SINGLE POINT ENERGY      -538.402549373247
FINAL SINGLE POINT ENERGY      -538.405638545642
FINAL SINGLE POINT ENERGY      -538.406801859014
FINAL SINGLE POINT ENERGY      -538.407377801702
FINAL SINGLE POINT ENERGY      -538.407835996260
FINAL SINGLE POINT ENERGY      -538.414717649180
FINAL SINGLE POINT ENERGY      -538.415528094892
FINAL SINGLE POINT ENERGY      -538.416588786820
FINAL SINGLE POINT ENERGY      -538.417692289429
FINAL SINGLE POINT ENERGY      -538.418445775339
FINAL SINGLE POINT ENERGY      -538.418909037657
FINAL SINGLE POINT ENERGY      -538.419054576589
FINAL SINGLE POINT ENERGY      -538.419088788770
FINAL SINGLE POINT ENERGY      -538.419101048513
                    ***********************HURRAY********************

CARTESIAN COORDINATES (ANGSTROEM)
---------------------------------
  C    -21.087176   26.318117   46.371598
  C    -20.040030   27.366583   45.981474
  C    -19.830841   28.132501   47.319788
  C    -19.982514   27.006568   48.372531
  O    -20.672272   25.892429   47.689662
  H    -21.062156   25.422781   45.750081
  H    -19.123325   26.825952   45.718624
  H    -20.304594   27.994523   45.134421
  H    -18.853577   28.621211   47.372199
  H    -20.597197   28.905362   47.450783
  H    -20.570651   27.311415   49.243371
  H    -19.015387   26.624559   48.712751
  C    -22.870461   28.872397   45.172520
  H    -23.251606   29.881464   45.395879
  C    -23.143873   27.971183   46.376896
  C    -24.638494   27.652986   46.192033
  C    -24.804078   27.572689   44.657349
  O    -23.623837   28.257530   44.076031
  H    -21.839351   28.956036   44.843934
  O    -22.496879   26.660568   46.393868
  H    -22.947932   28.494266   47.323584
  H    -24.890309   26.721491   46.701752
  H    -25.244240   28.462989   46.615020
  H    -25.713300   28.069986   44.303386
  H    -24.786920   26.543414   44.291464

 Multiplicity           Mult            ....    1
 Number of Electrons    NEL             ....   86
 Basis Dimension        Dim             ....  127

ORBITAL ENERGIES
----------------

  NO   OCC          E(Eh)            E(eV)
   0   2.0000     -19.136304      -520.7253
   1   2.0000     -19.135801      -520.7116
   2   2.0000     -19.130793      -520.5753
   3   2.0000     -10.279338      -279.7150
   4   2.0000     -10.244954      -278.7794
   5   2.0000     -10.227441      -278.3028
   6   2.0000     -10.227192      -278.2960
   7   2.0000     -10.219427      -278.0847
   8   2.0000     -10.195648      -277.4377
   9   2.0000     -10.193605      -277.3821
  10   2.0000     -10.183541      -277.1082
  11   2.0000      -1.047333       -28.4994
  12   2.0000      -1.014852       -27.6155
  13   2.0000      -0.985560       -26.8185
  14   2.0000      -0.791713       -21.5436
  15   2.0000      -0.786249       -21.3949
  16   2.0000      -0.739460       -20.1217
  17   2.0000      -0.728337       -19.8191
  18   2.0000      -0.623938       -16.9782
  19   2.0000      -0.605350       -16.4724
  20   2.0000      -0.597821       -16.2675
  21   2.0000      -0.565929       -15.3997
  22   2.0000      -0.515042       -14.0150
  23   2.0000      -0.503005       -13.6875
  24   2.0000      -0.493684       -13.4338
  25   2.0000      -0.487995       -13.2790
  26   2.0000      -0.452218       -12.3055
  27   2.0000      -0.444755       -12.1024
  28   2.0000      -0.436203       -11.8697
  29   2.0000      -0.415687       -11.3114
  30   2.0000      -0.408362       -11.1121
  31   2.0000      -0.389851       -10.6084
  32   2.0000      -0.371459       -10.1079
  33   2.0000      -0.369153       -10.0452
  34   2.0000      -0.365210        -9.9379
  35   2.0000      -0.359820        -9.7912
  36   2.0000      -0.345061        -9.3896
  37   2.0000      -0.314520        -8.5585
  38   2.0000      -0.305895        -8.3238
  39   2.0000      -0.287151        -7.8138
  40   2.0000      -0.267482        -7.2786
  41   2.0000      -0.246651        -6.7117
  42   2.0000      -0.237049        -6.4504
  43   0.0000       0.066304         1.8042
  44   0.0000       0.087417         2.3788
  45   0.0000       0.094686         2.5765
  46   0.0000       0.101972         2.7748
  47   0.0000       0.115960         3.1554

MULLIKEN ATOMIC CHARGES
-----------------------
   0 C :    0.317709
   1 C :   -0.299353
   2 C :   -0.311676
   3 C :   -0.003645
   4 O :   -0.496150
   5 H :    0.165773
   6 H :    0.157344
   7 H :    0.154367
   8 H :    0.146378
   9 H :    0.143864
  10 H :    0.144597
  11 H :    0.145181
  12 C :   -0.020794
  13 H :    0.127057
  14 C :    0.090806
  15 C :   -0.290185
  16 C :    0.004786
  17 O :   -0.521868
  18 H :    0.155580
  19 O :   -0.536647
  20 H :    0.125215
  21 H :    0.175651
  22 H :    0.138297
  23 H :    0.132840
  24 H :    0.154872
Sum of atomic charges:    0.0000000

LOEWDIN ATOMIC CHARGES
----------------------
   0 C :    0.184190
   1 C :   -0.230986
   2 C :   -0.222011
   3 C :   -0.031520
   4 O :   -0.316361
   5 H :    0.112722
   6 H :    0.123383
   7 H :    0.118137
   8 H :    0.116751
   9 H :    0.106232
  10 H :    0.103131
  11 H :    0.103537
  12 C :   -0.052129
  13 H :    0.094353
  14 C :    0.044901
  15 C :   -0.221579
  16 C :   -0.026219
  17 O :   -0.333248
  18 H :    0.111883
  19 O :   -0.329307
  20 H :    0.092089
  21 H :    0.134852
  22 H :    0.110054
  23 H :    0.097671
  24 H :    0.109474

  Mayer bond orders larger than 0.100000
B(  0-C ,  1-C ) :   0.9256 B(  0-C ,  4-O ) :   0.9061 B(  0-C ,  5-H ) :   0.9327
B(  0-C , 19-O ) :   0.8827 B(  1-C ,  2-C ) :   0.9528 B(  1-C ,  6-H ) :   0.9316
B(  1-C ,  7-H ) :   0.9207 B(  2-C ,  3-C ) :   0.9478 B(  2-C ,  8-H ) :   0.9455
B(  2-C ,  9-H ) :   0.9427 B(  3-C ,  4-O ) :   0.8502 B(  3-C , 10-H ) :   0.9344
B(  3-C , 11-H ) :   0.9385 B( 12-C , 13-H ) :   0.9066 B( 12-C , 14-C ) :   0.9082
B( 12-C , 17-O ) :   0.8782 B( 12-C , 18-H ) :   0.9205 B( 14-C , 15-C ) :   0.9521
B( 14-C , 19-O ) :   0.8339 B( 14-C , 20-H ) :   0.9169 B( 15-C , 16-C ) :   0.9450
B( 15-C , 21-H ) :   0.9335 B( 15-C , 22-H ) :   0.9418 B( 16-C , 17-O ) :   0.8505
B( 16-C , 23-H ) :   0.9343 B( 16-C , 24-H ) :   0.9371

FINAL SINGLE POINT ENERGY      -538.419102794994

DIPOLE MOMENT
-------------
                                X             Y             Z
Electronic contribution:     -0.89639      -3.56797      -1.03010
Nuclear contribution   :      1.27158       4.60948       1.49313
                        -----------------------------------------
Total Dipole Moment    :      0.37519       1.04150       0.46303
                        -----------------------------------------
Magnitude (a.u.)       :      1.19995
Magnitude (Debye)      :      3.05004

Rotational constants in cm-1:     0.081135     0.021945     0.020392
Rotational constants in MHz :  2432.358309   657.887029   611.350885

                             ****ORCA TERMINATED NORMALLY****
TOTAL RUN TIME: 0 days 0 hours 32 minutes 49 seconds 422 msec
