                         Program Version 4.2.0 -  RELEASE  -
|  1> # Test redundant internal optimization
|  2> #
|  3> ! RKS B3LYP  Opt TightSCF SmallPrint
|  4>
|  5> %basis
|  6>         Basis "6-31G"
|  7> end
|  8>
|  9> %geom
| 10> Constraints
| 11> { D 4  0  15  12  210.0   C } # D for Dihedral angle
| 12> { D 0  15  12  16  255.0   C } # D for Dihedral angle
| 13> { D 0  4  3  2   C } # D for Dihedral angle
| 14> { D 4  3  2  1   C } # D for Dihedral angle
| 15> { D 3  2  1  0   C } # D for Dihedral angle
| 16> { D 2  1  0  4   C } # D for Dihedral angle
| 17> { D 1  0  4  3   C } # D for Dihedral angle
| 18> { D 16  20  19  18   C } # D for Dihedral angle
| 19> { D 20  19  18  17   C } # D for Dihedral angle
| 20> { D 19  18  17  16   C } # D for Dihedral angle
| 21> { D 18  17  16  20   C } # D for Dihedral angle
| 22> { D 17  16  20  19   C } # D for Dihedral angle
| 23> { D 15  12  16  20   C } # D for Dihedral angle
| 24> end
| 25> end
| 26>
| 27>
| 28> #%pal
| 29> #nprocs 8
| 30> #end
| 31>
| 32> * xyz 0 1
| 33> C  -21.048   26.222   46.251
| 34> C  -20.361   27.558   45.944
| 35> C  -20.329   28.222   47.341
| 36> C  -20.110   27.022   48.296
| 37> O  -20.473   25.807   47.535
| 38> H  -20.833   25.428   45.533
| 39> H  -19.344   27.382   45.576
| 40> H  -20.898   28.157   45.201
| 41> H  -19.543   28.978   47.434
| 42> H  -21.289   28.710   47.548
| 43> H  -20.733   27.082   49.195
| 44> H  -19.064   26.913   48.597
| 45> C  -23.389   26.110   45.076
| 46> H  -22.750   25.571   44.366
| 47> H  -24.264   25.485   45.294
| 48> O  -22.586   26.394   46.375
| 49> C  -23.896   27.408   44.388
| 50> C  -24.726   28.262   45.353
| 51> C  -23.622   28.953   46.189
| 52> C  -22.488   29.176   45.157
| 53> O  -22.767   28.269   44.022
| 54> H  -24.410   27.144   43.462
| 55> O  -25.551   29.313   44.561
| 56> H  -25.416   27.673   45.967
| 57> H  -23.958   29.889   46.647
| 58> H  -23.286   28.288   46.993
| 59> H  -21.498   28.947   45.565
| 60> H  -22.479   30.195   44.760
| 61> H  -24.880   29.916   43.939
| 62> *
| 63>
| 64>                          ****END OF INPUT****
 Total Charge           Charge          ....    0
 Multiplicity           Mult            ....    1
 Number of Electrons    NEL             ....  102
FINAL SINGLE POINT ENERGY      -652.778620491510
FINAL SINGLE POINT ENERGY      -652.833162927619
FINAL SINGLE POINT ENERGY      -652.851907332236
FINAL SINGLE POINT ENERGY      -652.856312677674
FINAL SINGLE POINT ENERGY      -652.857031146907
FINAL SINGLE POINT ENERGY      -652.857210750943
FINAL SINGLE POINT ENERGY      -652.857271247266
FINAL SINGLE POINT ENERGY      -652.857296316471
FINAL SINGLE POINT ENERGY      -652.857302832164
                    ***********************HURRAY********************

CARTESIAN COORDINATES (ANGSTROEM)
---------------------------------
  C    -20.988611   26.154201   46.241189
  C    -20.176748   27.426235   46.013708
  C    -20.110696   28.024650   47.438325
  C    -20.026189   26.769004   48.333105
  O    -20.492420   25.643343   47.485933
  H    -20.828766   25.380880   45.481086
  H    -19.174074   27.134006   45.678429
  H    -20.614793   28.072078   45.255028
  H    -19.254173   28.691561   47.575731
  H    -21.022098   28.591541   47.655881
  H    -20.662532   26.825465   49.219587
  H    -19.001851   26.532417   48.635536
  C    -23.239630   26.205964   45.193118
  H    -22.664418   25.646435   44.440545
  H    -24.104352   25.592655   45.475941
  O    -22.431662   26.352663   46.394456
  C    -23.782832   27.475160   44.524600
  C    -24.800691   28.308195   45.317328
  C    -23.876022   29.302857   46.065110
  C    -22.740161   29.564340   45.050253
  O    -22.796506   28.452631   44.058689
  H    -24.281173   27.109087   43.615833
  O    -25.728160   28.983179   44.421930
  H    -25.425945   27.715960   45.985080
  H    -24.415656   30.209678   46.348839
  H    -23.486711   28.816529   46.964323
  H    -21.754320   29.592829   45.514235
  H    -22.885411   30.490173   44.483874
  H    -25.224398   29.410283   43.697306

 Multiplicity           Mult            ....    1
 Number of Electrons    NEL             ....  102
 Basis Dimension        Dim             ....  149

ORBITAL ENERGIES
----------------

  NO   OCC          E(Eh)            E(eV)
   0   2.0000     -19.152658      -521.1703
   1   2.0000     -19.145226      -520.9681
   2   2.0000     -19.140762      -520.8466
   3   2.0000     -19.139406      -520.8097
   4   2.0000     -10.280559      -279.7482
   5   2.0000     -10.241469      -278.6845
   6   2.0000     -10.238745      -278.6104
   7   2.0000     -10.237360      -278.5727
   8   2.0000     -10.233735      -278.4741
   9   2.0000     -10.226459      -278.2761
  10   2.0000     -10.189573      -277.2724
  11   2.0000     -10.186173      -277.1799
  12   2.0000     -10.184012      -277.1211
  13   2.0000      -1.053834       -28.6763
  14   2.0000      -1.039536       -28.2872
  15   2.0000      -1.008853       -27.4523
  16   2.0000      -0.995235       -27.0817
  17   2.0000      -0.789227       -21.4759
  18   2.0000      -0.782757       -21.2999
  19   2.0000      -0.771834       -21.0027
  20   2.0000      -0.734543       -19.9879
  21   2.0000      -0.681276       -18.5385
  22   2.0000      -0.605876       -16.4867
  23   2.0000      -0.603575       -16.4241
  24   2.0000      -0.598807       -16.2944
  25   2.0000      -0.580110       -15.7856
  26   2.0000      -0.526744       -14.3334
  27   2.0000      -0.508966       -13.8497
  28   2.0000      -0.500896       -13.6301
  29   2.0000      -0.488241       -13.2857
  30   2.0000      -0.477532       -12.9943
  31   2.0000      -0.463516       -12.6129
  32   2.0000      -0.452663       -12.3176
  33   2.0000      -0.444327       -12.0908
  34   2.0000      -0.426895       -11.6164
  35   2.0000      -0.413575       -11.2539
  36   2.0000      -0.403204       -10.9718
  37   2.0000      -0.391815       -10.6618
  38   2.0000      -0.378491       -10.2993
  39   2.0000      -0.371886       -10.1195
  40   2.0000      -0.363511        -9.8916
  41   2.0000      -0.358017        -9.7421
  42   2.0000      -0.353357        -9.6153
  43   2.0000      -0.335092        -9.1183
  44   2.0000      -0.314740        -8.5645
  45   2.0000      -0.312755        -8.5105
  46   2.0000      -0.305391        -8.3101
  47   2.0000      -0.279077        -7.5941
  48   2.0000      -0.266776        -7.2594
  49   2.0000      -0.259863        -7.0712
  50   2.0000      -0.241534        -6.5725
  51   0.0000       0.059564         1.6208
  52   0.0000       0.077405         2.1063
  53   0.0000       0.087528         2.3818
  54   0.0000       0.095012         2.5854
  55   0.0000       0.099756         2.7145

MULLIKEN ATOMIC CHARGES
-----------------------
   0 C :    0.301818
   1 C :   -0.282182
   2 C :   -0.309838
   3 C :   -0.000678
   4 O :   -0.502006
   5 H :    0.140700
   6 H :    0.145066
   7 H :    0.173347
   8 H :    0.143218
   9 H :    0.154229
  10 H :    0.152625
  11 H :    0.142520
  12 C :   -0.030139
  13 H :    0.138173
  14 H :    0.153219
  15 O :   -0.510972
  16 C :    0.082360
  17 C :    0.082813
  18 C :   -0.299832
  19 C :   -0.025671
  20 O :   -0.530960
  21 H :    0.153840
  22 O :   -0.603634
  23 H :    0.158963
  24 H :    0.155945
  25 H :    0.172287
  26 H :    0.138769
  27 H :    0.142962
  28 H :    0.363056
Sum of atomic charges:   -0.0000000

LOEWDIN ATOMIC CHARGES
----------------------
   0 C :    0.182748
   1 C :   -0.232693
   2 C :   -0.219805
   3 C :   -0.024983
   4 O :   -0.304762
   5 H :    0.096071
   6 H :    0.115943
   7 H :    0.128269
   8 H :    0.114817
   9 H :    0.111340
  10 H :    0.108349
  11 H :    0.102607
  12 C :   -0.041397
  13 H :    0.101526
  14 H :    0.114835
  15 O :   -0.336172
  16 C :    0.003777
  17 C :    0.038285
  18 C :   -0.240255
  19 C :   -0.036466
  20 O :   -0.333652
  21 H :    0.115742
  22 O :   -0.416128
  23 H :    0.119590
  24 H :    0.123413
  25 H :    0.126104
  26 H :    0.101011
  27 H :    0.100003
  28 H :    0.281883

  Mayer bond orders larger than 0.100000
B(  0-C ,  1-C ) :   0.9293 B(  0-C ,  4-O ) :   0.9349 B(  0-C ,  5-H ) :   0.9168
B(  0-C , 15-O ) :   0.8314 B(  1-C ,  2-C ) :   0.9542 B(  1-C ,  6-H ) :   0.9321
B(  1-C ,  7-H ) :   0.9105 B(  2-C ,  3-C ) :   0.9512 B(  2-C ,  8-H ) :   0.9450
B(  2-C ,  9-H ) :   0.9391 B(  3-C ,  4-O ) :   0.8386 B(  3-C , 10-H ) :   0.9346
B(  3-C , 11-H ) :   0.9391 B( 12-C , 13-H ) :   0.9174 B( 12-C , 14-H ) :   0.9219
B( 12-C , 15-O ) :   0.8782 B( 12-C , 16-C ) :   0.8879 B( 16-C , 17-C ) :   0.9082
B( 16-C , 20-O ) :   0.8613 B( 16-C , 21-H ) :   0.9138 B( 17-C , 18-C ) :   0.9225
B( 17-C , 22-O ) :   0.8904 B( 17-C , 23-H ) :   0.9346 B( 18-C , 19-C ) :   0.9476
B( 18-C , 24-H ) :   0.9362 B( 18-C , 25-H ) :   0.9199 B( 19-C , 20-O ) :   0.8376
B( 19-C , 26-H ) :   0.9204 B( 19-C , 27-H ) :   0.9393 B( 22-O , 28-H ) :   0.7964

FINAL SINGLE POINT ENERGY      -652.857303427975

DIPOLE MOMENT
-------------
                                X             Y             Z
Electronic contribution:     -2.96669      -3.30588      -1.99796
Nuclear contribution   :      3.63998       4.03843       1.92864
                        -----------------------------------------
Total Dipole Moment    :      0.67329       0.73255      -0.06932
                        -----------------------------------------
Magnitude (a.u.)       :      0.99737
Magnitude (Debye)      :      2.53512

Rotational constants in cm-1:     0.054568     0.015517     0.014314
Rotational constants in MHz :  1635.898180   465.183646   429.113755

                             ****ORCA TERMINATED NORMALLY****
TOTAL RUN TIME: 0 days 0 hours 55 minutes 58 seconds 757 msec
