                         Program Version 4.2.0 -  RELEASE  -
|  1> # Test redundant internal optimization
|  2> #
|  3> ! RKS B3LYP  Opt TightSCF SmallPrint
|  4>
|  5> %basis
|  6>         Basis "6-31G"
|  7> end
|  8>
|  9> %geom
| 10> Constraints
| 11> { D 4  0  15  12  30.0   C } # D for Dihedral angle
| 12> { D 0  15  12  16  195.0   C } # D for Dihedral angle
| 13> { D 0  4  3  2   C } # D for Dihedral angle
| 14> { D 4  3  2  1   C } # D for Dihedral angle
| 15> { D 3  2  1  0   C } # D for Dihedral angle
| 16> { D 2  1  0  4   C } # D for Dihedral angle
| 17> { D 1  0  4  3   C } # D for Dihedral angle
| 18> { D 16  20  19  18   C } # D for Dihedral angle
| 19> { D 20  19  18  17   C } # D for Dihedral angle
| 20> { D 19  18  17  16   C } # D for Dihedral angle
| 21> { D 18  17  16  20   C } # D for Dihedral angle
| 22> { D 17  16  20  19   C } # D for Dihedral angle
| 23> { D 15  12  16  20   C } # D for Dihedral angle
| 24> end
| 25> end
| 26>
| 27>
| 28> #%pal
| 29> #nprocs 8
| 30> #end
| 31>
| 32> * xyz 0 1
| 33> C  -21.048   26.222   46.251
| 34> C  -20.361   27.558   45.944
| 35> C  -20.329   28.222   47.341
| 36> C  -20.110   27.022   48.296
| 37> O  -20.473   25.807   47.535
| 38> H  -20.833   25.428   45.533
| 39> H  -19.344   27.382   45.576
| 40> H  -20.898   28.157   45.201
| 41> H  -19.543   28.978   47.434
| 42> H  -21.289   28.710   47.548
| 43> H  -20.733   27.082   49.195
| 44> H  -19.064   26.913   48.597
| 45> C  -23.091   26.824   47.779
| 46> H  -22.576   26.232   48.546
| 47> H  -22.871   27.884   47.959
| 48> O  -22.586   26.394   46.375
| 49> C  -24.622   26.623   47.954
| 50> C  -25.104   27.164   49.305
| 51> C  -25.179   28.684   49.026
| 52> C  -25.635   28.747   47.547
| 53> O  -25.359   27.416   46.965
| 54> H  -24.869   25.575   47.773
| 55> O  -26.511   26.597   49.635
| 56> H  -24.429   26.917   50.132
| 57> H  -25.869   29.205   49.698
| 58> H  -24.188   29.138   49.145
| 59> H  -25.093   29.508   46.973
| 60> H  -26.709   28.927   47.448
| 61> H  -27.204   26.833   48.820
| 62> *
| 63>
| 64>                          ****END OF INPUT****
 Total Charge           Charge          ....    0
 Multiplicity           Mult            ....    1
 Number of Electrons    NEL             ....  102
FINAL SINGLE POINT ENERGY      -652.824906981583
FINAL SINGLE POINT ENERGY      -652.849176412233
FINAL SINGLE POINT ENERGY      -652.854308162398
FINAL SINGLE POINT ENERGY      -652.856645125567
FINAL SINGLE POINT ENERGY      -652.856830357428
FINAL SINGLE POINT ENERGY      -652.856864895228
                    ***********************HURRAY********************

CARTESIAN COORDINATES (ANGSTROEM)
---------------------------------
  C    -21.197472   26.281869   46.403750
  C    -20.415280   27.513754   45.933452
  C    -20.054933   28.198723   47.279291
  C    -19.822432   26.996076   48.224802
  O    -20.469637   25.829105   47.569041
  H    -21.183033   25.458878   45.687275
  H    -19.511004   27.182887   45.410221
  H    -21.004413   28.145641   45.265319
  H    -19.166682   28.833508   47.202296
  H    -20.882747   28.826324   47.623562
  H    -20.260500   27.133353   49.217874
  H    -18.763171   26.745883   48.333156
  C    -23.078713   26.932156   47.933303
  H    -22.613838   26.315927   48.712741
  H    -22.832953   27.986730   48.120562
  O    -22.612124   26.514258   46.624280
  C    -24.590452   26.727793   47.957038
  C    -25.259961   27.162316   49.269316
  C    -25.429337   28.688441   49.048254
  C    -25.726245   28.789516   47.531004
  O    -25.279062   27.511520   46.928200
  H    -24.798969   25.678309   47.730349
  O    -26.542601   26.499065   49.438071
  H    -24.686958   26.915615   50.164637
  H    -26.237465   29.081015   49.670603
  H    -24.505318   29.215871   49.310514
  H    -25.195458   29.616758   47.050280
  H    -26.794980   28.892166   47.318534
  H    -27.004260   26.475545   48.573276

 Multiplicity           Mult            ....    1
 Number of Electrons    NEL             ....  102
 Basis Dimension        Dim             ....  149

ORBITAL ENERGIES
----------------

  NO   OCC          E(Eh)            E(eV)
   0   2.0000     -19.149574      -521.0864
   1   2.0000     -19.138985      -520.7983
   2   2.0000     -19.138711      -520.7908
   3   2.0000     -19.137751      -520.7647
   4   2.0000     -10.278147      -279.6826
   5   2.0000     -10.242780      -278.7202
   6   2.0000     -10.234611      -278.4979
   7   2.0000     -10.232382      -278.4373
   8   2.0000     -10.231211      -278.4054
   9   2.0000     -10.229388      -278.3558
  10   2.0000     -10.195057      -277.4216
  11   2.0000     -10.189981      -277.2835
  12   2.0000     -10.187288      -277.2102
  13   2.0000      -1.055286       -28.7158
  14   2.0000      -1.035309       -28.1722
  15   2.0000      -1.005686       -27.3661
  16   2.0000      -0.993219       -27.0269
  17   2.0000      -0.791805       -21.5461
  18   2.0000      -0.784414       -21.3450
  19   2.0000      -0.770250       -20.9596
  20   2.0000      -0.734473       -19.9860
  21   2.0000      -0.675318       -18.3763
  22   2.0000      -0.606324       -16.4989
  23   2.0000      -0.604715       -16.4551
  24   2.0000      -0.596471       -16.2308
  25   2.0000      -0.577271       -15.7083
  26   2.0000      -0.526069       -14.3151
  27   2.0000      -0.507448       -13.8084
  28   2.0000      -0.500610       -13.6223
  29   2.0000      -0.493636       -13.4325
  30   2.0000      -0.478255       -13.0140
  31   2.0000      -0.462313       -12.5802
  32   2.0000      -0.454381       -12.3643
  33   2.0000      -0.436299       -11.8723
  34   2.0000      -0.423002       -11.5105
  35   2.0000      -0.417795       -11.3688
  36   2.0000      -0.400652       -10.9023
  37   2.0000      -0.393008       -10.6943
  38   2.0000      -0.379754       -10.3336
  39   2.0000      -0.371479       -10.1085
  40   2.0000      -0.362441        -9.8625
  41   2.0000      -0.359434        -9.7807
  42   2.0000      -0.350702        -9.5431
  43   2.0000      -0.334369        -9.0987
  44   2.0000      -0.325429        -8.8554
  45   2.0000      -0.311471        -8.4756
  46   2.0000      -0.302794        -8.2394
  47   2.0000      -0.270940        -7.3727
  48   2.0000      -0.264377        -7.1941
  49   2.0000      -0.251926        -6.8553
  50   2.0000      -0.240866        -6.5543
  51   0.0000       0.061566         1.6753
  52   0.0000       0.075159         2.0452
  53   0.0000       0.086222         2.3462
  54   0.0000       0.097976         2.6661
  55   0.0000       0.102072         2.7775

MULLIKEN ATOMIC CHARGES
-----------------------
   0 C :    0.295591
   1 C :   -0.258753
   2 C :   -0.316357
   3 C :   -0.014572
   4 O :   -0.510749
   5 H :    0.165636
   6 H :    0.147890
   7 H :    0.160484
   8 H :    0.147643
   9 H :    0.150887
  10 H :    0.139675
  11 H :    0.152478
  12 C :    0.002165
  13 H :    0.151960
  14 H :    0.114898
  15 O :   -0.517235
  16 C :    0.064241
  17 C :    0.076751
  18 C :   -0.293841
  19 C :   -0.028174
  20 O :   -0.508957
  21 H :    0.171427
  22 O :   -0.602695
  23 H :    0.149812
  24 H :    0.164179
  25 H :    0.138619
  26 H :    0.144996
  27 H :    0.145376
  28 H :    0.366628
Sum of atomic charges:   -0.0000000

LOEWDIN ATOMIC CHARGES
----------------------
   0 C :    0.179014
   1 C :   -0.225264
   2 C :   -0.222523
   3 C :   -0.034084
   4 O :   -0.320136
   5 H :    0.112555
   6 H :    0.116579
   7 H :    0.125199
   8 H :    0.117015
   9 H :    0.109569
  10 H :    0.099903
  11 H :    0.107549
  12 C :   -0.043506
  13 H :    0.108724
  14 H :    0.084667
  15 O :   -0.319540
  16 C :    0.019174
  17 C :    0.035641
  18 C :   -0.241633
  19 C :   -0.038750
  20 O :   -0.319751
  21 H :    0.122435
  22 O :   -0.414187
  23 H :    0.114261
  24 H :    0.127034
  25 H :    0.109830
  26 H :    0.103657
  27 H :    0.102330
  28 H :    0.284237

  Mayer bond orders larger than 0.100000
B(  0-C ,  1-C ) :   0.9169 B(  0-C ,  4-O ) :   0.9018 B(  0-C ,  5-H ) :   0.9342
B(  0-C , 15-O ) :   0.8758 B(  1-C ,  2-C ) :   0.9544 B(  1-C ,  6-H ) :   0.9346
B(  1-C ,  7-H ) :   0.9364 B(  2-C ,  3-C ) :   0.9497 B(  2-C ,  8-H ) :   0.9446
B(  2-C ,  9-H ) :   0.9420 B(  3-C ,  4-O ) :   0.8373 B(  3-C , 10-H ) :   0.9331
B(  3-C , 11-H ) :   0.9399 B( 12-C , 13-H ) :   0.9037 B( 12-C , 14-H ) :   0.9070
B( 12-C , 15-O ) :   0.8425 B( 12-C , 16-C ) :   0.9037 B( 16-C , 17-C ) :   0.9010
B( 16-C , 20-O ) :   0.8627 B( 16-C , 21-H ) :   0.9231 B( 17-C , 18-C ) :   0.9101
B( 17-C , 22-O ) :   0.8935 B( 17-C , 23-H ) :   0.9335 B( 18-C , 19-C ) :   0.9401
B( 18-C , 24-H ) :   0.9367 B( 18-C , 25-H ) :   0.9346 B( 19-C , 20-O ) :   0.8557
B( 19-C , 26-H ) :   0.9344 B( 19-C , 27-H ) :   0.9377 B( 22-O , 28-H ) :   0.7928

FINAL SINGLE POINT ENERGY      -652.856868614543

DIPOLE MOMENT
-------------
                                X             Y             Z
Electronic contribution:     -3.64676      -5.59337      -1.63842
Nuclear contribution   :      4.49931       6.96528       1.91382
                        -----------------------------------------
Total Dipole Moment    :      0.85254       1.37191       0.27540
                        -----------------------------------------
Magnitude (a.u.)       :      1.63854
Magnitude (Debye)      :      4.16484

Rotational constants in cm-1:     0.055834     0.012755     0.012447
Rotational constants in MHz :  1673.861036   382.370485   373.158916

                             ****ORCA TERMINATED NORMALLY****
TOTAL RUN TIME: 0 days 0 hours 22 minutes 24 seconds 568 msec
