                         Program Version 4.2.0 -  RELEASE  -
|  1> # Test redundant internal optimization
|  2> #
|  3> ! RKS B3LYP  Opt TightSCF SmallPrint
|  4>
|  5> %basis
|  6>         Basis "6-31G"
|  7> end
|  8>
|  9> %geom
| 10> Constraints
| 11> { D 4  0  15  12  210.0   C } # D for Dihedral angle
| 12> { D 0  15  12  16  225.0   C } # D for Dihedral angle
| 13> { D 0  4  3  2   C } # D for Dihedral angle
| 14> { D 4  3  2  1   C } # D for Dihedral angle
| 15> { D 3  2  1  0   C } # D for Dihedral angle
| 16> { D 2  1  0  4   C } # D for Dihedral angle
| 17> { D 1  0  4  3   C } # D for Dihedral angle
| 18> { D 16  20  19  18   C } # D for Dihedral angle
| 19> { D 20  19  18  17   C } # D for Dihedral angle
| 20> { D 19  18  17  16   C } # D for Dihedral angle
| 21> { D 18  17  16  20   C } # D for Dihedral angle
| 22> { D 17  16  20  19   C } # D for Dihedral angle
| 23> { D 15  12  16  20   C } # D for Dihedral angle
| 24> end
| 25> end
| 26>
| 27>
| 28> #%pal
| 29> #nprocs 8
| 30> #end
| 31>
| 32> * xyz 0 1
| 33> C  -21.048   26.222   46.251
| 34> C  -20.361   27.558   45.944
| 35> C  -20.329   28.222   47.341
| 36> C  -20.110   27.022   48.296
| 37> O  -20.473   25.807   47.535
| 38> H  -20.833   25.428   45.533
| 39> H  -19.344   27.382   45.576
| 40> H  -20.898   28.157   45.201
| 41> H  -19.543   28.978   47.434
| 42> H  -21.289   28.710   47.548
| 43> H  -20.733   27.082   49.195
| 44> H  -19.064   26.913   48.597
| 45> C  -23.389   26.110   45.076
| 46> H  -22.700   26.085   44.223
| 47> H  -23.892   25.137   45.140
| 48> O  -22.586   26.394   46.375
| 49> C  -24.475   27.185   44.795
| 50> C  -23.844   28.555   44.522
| 51> C  -23.392   28.405   43.049
| 52> C  -24.502   27.518   42.430
| 53> O  -25.201   26.869   43.560
| 54> H  -25.205   27.177   45.606
| 55> H  -24.601   29.343   44.615
| 56> O  -22.670   28.889   45.482
| 57> H  -23.292   29.366   42.536
| 58> H  -22.421   27.898   43.005
| 59> H  -24.099   26.745   41.767
| 60> H  -25.246   28.102   41.882
| 61> H  -21.900   28.113   45.405
| 62> *
| 63>
| 64>                          ****END OF INPUT****
 Total Charge           Charge          ....    0
 Multiplicity           Mult            ....    1
 Number of Electrons    NEL             ....  102
FINAL SINGLE POINT ENERGY      -652.787055799387
FINAL SINGLE POINT ENERGY      -652.829963826080
FINAL SINGLE POINT ENERGY      -652.846845468834
FINAL SINGLE POINT ENERGY      -652.851147242564
FINAL SINGLE POINT ENERGY      -652.853203965406
FINAL SINGLE POINT ENERGY      -652.854932284549
FINAL SINGLE POINT ENERGY      -652.856541923802
FINAL SINGLE POINT ENERGY      -652.857716021988
FINAL SINGLE POINT ENERGY      -652.858335161452
FINAL SINGLE POINT ENERGY      -652.858598129942
FINAL SINGLE POINT ENERGY      -652.858626985875
FINAL SINGLE POINT ENERGY      -652.858634254724
                    ***********************HURRAY********************

CARTESIAN COORDINATES (ANGSTROEM)
---------------------------------
  C    -21.079559   26.199931   46.233150
  C    -20.281802   27.457072   45.887847
  C    -20.240511   28.199675   47.249585
  C    -20.149117   27.040081   48.263432
  O    -20.591139   25.826895   47.524436
  H    -20.904122   25.352760   45.563110
  H    -19.274103   27.149042   45.586989
  H    -20.722221   28.065011   45.096508
  H    -19.387097   28.880730   47.319168
  H    -21.146570   28.793860   47.399173
  H    -20.796618   27.169005   49.134090
  H    -19.125975   26.845329   48.596323
  C    -23.312649   26.105450   45.106544
  H    -22.627776   26.005539   44.253807
  H    -23.829102   25.150255   45.241644
  O    -22.542093   26.395295   46.332143
  C    -24.364937   27.182344   44.793883
  C    -23.866458   28.604792   44.504533
  C    -23.400909   28.481220   43.028459
  C    -24.416429   27.490056   42.421717
  O    -25.054885   26.785497   43.568948
  H    -25.116951   27.181705   45.589480
  H    -24.720646   29.290595   44.561060
  O    -22.844823   29.073550   45.410407
  H    -23.395021   29.446386   42.514845
  H    -22.380455   28.084966   43.009610
  H    -23.953503   26.748290   41.763523
  H    -25.221369   27.991507   41.876752
  H    -22.693159   28.375160   46.087833

 Multiplicity           Mult            ....    1
 Number of Electrons    NEL             ....  102
 Basis Dimension        Dim             ....  149

ORBITAL ENERGIES
----------------

  NO   OCC          E(Eh)            E(eV)
   0   2.0000     -19.157878      -521.3124
   1   2.0000     -19.147184      -521.0214
   2   2.0000     -19.146663      -521.0072
   3   2.0000     -19.133775      -520.6565
   4   2.0000     -10.288037      -279.9517
   5   2.0000     -10.241019      -278.6723
   6   2.0000     -10.240172      -278.6492
   7   2.0000     -10.239386      -278.6278
   8   2.0000     -10.233902      -278.4786
   9   2.0000     -10.228931      -278.3434
  10   2.0000     -10.190165      -277.2885
  11   2.0000     -10.189221      -277.2628
  12   2.0000     -10.188084      -277.2319
  13   2.0000      -1.058683       -28.8082
  14   2.0000      -1.034360       -28.1464
  15   2.0000      -1.012911       -27.5627
  16   2.0000      -0.999613       -27.2008
  17   2.0000      -0.791034       -21.5251
  18   2.0000      -0.780047       -21.2262
  19   2.0000      -0.771563       -20.9953
  20   2.0000      -0.736515       -20.0416
  21   2.0000      -0.683251       -18.5922
  22   2.0000      -0.605446       -16.4750
  23   2.0000      -0.603963       -16.4347
  24   2.0000      -0.593759       -16.1570
  25   2.0000      -0.589549       -16.0424
  26   2.0000      -0.530065       -14.4238
  27   2.0000      -0.516016       -14.0415
  28   2.0000      -0.501281       -13.6405
  29   2.0000      -0.495783       -13.4909
  30   2.0000      -0.472034       -12.8447
  31   2.0000      -0.460439       -12.5292
  32   2.0000      -0.450095       -12.2477
  33   2.0000      -0.437402       -11.9023
  34   2.0000      -0.428490       -11.6598
  35   2.0000      -0.425698       -11.5838
  36   2.0000      -0.407720       -11.0946
  37   2.0000      -0.394243       -10.7279
  38   2.0000      -0.381355       -10.3772
  39   2.0000      -0.378631       -10.3031
  40   2.0000      -0.362812        -9.8726
  41   2.0000      -0.358331        -9.7507
  42   2.0000      -0.352353        -9.5880
  43   2.0000      -0.344198        -9.3661
  44   2.0000      -0.321560        -8.7501
  45   2.0000      -0.317602        -8.6424
  46   2.0000      -0.298487        -8.1223
  47   2.0000      -0.274518        -7.4700
  48   2.0000      -0.267480        -7.2785
  49   2.0000      -0.260527        -7.0893
  50   2.0000      -0.245987        -6.6937
  51   0.0000       0.050921         1.3856
  52   0.0000       0.070722         1.9244
  53   0.0000       0.089629         2.4389
  54   0.0000       0.094776         2.5790
  55   0.0000       0.101875         2.7722

MULLIKEN ATOMIC CHARGES
-----------------------
   0 C :    0.301495
   1 C :   -0.307322
   2 C :   -0.308975
   3 C :   -0.005225
   4 O :   -0.499826
   5 H :    0.146010
   6 H :    0.148774
   7 H :    0.177672
   8 H :    0.149081
   9 H :    0.163764
  10 H :    0.155870
  11 H :    0.145798
  12 C :   -0.013554
  13 H :    0.130975
  14 H :    0.169942
  15 O :   -0.534591
  16 C :    0.033164
  17 C :    0.114689
  18 C :   -0.305555
  19 C :   -0.018206
  20 O :   -0.517561
  21 H :    0.167646
  22 H :    0.151182
  23 O :   -0.640707
  24 H :    0.155038
  25 H :    0.147470
  26 H :    0.145155
  27 H :    0.152421
  28 H :    0.395375
Sum of atomic charges:   -0.0000000

LOEWDIN ATOMIC CHARGES
----------------------
   0 C :    0.179749
   1 C :   -0.241544
   2 C :   -0.216600
   3 C :   -0.026598
   4 O :   -0.301405
   5 H :    0.099458
   6 H :    0.117833
   7 H :    0.127813
   8 H :    0.119074
   9 H :    0.117720
  10 H :    0.109973
  11 H :    0.104596
  12 C :   -0.045517
  13 H :    0.097138
  14 H :    0.118869
  15 O :   -0.349837
  16 C :    0.012264
  17 C :    0.039242
  18 C :   -0.233629
  19 C :   -0.031098
  20 O :   -0.320085
  21 H :    0.117038
  22 H :    0.105207
  23 O :   -0.426468
  24 H :    0.122467
  25 H :    0.111107
  26 H :    0.103346
  27 H :    0.107644
  28 H :    0.282245

  Mayer bond orders larger than 0.100000
B(  0-C ,  1-C ) :   0.9325 B(  0-C ,  4-O ) :   0.9450 B(  0-C ,  5-H ) :   0.9220
B(  0-C , 15-O ) :   0.8070 B(  1-C ,  2-C ) :   0.9499 B(  1-C ,  6-H ) :   0.9314
B(  1-C ,  7-H ) :   0.9095 B(  2-C ,  3-C ) :   0.9492 B(  2-C ,  8-H ) :   0.9453
B(  2-C ,  9-H ) :   0.9369 B(  3-C ,  4-O ) :   0.8308 B(  3-C , 10-H ) :   0.9346
B(  3-C , 11-H ) :   0.9394 B( 12-C , 13-H ) :   0.9215 B( 12-C , 14-H ) :   0.9261
B( 12-C , 15-O ) :   0.8074 B( 12-C , 16-C ) :   0.9051 B( 16-C , 17-C ) :   0.9173
B( 16-C , 20-O ) :   0.8524 B( 16-C , 21-H ) :   0.9270 B( 17-C , 18-C ) :   0.9124
B( 17-C , 22-H ) :   0.9248 B( 17-C , 23-O ) :   0.9093 B( 18-C , 19-C ) :   0.9385
B( 18-C , 24-H ) :   0.9432 B( 18-C , 25-H ) :   0.9416 B( 19-C , 20-O ) :   0.8352
B( 19-C , 26-H ) :   0.9337 B( 19-C , 27-H ) :   0.9375 B( 23-O , 28-H ) :   0.7054

FINAL SINGLE POINT ENERGY      -652.858635337167

DIPOLE MOMENT
-------------
                                X             Y             Z
Electronic contribution:     -3.33564      -3.17337       2.21766
Nuclear contribution   :      4.00812       3.59507      -2.90278
                        -----------------------------------------
Total Dipole Moment    :      0.67248       0.42170      -0.68512
                        -----------------------------------------
Magnitude (a.u.)       :      1.04855
Magnitude (Debye)      :      2.66520

Rotational constants in cm-1:     0.058480     0.014947     0.013507
Rotational constants in MHz :  1753.175216   448.111351   404.938415

                             ****ORCA TERMINATED NORMALLY****
TOTAL RUN TIME: 0 days 0 hours 32 minutes 35 seconds 381 msec
