                         Program Version 4.2.0 -  RELEASE  -
|  1> # Test redundant internal optimization
|  2> #
|  3> ! RKS B3LYP  Opt TightSCF SmallPrint
|  4>
|  5> %basis
|  6>         Basis "6-31G"
|  7> end
|  8>
|  9> %geom
| 10> Constraints
| 11> { D 4  0  15  12  285.0   C } # D for Dihedral angle
| 12> { D 0  15  12  16  300.0   C } # D for Dihedral angle
| 13> { D 0  4  3  2   C } # D for Dihedral angle
| 14> { D 4  3  2  1   C } # D for Dihedral angle
| 15> { D 3  2  1  0   C } # D for Dihedral angle
| 16> { D 2  1  0  4   C } # D for Dihedral angle
| 17> { D 1  0  4  3   C } # D for Dihedral angle
| 18> { D 16  20  19  18   C } # D for Dihedral angle
| 19> { D 20  19  18  17   C } # D for Dihedral angle
| 20> { D 19  18  17  16   C } # D for Dihedral angle
| 21> { D 18  17  16  20   C } # D for Dihedral angle
| 22> { D 17  16  20  19   C } # D for Dihedral angle
| 23> { D 15  12  16  20   C } # D for Dihedral angle
| 24> end
| 25> end
| 26>
| 27>
| 28> #%pal
| 29> #nprocs 8
| 30> #end
| 31>
| 32> * xyz 0 1
| 33> C  -21.048   26.222   46.251
| 34> C  -20.361   27.558   45.944
| 35> C  -20.329   28.222   47.341
| 36> C  -20.110   27.022   48.296
| 37> O  -20.473   25.807   47.535
| 38> H  -20.833   25.428   45.533
| 39> H  -19.344   27.382   45.576
| 40> H  -20.898   28.157   45.201
| 41> H  -19.543   28.978   47.434
| 42> H  -21.289   28.710   47.548
| 43> H  -20.733   27.082   49.195
| 44> H  -19.064   26.913   48.597
| 45> C  -23.396   25.070   46.435
| 46> H  -23.079   24.492   47.312
| 47> H  -24.469   25.280   46.532
| 48> O  -22.586   26.394   46.375
| 49> C  -23.200   24.188   45.171
| 50> C  -21.750   23.704   45.050
| 51> C  -21.725   22.532   46.061
| 52> C  -23.144   21.924   45.928
| 53> O  -23.984   22.953   45.281
| 54> H  -23.571   24.727   44.298
| 55> O  -21.479   23.192   43.609
| 56> H  -21.015   24.482   45.283
| 57> H  -20.937   21.804   45.846
| 58> H  -21.561   22.914   47.075
| 59> H  -23.580   21.662   46.898
| 60> H  -23.161   21.041   45.283
| 61> H  -22.204   22.409   43.353
| 62> *
| 63>
| 64>                          ****END OF INPUT****
 Total Charge           Charge          ....    0
 Multiplicity           Mult            ....    1
 Number of Electrons    NEL             ....  102
FINAL SINGLE POINT ENERGY      -652.793120783650
FINAL SINGLE POINT ENERGY      -652.833818148626
FINAL SINGLE POINT ENERGY      -652.854962936650
FINAL SINGLE POINT ENERGY      -652.858832609574
FINAL SINGLE POINT ENERGY      -652.859475608018
FINAL SINGLE POINT ENERGY      -652.859609170624
FINAL SINGLE POINT ENERGY      -652.859626393026
FINAL SINGLE POINT ENERGY      -652.859636229242
                    ***********************HURRAY********************

CARTESIAN COORDINATES (ANGSTROEM)
---------------------------------
  C    -20.861268   26.302510   46.244836
  C    -20.384638   27.744816   46.061343
  C    -20.525055   28.309517   47.494950
  C    -20.162732   27.098393   48.384025
  O    -20.294953   25.900219   47.517647
  H    -20.488656   25.599703   45.504857
  H    -19.336938   27.740776   45.739995
  H    -20.984157   28.282293   45.324507
  H    -19.869300   29.166457   47.674880
  H    -21.559509   28.619239   47.666674
  H    -20.826048   26.986415   49.245691
  H    -19.124568   27.120550   48.729049
  C    -23.111722   25.143085   46.281979
  H    -22.917744   24.586981   47.209889
  H    -24.136037   25.516362   46.325160
  O    -22.296457   26.353872   46.289862
  C    -23.041028   24.144435   45.103246
  C    -21.733565   23.384718   44.815961
  C    -21.732531   22.314248   45.947002
  C    -23.237221   21.979187   46.101907
  O    -23.990740   23.088642   45.476605
  H    -23.413198   24.609248   44.185337
  O    -21.806525   22.770098   43.496674
  H    -20.829898   23.983503   44.791026
  H    -21.129322   21.450406   45.658981
  H    -21.317236   22.743052   46.865110
  H    -23.545986   21.886539   47.147354
  H    -23.518273   21.062191   45.574203
  H    -22.690695   22.361544   43.382249

 Multiplicity           Mult            ....    1
 Number of Electrons    NEL             ....  102
 Basis Dimension        Dim             ....  149

ORBITAL ENERGIES
----------------

  NO   OCC          E(Eh)            E(eV)
   0   2.0000     -19.148762      -521.0643
   1   2.0000     -19.144312      -520.9432
   2   2.0000     -19.139729      -520.8185
   3   2.0000     -19.139700      -520.8177
   4   2.0000     -10.278674      -279.6969
   5   2.0000     -10.244096      -278.7560
   6   2.0000     -10.238371      -278.6002
   7   2.0000     -10.233583      -278.4700
   8   2.0000     -10.229537      -278.3599
   9   2.0000     -10.224908      -278.2339
  10   2.0000     -10.188894      -277.2539
  11   2.0000     -10.183736      -277.1135
  12   2.0000     -10.183598      -277.1098
  13   2.0000      -1.053066       -28.6554
  14   2.0000      -1.041260       -28.3341
  15   2.0000      -1.008613       -27.4457
  16   2.0000      -0.992627       -27.0108
  17   2.0000      -0.787940       -21.4409
  18   2.0000      -0.778679       -21.1889
  19   2.0000      -0.766506       -20.8577
  20   2.0000      -0.735562       -20.0157
  21   2.0000      -0.675841       -18.3906
  22   2.0000      -0.605940       -16.4885
  23   2.0000      -0.602683       -16.3998
  24   2.0000      -0.596270       -16.2253
  25   2.0000      -0.579862       -15.7788
  26   2.0000      -0.523057       -14.2331
  27   2.0000      -0.522245       -14.2110
  28   2.0000      -0.499512       -13.5924
  29   2.0000      -0.481140       -13.0925
  30   2.0000      -0.471287       -12.8244
  31   2.0000      -0.459813       -12.5122
  32   2.0000      -0.450394       -12.2559
  33   2.0000      -0.430030       -11.7017
  34   2.0000      -0.424164       -11.5421
  35   2.0000      -0.420984       -11.4556
  36   2.0000      -0.400568       -10.9000
  37   2.0000      -0.394505       -10.7350
  38   2.0000      -0.375935       -10.2297
  39   2.0000      -0.371111       -10.0985
  40   2.0000      -0.360808        -9.8181
  41   2.0000      -0.354653        -9.6506
  42   2.0000      -0.346714        -9.4346
  43   2.0000      -0.332871        -9.0579
  44   2.0000      -0.324048        -8.8178
  45   2.0000      -0.311700        -8.4818
  46   2.0000      -0.299855        -8.1595
  47   2.0000      -0.275794        -7.5047
  48   2.0000      -0.271860        -7.3977
  49   2.0000      -0.252276        -6.8648
  50   2.0000      -0.244429        -6.6513
  51   0.0000       0.064814         1.7637
  52   0.0000       0.075143         2.0448
  53   0.0000       0.091513         2.4902
  54   0.0000       0.100421         2.7326
  55   0.0000       0.105345         2.8666

MULLIKEN ATOMIC CHARGES
-----------------------
   0 C :    0.277975
   1 C :   -0.254881
   2 C :   -0.294846
   3 C :   -0.003342
   4 O :   -0.516992
   5 H :    0.141801
   6 H :    0.143147
   7 H :    0.156677
   8 H :    0.138930
   9 H :    0.163850
  10 H :    0.147448
  11 H :    0.141841
  12 C :    0.002685
  13 H :    0.139444
  14 H :    0.169168
  15 O :   -0.526308
  16 C :    0.034923
  17 C :    0.075658
  18 C :   -0.299460
  19 C :   -0.028978
  20 O :   -0.523602
  21 H :    0.161934
  22 O :   -0.604276
  23 H :    0.166457
  24 H :    0.164276
  25 H :    0.165745
  26 H :    0.149946
  27 H :    0.145134
  28 H :    0.365645
Sum of atomic charges:   -0.0000000

LOEWDIN ATOMIC CHARGES
----------------------
   0 C :    0.169022
   1 C :   -0.213503
   2 C :   -0.215130
   3 C :   -0.027328
   4 O :   -0.334975
   5 H :    0.094636
   6 H :    0.112539
   7 H :    0.124344
   8 H :    0.112763
   9 H :    0.120066
  10 H :    0.105200
  11 H :    0.102162
  12 C :   -0.042394
  13 H :    0.099465
  14 H :    0.125381
  15 O :   -0.325826
  16 C :    0.006803
  17 C :    0.033693
  18 C :   -0.240681
  19 C :   -0.038726
  20 O :   -0.326523
  21 H :    0.114949
  22 O :   -0.416413
  23 H :    0.117639
  24 H :    0.127622
  25 H :    0.123994
  26 H :    0.105871
  27 H :    0.102249
  28 H :    0.283099

  Mayer bond orders larger than 0.100000
B(  0-C ,  1-C ) :   0.9460 B(  0-C ,  4-O ) :   0.9094 B(  0-C ,  5-H ) :   0.8980
B(  0-C , 15-O ) :   0.8671 B(  1-C ,  2-C ) :   0.9572 B(  1-C ,  6-H ) :   0.9413
B(  1-C ,  7-H ) :   0.9362 B(  2-C ,  3-C ) :   0.9552 B(  2-C ,  8-H ) :   0.9457
B(  2-C ,  9-H ) :   0.9437 B(  3-C ,  4-O ) :   0.8350 B(  3-C , 10-H ) :   0.9359
B(  3-C , 11-H ) :   0.9404 B( 12-C , 13-H ) :   0.9233 B( 12-C , 14-H ) :   0.9345
B( 12-C , 15-O ) :   0.8422 B( 12-C , 16-C ) :   0.8771 B( 16-C , 17-C ) :   0.9111
B( 16-C , 20-O ) :   0.8246 B( 16-C , 21-H ) :   0.9249 B( 17-C , 18-C ) :   0.9130
B( 17-C , 22-O ) :   0.8836 B( 17-C , 23-H ) :   0.9144 B( 18-C , 19-C ) :   0.9397
B( 18-C , 24-H ) :   0.9371 B( 18-C , 25-H ) :   0.9284 B( 19-C , 20-O ) :   0.8355
B( 19-C , 26-H ) :   0.9356 B( 19-C , 27-H ) :   0.9385 B( 22-O , 28-H ) :   0.7927

FINAL SINGLE POINT ENERGY      -652.859653913843

DIPOLE MOMENT
-------------
                                X             Y             Z
Electronic contribution:     -2.55491      -2.29670      -3.00475
Nuclear contribution   :      2.81771       2.49382       3.51061
                        -----------------------------------------
Total Dipole Moment    :      0.26281       0.19712       0.50586
                        -----------------------------------------
Magnitude (a.u.)       :      0.60318
Magnitude (Debye)      :      1.53315

Rotational constants in cm-1:     0.055606     0.013252     0.013069
Rotational constants in MHz :  1667.020902   397.277719   391.808274

                             ****ORCA TERMINATED NORMALLY****
TOTAL RUN TIME: 0 days 1 hours 9 minutes 23 seconds 186 msec
