                         Program Version 4.2.0 -  RELEASE  -
|  1> # Test redundant internal optimization
|  2> #
|  3> ! RKS B3LYP  Opt TightSCF SmallPrint
|  4>
|  5> %basis
|  6>         Basis "6-31G"
|  7> end
|  8>
|  9> %geom
| 10> Constraints
| 11> { D 4  0  15  12  255.0   C } # D for Dihedral angle
| 12> { D 0  15  12  16  195.0   C } # D for Dihedral angle
| 13> { D 0  4  3  2   C } # D for Dihedral angle
| 14> { D 4  3  2  1   C } # D for Dihedral angle
| 15> { D 3  2  1  0   C } # D for Dihedral angle
| 16> { D 2  1  0  4   C } # D for Dihedral angle
| 17> { D 1  0  4  3   C } # D for Dihedral angle
| 18> { D 16  20  19  18   C } # D for Dihedral angle
| 19> { D 20  19  18  17   C } # D for Dihedral angle
| 20> { D 19  18  17  16   C } # D for Dihedral angle
| 21> { D 18  17  16  20   C } # D for Dihedral angle
| 22> { D 17  16  20  19   C } # D for Dihedral angle
| 23> { D 15  12  16  20   C } # D for Dihedral angle
| 24> end
| 25> end
| 26>
| 27>
| 28> #%pal
| 29> #nprocs 8
| 30> #end
| 31>
| 32> * xyz 0 1
| 33> C  -21.048   26.222   46.251
| 34> C  -20.361   27.558   45.944
| 35> C  -20.329   28.222   47.341
| 36> C  -20.110   27.022   48.296
| 37> O  -20.473   25.807   47.535
| 38> H  -20.833   25.428   45.533
| 39> H  -19.344   27.382   45.576
| 40> H  -20.898   28.157   45.201
| 41> H  -19.543   28.978   47.434
| 42> H  -21.289   28.710   47.548
| 43> H  -20.733   27.082   49.195
| 44> H  -19.064   26.913   48.597
| 45> C  -23.431   25.260   45.734
| 46> H  -23.019   25.014   44.747
| 47> H  -23.395   24.355   46.355
| 48> O  -22.586   26.394   46.375
| 49> C  -24.924   25.651   45.555
| 50> C  -25.082   26.807   44.561
| 51> C  -24.952   26.074   43.204
| 52> C  -25.628   24.706   43.478
| 53> O  -25.674   24.547   44.947
| 54> H  -25.366   25.835   46.536
| 55> O  -26.490   27.446   44.706
| 56> H  -24.331   27.594   44.692
| 57> H  -25.427   26.617   42.381
| 58> H  -23.894   25.938   42.950
| 59> H  -25.071   23.869   43.043
| 60> H  -26.659   24.671   43.116
| 61> H  -27.260   26.676   44.577
| 62> *
| 63>
| 64>                          ****END OF INPUT****
 Total Charge           Charge          ....    0
 Multiplicity           Mult            ....    1
 Number of Electrons    NEL             ....  102
FINAL SINGLE POINT ENERGY      -652.837741740903
FINAL SINGLE POINT ENERGY      -652.861100041130
FINAL SINGLE POINT ENERGY      -652.864790931005
FINAL SINGLE POINT ENERGY      -652.865452129437
FINAL SINGLE POINT ENERGY      -652.865544687426
FINAL SINGLE POINT ENERGY      -652.865554936171
FINAL SINGLE POINT ENERGY      -652.865557590084
                    ***********************HURRAY********************

CARTESIAN COORDINATES (ANGSTROEM)
---------------------------------
  C    -21.088288   26.128800   46.209604
  C    -20.506059   27.506468   45.892557
  C    -20.571112   28.205665   47.271921
  C    -20.284426   27.051331   48.257575
  O    -20.529404   25.799353   47.498754
  H    -20.807266   25.324143   45.524227
  H    -19.467081   27.393727   45.560994
  H    -21.071550   28.026786   45.116674
  H    -19.850080   29.023211   47.364926
  H    -21.575648   28.608314   47.431612
  H    -20.937289   27.063555   49.133814
  H    -19.240612   27.019873   48.584082
  C    -23.315649   25.162796   45.717581
  H    -22.900561   24.853280   44.747586
  H    -23.310031   24.294280   46.386768
  O    -22.529729   26.254550   46.275876
  C    -24.746924   25.669622   45.555138
  C    -24.916274   26.838834   44.574990
  C    -24.904138   26.106510   43.208494
  C    -25.620506   24.768066   43.518786
  O    -25.581495   24.601696   44.993341
  H    -25.157924   25.921411   46.536514
  O    -26.176789   27.528291   44.802923
  H    -24.141071   27.595860   44.677981
  H    -25.419523   26.698766   42.448475
  H    -23.874376   25.940208   42.873040
  H    -25.134668   23.906261   43.051278
  H    -26.674239   24.776952   43.224227
  H    -26.881288   26.866392   44.968260

 Multiplicity           Mult            ....    1
 Number of Electrons    NEL             ....  102
 Basis Dimension        Dim             ....  149

ORBITAL ENERGIES
----------------

  NO   OCC          E(Eh)            E(eV)
   0   2.0000     -19.146859      -521.0125
   1   2.0000     -19.145911      -520.9867
   2   2.0000     -19.138690      -520.7902
   3   2.0000     -19.136150      -520.7211
   4   2.0000     -10.281633      -279.7775
   5   2.0000     -10.237013      -278.5633
   6   2.0000     -10.233974      -278.4806
   7   2.0000     -10.233198      -278.4595
   8   2.0000     -10.232994      -278.4539
   9   2.0000     -10.224010      -278.2094
  10   2.0000     -10.189505      -277.2705
  11   2.0000     -10.186526      -277.1895
  12   2.0000     -10.185046      -277.1492
  13   2.0000      -1.054295       -28.6888
  14   2.0000      -1.036966       -28.2173
  15   2.0000      -1.005233       -27.3538
  16   2.0000      -0.996877       -27.1264
  17   2.0000      -0.789766       -21.4906
  18   2.0000      -0.779583       -21.2135
  19   2.0000      -0.768598       -20.9146
  20   2.0000      -0.729987       -19.8640
  21   2.0000      -0.675163       -18.3721
  22   2.0000      -0.605236       -16.4693
  23   2.0000      -0.598381       -16.2828
  24   2.0000      -0.589850       -16.0506
  25   2.0000      -0.587489       -15.9864
  26   2.0000      -0.522745       -14.2246
  27   2.0000      -0.521126       -14.1806
  28   2.0000      -0.496233       -13.5032
  29   2.0000      -0.490075       -13.3356
  30   2.0000      -0.470255       -12.7963
  31   2.0000      -0.457411       -12.4468
  32   2.0000      -0.451682       -12.2909
  33   2.0000      -0.439361       -11.9556
  34   2.0000      -0.426327       -11.6009
  35   2.0000      -0.412896       -11.2355
  36   2.0000      -0.402603       -10.9554
  37   2.0000      -0.393115       -10.6972
  38   2.0000      -0.375951       -10.2302
  39   2.0000      -0.369043       -10.0422
  40   2.0000      -0.359921        -9.7939
  41   2.0000      -0.356219        -9.6932
  42   2.0000      -0.350260        -9.5311
  43   2.0000      -0.332554        -9.0493
  44   2.0000      -0.321008        -8.7351
  45   2.0000      -0.309322        -8.4171
  46   2.0000      -0.305472        -8.3123
  47   2.0000      -0.272229        -7.4077
  48   2.0000      -0.267199        -7.2708
  49   2.0000      -0.254266        -6.9189
  50   2.0000      -0.244378        -6.6499
  51   0.0000       0.063293         1.7223
  52   0.0000       0.072495         1.9727
  53   0.0000       0.091932         2.5016
  54   0.0000       0.094465         2.5705
  55   0.0000       0.104903         2.8546

MULLIKEN ATOMIC CHARGES
-----------------------
   0 C :    0.286453
   1 C :   -0.255044
   2 C :   -0.299939
   3 C :   -0.000821
   4 O :   -0.503873
   5 H :    0.140701
   6 H :    0.144175
   7 H :    0.146734
   8 H :    0.141520
   9 H :    0.165445
  10 H :    0.151687
  11 H :    0.141223
  12 C :   -0.001512
  13 H :    0.121856
  14 H :    0.161827
  15 O :   -0.525933
  16 C :    0.053751
  17 C :    0.094127
  18 C :   -0.304886
  19 C :   -0.028123
  20 O :   -0.527035
  21 H :    0.169797
  22 O :   -0.604031
  23 H :    0.168126
  24 H :    0.163457
  25 H :    0.142998
  26 H :    0.145257
  27 H :    0.148290
  28 H :    0.363775
Sum of atomic charges:   -0.0000000

LOEWDIN ATOMIC CHARGES
----------------------
   0 C :    0.174842
   1 C :   -0.218628
   2 C :   -0.216142
   3 C :   -0.026495
   4 O :   -0.320925
   5 H :    0.098827
   6 H :    0.113198
   7 H :    0.117989
   8 H :    0.114015
   9 H :    0.120672
  10 H :    0.107927
  11 H :    0.102087
  12 C :   -0.036396
  13 H :    0.089306
  14 H :    0.111506
  15 O :   -0.334422
  16 C :    0.017617
  17 C :    0.038297
  18 C :   -0.243307
  19 C :   -0.037588
  20 O :   -0.329862
  21 H :    0.120505
  22 O :   -0.414851
  23 H :    0.123244
  24 H :    0.127148
  25 H :    0.112037
  26 H :    0.103525
  27 H :    0.103599
  28 H :    0.282275

  Mayer bond orders larger than 0.100000
B(  0-C ,  1-C ) :   0.9443 B(  0-C ,  4-O ) :   0.9298 B(  0-C ,  5-H ) :   0.9203
B(  0-C , 15-O ) :   0.8418 B(  1-C ,  2-C ) :   0.9579 B(  1-C ,  6-H ) :   0.9382
B(  1-C ,  7-H ) :   0.9377 B(  2-C ,  3-C ) :   0.9541 B(  2-C ,  8-H ) :   0.9451
B(  2-C ,  9-H ) :   0.9434 B(  3-C ,  4-O ) :   0.8369 B(  3-C , 10-H ) :   0.9349
B(  3-C , 11-H ) :   0.9400 B( 12-C , 13-H ) :   0.9187 B( 12-C , 14-H ) :   0.9158
B( 12-C , 15-O ) :   0.8272 B( 12-C , 16-C ) :   0.9095 B( 16-C , 17-C ) :   0.9114
B( 16-C , 20-O ) :   0.8438 B( 16-C , 21-H ) :   0.9242 B( 17-C , 18-C ) :   0.9116
B( 17-C , 22-O ) :   0.8908 B( 17-C , 23-H ) :   0.9246 B( 18-C , 19-C ) :   0.9426
B( 18-C , 24-H ) :   0.9379 B( 18-C , 25-H ) :   0.9346 B( 19-C , 20-O ) :   0.8425
B( 19-C , 26-H ) :   0.9357 B( 19-C , 27-H ) :   0.9380 B( 22-O , 28-H ) :   0.7951

FINAL SINGLE POINT ENERGY      -652.865557977627

DIPOLE MOMENT
-------------
                                X             Y             Z
Electronic contribution:     -3.27812      -2.56429       2.13745
Nuclear contribution   :      3.89572       2.73161      -2.98543
                        -----------------------------------------
Total Dipole Moment    :      0.61760       0.16733      -0.84798
                        -----------------------------------------
Magnitude (a.u.)       :      1.06231
Magnitude (Debye)      :      2.70017

Rotational constants in cm-1:     0.058381     0.012123     0.011419
Rotational constants in MHz :  1750.213485   363.449534   342.321845

                             ****ORCA TERMINATED NORMALLY****
TOTAL RUN TIME: 0 days 0 hours 24 minutes 22 seconds 418 msec
