                         Program Version 4.2.0 -  RELEASE  -
|  1> # Test redundant internal optimization
|  2> #
|  3> ! RKS B3LYP  Opt TightSCF SmallPrint
|  4>
|  5> %basis
|  6>         Basis "6-31G"
|  7> end
|  8>
|  9> %geom
| 10> Constraints
| 11> { D 4  0  15  12  150.0   C } # D for Dihedral angle
| 12> { D 0  15  12  16  135.0   C } # D for Dihedral angle
| 13> { D 0  4  3  2   C } # D for Dihedral angle
| 14> { D 4  3  2  1   C } # D for Dihedral angle
| 15> { D 3  2  1  0   C } # D for Dihedral angle
| 16> { D 2  1  0  4   C } # D for Dihedral angle
| 17> { D 1  0  4  3   C } # D for Dihedral angle
| 18> { D 16  20  19  18   C } # D for Dihedral angle
| 19> { D 20  19  18  17   C } # D for Dihedral angle
| 20> { D 19  18  17  16   C } # D for Dihedral angle
| 21> { D 18  17  16  20   C } # D for Dihedral angle
| 22> { D 17  16  20  19   C } # D for Dihedral angle
| 23> { D 15  12  16  20   C } # D for Dihedral angle
| 24> end
| 25> end
| 26>
| 27>
| 28> #%pal
| 29> #nprocs 8
| 30> #end
| 31>
| 32> * xyz 0 1
| 33> C  -21.048   26.222   46.251
| 34> C  -20.361   27.558   45.944
| 35> C  -20.329   28.222   47.341
| 36> C  -20.110   27.022   48.296
| 37> O  -20.473   25.807   47.535
| 38> H  -20.833   25.428   45.533
| 39> H  -19.344   27.382   45.576
| 40> H  -20.898   28.157   45.201
| 41> H  -19.543   28.978   47.434
| 42> H  -21.289   28.710   47.548
| 43> H  -20.733   27.082   49.195
| 44> H  -19.064   26.913   48.597
| 45> C  -23.210   27.459   45.431
| 46> H  -23.455   28.357   46.011
| 47> H  -22.496   27.741   44.646
| 48> O  -22.586   26.394   46.375
| 49> C  -24.505   26.959   44.735
| 50> C  -25.028   27.988   43.727
| 51> C  -24.097   27.741   42.515
| 52> C  -23.860   26.211   42.561
| 53> O  -24.225   25.769   43.924
| 54> H  -25.230   26.663   45.496
| 55> O  -26.503   27.671   43.358
| 56> H  -24.978   29.017   44.098
| 57> H  -24.538   28.067   41.568
| 58> H  -23.153   28.282   42.649
| 59> H  -22.816   25.942   42.364
| 60> H  -24.503   25.667   41.862
| 61> H  -26.577   26.644   42.983
| 62> *
| 63>
| 64>                          ****END OF INPUT****
 Total Charge           Charge          ....    0
 Multiplicity           Mult            ....    1
 Number of Electrons    NEL             ....  102
FINAL SINGLE POINT ENERGY      -652.822515222629
FINAL SINGLE POINT ENERGY      -652.846219837066
FINAL SINGLE POINT ENERGY      -652.850494360511
FINAL SINGLE POINT ENERGY      -652.851974209657
FINAL SINGLE POINT ENERGY      -652.852150928903
FINAL SINGLE POINT ENERGY      -652.852182786564
FINAL SINGLE POINT ENERGY      -652.852186411553
                    ***********************HURRAY********************

CARTESIAN COORDINATES (ANGSTROEM)
---------------------------------
  C    -21.070365   26.298970   46.188092
  C    -20.190594   27.534754   45.993868
  C    -20.260383   28.206302   47.391524
  C    -20.321075   26.991980   48.342980
  O    -20.731041   25.840086   47.504843
  H    -20.874648   25.471758   45.502142
  H    -19.169632   27.198131   45.779675
  H    -20.497451   28.198679   45.182869
  H    -19.397819   28.849946   47.588341
  H    -21.167103   28.814468   47.475825
  H    -21.047211   27.114699   49.150677
  H    -19.345530   26.738899   48.768614
  C    -23.101898   27.576283   45.342542
  H    -23.381145   28.449502   45.949925
  H    -22.409690   27.910166   44.559772
  O    -22.506481   26.562760   46.186937
  C    -24.351485   26.975714   44.698034
  C    -25.087286   27.913804   43.731032
  C    -24.265394   27.730314   42.427351
  C    -23.860140   26.236115   42.477092
  O    -24.030753   25.799364   43.884390
  H    -25.015124   26.622319   45.492478
  O    -26.470380   27.503581   43.557589
  H    -25.134410   28.950734   44.067576
  H    -24.872226   27.980506   41.553322
  H    -23.386579   28.385129   42.433204
  H    -22.822294   26.067487   42.172821
  H    -24.508190   25.604574   41.861943
  H    -26.508673   26.525975   43.488541

 Multiplicity           Mult            ....    1
 Number of Electrons    NEL             ....  102
 Basis Dimension        Dim             ....  149

ORBITAL ENERGIES
----------------

  NO   OCC          E(Eh)            E(eV)
   0   2.0000     -19.142264      -520.8875
   1   2.0000     -19.139599      -520.8150
   2   2.0000     -19.138016      -520.7719
   3   2.0000     -19.134731      -520.6825
   4   2.0000     -10.278877      -279.7025
   5   2.0000     -10.244893      -278.7777
   6   2.0000     -10.236068      -278.5376
   7   2.0000     -10.233293      -278.4621
   8   2.0000     -10.232198      -278.4323
   9   2.0000     -10.225398      -278.2472
  10   2.0000     -10.192896      -277.3628
  11   2.0000     -10.192722      -277.3581
  12   2.0000     -10.192088      -277.3408
  13   2.0000      -1.050936       -28.5974
  14   2.0000      -1.037019       -28.2187
  15   2.0000      -1.007600       -27.4182
  16   2.0000      -0.989612       -26.9287
  17   2.0000      -0.789925       -21.4949
  18   2.0000      -0.786187       -21.3932
  19   2.0000      -0.770256       -20.9597
  20   2.0000      -0.733203       -19.9515
  21   2.0000      -0.679779       -18.4977
  22   2.0000      -0.606849       -16.5132
  23   2.0000      -0.604531       -16.4501
  24   2.0000      -0.595518       -16.2049
  25   2.0000      -0.577878       -15.7249
  26   2.0000      -0.528777       -14.3888
  27   2.0000      -0.507201       -13.8016
  28   2.0000      -0.501149       -13.6370
  29   2.0000      -0.493124       -13.4186
  30   2.0000      -0.480127       -13.0649
  31   2.0000      -0.462192       -12.5769
  32   2.0000      -0.451045       -12.2736
  33   2.0000      -0.446708       -12.1555
  34   2.0000      -0.425028       -11.5656
  35   2.0000      -0.410885       -11.1807
  36   2.0000      -0.404484       -11.0066
  37   2.0000      -0.396019       -10.7762
  38   2.0000      -0.380261       -10.3474
  39   2.0000      -0.374354       -10.1867
  40   2.0000      -0.367270        -9.9939
  41   2.0000      -0.357875        -9.7383
  42   2.0000      -0.352567        -9.5938
  43   2.0000      -0.333310        -9.0698
  44   2.0000      -0.312486        -8.5032
  45   2.0000      -0.307686        -8.3726
  46   2.0000      -0.294256        -8.0071
  47   2.0000      -0.272673        -7.4198
  48   2.0000      -0.260399        -7.0858
  49   2.0000      -0.256408        -6.9772
  50   2.0000      -0.239076        -6.5056
  51   0.0000       0.060663         1.6507
  52   0.0000       0.076790         2.0896
  53   0.0000       0.083470         2.2713
  54   0.0000       0.097309         2.6479
  55   0.0000       0.104797         2.8517

MULLIKEN ATOMIC CHARGES
-----------------------
   0 C :    0.315657
   1 C :   -0.294354
   2 C :   -0.302945
   3 C :    0.000652
   4 O :   -0.494290
   5 H :    0.157370
   6 H :    0.152865
   7 H :    0.140516
   8 H :    0.144403
   9 H :    0.152987
  10 H :    0.153386
  11 H :    0.142849
  12 C :   -0.001346
  13 H :    0.130387
  14 H :    0.119877
  15 O :   -0.514115
  16 C :    0.069654
  17 C :    0.078164
  18 C :   -0.295366
  19 C :   -0.029417
  20 O :   -0.509864
  21 H :    0.174357
  22 O :   -0.600340
  23 H :    0.148867
  24 H :    0.162694
  25 H :    0.139901
  26 H :    0.140695
  27 H :    0.150302
  28 H :    0.366452
Sum of atomic charges:   -0.0000000

LOEWDIN ATOMIC CHARGES
----------------------
   0 C :    0.187656
   1 C :   -0.234822
   2 C :   -0.217776
   3 C :   -0.026966
   4 O :   -0.302775
   5 H :    0.106048
   6 H :    0.119802
   7 H :    0.111468
   8 H :    0.115336
   9 H :    0.112311
  10 H :    0.108826
  11 H :    0.103084
  12 C :   -0.040570
  13 H :    0.097390
  14 H :    0.090625
  15 O :   -0.328855
  16 C :    0.014956
  17 C :    0.034758
  18 C :   -0.242330
  19 C :   -0.039449
  20 O :   -0.320638
  21 H :    0.123072
  22 O :   -0.412919
  23 H :    0.114007
  24 H :    0.126929
  25 H :    0.110237
  26 H :    0.101731
  27 H :    0.104356
  28 H :    0.284506

  Mayer bond orders larger than 0.100000
B(  0-C ,  1-C ) :   0.9318 B(  0-C ,  4-O ) :   0.9319 B(  0-C ,  5-H ) :   0.9235
B(  0-C , 15-O ) :   0.8420 B(  1-C ,  2-C ) :   0.9477 B(  1-C ,  6-H ) :   0.9338
B(  1-C ,  7-H ) :   0.9277 B(  2-C ,  3-C ) :   0.9542 B(  2-C ,  8-H ) :   0.9451
B(  2-C ,  9-H ) :   0.9460 B(  3-C ,  4-O ) :   0.8400 B(  3-C , 10-H ) :   0.9342
B(  3-C , 11-H ) :   0.9396 B( 12-C , 13-H ) :   0.9149 B( 12-C , 14-H ) :   0.9118
B( 12-C , 15-O ) :   0.8575 B( 12-C , 16-C ) :   0.8881 B( 16-C , 17-C ) :   0.8963
B( 16-C , 20-O ) :   0.8642 B( 16-C , 21-H ) :   0.9230 B( 17-C , 18-C ) :   0.9099
B( 17-C , 22-O ) :   0.8965 B( 17-C , 23-H ) :   0.9332 B( 18-C , 19-C ) :   0.9398
B( 18-C , 24-H ) :   0.9377 B( 18-C , 25-H ) :   0.9343 B( 19-C , 20-O ) :   0.8536
B( 19-C , 26-H ) :   0.9355 B( 19-C , 27-H ) :   0.9371 B( 22-O , 28-H ) :   0.7929

FINAL SINGLE POINT ENERGY      -652.852187026805

DIPOLE MOMENT
-------------
                                X             Y             Z
Electronic contribution:     -4.10680      -5.10316       1.33344
Nuclear contribution   :      5.13842       6.43705      -2.08573
                        -----------------------------------------
Total Dipole Moment    :      1.03163       1.33389      -0.75229
                        -----------------------------------------
Magnitude (a.u.)       :      1.84647
Magnitude (Debye)      :      4.69336

Rotational constants in cm-1:     0.065808     0.011605     0.011474
Rotational constants in MHz :  1972.881893   347.898012   343.976501

                             ****ORCA TERMINATED NORMALLY****
TOTAL RUN TIME: 0 days 0 hours 51 minutes 2 seconds 501 msec
