                         Program Version 4.2.0 -  RELEASE  -
|  1> # Test redundant internal optimization
|  2> #
|  3> ! RKS B3LYP  Opt TightSCF SmallPrint
|  4>
|  5> %basis
|  6>         Basis "6-31G"
|  7> end
|  8>
|  9> %geom
| 10> Constraints
| 11> { D 4  0  15  12  285.0   C } # D for Dihedral angle
| 12> { D 0  15  12  16  45.0   C } # D for Dihedral angle
| 13> { D 0  4  3  2   C } # D for Dihedral angle
| 14> { D 4  3  2  1   C } # D for Dihedral angle
| 15> { D 3  2  1  0   C } # D for Dihedral angle
| 16> { D 2  1  0  4   C } # D for Dihedral angle
| 17> { D 1  0  4  3   C } # D for Dihedral angle
| 18> { D 16  20  19  18   C } # D for Dihedral angle
| 19> { D 20  19  18  17   C } # D for Dihedral angle
| 20> { D 19  18  17  16   C } # D for Dihedral angle
| 21> { D 18  17  16  20   C } # D for Dihedral angle
| 22> { D 17  16  20  19   C } # D for Dihedral angle
| 23> { D 15  12  16  20   C } # D for Dihedral angle
| 24> end
| 25> end
| 26>
| 27>
| 28> #%pal
| 29> #nprocs 8
| 30> #end
| 31>
| 32> * xyz 0 1
| 33> C  -21.048   26.222   46.251
| 34> C  -20.361   27.558   45.944
| 35> C  -20.329   28.222   47.341
| 36> C  -20.110   27.022   48.296
| 37> O  -20.473   25.807   47.535
| 38> H  -20.833   25.428   45.533
| 39> H  -19.344   27.382   45.576
| 40> H  -20.898   28.157   45.201
| 41> H  -19.543   28.978   47.434
| 42> H  -21.289   28.710   47.548
| 43> H  -20.733   27.082   49.195
| 44> H  -19.064   26.913   48.597
| 45> C  -23.396   25.070   46.435
| 46> H  -24.416   25.285   46.778
| 47> H  -23.458   24.612   45.440
| 48> O  -22.586   26.394   46.375
| 49> C  -22.767   24.025   47.398
| 50> C  -23.524   22.693   47.345
| 51> C  -22.963   22.064   46.047
| 52> C  -21.487   22.536   46.038
| 53> O  -21.407   23.684   46.967
| 54> H  -22.687   24.460   48.396
| 55> O  -23.159   21.823   48.578
| 56> H  -24.612   22.818   47.320
| 57> H  -23.052   20.973   46.031
| 58> H  -23.499   22.458   45.176
| 59> H  -21.155   22.855   45.044
| 60> H  -20.802   21.770   46.412
| 61> H  -22.073   21.684   48.623
| 62> *
| 63>
| 64>                          ****END OF INPUT****
 Total Charge           Charge          ....    0
 Multiplicity           Mult            ....    1
 Number of Electrons    NEL             ....  102
FINAL SINGLE POINT ENERGY      -652.823878163184
FINAL SINGLE POINT ENERGY      -652.848177172213
FINAL SINGLE POINT ENERGY      -652.856293197017
FINAL SINGLE POINT ENERGY      -652.858211930665
FINAL SINGLE POINT ENERGY      -652.858529429107
FINAL SINGLE POINT ENERGY      -652.858570931027
                    ***********************HURRAY********************

CARTESIAN COORDINATES (ANGSTROEM)
---------------------------------
  C    -20.899882   26.269239   46.227624
  C    -20.470156   27.714423   45.971357
  C    -20.481244   28.305901   47.400438
  C    -20.012680   27.121174   48.272512
  O    -20.206471   25.902709   47.445181
  H    -20.600099   25.532615   45.479242
  H    -19.457823   27.716663   45.551066
  H    -21.143993   28.230405   45.284394
  H    -19.830673   29.180270   47.500141
  H    -21.500663   28.600824   47.664951
  H    -20.586729   27.018127   49.197421
  H    -18.946749   27.168377   48.515925
  C    -23.134653   25.077654   46.456448
  H    -24.105134   25.426382   46.823887
  H    -23.278020   24.700786   45.430583
  O    -22.334981   26.289095   46.382846
  C    -22.653338   23.928918   47.346296
  C    -23.567777   22.694714   47.305377
  C    -23.060519   21.968806   46.030388
  C    -21.539462   22.258005   46.044393
  O    -21.336110   23.414713   46.953164
  H    -22.531523   24.293790   48.370223
  O    -23.386728   21.880026   48.495402
  H    -24.633125   22.927951   47.274631
  H    -23.294677   20.902340   46.075567
  H    -23.539818   22.388451   45.138868
  H    -21.147002   22.506416   45.053296
  H    -20.956358   21.424869   46.448770
  H    -22.431614   21.841359   48.713609

 Multiplicity           Mult            ....    1
 Number of Electrons    NEL             ....  102
 Basis Dimension        Dim             ....  149

ORBITAL ENERGIES
----------------

  NO   OCC          E(Eh)            E(eV)
   0   2.0000     -19.140264      -520.8331
   1   2.0000     -19.138811      -520.7935
   2   2.0000     -19.137347      -520.7537
   3   2.0000     -19.126808      -520.4669
   4   2.0000     -10.269016      -279.4341
   5   2.0000     -10.243964      -278.7524
   6   2.0000     -10.232580      -278.4427
   7   2.0000     -10.232346      -278.4363
   8   2.0000     -10.229443      -278.3573
   9   2.0000     -10.215208      -277.9699
  10   2.0000     -10.189994      -277.2838
  11   2.0000     -10.177431      -276.9420
  12   2.0000     -10.177064      -276.9320
  13   2.0000      -1.044813       -28.4308
  14   2.0000      -1.033344       -28.1187
  15   2.0000      -1.004736       -27.3402
  16   2.0000      -0.984790       -26.7975
  17   2.0000      -0.787296       -21.4234
  18   2.0000      -0.778431       -21.1822
  19   2.0000      -0.763142       -20.7661
  20   2.0000      -0.726759       -19.7761
  21   2.0000      -0.671946       -18.2846
  22   2.0000      -0.603761       -16.4292
  23   2.0000      -0.599134       -16.3033
  24   2.0000      -0.589078       -16.0296
  25   2.0000      -0.570099       -15.5132
  26   2.0000      -0.522043       -14.2055
  27   2.0000      -0.509341       -13.8599
  28   2.0000      -0.492893       -13.4123
  29   2.0000      -0.478054       -13.0085
  30   2.0000      -0.472084       -12.8461
  31   2.0000      -0.455822       -12.4035
  32   2.0000      -0.446452       -12.1486
  33   2.0000      -0.436054       -11.8656
  34   2.0000      -0.416123       -11.3233
  35   2.0000      -0.408390       -11.1129
  36   2.0000      -0.393805       -10.7160
  37   2.0000      -0.391584       -10.6555
  38   2.0000      -0.374085       -10.1794
  39   2.0000      -0.366203        -9.9649
  40   2.0000      -0.358046        -9.7429
  41   2.0000      -0.348897        -9.4940
  42   2.0000      -0.339808        -9.2466
  43   2.0000      -0.334602        -9.1050
  44   2.0000      -0.321025        -8.7355
  45   2.0000      -0.301650        -8.2083
  46   2.0000      -0.285220        -7.7612
  47   2.0000      -0.271829        -7.3968
  48   2.0000      -0.260858        -7.0983
  49   2.0000      -0.251329        -6.8390
  50   2.0000      -0.232962        -6.3392
  51   0.0000       0.063635         1.7316
  52   0.0000       0.086638         2.3575
  53   0.0000       0.091778         2.4974
  54   0.0000       0.099966         2.7202
  55   0.0000       0.106464         2.8970

MULLIKEN ATOMIC CHARGES
-----------------------
   0 C :    0.305763
   1 C :   -0.259812
   2 C :   -0.295713
   3 C :   -0.007280
   4 O :   -0.491837
   5 H :    0.143297
   6 H :    0.142839
   7 H :    0.151832
   8 H :    0.135537
   9 H :    0.158796
  10 H :    0.140279
  11 H :    0.139846
  12 C :    0.011455
  13 H :    0.149395
  14 H :    0.121368
  15 O :   -0.536354
  16 C :    0.051815
  17 C :    0.074622
  18 C :   -0.289789
  19 C :   -0.036353
  20 O :   -0.496956
  21 H :    0.171925
  22 O :   -0.601746
  23 H :    0.152957
  24 H :    0.162756
  25 H :    0.139874
  26 H :    0.143282
  27 H :    0.150144
  28 H :    0.368056
Sum of atomic charges:   -0.0000000

LOEWDIN ATOMIC CHARGES
----------------------
   0 C :    0.178540
   1 C :   -0.215615
   2 C :   -0.216388
   3 C :   -0.032007
   4 O :   -0.313657
   5 H :    0.099046
   6 H :    0.112650
   7 H :    0.121411
   8 H :    0.110623
   9 H :    0.117397
  10 H :    0.101451
  11 H :    0.100946
  12 C :   -0.036703
  13 H :    0.115990
  14 H :    0.088965
  15 O :   -0.330524
  16 C :    0.004275
  17 C :    0.036274
  18 C :   -0.240828
  19 C :   -0.042265
  20 O :   -0.312542
  21 H :    0.121285
  22 O :   -0.413667
  23 H :    0.115749
  24 H :    0.126753
  25 H :    0.111030
  26 H :    0.102220
  27 H :    0.104291
  28 H :    0.285300

  Mayer bond orders larger than 0.100000
B(  0-C ,  1-C ) :   0.9454 B(  0-C ,  4-O ) :   0.9067 B(  0-C ,  5-H ) :   0.9217
B(  0-C , 15-O ) :   0.8398 B(  1-C ,  2-C ) :   0.9571 B(  1-C ,  6-H ) :   0.9413
B(  1-C ,  7-H ) :   0.9370 B(  2-C ,  3-C ) :   0.9529 B(  2-C ,  8-H ) :   0.9459
B(  2-C ,  9-H ) :   0.9448 B(  3-C ,  4-O ) :   0.8483 B(  3-C , 10-H ) :   0.9359
B(  3-C , 11-H ) :   0.9401 B( 12-C , 13-H ) :   0.9301 B( 12-C , 14-H ) :   0.9231
B( 12-C , 15-O ) :   0.8635 B( 12-C , 16-C ) :   0.8906 B( 16-C , 17-C ) :   0.8950
B( 16-C , 20-O ) :   0.8520 B( 16-C , 21-H ) :   0.9206 B( 17-C , 18-C ) :   0.9107
B( 17-C , 22-O ) :   0.8945 B( 17-C , 23-H ) :   0.9327 B( 18-C , 19-C ) :   0.9385
B( 18-C , 24-H ) :   0.9374 B( 18-C , 25-H ) :   0.9332 B( 19-C , 20-O ) :   0.8527
B( 19-C , 26-H ) :   0.9343 B( 19-C , 27-H ) :   0.9369 B( 22-O , 28-H ) :   0.7921

FINAL SINGLE POINT ENERGY      -652.858575799189

DIPOLE MOMENT
-------------
                                X             Y             Z
Electronic contribution:     -0.43681      -2.52463       1.99260
Nuclear contribution   :      0.41539       2.73624      -2.72759
                        -----------------------------------------
Total Dipole Moment    :     -0.02142       0.21160      -0.73499
                        -----------------------------------------
Magnitude (a.u.)       :      0.76515
Magnitude (Debye)      :      1.94485

Rotational constants in cm-1:     0.060417     0.013785     0.013563
Rotational constants in MHz :  1811.265191   413.263714   406.595119

                             ****ORCA TERMINATED NORMALLY****
TOTAL RUN TIME: 0 days 2 hours 11 minutes 7 seconds 601 msec
