                         Program Version 4.2.0 -  RELEASE  -
|  1> # Test redundant internal optimization
|  2> #
|  3> ! RKS B3LYP  Opt TightSCF SmallPrint
|  4>
|  5> %basis
|  6>         Basis "6-31G"
|  7> end
|  8>
|  9> %geom
| 10> Constraints
| 11> { D 4  0  15  12  120.0   C } # D for Dihedral angle
| 12> { D 0  15  12  16  60.0   C } # D for Dihedral angle
| 13> { D 0  4  3  2   C } # D for Dihedral angle
| 14> { D 4  3  2  1   C } # D for Dihedral angle
| 15> { D 3  2  1  0   C } # D for Dihedral angle
| 16> { D 2  1  0  4   C } # D for Dihedral angle
| 17> { D 1  0  4  3   C } # D for Dihedral angle
| 18> { D 16  20  19  18   C } # D for Dihedral angle
| 19> { D 20  19  18  17   C } # D for Dihedral angle
| 20> { D 19  18  17  16   C } # D for Dihedral angle
| 21> { D 18  17  16  20   C } # D for Dihedral angle
| 22> { D 17  16  20  19   C } # D for Dihedral angle
| 23> { D 15  12  16  20   C } # D for Dihedral angle
| 24> end
| 25> end
| 26>
| 27>
| 28> #%pal
| 29> #nprocs 8
| 30> #end
| 31>
| 32> * xyz 0 1
| 33> C  -21.048   26.222   46.251
| 34> C  -20.361   27.558   45.944
| 35> C  -20.329   28.222   47.341
| 36> C  -20.110   27.022   48.296
| 37> O  -20.473   25.807   47.535
| 38> H  -20.833   25.428   45.533
| 39> H  -19.344   27.382   45.576
| 40> H  -20.898   28.157   45.201
| 41> H  -19.543   28.978   47.434
| 42> H  -21.289   28.710   47.548
| 43> H  -20.733   27.082   49.195
| 44> H  -19.064   26.913   48.597
| 45> C  -23.119   27.818   46.058
| 46> H  -24.209   27.833   46.183
| 47> H  -22.684   28.553   46.747
| 48> O  -22.586   26.394   46.375
| 49> C  -22.788   28.275   44.610
| 50> C  -23.499   27.398   43.573
| 51> C  -24.931   27.985   43.596
| 52> C  -24.687   29.496   43.834
| 53> O  -23.313   29.622   44.365
| 54> H  -21.704   28.327   44.490
| 55> O  -22.849   27.591   42.176
| 56> H  -23.473   26.331   43.821
| 57> H  -25.483   27.792   42.671
| 58> H  -25.503   27.550   44.424
| 59> H  -25.391   29.926   44.555
| 60> H  -24.730   30.077   42.909
| 61> H  -22.864   28.654   41.906
| 62> *
| 63>
| 64>                          ****END OF INPUT****
 Total Charge           Charge          ....    0
 Multiplicity           Mult            ....    1
 Number of Electrons    NEL             ....  102
FINAL SINGLE POINT ENERGY      -652.787520390681
FINAL SINGLE POINT ENERGY      -652.827839293390
FINAL SINGLE POINT ENERGY      -652.846077874894
FINAL SINGLE POINT ENERGY      -652.849028587818
FINAL SINGLE POINT ENERGY      -652.849487978298
FINAL SINGLE POINT ENERGY      -652.849574538505
FINAL SINGLE POINT ENERGY      -652.849581997728
                    ***********************HURRAY********************

CARTESIAN COORDINATES (ANGSTROEM)
---------------------------------
  C    -21.109407   26.291999   46.354673
  C    -20.085017   27.376230   46.001643
  C    -19.975313   28.170169   47.335913
  C    -20.137272   27.054640   48.395595
  O    -20.747221   25.905374   47.693857
  H    -21.035258   25.387775   45.749876
  H    -19.135034   26.873037   45.787372
  H    -20.332499   27.992900   45.141082
  H    -19.020788   28.696414   47.427878
  H    -20.776614   28.912729   47.413584
  H    -20.783300   27.345511   49.228635
  H    -19.176404   26.711637   48.790486
  C    -23.161254   27.895124   45.991528
  H    -24.224606   27.691553   46.143874
  H    -22.875881   28.694081   46.689361
  O    -22.528358   26.632298   46.343238
  C    -22.925133   28.420504   44.568089
  C    -23.482168   27.532955   43.445364
  C    -24.988221   27.897246   43.479315
  C    -24.983083   29.403876   43.841867
  O    -23.643615   29.693006   44.419118
  H    -21.876028   28.651365   44.388779
  O    -22.865496   27.856344   42.168767
  H    -23.291223   26.471814   43.603384
  H    -25.456079   27.693444   42.512633
  H    -25.505552   27.303960   44.240303
  H    -25.750067   29.668031   44.576152
  H    -25.100320   30.049791   42.966475
  H    -22.866791   28.829192   42.045159

 Multiplicity           Mult            ....    1
 Number of Electrons    NEL             ....  102
 Basis Dimension        Dim             ....  149

ORBITAL ENERGIES
----------------

  NO   OCC          E(Eh)            E(eV)
   0   2.0000     -19.150887      -521.1221
   1   2.0000     -19.141960      -520.8792
   2   2.0000     -19.138539      -520.7861
   3   2.0000     -19.137431      -520.7560
   4   2.0000     -10.281925      -279.7854
   5   2.0000     -10.242341      -278.7083
   6   2.0000     -10.237552      -278.5779
   7   2.0000     -10.236672      -278.5540
   8   2.0000     -10.235546      -278.5234
   9   2.0000     -10.226392      -278.2743
  10   2.0000     -10.193992      -277.3926
  11   2.0000     -10.193564      -277.3810
  12   2.0000     -10.192473      -277.3513
  13   2.0000      -1.048947       -28.5433
  14   2.0000      -1.040759       -28.3205
  15   2.0000      -1.010405       -27.4945
  16   2.0000      -0.990307       -26.9476
  17   2.0000      -0.789950       -21.4956
  18   2.0000      -0.785013       -21.3613
  19   2.0000      -0.772125       -21.0106
  20   2.0000      -0.738380       -20.0923
  21   2.0000      -0.681429       -18.5426
  22   2.0000      -0.609023       -16.5724
  23   2.0000      -0.606579       -16.5058
  24   2.0000      -0.603781       -16.4297
  25   2.0000      -0.575581       -15.6624
  26   2.0000      -0.531229       -14.4555
  27   2.0000      -0.508529       -13.8378
  28   2.0000      -0.502999       -13.6873
  29   2.0000      -0.491588       -13.3768
  30   2.0000      -0.476680       -12.9711
  31   2.0000      -0.463373       -12.6090
  32   2.0000      -0.447625       -12.1805
  33   2.0000      -0.441755       -12.0208
  34   2.0000      -0.427031       -11.6201
  35   2.0000      -0.418586       -11.3903
  36   2.0000      -0.409379       -11.1398
  37   2.0000      -0.398443       -10.8422
  38   2.0000      -0.385120       -10.4797
  39   2.0000      -0.374002       -10.1771
  40   2.0000      -0.368608       -10.0303
  41   2.0000      -0.356803        -9.7091
  42   2.0000      -0.351662        -9.5692
  43   2.0000      -0.336102        -9.1458
  44   2.0000      -0.314312        -8.5529
  45   2.0000      -0.312052        -8.4914
  46   2.0000      -0.294740        -8.0203
  47   2.0000      -0.273036        -7.4297
  48   2.0000      -0.271528        -7.3887
  49   2.0000      -0.255140        -6.9427
  50   2.0000      -0.241590        -6.5740
  51   0.0000       0.058906         1.6029
  52   0.0000       0.067587         1.8391
  53   0.0000       0.081009         2.2044
  54   0.0000       0.093374         2.5408
  55   0.0000       0.096839         2.6351

MULLIKEN ATOMIC CHARGES
-----------------------
   0 C :    0.317379
   1 C :   -0.301473
   2 C :   -0.312169
   3 C :   -0.001921
   4 O :   -0.493985
   5 H :    0.161131
   6 H :    0.157034
   7 H :    0.150214
   8 H :    0.146506
   9 H :    0.155572
  10 H :    0.149130
  11 H :    0.144869
  12 C :   -0.005742
  13 H :    0.157704
  14 H :    0.143789
  15 O :   -0.537339
  16 C :    0.030689
  17 C :    0.089487
  18 C :   -0.304843
  19 C :   -0.034218
  20 O :   -0.526121
  21 H :    0.166818
  22 O :   -0.604107
  23 H :    0.171338
  24 H :    0.163271
  25 H :    0.156285
  26 H :    0.149547
  27 H :    0.149100
  28 H :    0.362053
Sum of atomic charges:    0.0000000

LOEWDIN ATOMIC CHARGES
----------------------
   0 C :    0.184768
   1 C :   -0.231940
   2 C :   -0.220644
   3 C :   -0.029839
   4 O :   -0.310107
   5 H :    0.109093
   6 H :    0.123267
   7 H :    0.115861
   8 H :    0.116998
   9 H :    0.111733
  10 H :    0.106004
  11 H :    0.103710
  12 C :   -0.037772
  13 H :    0.116127
  14 H :    0.099926
  15 O :   -0.338754
  16 C :   -0.000969
  17 C :    0.036363
  18 C :   -0.241517
  19 C :   -0.039375
  20 O :   -0.330048
  21 H :    0.110205
  22 O :   -0.415314
  23 H :    0.124559
  24 H :    0.127416
  25 H :    0.119046
  26 H :    0.105739
  27 H :    0.103776
  28 H :    0.281688

  Mayer bond orders larger than 0.100000
B(  0-C ,  1-C ) :   0.9292 B(  0-C ,  4-O ) :   0.9188 B(  0-C ,  5-H ) :   0.9312
B(  0-C , 15-O ) :   0.8596 B(  1-C ,  2-C ) :   0.9514 B(  1-C ,  6-H ) :   0.9320
B(  1-C ,  7-H ) :   0.9178 B(  2-C ,  3-C ) :   0.9493 B(  2-C ,  8-H ) :   0.9455
B(  2-C ,  9-H ) :   0.9407 B(  3-C ,  4-O ) :   0.8439 B(  3-C , 10-H ) :   0.9345
B(  3-C , 11-H ) :   0.9390 B( 12-C , 13-H ) :   0.9366 B( 12-C , 14-H ) :   0.9083
B( 12-C , 15-O ) :   0.8478 B( 12-C , 16-C ) :   0.8733 B( 16-C , 17-C ) :   0.9065
B( 16-C , 20-O ) :   0.8312 B( 16-C , 21-H ) :   0.9107 B( 17-C , 18-C ) :   0.9152
B( 17-C , 22-O ) :   0.8885 B( 17-C , 23-H ) :   0.9260 B( 18-C , 19-C ) :   0.9423
B( 18-C , 24-H ) :   0.9373 B( 18-C , 25-H ) :   0.9319 B( 19-C , 20-O ) :   0.8425
B( 19-C , 26-H ) :   0.9349 B( 19-C , 27-H ) :   0.9374 B( 22-O , 28-H ) :   0.7969

FINAL SINGLE POINT ENERGY      -652.849583383819

DIPOLE MOMENT
-------------
                                X             Y             Z
Electronic contribution:     -0.55534      -2.45276      -0.85680
Nuclear contribution   :      0.53304       3.42392       0.71332
                        -----------------------------------------
Total Dipole Moment    :     -0.02230       0.97116      -0.14348
                        -----------------------------------------
Magnitude (a.u.)       :      0.98196
Magnitude (Debye)      :      2.49594

Rotational constants in cm-1:     0.057580     0.013127     0.012879
Rotational constants in MHz :  1726.209908   393.531392   386.094035

                             ****ORCA TERMINATED NORMALLY****
TOTAL RUN TIME: 0 days 1 hours 32 minutes 48 seconds 182 msec
