                         Program Version 4.2.0 -  RELEASE  -
|  1> # Test redundant internal optimization
|  2> #
|  3> ! RKS B3LYP  Opt TightSCF SmallPrint
|  4>
|  5> %basis
|  6>         Basis "6-31G"
|  7> end
|  8>
|  9> %geom
| 10> Constraints
| 11> { D 4  0  15  12  225.0   C } # D for Dihedral angle
| 12> { D 0  15  12  16  315.0   C } # D for Dihedral angle
| 13> { D 0  4  3  2   C } # D for Dihedral angle
| 14> { D 4  3  2  1   C } # D for Dihedral angle
| 15> { D 3  2  1  0   C } # D for Dihedral angle
| 16> { D 2  1  0  4   C } # D for Dihedral angle
| 17> { D 1  0  4  3   C } # D for Dihedral angle
| 18> { D 16  20  19  18   C } # D for Dihedral angle
| 19> { D 20  19  18  17   C } # D for Dihedral angle
| 20> { D 19  18  17  16   C } # D for Dihedral angle
| 21> { D 18  17  16  20   C } # D for Dihedral angle
| 22> { D 17  16  20  19   C } # D for Dihedral angle
| 23> { D 15  12  16  20   C } # D for Dihedral angle
| 24> end
| 25> end
| 26>
| 27>
| 28> #%pal
| 29> #nprocs 8
| 30> #end
| 31>
| 32> * xyz 0 1
| 33> C  -21.048   26.222   46.251
| 34> C  -20.361   27.558   45.944
| 35> C  -20.329   28.222   47.341
| 36> C  -20.110   27.022   48.296
| 37> O  -20.473   25.807   47.535
| 38> H  -20.833   25.428   45.533
| 39> H  -19.344   27.382   45.576
| 40> H  -20.898   28.157   45.201
| 41> H  -19.543   28.978   47.434
| 42> H  -21.289   28.710   47.548
| 43> H  -20.733   27.082   49.195
| 44> H  -19.064   26.913   48.597
| 45> C  -23.415   25.773   45.218
| 46> H  -23.446   24.683   45.339
| 47> H  -24.446   26.149   45.239
| 48> O  -22.586   26.394   46.375
| 49> C  -22.825   26.092   43.817
| 50> C  -23.729   25.564   42.698
| 51> C  -24.833   26.647   42.649
| 52> C  -24.061   27.951   42.968
| 53> O  -22.786   27.542   43.595
| 54> H  -21.794   25.734   43.773
| 55> H  -23.178   25.531   41.751
| 56> O  -24.290   24.144   42.986
| 57> H  -25.343   26.690   41.681
| 58> H  -25.589   26.448   43.418
| 59> H  -24.607   28.603   43.659
| 60> H  -23.810   28.519   42.068
| 61> H  -24.847   24.152   43.929
| 62> *
| 63>
| 64>                          ****END OF INPUT****
 Total Charge           Charge          ....    0
 Multiplicity           Mult            ....    1
 Number of Electrons    NEL             ....  102
FINAL SINGLE POINT ENERGY      -652.825825816415
FINAL SINGLE POINT ENERGY      -652.848937617667
FINAL SINGLE POINT ENERGY      -652.853708601007
FINAL SINGLE POINT ENERGY      -652.854553184236
FINAL SINGLE POINT ENERGY      -652.854718197923
FINAL SINGLE POINT ENERGY      -652.854738722408
FINAL SINGLE POINT ENERGY      -652.854741885210
                    ***********************HURRAY********************

CARTESIAN COORDINATES (ANGSTROEM)
---------------------------------
  C    -20.986168   26.214339   46.201264
  C    -20.341170   27.576195   45.953120
  C    -20.399907   28.215574   47.358359
  C    -20.179861   27.012044   48.300009
  O    -20.465631   25.803748   47.481849
  H    -20.721077   25.424325   45.493610
  H    -19.300911   27.432922   45.634853
  H    -20.875359   28.144977   45.189644
  H    -19.647710   28.997996   47.497553
  H    -21.389964   28.652653   47.519739
  H    -20.846985   27.013434   49.165715
  H    -19.143705   26.921023   48.640236
  C    -23.274446   25.811797   45.259287
  H    -23.352863   24.720319   45.385676
  H    -24.254929   26.257822   45.452248
  O    -22.429268   26.360741   46.305009
  C    -22.821865   26.084830   43.820126
  C    -23.794840   25.531862   42.762934
  C    -24.876753   26.654954   42.703474
  C    -24.045332   27.938712   42.924226
  O    -22.752203   27.513552   43.520550
  H    -21.812647   25.696202   43.662048
  H    -23.276601   25.457722   41.804408
  O    -24.298957   24.199215   43.004510
  H    -25.416081   26.655679   41.752885
  H    -25.608340   26.505160   43.508310
  H    -24.529483   28.651321   43.599020
  H    -23.809857   28.446220   41.984199
  H    -24.957084   24.201663   43.729140

 Multiplicity           Mult            ....    1
 Number of Electrons    NEL             ....  102
 Basis Dimension        Dim             ....  149

ORBITAL ENERGIES
----------------

  NO   OCC          E(Eh)            E(eV)
   0   2.0000     -19.155790      -521.2555
   1   2.0000     -19.147334      -521.0254
   2   2.0000     -19.133500      -520.6490
   3   2.0000     -19.129564      -520.5419
   4   2.0000     -10.270549      -279.4758
   5   2.0000     -10.252625      -278.9881
   6   2.0000     -10.239221      -278.6234
   7   2.0000     -10.238334      -278.5992
   8   2.0000     -10.233217      -278.4600
   9   2.0000     -10.215226      -277.9704
  10   2.0000     -10.202236      -277.6170
  11   2.0000     -10.174714      -276.8680
  12   2.0000     -10.169852      -276.7357
  13   2.0000      -1.045718       -28.4554
  14   2.0000      -1.038449       -28.2576
  15   2.0000      -1.023217       -27.8431
  16   2.0000      -0.985360       -26.8130
  17   2.0000      -0.789856       -21.4931
  18   2.0000      -0.775981       -21.1155
  19   2.0000      -0.768269       -20.9057
  20   2.0000      -0.729182       -19.8420
  21   2.0000      -0.681210       -18.5367
  22   2.0000      -0.618759       -16.8373
  23   2.0000      -0.604688       -16.4544
  24   2.0000      -0.587571       -15.9886
  25   2.0000      -0.563412       -15.3312
  26   2.0000      -0.535772       -14.5791
  27   2.0000      -0.515810       -14.0359
  28   2.0000      -0.493554       -13.4303
  29   2.0000      -0.483743       -13.1633
  30   2.0000      -0.466571       -12.6961
  31   2.0000      -0.452073       -12.3015
  32   2.0000      -0.446084       -12.1386
  33   2.0000      -0.436174       -11.8689
  34   2.0000      -0.433441       -11.7945
  35   2.0000      -0.420859       -11.4522
  36   2.0000      -0.410401       -11.1676
  37   2.0000      -0.391796       -10.6613
  38   2.0000      -0.385426       -10.4880
  39   2.0000      -0.366272        -9.9668
  40   2.0000      -0.358337        -9.7508
  41   2.0000      -0.349086        -9.4991
  42   2.0000      -0.342294        -9.3143
  43   2.0000      -0.334755        -9.1091
  44   2.0000      -0.322732        -8.7820
  45   2.0000      -0.305302        -8.3077
  46   2.0000      -0.299892        -8.1605
  47   2.0000      -0.278850        -7.5879
  48   2.0000      -0.262107        -7.1323
  49   2.0000      -0.247241        -6.7278
  50   2.0000      -0.234885        -6.3915
  51   0.0000       0.047011         1.2792
  52   0.0000       0.072767         1.9801
  53   0.0000       0.081972         2.2306
  54   0.0000       0.095918         2.6101
  55   0.0000       0.096639         2.6297

MULLIKEN ATOMIC CHARGES
-----------------------
   0 C :    0.281051
   1 C :   -0.263478
   2 C :   -0.300700
   3 C :   -0.000814
   4 O :   -0.508950
   5 H :    0.139258
   6 H :    0.133335
   7 H :    0.181494
   8 H :    0.136849
   9 H :    0.160312
  10 H :    0.148367
  11 H :    0.136955
  12 C :   -0.003309
  13 H :    0.134175
  14 H :    0.140892
  15 O :   -0.512952
  16 C :    0.068057
  17 C :    0.088211
  18 C :   -0.322303
  19 C :   -0.014374
  20 O :   -0.514001
  21 H :    0.158750
  22 H :    0.168072
  23 O :   -0.596762
  24 H :    0.160424
  25 H :    0.137792
  26 H :    0.151784
  27 H :    0.153482
  28 H :    0.358384
Sum of atomic charges:   -0.0000000

LOEWDIN ATOMIC CHARGES
----------------------
   0 C :    0.176725
   1 C :   -0.227233
   2 C :   -0.216717
   3 C :   -0.026571
   4 O :   -0.314205
   5 H :    0.095921
   6 H :    0.108405
   7 H :    0.133184
   8 H :    0.111828
   9 H :    0.118254
  10 H :    0.106018
  11 H :    0.099844
  12 C :   -0.046619
  13 H :    0.097923
  14 H :    0.108246
  15 O :   -0.326294
  16 C :    0.002752
  17 C :    0.037767
  18 C :   -0.240259
  19 C :   -0.029775
  20 O :   -0.322086
  21 H :    0.112696
  22 H :    0.119567
  23 O :   -0.403811
  24 H :    0.124371
  25 H :    0.106047
  26 H :    0.106489
  27 H :    0.107980
  28 H :    0.279553

  Mayer bond orders larger than 0.100000
B(  0-C ,  1-C ) :   0.9375 B(  0-C ,  4-O ) :   0.9240 B(  0-C ,  5-H ) :   0.9180
B(  0-C , 15-O ) :   0.8316 B(  1-C ,  2-C ) :   0.9549 B(  1-C ,  6-H ) :   0.9364
B(  1-C ,  7-H ) :   0.9197 B(  2-C ,  3-C ) :   0.9548 B(  2-C ,  8-H ) :   0.9456
B(  2-C ,  9-H ) :   0.9441 B(  3-C ,  4-O ) :   0.8401 B(  3-C , 10-H ) :   0.9354
B(  3-C , 11-H ) :   0.9401 B( 12-C , 13-H ) :   0.9013 B( 12-C , 14-H ) :   0.9376
B( 12-C , 15-O ) :   0.8714 B( 12-C , 16-C ) :   0.8898 B( 16-C , 17-C ) :   0.8686
B( 16-C , 20-O ) :   0.8520 B( 16-C , 21-H ) :   0.9246 B( 17-C , 18-C ) :   0.9221
B( 17-C , 22-H ) :   0.9331 B( 17-C , 23-O ) :   0.9044 B( 18-C , 19-C ) :   0.9394
B( 18-C , 24-H ) :   0.9417 B( 18-C , 25-H ) :   0.9405 B( 19-C , 20-O ) :   0.8398
B( 19-C , 26-H ) :   0.9308 B( 19-C , 27-H ) :   0.9373 B( 23-O , 28-H ) :   0.7963

FINAL SINGLE POINT ENERGY      -652.854742105737

DIPOLE MOMENT
-------------
                                X             Y             Z
Electronic contribution:      0.08145      -3.91514       0.01782
Nuclear contribution   :     -0.87388       4.68606      -0.65036
                        -----------------------------------------
Total Dipole Moment    :     -0.79242       0.77092      -0.63254
                        -----------------------------------------
Magnitude (a.u.)       :      1.27372
Magnitude (Debye)      :      3.23753

Rotational constants in cm-1:     0.058854     0.013377     0.011858
Rotational constants in MHz :  1764.385431   401.018777   355.485313

                             ****ORCA TERMINATED NORMALLY****
TOTAL RUN TIME: 0 days 0 hours 23 minutes 28 seconds 351 msec
