                         Program Version 4.2.0 -  RELEASE  -
|  1> # Test redundant internal optimization
|  2> #
|  3> ! RKS B3LYP  Opt TightSCF SmallPrint
|  4>
|  5> %basis
|  6>         Basis "6-31G"
|  7> end
|  8>
|  9> %geom
| 10> Constraints
| 11> { D 4  0  15  12  255.0   C } # D for Dihedral angle
| 12> { D 0  15  12  16  165.0   C } # D for Dihedral angle
| 13> { D 0  4  3  2   C } # D for Dihedral angle
| 14> { D 4  3  2  1   C } # D for Dihedral angle
| 15> { D 3  2  1  0   C } # D for Dihedral angle
| 16> { D 2  1  0  4   C } # D for Dihedral angle
| 17> { D 1  0  4  3   C } # D for Dihedral angle
| 18> { D 16  20  19  18   C } # D for Dihedral angle
| 19> { D 20  19  18  17   C } # D for Dihedral angle
| 20> { D 19  18  17  16   C } # D for Dihedral angle
| 21> { D 18  17  16  20   C } # D for Dihedral angle
| 22> { D 17  16  20  19   C } # D for Dihedral angle
| 23> { D 15  12  16  20   C } # D for Dihedral angle
| 24> end
| 25> end
| 26>
| 27>
| 28> #%pal
| 29> #nprocs 8
| 30> #end
| 31>
| 32> * xyz 0 1
| 33> C  -21.048   26.222   46.251
| 34> C  -20.361   27.558   45.944
| 35> C  -20.329   28.222   47.341
| 36> C  -20.110   27.022   48.296
| 37> O  -20.473   25.807   47.535
| 38> H  -20.833   25.428   45.533
| 39> H  -19.344   27.382   45.576
| 40> H  -20.898   28.157   45.201
| 41> H  -19.543   28.978   47.434
| 42> H  -21.289   28.710   47.548
| 43> H  -20.733   27.082   49.195
| 44> H  -19.064   26.913   48.597
| 45> C  -23.431   25.260   45.734
| 46> H  -23.410   25.365   44.642
| 47> H  -23.014   24.277   45.991
| 48> O  -22.586   26.394   46.375
| 49> C  -24.914   25.280   46.197
| 50> C  -25.689   24.082   45.638
| 51> C  -25.245   22.948   46.592
| 52> C  -25.097   23.671   47.953
| 53> O  -24.998   25.116   47.653
| 54> H  -25.350   26.252   45.959
| 55> H  -26.767   24.258   45.721
| 56> O  -25.357   23.782   44.150
| 57> H  -25.964   22.123   46.634
| 58> H  -24.282   22.537   46.266
| 59> H  -24.200   23.357   48.500
| 60> H  -25.970   23.534   48.596
| 61> H  -24.282   23.601   44.041
| 62> *
| 63>
| 64>                          ****END OF INPUT****
 Total Charge           Charge          ....    0
 Multiplicity           Mult            ....    1
 Number of Electrons    NEL             ....  102
FINAL SINGLE POINT ENERGY      -652.827357943388
FINAL SINGLE POINT ENERGY      -652.851653320494
FINAL SINGLE POINT ENERGY      -652.856222620614
FINAL SINGLE POINT ENERGY      -652.857076625809
FINAL SINGLE POINT ENERGY      -652.857229298024
FINAL SINGLE POINT ENERGY      -652.857256407207
FINAL SINGLE POINT ENERGY      -652.857262975038
FINAL SINGLE POINT ENERGY      -652.857264136169
                    ***********************HURRAY********************

CARTESIAN COORDINATES (ANGSTROEM)
---------------------------------
  C    -21.023053   26.167575   46.192363
  C    -20.468486   27.572960   45.959225
  C    -20.534343   28.181259   47.380362
  C    -20.218551   26.972447   48.289003
  O    -20.447119   25.766541   47.454610
  H    -20.732664   25.412467   45.455918
  H    -19.430598   27.503370   45.612190
  H    -21.053740   28.128769   45.223769
  H    -19.827540   29.004714   47.519432
  H    -21.545243   28.551760   47.573190
  H    -20.866110   26.917680   49.167221
  H    -19.171459   26.940015   48.605709
  C    -23.229068   25.204235   45.669894
  H    -23.235095   25.316615   44.575577
  H    -22.781491   24.231465   45.925104
  O    -22.462959   26.270146   46.284613
  C    -24.661097   25.292941   46.190610
  C    -25.585880   24.187974   45.654628
  C    -25.268762   23.007148   46.620355
  C    -25.017376   23.725771   47.963562
  O    -24.747099   25.150096   47.639410
  H    -25.040774   26.294193   45.967636
  H    -26.625858   24.502440   45.766061
  O    -25.445568   23.883252   44.245103
  H    -26.086257   22.282569   46.669713
  H    -24.370103   22.480170   46.272428
  H    -24.163269   23.317789   48.512876
  H    -25.897483   23.707893   48.614036
  H    -24.643958   23.343745   44.088401

 Multiplicity           Mult            ....    1
 Number of Electrons    NEL             ....  102
 Basis Dimension        Dim             ....  149

ORBITAL ENERGIES
----------------

  NO   OCC          E(Eh)            E(eV)
   0   2.0000     -19.150443      -521.1101
   1   2.0000     -19.137204      -520.7498
   2   2.0000     -19.134333      -520.6717
   3   2.0000     -19.132043      -520.6094
   4   2.0000     -10.274911      -279.5945
   5   2.0000     -10.244826      -278.7759
   6   2.0000     -10.230624      -278.3894
   7   2.0000     -10.229156      -278.3495
   8   2.0000     -10.228128      -278.3215
   9   2.0000     -10.217818      -278.0410
  10   2.0000     -10.195135      -277.4237
  11   2.0000     -10.180000      -277.0119
  12   2.0000     -10.178747      -276.9778
  13   2.0000      -1.048307       -28.5259
  14   2.0000      -1.032898       -28.1066
  15   2.0000      -1.014002       -27.5924
  16   2.0000      -0.989390       -26.9227
  17   2.0000      -0.784545       -21.3486
  18   2.0000      -0.779938       -21.2232
  19   2.0000      -0.764938       -20.8150
  20   2.0000      -0.725805       -19.7502
  21   2.0000      -0.677842       -18.4450
  22   2.0000      -0.610804       -16.6208
  23   2.0000      -0.592075       -16.1112
  24   2.0000      -0.585710       -15.9380
  25   2.0000      -0.579411       -15.7666
  26   2.0000      -0.529224       -14.4009
  27   2.0000      -0.510108       -13.8807
  28   2.0000      -0.494900       -13.4669
  29   2.0000      -0.483191       -13.1483
  30   2.0000      -0.468158       -12.7392
  31   2.0000      -0.456378       -12.4187
  32   2.0000      -0.443997       -12.0818
  33   2.0000      -0.431871       -11.7518
  34   2.0000      -0.424344       -11.5470
  35   2.0000      -0.418378       -11.3847
  36   2.0000      -0.400183       -10.8895
  37   2.0000      -0.396352       -10.7853
  38   2.0000      -0.377352       -10.2683
  39   2.0000      -0.371083       -10.0977
  40   2.0000      -0.351401        -9.5621
  41   2.0000      -0.348569        -9.4850
  42   2.0000      -0.343349        -9.3430
  43   2.0000      -0.328930        -8.9506
  44   2.0000      -0.315552        -8.5866
  45   2.0000      -0.314172        -8.5491
  46   2.0000      -0.299557        -8.1514
  47   2.0000      -0.271295        -7.3823
  48   2.0000      -0.260831        -7.0976
  49   2.0000      -0.241668        -6.5761
  50   2.0000      -0.239900        -6.5280
  51   0.0000       0.050177         1.3654
  52   0.0000       0.078414         2.1338
  53   0.0000       0.088635         2.4119
  54   0.0000       0.097900         2.6640
  55   0.0000       0.106204         2.8900

MULLIKEN ATOMIC CHARGES
-----------------------
   0 C :    0.284041
   1 C :   -0.252819
   2 C :   -0.299795
   3 C :    0.000714
   4 O :   -0.506063
   5 H :    0.133500
   6 H :    0.139936
   7 H :    0.148922
   8 H :    0.137660
   9 H :    0.168553
  10 H :    0.155051
  11 H :    0.137032
  12 C :   -0.011771
  13 H :    0.133847
  14 H :    0.125504
  15 O :   -0.510536
  16 C :    0.099877
  17 C :    0.082603
  18 C :   -0.326551
  19 C :   -0.014025
  20 O :   -0.502584
  21 H :    0.161643
  22 H :    0.167340
  23 O :   -0.601814
  24 H :    0.159401
  25 H :    0.132916
  26 H :    0.151831
  27 H :    0.149643
  28 H :    0.355945
Sum of atomic charges:   -0.0000000

LOEWDIN ATOMIC CHARGES
----------------------
   0 C :    0.174416
   1 C :   -0.218124
   2 C :   -0.215962
   3 C :   -0.026002
   4 O :   -0.323371
   5 H :    0.095618
   6 H :    0.110852
   7 H :    0.119941
   8 H :    0.112031
   9 H :    0.122338
  10 H :    0.109690
  11 H :    0.099854
  12 C :   -0.049940
  13 H :    0.096400
  14 H :    0.091177
  15 O :   -0.320507
  16 C :    0.023649
  17 C :    0.035388
  18 C :   -0.242294
  19 C :   -0.030462
  20 O :   -0.311046
  21 H :    0.119118
  22 H :    0.119342
  23 O :   -0.408700
  24 H :    0.122887
  25 H :    0.103520
  26 H :    0.106600
  27 H :    0.105806
  28 H :    0.277779

  Mayer bond orders larger than 0.100000
B(  0-C ,  1-C ) :   0.9463 B(  0-C ,  4-O ) :   0.9229 B(  0-C ,  5-H ) :   0.9201
B(  0-C , 15-O ) :   0.8551 B(  1-C ,  2-C ) :   0.9582 B(  1-C ,  6-H ) :   0.9392
B(  1-C ,  7-H ) :   0.9380 B(  2-C ,  3-C ) :   0.9551 B(  2-C ,  8-H ) :   0.9455
B(  2-C ,  9-H ) :   0.9425 B(  3-C ,  4-O ) :   0.8370 B(  3-C , 10-H ) :   0.9343
B(  3-C , 11-H ) :   0.9402 B( 12-C , 13-H ) :   0.9049 B( 12-C , 14-H ) :   0.9151
B( 12-C , 15-O ) :   0.8453 B( 12-C , 16-C ) :   0.9063 B( 16-C , 17-C ) :   0.8732
B( 16-C , 20-O ) :   0.8761 B( 16-C , 21-H ) :   0.9305 B( 17-C , 18-C ) :   0.9247
B( 17-C , 22-H ) :   0.9340 B( 17-C , 23-O ) :   0.8944 B( 18-C , 19-C ) :   0.9379
B( 18-C , 24-H ) :   0.9416 B( 18-C , 25-H ) :   0.9403 B( 19-C , 20-O ) :   0.8501
B( 19-C , 26-H ) :   0.9303 B( 19-C , 27-H ) :   0.9376 B( 23-O , 28-H ) :   0.7989

FINAL SINGLE POINT ENERGY      -652.857264247405

DIPOLE MOMENT
-------------
                                X             Y             Z
Electronic contribution:     -2.19950      -0.79896      -0.75577
Nuclear contribution   :      2.60896       0.34115       0.43931
                        -----------------------------------------
Total Dipole Moment    :      0.40946      -0.45781      -0.31646
                        -----------------------------------------
Magnitude (a.u.)       :      0.69094
Magnitude (Debye)      :      1.75622

Rotational constants in cm-1:     0.055936     0.012717     0.011543
Rotational constants in MHz :  1676.928207   381.260722   346.052822

                             ****ORCA TERMINATED NORMALLY****
TOTAL RUN TIME: 0 days 1 hours 17 minutes 46 seconds 624 msec
