                         Program Version 4.2.0 -  RELEASE  -
|  1> # Test redundant internal optimization
|  2> #
|  3> ! RKS B3LYP  Opt TightSCF SmallPrint
|  4>
|  5> %basis
|  6>         Basis "6-31G"
|  7> end
|  8>
|  9> %geom
| 10> Constraints
| 11> { D 4  0  15  12  105.0   C } # D for Dihedral angle
| 12> { D 0  15  12  16  105.0   C } # D for Dihedral angle
| 13> { D 0  4  3  2   C } # D for Dihedral angle
| 14> { D 4  3  2  1   C } # D for Dihedral angle
| 15> { D 3  2  1  0   C } # D for Dihedral angle
| 16> { D 2  1  0  4   C } # D for Dihedral angle
| 17> { D 1  0  4  3   C } # D for Dihedral angle
| 18> { D 16  20  19  18   C } # D for Dihedral angle
| 19> { D 20  19  18  17   C } # D for Dihedral angle
| 20> { D 19  18  17  16   C } # D for Dihedral angle
| 21> { D 18  17  16  20   C } # D for Dihedral angle
| 22> { D 17  16  20  19   C } # D for Dihedral angle
| 23> { D 15  12  16  20   C } # D for Dihedral angle
| 24> end
| 25> end
| 26>
| 27>
| 28> #%pal
| 29> #nprocs 8
| 30> #end
| 31>
| 32> * xyz 0 1
| 33> C  -21.048   26.222   46.251
| 34> C  -20.361   27.558   45.944
| 35> C  -20.329   28.222   47.341
| 36> C  -20.110   27.022   48.296
| 37> O  -20.473   25.807   47.535
| 38> H  -20.833   25.428   45.533
| 39> H  -19.344   27.382   45.576
| 40> H  -20.898   28.157   45.201
| 41> H  -19.543   28.978   47.434
| 42> H  -21.289   28.710   47.548
| 43> H  -20.733   27.082   49.195
| 44> H  -19.064   26.913   48.597
| 45> C  -23.085   27.864   46.420
| 46> H  -23.827   27.970   47.221
| 47> H  -22.251   28.546   46.633
| 48> O  -22.586   26.394   46.375
| 49> C  -23.738   28.318   45.086
| 50> C  -25.018   27.526   44.795
| 51> C  -26.041   28.233   45.715
| 52> C  -25.584   29.713   45.676
| 53> O  -24.190   29.710   45.184
| 54> H  -22.991   28.280   44.290
| 55> O  -25.417   27.689   43.303
| 56> H  -24.920   26.456   45.010
| 57> H  -27.074   28.106   45.377
| 58> H  -25.970   27.833   46.733
| 59> H  -25.615   30.188   46.662
| 60> H  -26.172   30.313   44.976
| 61> H  -25.521   28.754   43.063
| 62> *
| 63>
| 64>                          ****END OF INPUT****
 Total Charge           Charge          ....    0
 Multiplicity           Mult            ....    1
 Number of Electrons    NEL             ....  102
FINAL SINGLE POINT ENERGY      -652.811206487229
FINAL SINGLE POINT ENERGY      -652.839844312621
FINAL SINGLE POINT ENERGY      -652.853134057106
FINAL SINGLE POINT ENERGY      -652.855190820254
FINAL SINGLE POINT ENERGY      -652.855539812661
FINAL SINGLE POINT ENERGY      -652.855591706662
FINAL SINGLE POINT ENERGY      -652.855585284699
                    ***********************HURRAY********************

CARTESIAN COORDINATES (ANGSTROEM)
---------------------------------
  C    -21.229393   26.389804   46.334824
  C    -20.263599   27.517003   45.942879
  C    -19.956969   28.180251   47.320092
  C    -19.964739   26.962956   48.279491
  O    -20.674792   25.878715   47.564491
  H    -21.215200   25.543520   45.646282
  H    -19.358146   27.064240   45.527280
  H    -20.669608   28.213367   45.203857
  H    -18.990676   28.694278   47.321840
  H    -20.719048   28.913000   47.595683
  H    -20.477875   27.164288   49.224429
  H    -18.957122   26.594635   48.492646
  C    -23.200378   28.037258   46.534033
  H    -23.954707   28.003110   47.327672
  H    -22.464235   28.797356   46.801577
  O    -22.641285   26.696569   46.438952
  C    -23.829232   28.422846   45.192732
  C    -25.009025   27.544589   44.753245
  C    -26.169913   28.141427   45.585925
  C    -25.833883   29.652640   45.634771
  O    -24.394876   29.774547   45.282807
  H    -23.057552   28.449488   44.416079
  O    -25.243984   27.671096   43.322892
  H    -24.836818   26.484520   44.933086
  H    -27.132407   27.933854   45.111686
  H    -26.181107   27.701932   46.588828
  H    -25.995652   30.094259   46.622710
  H    -26.395414   30.234024   44.896766
  H    -25.207365   28.618429   43.072444

 Multiplicity           Mult            ....    1
 Number of Electrons    NEL             ....  102
 Basis Dimension        Dim             ....  149

ORBITAL ENERGIES
----------------

  NO   OCC          E(Eh)            E(eV)
   0   2.0000     -19.147215      -521.0222
   1   2.0000     -19.144932      -520.9601
   2   2.0000     -19.139809      -520.8207
   3   2.0000     -19.135880      -520.7138
   4   2.0000     -10.281808      -279.7822
   5   2.0000     -10.235857      -278.5318
   6   2.0000     -10.234442      -278.4933
   7   2.0000     -10.233976      -278.4806
   8   2.0000     -10.233611      -278.4707
   9   2.0000     -10.229066      -278.3470
  10   2.0000     -10.196705      -277.4665
  11   2.0000     -10.196111      -277.4503
  12   2.0000     -10.188040      -277.2307
  13   2.0000      -1.051376       -28.6094
  14   2.0000      -1.036952       -28.2169
  15   2.0000      -1.005245       -27.3541
  16   2.0000      -0.997236       -27.1362
  17   2.0000      -0.791276       -21.5317
  18   2.0000      -0.782455       -21.2917
  19   2.0000      -0.771211       -20.9857
  20   2.0000      -0.735271       -20.0077
  21   2.0000      -0.681762       -18.5517
  22   2.0000      -0.607876       -16.5411
  23   2.0000      -0.603971       -16.4349
  24   2.0000      -0.601983       -16.3808
  25   2.0000      -0.573555       -15.6072
  26   2.0000      -0.529141       -14.3987
  27   2.0000      -0.512355       -13.9419
  28   2.0000      -0.503323       -13.6961
  29   2.0000      -0.492289       -13.3959
  30   2.0000      -0.474325       -12.9070
  31   2.0000      -0.461245       -12.5511
  32   2.0000      -0.448074       -12.1927
  33   2.0000      -0.440277       -11.9805
  34   2.0000      -0.429957       -11.6997
  35   2.0000      -0.413971       -11.2647
  36   2.0000      -0.410521       -11.1709
  37   2.0000      -0.393421       -10.7055
  38   2.0000      -0.386135       -10.5073
  39   2.0000      -0.370222       -10.0743
  40   2.0000      -0.363855        -9.9010
  41   2.0000      -0.359590        -9.7849
  42   2.0000      -0.355159        -9.6644
  43   2.0000      -0.331213        -9.0128
  44   2.0000      -0.316819        -8.6211
  45   2.0000      -0.309101        -8.4111
  46   2.0000      -0.293086        -7.9753
  47   2.0000      -0.280397        -7.6300
  48   2.0000      -0.266494        -7.2517
  49   2.0000      -0.258443        -7.0326
  50   2.0000      -0.241952        -6.5839
  51   0.0000       0.062339         1.6963
  52   0.0000       0.068394         1.8611
  53   0.0000       0.086994         2.3672
  54   0.0000       0.095078         2.5872
  55   0.0000       0.100156         2.7254

MULLIKEN ATOMIC CHARGES
-----------------------
   0 C :    0.313639
   1 C :   -0.302761
   2 C :   -0.315161
   3 C :   -0.006102
   4 O :   -0.496250
   5 H :    0.166455
   6 H :    0.161340
   7 H :    0.152396
   8 H :    0.147936
   9 H :    0.155474
  10 H :    0.147342
  11 H :    0.147411
  12 C :   -0.022839
  13 H :    0.149764
  14 H :    0.145830
  15 O :   -0.529509
  16 C :    0.055821
  17 C :    0.090232
  18 C :   -0.296428
  19 C :   -0.033221
  20 O :   -0.528231
  21 H :    0.155631
  22 O :   -0.603965
  23 H :    0.179084
  24 H :    0.160979
  25 H :    0.149426
  26 H :    0.146084
  27 H :    0.148365
  28 H :    0.361259
Sum of atomic charges:   -0.0000000

LOEWDIN ATOMIC CHARGES
----------------------
   0 C :    0.178655
   1 C :   -0.232165
   2 C :   -0.222792
   3 C :   -0.031568
   4 O :   -0.315591
   5 H :    0.111504
   6 H :    0.125954
   7 H :    0.117496
   8 H :    0.117068
   9 H :    0.110050
  10 H :    0.104723
  11 H :    0.104801
  12 C :   -0.042629
  13 H :    0.108658
  14 H :    0.105563
  15 O :   -0.326409
  16 C :    0.007094
  17 C :    0.037625
  18 C :   -0.240106
  19 C :   -0.038482
  20 O :   -0.334203
  21 H :    0.110214
  22 O :   -0.415356
  23 H :    0.129389
  24 H :    0.126591
  25 H :    0.116131
  26 H :    0.103992
  27 H :    0.103087
  28 H :    0.280706

  Mayer bond orders larger than 0.100000
B(  0-C ,  1-C ) :   0.9280 B(  0-C ,  4-O ) :   0.9128 B(  0-C ,  5-H ) :   0.9336
B(  0-C , 15-O ) :   0.8785 B(  1-C ,  2-C ) :   0.9512 B(  1-C ,  6-H ) :   0.9340
B(  1-C ,  7-H ) :   0.9299 B(  2-C ,  3-C ) :   0.9464 B(  2-C ,  8-H ) :   0.9449
B(  2-C ,  9-H ) :   0.9353 B(  3-C ,  4-O ) :   0.8472 B(  3-C , 10-H ) :   0.9343
B(  3-C , 11-H ) :   0.9391 B( 12-C , 13-H ) :   0.9361 B( 12-C , 14-H ) :   0.9026
B( 12-C , 15-O ) :   0.8328 B( 12-C , 16-C ) :   0.8825 B( 16-C , 17-C ) :   0.9119
B( 16-C , 20-O ) :   0.8427 B( 16-C , 21-H ) :   0.9254 B( 17-C , 18-C ) :   0.9136
B( 17-C , 22-O ) :   0.8896 B( 17-C , 23-H ) :   0.9227 B( 18-C , 19-C ) :   0.9407
B( 18-C , 24-H ) :   0.9380 B( 18-C , 25-H ) :   0.9338 B( 19-C , 20-O ) :   0.8419
B( 19-C , 26-H ) :   0.9361 B( 19-C , 27-H ) :   0.9375 B( 22-O , 28-H ) :   0.7969

FINAL SINGLE POINT ENERGY      -652.855583611631

DIPOLE MOMENT
-------------
                                X             Y             Z
Electronic contribution:     -1.45494      -2.91839      -2.21893
Nuclear contribution   :      1.77224       4.04533       2.62979
                        -----------------------------------------
Total Dipole Moment    :      0.31730       1.12695       0.41086
                        -----------------------------------------
Magnitude (a.u.)       :      1.24076
Magnitude (Debye)      :      3.15377

Rotational constants in cm-1:     0.059250     0.012502     0.011971
Rotational constants in MHz :  1776.263041   374.810275   358.887368

                             ****ORCA TERMINATED NORMALLY****
TOTAL RUN TIME: 0 days 1 hours 23 minutes 32 seconds 257 msec
