                         Program Version 4.2.0 -  RELEASE  -
|  1> # Test redundant internal optimization
|  2> #
|  3> ! RKS B3LYP  Opt TightSCF SmallPrint
|  4>
|  5> %basis
|  6>         Basis "6-31G"
|  7> end
|  8>
|  9> %geom
| 10> Constraints
| 11> { D 4  0  15  12  330.0   C } # D for Dihedral angle
| 12> { D 0  15  12  16  240.0   C } # D for Dihedral angle
| 13> { D 0  4  3  2   C } # D for Dihedral angle
| 14> { D 4  3  2  1   C } # D for Dihedral angle
| 15> { D 3  2  1  0   C } # D for Dihedral angle
| 16> { D 2  1  0  4   C } # D for Dihedral angle
| 17> { D 1  0  4  3   C } # D for Dihedral angle
| 18> { D 16  20  19  18   C } # D for Dihedral angle
| 19> { D 20  19  18  17   C } # D for Dihedral angle
| 20> { D 19  18  17  16   C } # D for Dihedral angle
| 21> { D 18  17  16  20   C } # D for Dihedral angle
| 22> { D 17  16  20  19   C } # D for Dihedral angle
| 23> { D 15  12  16  20   C } # D for Dihedral angle
| 24> end
| 25> end
| 26>
| 27>
| 28> #%pal
| 29> #nprocs 8
| 30> #end
| 31>
| 32> * xyz 0 1
| 33> C  -21.048   26.222   46.251
| 34> C  -20.361   27.558   45.944
| 35> C  -20.329   28.222   47.341
| 36> C  -20.110   27.022   48.296
| 37> O  -20.473   25.807   47.535
| 38> H  -20.833   25.428   45.533
| 39> H  -19.344   27.382   45.576
| 40> H  -20.898   28.157   45.201
| 41> H  -19.543   28.978   47.434
| 42> H  -21.289   28.710   47.548
| 43> H  -20.733   27.082   49.195
| 44> H  -19.064   26.913   48.597
| 45> C  -23.271   25.476   47.424
| 46> H  -22.510   24.854   47.912
| 47> H  -23.768   26.078   48.195
| 48> O  -22.586   26.394   46.375
| 49> C  -24.339   24.538   46.795
| 50> C  -25.391   25.336   46.016
| 51> C  -24.645   25.628   44.692
| 52> C  -23.795   24.351   44.478
| 53> O  -23.726   23.667   45.788
| 54> H  -24.748   23.890   47.573
| 55> O  -26.643   24.455   45.757
| 56> H  -25.711   26.247   46.533
| 57> H  -25.324   25.823   43.856
| 58> H  -23.999   26.507   44.810
| 59> H  -22.779   24.575   44.136
| 60> H  -24.259   23.654   43.774
| 61> H  -26.346   23.536   45.239
| 62> *
| 63>
| 64>                          ****END OF INPUT****
 Total Charge           Charge          ....    0
 Multiplicity           Mult            ....    1
 Number of Electrons    NEL             ....  102
FINAL SINGLE POINT ENERGY      -652.838656403220
FINAL SINGLE POINT ENERGY      -652.860937261290
FINAL SINGLE POINT ENERGY      -652.865131267390
FINAL SINGLE POINT ENERGY      -652.866316351928
FINAL SINGLE POINT ENERGY      -652.866428938002
FINAL SINGLE POINT ENERGY      -652.866448119006
                    ***********************HURRAY********************

CARTESIAN COORDINATES (ANGSTROEM)
---------------------------------
  C    -21.041866   26.182688   46.311720
  C    -20.424719   27.546309   46.006088
  C    -20.374023   28.190562   47.408846
  C    -20.074056   26.995411   48.338504
  O    -20.419645   25.777253   47.549250
  H    -20.829622   25.384521   45.595950
  H    -19.417899   27.402402   45.597733
  H    -21.021129   28.117922   45.291709
  H    -19.614229   28.974437   47.484508
  H    -21.347352   28.630668   47.645750
  H    -20.667738   26.999118   49.256122
  H    -19.014688   26.905466   48.593673
  C    -23.202006   25.531255   47.387488
  H    -22.486251   24.900755   47.920827
  H    -23.685186   26.203985   48.108897
  O    -22.487832   26.357011   46.415668
  C    -24.257344   24.649410   46.724582
  C    -25.379001   25.355689   45.948276
  C    -24.709195   25.588798   44.568373
  C    -23.820110   24.332614   44.395337
  O    -23.660233   23.738748   45.744078
  H    -24.695908   24.020757   47.510138
  O    -26.556075   24.502981   45.855168
  H    -25.727903   26.274728   46.419926
  H    -25.463359   25.689771   43.782964
  H    -24.096401   26.490913   44.611212
  H    -22.831506   24.572126   43.993717
  H    -24.282573   23.568368   43.760926
  H    -26.277151   23.605334   45.576569

 Multiplicity           Mult            ....    1
 Number of Electrons    NEL             ....  102
 Basis Dimension        Dim             ....  149

ORBITAL ENERGIES
----------------

  NO   OCC          E(Eh)            E(eV)
   0   2.0000     -19.151511      -521.1391
   1   2.0000     -19.143771      -520.9285
   2   2.0000     -19.136314      -520.7256
   3   2.0000     -19.131553      -520.5960
   4   2.0000     -10.281548      -279.7751
   5   2.0000     -10.232954      -278.4528
   6   2.0000     -10.232895      -278.4512
   7   2.0000     -10.228373      -278.3282
   8   2.0000     -10.224827      -278.2317
   9   2.0000     -10.222506      -278.1685
  10   2.0000     -10.191208      -277.3169
  11   2.0000     -10.189119      -277.2600
  12   2.0000     -10.174273      -276.8561
  13   2.0000      -1.057640       -28.7798
  14   2.0000      -1.029645       -28.0181
  15   2.0000      -1.000957       -27.2374
  16   2.0000      -0.991338       -26.9757
  17   2.0000      -0.794255       -21.6128
  18   2.0000      -0.773347       -21.0438
  19   2.0000      -0.762179       -20.7400
  20   2.0000      -0.734036       -19.9741
  21   2.0000      -0.670608       -18.2482
  22   2.0000      -0.605687       -16.4816
  23   2.0000      -0.598170       -16.2770
  24   2.0000      -0.594337       -16.1727
  25   2.0000      -0.568162       -15.4605
  26   2.0000      -0.524737       -14.2788
  27   2.0000      -0.507923       -13.8213
  28   2.0000      -0.493715       -13.4347
  29   2.0000      -0.489685       -13.3250
  30   2.0000      -0.468118       -12.7381
  31   2.0000      -0.461629       -12.5616
  32   2.0000      -0.446657       -12.1541
  33   2.0000      -0.439291       -11.9537
  34   2.0000      -0.416914       -11.3448
  35   2.0000      -0.409309       -11.1379
  36   2.0000      -0.398961       -10.8563
  37   2.0000      -0.385706       -10.4956
  38   2.0000      -0.374161       -10.1814
  39   2.0000      -0.367088        -9.9890
  40   2.0000      -0.361983        -9.8501
  41   2.0000      -0.358214        -9.7475
  42   2.0000      -0.348620        -9.4864
  43   2.0000      -0.337342        -9.1796
  44   2.0000      -0.323311        -8.7977
  45   2.0000      -0.305116        -8.3026
  46   2.0000      -0.294644        -8.0177
  47   2.0000      -0.269760        -7.3405
  48   2.0000      -0.267673        -7.2838
  49   2.0000      -0.257829        -7.0159
  50   2.0000      -0.236812        -6.4440
  51   0.0000       0.068108         1.8533
  52   0.0000       0.081878         2.2280
  53   0.0000       0.103349         2.8123
  54   0.0000       0.104258         2.8370
  55   0.0000       0.108019         2.9393

MULLIKEN ATOMIC CHARGES
-----------------------
   0 C :    0.299597
   1 C :   -0.260156
   2 C :   -0.301775
   3 C :   -0.012843
   4 O :   -0.510406
   5 H :    0.159616
   6 H :    0.146088
   7 H :    0.157791
   8 H :    0.145868
   9 H :    0.159031
  10 H :    0.147509
  11 H :    0.150240
  12 C :   -0.021834
  13 H :    0.182232
  14 H :    0.129226
  15 O :   -0.541507
  16 C :    0.073997
  17 C :    0.079602
  18 C :   -0.287208
  19 C :   -0.024055
  20 O :   -0.529581
  21 H :    0.152675
  22 O :   -0.604249
  23 H :    0.149307
  24 H :    0.147978
  25 H :    0.170548
  26 H :    0.142761
  27 H :    0.137716
  28 H :    0.361831
Sum of atomic charges:    0.0000000

LOEWDIN ATOMIC CHARGES
----------------------
   0 C :    0.180768
   1 C :   -0.216398
   2 C :   -0.217043
   3 C :   -0.030127
   4 O :   -0.318139
   5 H :    0.103563
   6 H :    0.114619
   7 H :    0.124471
   8 H :    0.116268
   9 H :    0.117528
  10 H :    0.105122
  11 H :    0.107037
  12 C :   -0.045227
  13 H :    0.125162
  14 H :    0.099723
  15 O :   -0.343732
  16 C :    0.010333
  17 C :    0.038479
  18 C :   -0.242255
  19 C :   -0.034765
  20 O :   -0.332907
  21 H :    0.114144
  22 O :   -0.418290
  23 H :    0.115093
  24 H :    0.118450
  25 H :    0.128282
  26 H :    0.102018
  27 H :    0.096606
  28 H :    0.281216

  Mayer bond orders larger than 0.100000
B(  0-C ,  1-C ) :   0.9436 B(  0-C ,  4-O ) :   0.9068 B(  0-C ,  5-H ) :   0.9207
B(  0-C , 15-O ) :   0.8339 B(  1-C ,  2-C ) :   0.9530 B(  1-C ,  6-H ) :   0.9372
B(  1-C ,  7-H ) :   0.9358 B(  2-C ,  3-C ) :   0.9559 B(  2-C ,  8-H ) :   0.9447
B(  2-C ,  9-H ) :   0.9449 B(  3-C ,  4-O ) :   0.8286 B(  3-C , 10-H ) :   0.9352
B(  3-C , 11-H ) :   0.9404 B( 12-C , 13-H ) :   0.9053 B( 12-C , 14-H ) :   0.9247
B( 12-C , 15-O ) :   0.8458 B( 12-C , 16-C ) :   0.8949 B( 16-C , 17-C ) :   0.9110
B( 16-C , 20-O ) :   0.8655 B( 16-C , 21-H ) :   0.9200 B( 17-C , 18-C ) :   0.9239
B( 17-C , 22-O ) :   0.8908 B( 17-C , 23-H ) :   0.9360 B( 18-C , 19-C ) :   0.9452
B( 18-C , 24-H ) :   0.9371 B( 18-C , 25-H ) :   0.9206 B( 19-C , 20-O ) :   0.8429
B( 19-C , 26-H ) :   0.9336 B( 19-C , 27-H ) :   0.9370 B( 22-O , 28-H ) :   0.7965

FINAL SINGLE POINT ENERGY      -652.866448953826

DIPOLE MOMENT
-------------
                                X             Y             Z
Electronic contribution:     -2.61886      -4.74632       0.50802
Nuclear contribution   :      3.45658       5.72323      -0.53473
                        -----------------------------------------
Total Dipole Moment    :      0.83772       0.97691      -0.02671
                        -----------------------------------------
Magnitude (a.u.)       :      1.28719
Magnitude (Debye)      :      3.27177

Rotational constants in cm-1:     0.062839     0.013438     0.013142
Rotational constants in MHz :  1883.862418   402.870314   393.979457

                             ****ORCA TERMINATED NORMALLY****
TOTAL RUN TIME: 0 days 0 hours 49 minutes 29 seconds 213 msec
