                         Program Version 4.2.1 -  RELEASE  -
|  1> # Test redundant internal optimization
|  2> #
|  3> ! RKS B3LYP  Opt TightSCF SmallPrint
|  4>
|  5> %basis
|  6>         Basis "6-31G"
|  7> end
|  8>
|  9> %geom
| 10> Constraints
| 11> { D 4  0  19  14  345.0   C } # D for Dihedral angle
| 12> { D 0  19  14  12  60.0   C } # D for Dihedral angle
| 13> { D 0  4  3  2   C } # D for Dihedral angle
| 14> { D 4  3  2  1   C } # D for Dihedral angle
| 15> { D 3  2  1  0   C } # D for Dihedral angle
| 16> { D 2  1  0  4   C } # D for Dihedral angle
| 17> { D 1  0  4  3   C } # D for Dihedral angle
| 18> { D 14  15  16  17   C } # D for Dihedral angle
| 19> { D 15  16  17  12   C } # D for Dihedral angle
| 20> { D 16  17  12  14   C } # D for Dihedral angle
| 21> { D 17  12  14  15   C } # D for Dihedral angle
| 22> { D 12  14  15  16   C } # D for Dihedral angle
| 23> end
| 24> end
| 25>
| 26>
| 27> #%pal
| 28> #nprocs 8
| 29> #end
| 30>
| 31> * xyz 0 1
| 32> C  -21.048   26.222   46.251
| 33> C  -20.361   27.558   45.944
| 34> C  -20.329   28.222   47.341
| 35> C  -20.110   27.022   48.296
| 36> O  -20.473   25.807   47.535
| 37> H  -20.833   25.428   45.533
| 38> H  -19.344   27.382   45.576
| 39> H  -20.898   28.157   45.201
| 40> H  -19.543   28.978   47.434
| 41> H  -21.289   28.710   47.548
| 42> H  -20.733   27.082   49.195
| 43> H  -19.064   26.913   48.597
| 44> C  -22.425   26.427   48.799
| 45> H  -22.614   25.813   49.694
| 46> C  -23.040   25.792   47.547
| 47> C  -24.528   26.188   47.693
| 48> C  -24.457   27.594   48.338
| 49> O  -23.101   27.724   48.916
| 50> H  -21.355   26.630   48.725
| 51> O  -22.472   26.381   46.366
| 52> H  -22.892   24.708   47.497
| 53> H  -25.062   26.193   46.738
| 54> H  -25.042   25.483   48.359
| 55> H  -25.199   27.731   49.132
| 56> H  -24.572   28.397   47.603
| 57> *
| 58>
| 59>                          ****END OF INPUT****
 Total Charge           Charge          ....    0
 Multiplicity           Mult            ....    1
 Number of Electrons    NEL             ....   86
FINAL SINGLE POINT ENERGY      -538.297409452509
FINAL SINGLE POINT ENERGY      -538.352033658311
FINAL SINGLE POINT ENERGY      -538.384435137718
FINAL SINGLE POINT ENERGY      -538.404322432651
FINAL SINGLE POINT ENERGY      -538.416180641714
FINAL SINGLE POINT ENERGY      -538.422918325477
FINAL SINGLE POINT ENERGY      -538.426435795140
FINAL SINGLE POINT ENERGY      -538.427901433870
FINAL SINGLE POINT ENERGY      -538.428355914870
FINAL SINGLE POINT ENERGY      -538.428514445427
FINAL SINGLE POINT ENERGY      -538.428636695767
FINAL SINGLE POINT ENERGY      -538.428725379187
FINAL SINGLE POINT ENERGY      -538.428759112249
FINAL SINGLE POINT ENERGY      -538.428767233396
FINAL SINGLE POINT ENERGY      -538.428769900009
                    ***********************HURRAY********************

CARTESIAN COORDINATES (ANGSTROEM)
---------------------------------
  C    -20.976203   26.238179   46.359975
  C    -20.480787   27.616776   45.917007
  C    -20.187839   28.297173   47.275500
  C    -19.670496   27.135716   48.151066
  O    -20.113391   25.883939   47.463512
  H    -20.803809   25.451059   45.617556
  H    -19.564694   27.491635   45.328231
  H    -21.224444   28.147569   45.319275
  H    -19.459995   29.110186   47.194696
  H    -21.115476   28.697684   47.696396
  H    -20.059061   27.158665   49.170981
  H    -18.577879   27.083126   48.189564
  C    -22.754749   26.232084   49.098390
  H    -23.231438   25.599367   49.863241
  C    -23.129773   25.696369   47.717078
  C    -24.560236   26.237681   47.554642
  C    -24.511834   27.611133   48.262252
  O    -23.311482   27.588178   49.131031
  H    -21.692584   26.286659   49.297565
  O    -22.412292   26.271954   46.581517
  H    -23.072607   24.600342   47.678008
  H    -24.825767   26.308056   46.498281
  H    -25.268698   25.563640   48.050495
  H    -25.394954   27.797083   48.882898
  H    -24.383513   28.437746   47.558843

 Multiplicity           Mult            ....    1
 Number of Electrons    NEL             ....   86
 Basis Dimension        Dim             ....  127

ORBITAL ENERGIES
----------------

  NO   OCC          E(Eh)            E(eV)
   0   2.0000     -19.148330      -521.0525
   1   2.0000     -19.135294      -520.6978
   2   2.0000     -19.131481      -520.5941
   3   2.0000     -10.276471      -279.6370
   4   2.0000     -10.240546      -278.6594
   5   2.0000     -10.226594      -278.2798
   6   2.0000     -10.220226      -278.1065
   7   2.0000     -10.219489      -278.0864
   8   2.0000     -10.182684      -277.0849
   9   2.0000     -10.181248      -277.0458
  10   2.0000     -10.181115      -277.0422
  11   2.0000      -1.048128       -28.5210
  12   2.0000      -1.014278       -27.5999
  13   2.0000      -0.987750       -26.8781
  14   2.0000      -0.791631       -21.5414
  15   2.0000      -0.776100       -21.1188
  16   2.0000      -0.739254       -20.1161
  17   2.0000      -0.719819       -19.5873
  18   2.0000      -0.619668       -16.8620
  19   2.0000      -0.597704       -16.2643
  20   2.0000      -0.592570       -16.1246
  21   2.0000      -0.563276       -15.3275
  22   2.0000      -0.509824       -13.8730
  23   2.0000      -0.503346       -13.6967
  24   2.0000      -0.490933       -13.3590
  25   2.0000      -0.481749       -13.1091
  26   2.0000      -0.452147       -12.3036
  27   2.0000      -0.441253       -12.0071
  28   2.0000      -0.424423       -11.5491
  29   2.0000      -0.412472       -11.2239
  30   2.0000      -0.404022       -10.9940
  31   2.0000      -0.379367       -10.3231
  32   2.0000      -0.368277       -10.0213
  33   2.0000      -0.364872        -9.9287
  34   2.0000      -0.357034        -9.7154
  35   2.0000      -0.353366        -9.6156
  36   2.0000      -0.338356        -9.2071
  37   2.0000      -0.325340        -8.8530
  38   2.0000      -0.309848        -8.4314
  39   2.0000      -0.297914        -8.1067
  40   2.0000      -0.261521        -7.1164
  41   2.0000      -0.248459        -6.7609
  42   2.0000      -0.236882        -6.4459
  43   0.0000       0.080034         2.1778
  44   0.0000       0.093070         2.5326
  45   0.0000       0.101600         2.7647
  46   0.0000       0.109073         2.9680
  47   0.0000       0.123014         3.3474

MULLIKEN ATOMIC CHARGES
-----------------------
   0 C :    0.320541
   1 C :   -0.262383
   2 C :   -0.312136
   3 C :   -0.029473
   4 O :   -0.519132
   5 H :    0.148866
   6 H :    0.143531
   7 H :    0.157477
   8 H :    0.141817
   9 H :    0.181873
  10 H :    0.149222
  11 H :    0.150570
  12 C :   -0.018616
  13 H :    0.126029
  14 C :    0.091435
  15 C :   -0.292378
  16 C :    0.003741
  17 O :   -0.527968
  18 H :    0.170153
  19 O :   -0.551410
  20 H :    0.135999
  21 H :    0.167149
  22 H :    0.139685
  23 H :    0.134245
  24 H :    0.151164
Sum of atomic charges:   -0.0000000

LOEWDIN ATOMIC CHARGES
----------------------
   0 C :    0.184046
   1 C :   -0.217425
   2 C :   -0.222276
   3 C :   -0.034831
   4 O :   -0.325459
   5 H :    0.097293
   6 H :    0.112835
   7 H :    0.124646
   8 H :    0.115257
   9 H :    0.127701
  10 H :    0.102917
  11 H :    0.105434
  12 C :   -0.050888
  13 H :    0.094383
  14 C :    0.050544
  15 C :   -0.223736
  16 C :   -0.027349
  17 O :   -0.337116
  18 H :    0.121718
  19 O :   -0.342467
  20 H :    0.099630
  21 H :    0.130010
  22 H :    0.110507
  23 H :    0.097923
  24 H :    0.106703

  Mayer bond orders larger than 0.100000
B(  0-C ,  1-C ) :   0.9344 B(  0-C ,  4-O ) :   0.9080 B(  0-C ,  5-H ) :   0.9307
B(  0-C , 19-O ) :   0.8406 B(  1-C ,  2-C ) :   0.9568 B(  1-C ,  6-H ) :   0.9372
B(  1-C ,  7-H ) :   0.9370 B(  2-C ,  3-C ) :   0.9568 B(  2-C ,  8-H ) :   0.9439
B(  2-C ,  9-H ) :   0.9304 B(  3-C ,  4-O ) :   0.8271 B(  3-C , 10-H ) :   0.9189
B(  3-C , 11-H ) :   0.9412 B( 12-C , 13-H ) :   0.9118 B( 12-C , 14-C ) :   0.9156
B( 12-C , 17-O ) :   0.8649 B( 12-C , 18-H ) :   0.9132 B( 14-C , 15-C ) :   0.9565
B( 14-C , 19-O ) :   0.8261 B( 14-C , 20-H ) :   0.9220 B( 15-C , 16-C ) :   0.9469
B( 15-C , 21-H ) :   0.9353 B( 15-C , 22-H ) :   0.9422 B( 16-C , 17-O ) :   0.8506
B( 16-C , 23-H ) :   0.9344 B( 16-C , 24-H ) :   0.9377

FINAL SINGLE POINT ENERGY      -538.428771093565

DIPOLE MOMENT
-------------
                                X             Y             Z
Electronic contribution:      0.40096      -2.33473      -0.13587
Nuclear contribution   :     -0.51906       2.36257      -0.07739
                        -----------------------------------------
Total Dipole Moment    :     -0.11811       0.02784      -0.21326
                        -----------------------------------------
Magnitude (a.u.)       :      0.24537
Magnitude (Debye)      :      0.62367

Rotational constants in cm-1:     0.065407     0.026932     0.025297
Rotational constants in MHz :  1960.839210   807.415544   758.386540

                             ****ORCA TERMINATED NORMALLY****
TOTAL RUN TIME: 0 days 0 hours 19 minutes 21 seconds 87 msec
