                         Program Version 4.2.0 -  RELEASE  -
|  1> # Test redundant internal optimization
|  2> #
|  3> ! RKS B3LYP  Opt TightSCF SmallPrint
|  4>
|  5> %basis
|  6>         Basis "6-31G"
|  7> end
|  8>
|  9> %geom
| 10> Constraints
| 11> { D 4  0  15  12  210.0   C } # D for Dihedral angle
| 12> { D 0  15  12  16  90.0   C } # D for Dihedral angle
| 13> { D 0  4  3  2   C } # D for Dihedral angle
| 14> { D 4  3  2  1   C } # D for Dihedral angle
| 15> { D 3  2  1  0   C } # D for Dihedral angle
| 16> { D 2  1  0  4   C } # D for Dihedral angle
| 17> { D 1  0  4  3   C } # D for Dihedral angle
| 18> { D 16  20  19  18   C } # D for Dihedral angle
| 19> { D 20  19  18  17   C } # D for Dihedral angle
| 20> { D 19  18  17  16   C } # D for Dihedral angle
| 21> { D 18  17  16  20   C } # D for Dihedral angle
| 22> { D 17  16  20  19   C } # D for Dihedral angle
| 23> { D 15  12  16  20   C } # D for Dihedral angle
| 24> end
| 25> end
| 26>
| 27>
| 28> #%pal
| 29> #nprocs 8
| 30> #end
| 31>
| 32> * xyz 0 1
| 33> C  -21.048   26.222   46.251
| 34> C  -20.361   27.558   45.944
| 35> C  -20.329   28.222   47.341
| 36> C  -20.110   27.022   48.296
| 37> O  -20.473   25.807   47.535
| 38> H  -20.833   25.428   45.533
| 39> H  -19.344   27.382   45.576
| 40> H  -20.898   28.157   45.201
| 41> H  -19.543   28.978   47.434
| 42> H  -21.289   28.710   47.548
| 43> H  -20.733   27.082   49.195
| 44> H  -19.064   26.913   48.597
| 45> C  -23.389   26.110   45.076
| 46> H  -24.291   26.735   45.064
| 47> H  -22.789   26.358   44.191
| 48> O  -22.586   26.394   46.375
| 49> C  -23.823   24.624   44.951
| 50> C  -24.808   24.236   46.060
| 51> C  -26.133   24.829   45.525
| 52> C  -26.010   24.636   43.992
| 53> O  -24.576   24.412   43.710
| 54> H  -22.933   23.994   44.896
| 55> H  -24.876   23.145   46.138
| 56> O  -24.413   24.802   47.452
| 57> H  -27.017   24.333   45.938
| 58> H  -26.197   25.894   45.777
| 59> H  -26.354   25.510   43.431
| 60> H  -26.550   23.753   43.638
| 61> H  -24.339   25.894   47.397
| 62> *
| 63>
| 64>                          ****END OF INPUT****
 Total Charge           Charge          ....    0
 Multiplicity           Mult            ....    1
 Number of Electrons    NEL             ....  102
FINAL SINGLE POINT ENERGY      -652.828857952500
FINAL SINGLE POINT ENERGY      -652.853798598264
FINAL SINGLE POINT ENERGY      -652.860048787011
FINAL SINGLE POINT ENERGY      -652.862571057459
FINAL SINGLE POINT ENERGY      -652.864080442068
FINAL SINGLE POINT ENERGY      -652.865044848572
FINAL SINGLE POINT ENERGY      -652.865532906962
FINAL SINGLE POINT ENERGY      -652.865666733353
FINAL SINGLE POINT ENERGY      -652.865685584975
FINAL SINGLE POINT ENERGY      -652.865688923025
                    ***********************HURRAY********************

CARTESIAN COORDINATES (ANGSTROEM)
---------------------------------
  C    -21.108957   26.196843   46.195128
  C    -20.372588   27.504202   45.917637
  C    -20.427486   28.200491   47.296880
  C    -20.310111   27.023993   48.286424
  O    -20.653478   25.806241   47.494922
  H    -20.897821   25.375573   45.505042
  H    -19.338689   27.281383   45.628758
  H    -20.836728   28.092649   45.121413
  H    -19.628259   28.936091   47.426864
  H    -21.388711   28.709327   47.414358
  H    -21.000138   27.092815   49.130201
  H    -19.292551   26.873389   48.656867
  C    -23.317291   26.165445   45.033289
  H    -24.159073   26.861215   45.055239
  H    -22.711712   26.385634   44.145489
  O    -22.555922   26.426784   46.264823
  C    -23.792284   24.708533   44.993335
  C    -24.769440   24.320025   46.116179
  C    -26.112049   24.892884   45.577657
  C    -25.996657   24.684651   44.053968
  O    -24.545483   24.473025   43.762715
  H    -22.926680   24.038845   44.958619
  H    -24.832205   23.225991   46.159172
  O    -24.441904   24.794395   47.435757
  H    -26.973715   24.379971   46.012341
  H    -26.180062   25.951264   45.850212
  H    -26.349244   25.540062   43.469065
  H    -26.514781   23.784839   43.709775
  H    -23.674981   25.413441   47.389871

 Multiplicity           Mult            ....    1
 Number of Electrons    NEL             ....  102
 Basis Dimension        Dim             ....  149

ORBITAL ENERGIES
----------------

  NO   OCC          E(Eh)            E(eV)
   0   2.0000     -19.162934      -521.4499
   1   2.0000     -19.152417      -521.1637
   2   2.0000     -19.140926      -520.8511
   3   2.0000     -19.109230      -519.9886
   4   2.0000     -10.292954      -280.0855
   5   2.0000     -10.240681      -278.6631
   6   2.0000     -10.234417      -278.4926
   7   2.0000     -10.233179      -278.4590
   8   2.0000     -10.228854      -278.3413
   9   2.0000     -10.226579      -278.2794
  10   2.0000     -10.195696      -277.4390
  11   2.0000     -10.193595      -277.3818
  12   2.0000     -10.177869      -276.9539
  13   2.0000      -1.066438       -29.0193
  14   2.0000      -1.025314       -27.9002
  15   2.0000      -1.007652       -27.4196
  16   2.0000      -0.988989       -26.9118
  17   2.0000      -0.795921       -21.6581
  18   2.0000      -0.772347       -21.0166
  19   2.0000      -0.766655       -20.8617
  20   2.0000      -0.738970       -20.1084
  21   2.0000      -0.680642       -18.5212
  22   2.0000      -0.609144       -16.5756
  23   2.0000      -0.604117       -16.4389
  24   2.0000      -0.594902       -16.1881
  25   2.0000      -0.577024       -15.7016
  26   2.0000      -0.529481       -14.4079
  27   2.0000      -0.523272       -14.2389
  28   2.0000      -0.498539       -13.5659
  29   2.0000      -0.488424       -13.2907
  30   2.0000      -0.471406       -12.8276
  31   2.0000      -0.461429       -12.5561
  32   2.0000      -0.450819       -12.2674
  33   2.0000      -0.431878       -11.7520
  34   2.0000      -0.426471       -11.6049
  35   2.0000      -0.414087       -11.2679
  36   2.0000      -0.410089       -11.1591
  37   2.0000      -0.385252       -10.4832
  38   2.0000      -0.382999       -10.4219
  39   2.0000      -0.370855       -10.0915
  40   2.0000      -0.365033        -9.9331
  41   2.0000      -0.363718        -9.8973
  42   2.0000      -0.347002        -9.4424
  43   2.0000      -0.341512        -9.2930
  44   2.0000      -0.325272        -8.8511
  45   2.0000      -0.321925        -8.7600
  46   2.0000      -0.289050        -7.8654
  47   2.0000      -0.277239        -7.5441
  48   2.0000      -0.267483        -7.2786
  49   2.0000      -0.243395        -6.6231
  50   2.0000      -0.239535        -6.5181
  51   0.0000       0.057530         1.5655
  52   0.0000       0.079324         2.1585
  53   0.0000       0.091879         2.5002
  54   0.0000       0.095765         2.6059
  55   0.0000       0.103986         2.8296

MULLIKEN ATOMIC CHARGES
-----------------------
   0 C :    0.291013
   1 C :   -0.259848
   2 C :   -0.300924
   3 C :   -0.007800
   4 O :   -0.502221
   5 H :    0.151817
   6 H :    0.149698
   7 H :    0.148885
   8 H :    0.146634
   9 H :    0.164776
  10 H :    0.160787
  11 H :    0.148159
  12 C :   -0.048212
  13 H :    0.163768
  14 H :    0.151548
  15 O :   -0.536356
  16 C :    0.048293
  17 C :    0.123490
  18 C :   -0.297453
  19 C :   -0.024007
  20 O :   -0.521398
  21 H :    0.156181
  22 H :    0.147943
  23 O :   -0.640177
  24 H :    0.151128
  25 H :    0.145396
  26 H :    0.142537
  27 H :    0.150315
  28 H :    0.396028
Sum of atomic charges:   -0.0000000

LOEWDIN ATOMIC CHARGES
----------------------
   0 C :    0.177428
   1 C :   -0.224196
   2 C :   -0.216482
   3 C :   -0.024994
   4 O :   -0.304143
   5 H :    0.102691
   6 H :    0.116272
   7 H :    0.118199
   8 H :    0.116971
   9 H :    0.120524
  10 H :    0.112657
  11 H :    0.106097
  12 C :   -0.050815
  13 H :    0.116923
  14 H :    0.107813
  15 O :   -0.340167
  16 C :    0.006127
  17 C :    0.042384
  18 C :   -0.235224
  19 C :   -0.033116
  20 O :   -0.326024
  21 H :    0.110956
  22 H :    0.104231
  23 O :   -0.434529
  24 H :    0.121728
  25 H :    0.111586
  26 H :    0.101842
  27 H :    0.106423
  28 H :    0.288837

  Mayer bond orders larger than 0.100000
B(  0-C ,  1-C ) :   0.9365 B(  0-C ,  4-O ) :   0.9463 B(  0-C ,  5-H ) :   0.9178
B(  0-C , 15-O ) :   0.7894 B(  1-C ,  2-C ) :   0.9519 B(  1-C ,  6-H ) :   0.9339
B(  1-C ,  7-H ) :   0.9365 B(  2-C ,  3-C ) :   0.9551 B(  2-C ,  8-H ) :   0.9443
B(  2-C ,  9-H ) :   0.9433 B(  3-C ,  4-O ) :   0.8264 B(  3-C , 10-H ) :   0.9340
B(  3-C , 11-H ) :   0.9395 B( 12-C , 13-H ) :   0.9356 B( 12-C , 14-H ) :   0.9261
B( 12-C , 15-O ) :   0.8063 B( 12-C , 16-C ) :   0.8842 B( 16-C , 17-C ) :   0.9144
B( 16-C , 20-O ) :   0.8553 B( 16-C , 21-H ) :   0.9289 B( 17-C , 18-C ) :   0.9042
B( 17-C , 22-H ) :   0.9280 B( 17-C , 23-O ) :   0.9380 B( 18-C , 19-C ) :   0.9381
B( 18-C , 24-H ) :   0.9448 B( 18-C , 25-H ) :   0.9428 B( 19-C , 20-O ) :   0.8298
B( 19-C , 26-H ) :   0.9343 B( 19-C , 27-H ) :   0.9386 B( 23-O , 28-H ) :   0.7212

FINAL SINGLE POINT ENERGY      -652.865689598547

DIPOLE MOMENT
-------------
                                X             Y             Z
Electronic contribution:     -0.02349      -3.89801       0.40986
Nuclear contribution   :      0.59657       5.12179      -1.01851
                        -----------------------------------------
Total Dipole Moment    :      0.57307       1.22377      -0.60864
                        -----------------------------------------
Magnitude (a.u.)       :      1.48205
Magnitude (Debye)      :      3.76708

Rotational constants in cm-1:     0.062502     0.013237     0.012088
Rotational constants in MHz :  1873.752483   396.838999   362.382793

                             ****ORCA TERMINATED NORMALLY****
TOTAL RUN TIME: 0 days 0 hours 53 minutes 10 seconds 350 msec
