                         Program Version 4.2.1 -  RELEASE  -
|  1> # Test redundant internal optimization
|  2> #
|  3> ! RKS B3LYP  Opt TightSCF SmallPrint
|  4>
|  5> %basis
|  6>         Basis "6-31G"
|  7> end
|  8>
|  9> %geom
| 10> Constraints
| 11> { D 4  0  19  14  90.0   C } # D for Dihedral angle
| 12> { D 0  19  14  12  135.0   C } # D for Dihedral angle
| 13> { D 0  4  3  2   C } # D for Dihedral angle
| 14> { D 4  3  2  1   C } # D for Dihedral angle
| 15> { D 3  2  1  0   C } # D for Dihedral angle
| 16> { D 2  1  0  4   C } # D for Dihedral angle
| 17> { D 1  0  4  3   C } # D for Dihedral angle
| 18> { D 14  15  16  17   C } # D for Dihedral angle
| 19> { D 15  16  17  12   C } # D for Dihedral angle
| 20> { D 16  17  12  14   C } # D for Dihedral angle
| 21> { D 17  12  14  15   C } # D for Dihedral angle
| 22> { D 12  14  15  16   C } # D for Dihedral angle
| 23> end
| 24> end
| 25>
| 26>
| 27> #%pal
| 28> #nprocs 8
| 29> #end
| 30>
| 31> * xyz 0 1
| 32> C  -21.048   26.222   46.251
| 33> C  -20.361   27.558   45.944
| 34> C  -20.329   28.222   47.341
| 35> C  -20.110   27.022   48.296
| 36> O  -20.473   25.807   47.535
| 37> H  -20.833   25.428   45.533
| 38> H  -19.344   27.382   45.576
| 39> H  -20.898   28.157   45.201
| 40> H  -19.543   28.978   47.434
| 41> H  -21.289   28.710   47.548
| 42> H  -20.733   27.082   49.195
| 43> H  -19.064   26.913   48.597
| 44> C  -24.068   28.150   45.869
| 45> H  -24.220   29.239   45.930
| 46> C  -22.892   27.702   46.744
| 47> C  -23.534   27.689   48.151
| 48> C  -24.986   27.226   47.871
| 49> O  -25.224   27.440   46.426
| 50> H  -23.989   27.858   44.821
| 51> O  -22.472   26.381   46.366
| 52> H  -22.027   28.371   46.678
| 53> H  -23.013   27.028   48.850
| 54> H  -23.527   28.700   48.578
| 55> H  -25.727   27.795   48.444
| 56> H  -25.130   26.159   48.067
| 57> *
| 58>
| 59>                          ****END OF INPUT****
 Total Charge           Charge          ....    0
 Multiplicity           Mult            ....    1
 Number of Electrons    NEL             ....   86
FINAL SINGLE POINT ENERGY      -538.376175262302
FINAL SINGLE POINT ENERGY      -538.419819643934
FINAL SINGLE POINT ENERGY      -538.423101750156
FINAL SINGLE POINT ENERGY      -538.423749155248
FINAL SINGLE POINT ENERGY      -538.423812970079
FINAL SINGLE POINT ENERGY      -538.423837898243
FINAL SINGLE POINT ENERGY      -538.423838426163
                    ***********************HURRAY********************

CARTESIAN COORDINATES (ANGSTROEM)
---------------------------------
  C    -21.096398   26.362398   46.384256
  C    -20.171912   27.506378   45.936365
  C    -19.847807   28.215081   47.287517
  C    -19.795917   27.022747   48.279395
  O    -20.492426   25.899190   47.616048
  H    -21.062345   25.500321   45.716463
  H    -19.265127   27.070338   45.506657
  H    -20.627122   28.166183   45.192299
  H    -18.894804   28.752559   47.251795
  H    -20.619715   28.936193   47.565416
  H    -20.286859   27.238176   49.233505
  H    -18.771673   26.692121   48.475126
  C    -24.266107   28.166979   45.873870
  H    -24.572710   29.222756   45.939109
  C    -23.119638   27.879236   46.843870
  C    -23.871621   27.728620   48.182464
  C    -25.203244   27.058816   47.766305
  O    -25.340039   27.277114   46.309649
  H    -24.023575   27.912464   44.840842
  O    -22.512763   26.606583   46.472685
  H    -22.388562   28.690849   46.855596
  H    -23.298395   27.125187   48.890388
  H    -24.047198   28.717997   48.621850
  H    -26.069175   27.492692   48.277966
  H    -25.188866   25.978023   47.926565

 Multiplicity           Mult            ....    1
 Number of Electrons    NEL             ....   86
 Basis Dimension        Dim             ....  127

ORBITAL ENERGIES
----------------

  NO   OCC          E(Eh)            E(eV)
   0   2.0000     -19.141114      -520.8562
   1   2.0000     -19.140339      -520.8351
   2   2.0000     -19.125030      -520.4185
   3   2.0000     -10.280510      -279.7469
   4   2.0000     -10.242554      -278.7141
   5   2.0000     -10.230825      -278.3949
   6   2.0000     -10.220994      -278.1274
   7   2.0000     -10.217099      -278.0214
   8   2.0000     -10.197888      -277.4986
   9   2.0000     -10.196587      -277.4632
  10   2.0000     -10.184386      -277.1312
  11   2.0000      -1.051383       -28.6096
  12   2.0000      -1.013612       -27.5818
  13   2.0000      -0.991135       -26.9701
  14   2.0000      -0.792174       -21.5561
  15   2.0000      -0.785962       -21.3871
  16   2.0000      -0.740755       -20.1570
  17   2.0000      -0.724193       -19.7063
  18   2.0000      -0.622718       -16.9450
  19   2.0000      -0.607894       -16.5416
  20   2.0000      -0.596357       -16.2277
  21   2.0000      -0.565141       -15.3783
  22   2.0000      -0.527148       -14.3444
  23   2.0000      -0.506376       -13.7792
  24   2.0000      -0.484543       -13.1851
  25   2.0000      -0.480611       -13.0781
  26   2.0000      -0.451517       -12.2864
  27   2.0000      -0.450665       -12.2632
  28   2.0000      -0.425045       -11.5661
  29   2.0000      -0.422277       -11.4907
  30   2.0000      -0.410170       -11.1613
  31   2.0000      -0.389275       -10.5927
  32   2.0000      -0.373826       -10.1723
  33   2.0000      -0.368469       -10.0265
  34   2.0000      -0.366470        -9.9722
  35   2.0000      -0.363295        -9.8857
  36   2.0000      -0.347769        -9.4633
  37   2.0000      -0.316563        -8.6141
  38   2.0000      -0.302987        -8.2447
  39   2.0000      -0.289616        -7.8808
  40   2.0000      -0.268649        -7.3103
  41   2.0000      -0.253790        -6.9060
  42   2.0000      -0.230168        -6.2632
  43   0.0000       0.065980         1.7954
  44   0.0000       0.088596         2.4108
  45   0.0000       0.095836         2.6078
  46   0.0000       0.111701         3.0395
  47   0.0000       0.114635         3.1194

MULLIKEN ATOMIC CHARGES
-----------------------
   0 C :    0.308465
   1 C :   -0.291636
   2 C :   -0.316793
   3 C :   -0.007167
   4 O :   -0.501121
   5 H :    0.167941
   6 H :    0.160288
   7 H :    0.147666
   8 H :    0.147090
   9 H :    0.150367
  10 H :    0.142931
  11 H :    0.147709
  12 C :    0.015695
  13 H :    0.118631
  14 C :    0.052906
  15 C :   -0.291846
  16 C :    0.005909
  17 O :   -0.518390
  18 H :    0.158495
  19 O :   -0.516496
  20 H :    0.125107
  21 H :    0.167220
  22 H :    0.135285
  23 H :    0.131705
  24 H :    0.160040
Sum of atomic charges:   -0.0000000

LOEWDIN ATOMIC CHARGES
----------------------
   0 C :    0.176701
   1 C :   -0.231353
   2 C :   -0.224630
   3 C :   -0.033128
   4 O :   -0.321456
   5 H :    0.113593
   6 H :    0.125332
   7 H :    0.116496
   8 H :    0.116285
   9 H :    0.106961
  10 H :    0.101603
  11 H :    0.104694
  12 C :   -0.037319
  13 H :    0.088210
  14 C :    0.033543
  15 C :   -0.231991
  16 C :   -0.025994
  17 O :   -0.328007
  18 H :    0.118444
  19 O :   -0.312337
  20 H :    0.097914
  21 H :    0.128666
  22 H :    0.109134
  23 H :    0.096932
  24 H :    0.111706

  Mayer bond orders larger than 0.100000
B(  0-C ,  1-C ) :   0.9221 B(  0-C ,  4-O ) :   0.8970 B(  0-C ,  5-H ) :   0.9353
B(  0-C , 19-O ) :   0.9094 B(  1-C ,  2-C ) :   0.9531 B(  1-C ,  6-H ) :   0.9345
B(  1-C ,  7-H ) :   0.9347 B(  2-C ,  3-C ) :   0.9457 B(  2-C ,  8-H ) :   0.9450
B(  2-C ,  9-H ) :   0.9365 B(  3-C ,  4-O ) :   0.8519 B(  3-C , 10-H ) :   0.9333
B(  3-C , 11-H ) :   0.9388 B( 12-C , 13-H ) :   0.9132 B( 12-C , 14-C ) :   0.9304
B( 12-C , 17-O ) :   0.8768 B( 12-C , 18-H ) :   0.9323 B( 14-C , 15-C ) :   0.9422
B( 14-C , 19-O ) :   0.8240 B( 14-C , 20-H ) :   0.9062 B( 15-C , 16-C ) :   0.9492
B( 15-C , 21-H ) :   0.9371 B( 15-C , 22-H ) :   0.9381 B( 16-C , 17-O ) :   0.8557
B( 16-C , 23-H ) :   0.9336 B( 16-C , 24-H ) :   0.9348

FINAL SINGLE POINT ENERGY      -538.423836701655

DIPOLE MOMENT
-------------
                                X             Y             Z
Electronic contribution:     -2.38546      -4.32656      -1.84229
Nuclear contribution   :      3.51115       5.77299       2.19776
                        -----------------------------------------
Total Dipole Moment    :      1.12569       1.44643       0.35548
                        -----------------------------------------
Magnitude (a.u.)       :      1.86700
Magnitude (Debye)      :      4.74554

Rotational constants in cm-1:     0.078914     0.021608     0.020579
Rotational constants in MHz :  2365.775291   647.788833   616.955965

                             ****ORCA TERMINATED NORMALLY****
TOTAL RUN TIME: 0 days 0 hours 8 minutes 22 seconds 141 msec
