                         Program Version 4.2.0 -  RELEASE  -
|  1> # Test redundant internal optimization
|  2> #
|  3> ! RKS B3LYP  Opt TightSCF SmallPrint
|  4>
|  5> %basis
|  6>         Basis "6-31G"
|  7> end
|  8>
|  9> %geom
| 10> Constraints
| 11> { D 4  0  15  12  150.0   C } # D for Dihedral angle
| 12> { D 0  15  12  16  30.0   C } # D for Dihedral angle
| 13> { D 0  4  3  2   C } # D for Dihedral angle
| 14> { D 4  3  2  1   C } # D for Dihedral angle
| 15> { D 3  2  1  0   C } # D for Dihedral angle
| 16> { D 2  1  0  4   C } # D for Dihedral angle
| 17> { D 1  0  4  3   C } # D for Dihedral angle
| 18> { D 16  20  19  18   C } # D for Dihedral angle
| 19> { D 20  19  18  17   C } # D for Dihedral angle
| 20> { D 19  18  17  16   C } # D for Dihedral angle
| 21> { D 18  17  16  20   C } # D for Dihedral angle
| 22> { D 17  16  20  19   C } # D for Dihedral angle
| 23> { D 15  12  16  20   C } # D for Dihedral angle
| 24> end
| 25> end
| 26>
| 27>
| 28> #%pal
| 29> #nprocs 8
| 30> #end
| 31>
| 32> * xyz 0 1
| 33> C  -21.048   26.222   46.251
| 34> C  -20.361   27.558   45.944
| 35> C  -20.329   28.222   47.341
| 36> C  -20.110   27.022   48.296
| 37> O  -20.473   25.807   47.535
| 38> H  -20.833   25.428   45.533
| 39> H  -19.344   27.382   45.576
| 40> H  -20.898   28.157   45.201
| 41> H  -19.543   28.978   47.434
| 42> H  -21.289   28.710   47.548
| 43> H  -20.733   27.082   49.195
| 44> H  -19.064   26.913   48.597
| 45> C  -23.210   27.459   45.431
| 46> H  -24.240   27.170   45.191
| 47> H  -23.234   28.440   45.923
| 48> O  -22.586   26.394   46.375
| 49> C  -22.423   27.616   44.101
| 50> C  -22.482   26.333   43.264
| 51> C  -23.887   26.439   42.626
| 52> C  -24.052   27.961   42.389
| 53> O  -23.054   28.631   43.250
| 54> H  -21.413   27.967   44.321
| 55> O  -21.379   26.359   42.171
| 56> H  -22.353   25.423   43.861
| 57> H  -23.978   25.861   41.701
| 58> H  -24.647   26.072   43.326
| 59> H  -25.052   28.321   42.653
| 60> H  -23.833   28.249   41.357
| 61> H  -21.488   27.263   41.559
| 62> *
| 63>
| 64>                          ****END OF INPUT****
 Total Charge           Charge          ....    0
 Multiplicity           Mult            ....    1
 Number of Electrons    NEL             ....  102
FINAL SINGLE POINT ENERGY      -652.779770388595
FINAL SINGLE POINT ENERGY      -652.825097894950
FINAL SINGLE POINT ENERGY      -652.843207798418
FINAL SINGLE POINT ENERGY      -652.845828606033
FINAL SINGLE POINT ENERGY      -652.846260560218
FINAL SINGLE POINT ENERGY      -652.846357216139
FINAL SINGLE POINT ENERGY      -652.846366534608
FINAL SINGLE POINT ENERGY      -652.846370026796
                    ***********************HURRAY********************

CARTESIAN COORDINATES (ANGSTROEM)
---------------------------------
  C    -20.977778   26.221566   46.360236
  C    -20.001458   27.369756   46.094372
  C    -20.123348   28.211960   47.395855
  C    -20.336645   27.124000   48.470943
  O    -20.764258   25.909226   47.743923
  H    -20.785014   25.308666   45.793261
  H    -18.995085   26.941171   46.015933
  H    -20.184122   27.947345   45.191634
  H    -19.232728   28.818713   47.583476
  H    -20.987840   28.881681   47.336794
  H    -21.107741   27.385835   49.200101
  H    -19.413252   26.865753   48.998603
  C    -23.072975   27.457331   45.330300
  H    -24.081829   27.044198   45.242289
  H    -23.161877   28.445843   45.800647
  O    -22.399807   26.547969   46.251999
  C    -22.491248   27.689680   43.926479
  C    -22.460401   26.458784   43.007559
  C    -23.937030   26.378263   42.542179
  C    -24.357749   27.865673   42.437484
  O    -23.368045   28.640629   43.229944
  H    -21.514150   28.168559   43.961925
  O    -21.543635   26.664264   41.897855
  H    -22.118482   25.549855   43.502840
  H    -24.010446   25.847182   41.589965
  H    -24.539748   25.841450   43.281968
  H    -25.358607   28.055557   42.836127
  H    -24.313254   28.244615   41.411731
  H    -21.697446   27.553477   41.513577

 Multiplicity           Mult            ....    1
 Number of Electrons    NEL             ....  102
 Basis Dimension        Dim             ....  149

ORBITAL ENERGIES
----------------

  NO   OCC          E(Eh)            E(eV)
   0   2.0000     -19.152423      -521.1639
   1   2.0000     -19.144441      -520.9467
   2   2.0000     -19.138076      -520.7735
   3   2.0000     -19.133909      -520.6601
   4   2.0000     -10.282913      -279.8123
   5   2.0000     -10.246344      -278.8172
   6   2.0000     -10.240886      -278.6687
   7   2.0000     -10.237801      -278.5847
   8   2.0000     -10.234359      -278.4911
   9   2.0000     -10.225007      -278.2366
  10   2.0000     -10.194237      -277.3993
  11   2.0000     -10.190666      -277.3021
  12   2.0000     -10.190465      -277.2966
  13   2.0000      -1.049786       -28.5661
  14   2.0000      -1.043233       -28.3878
  15   2.0000      -1.012864       -27.5614
  16   2.0000      -0.986225       -26.8366
  17   2.0000      -0.787962       -21.4415
  18   2.0000      -0.786365       -21.3981
  19   2.0000      -0.772449       -21.0194
  20   2.0000      -0.738928       -20.1072
  21   2.0000      -0.680902       -18.5283
  22   2.0000      -0.610419       -16.6103
  23   2.0000      -0.607365       -16.5272
  24   2.0000      -0.601941       -16.3796
  25   2.0000      -0.576827       -15.6963
  26   2.0000      -0.531546       -14.4641
  27   2.0000      -0.509800       -13.8724
  28   2.0000      -0.504068       -13.7164
  29   2.0000      -0.487727       -13.2717
  30   2.0000      -0.478747       -13.0274
  31   2.0000      -0.463902       -12.6234
  32   2.0000      -0.448210       -12.1964
  33   2.0000      -0.442334       -12.0365
  34   2.0000      -0.424538       -11.5523
  35   2.0000      -0.420739       -11.4489
  36   2.0000      -0.406252       -11.0547
  37   2.0000      -0.400252       -10.8914
  38   2.0000      -0.384084       -10.4515
  39   2.0000      -0.374758       -10.1977
  40   2.0000      -0.368096       -10.0164
  41   2.0000      -0.354792        -9.6544
  42   2.0000      -0.353798        -9.6273
  43   2.0000      -0.338516        -9.2115
  44   2.0000      -0.315525        -8.5859
  45   2.0000      -0.312018        -8.4904
  46   2.0000      -0.297678        -8.1002
  47   2.0000      -0.275937        -7.5086
  48   2.0000      -0.261261        -7.1093
  49   2.0000      -0.253916        -6.9094
  50   2.0000      -0.243151        -6.6165
  51   0.0000       0.057174         1.5558
  52   0.0000       0.068656         1.8682
  53   0.0000       0.080249         2.1837
  54   0.0000       0.087939         2.3930
  55   0.0000       0.097723         2.6592

MULLIKEN ATOMIC CHARGES
-----------------------
   0 C :    0.318150
   1 C :   -0.294256
   2 C :   -0.302936
   3 C :   -0.000781
   4 O :   -0.494729
   5 H :    0.150537
   6 H :    0.153010
   7 H :    0.146598
   8 H :    0.144432
   9 H :    0.155991
  10 H :    0.152775
  11 H :    0.144575
  12 C :    0.015294
  13 H :    0.150093
  14 H :    0.145439
  15 O :   -0.541820
  16 C :    0.015636
  17 C :    0.089053
  18 C :   -0.303846
  19 C :   -0.028945
  20 O :   -0.526395
  21 H :    0.167614
  22 O :   -0.603439
  23 H :    0.164968
  24 H :    0.164660
  25 H :    0.157508
  26 H :    0.150295
  27 H :    0.147014
  28 H :    0.363504
Sum of atomic charges:    0.0000000

LOEWDIN ATOMIC CHARGES
----------------------
   0 C :    0.189430
   1 C :   -0.232850
   2 C :   -0.217449
   3 C :   -0.027439
   4 O :   -0.302098
   5 H :    0.101273
   6 H :    0.120310
   7 H :    0.113896
   8 H :    0.115779
   9 H :    0.113930
  10 H :    0.108502
  11 H :    0.103346
  12 C :   -0.036853
  13 H :    0.112555
  14 H :    0.103046
  15 O :   -0.349341
  16 C :   -0.001612
  17 C :    0.036056
  18 C :   -0.241237
  19 C :   -0.037371
  20 O :   -0.327756
  21 H :    0.110461
  22 O :   -0.415046
  23 H :    0.120624
  24 H :    0.128084
  25 H :    0.119705
  26 H :    0.106362
  27 H :    0.103147
  28 H :    0.282547

  Mayer bond orders larger than 0.100000
B(  0-C ,  1-C ) :   0.9283 B(  0-C ,  4-O ) :   0.9298 B(  0-C ,  5-H ) :   0.9237
B(  0-C , 15-O ) :   0.8362 B(  1-C ,  2-C ) :   0.9489 B(  1-C ,  6-H ) :   0.9323
B(  1-C ,  7-H ) :   0.9177 B(  2-C ,  3-C ) :   0.9539 B(  2-C ,  8-H ) :   0.9451
B(  2-C ,  9-H ) :   0.9453 B(  3-C ,  4-O ) :   0.8364 B(  3-C , 10-H ) :   0.9345
B(  3-C , 11-H ) :   0.9391 B( 12-C , 13-H ) :   0.9324 B( 12-C , 14-H ) :   0.9146
B( 12-C , 15-O ) :   0.8435 B( 12-C , 16-C ) :   0.8832 B( 16-C , 17-C ) :   0.9022
B( 16-C , 20-O ) :   0.8275 B( 16-C , 21-H ) :   0.9083 B( 17-C , 18-C ) :   0.9149
B( 17-C , 22-O ) :   0.8899 B( 17-C , 23-H ) :   0.9285 B( 18-C , 19-C ) :   0.9398
B( 18-C , 24-H ) :   0.9370 B( 18-C , 25-H ) :   0.9318 B( 19-C , 20-O ) :   0.8389
B( 19-C , 26-H ) :   0.9353 B( 19-C , 27-H ) :   0.9382 B( 22-O , 28-H ) :   0.7958

FINAL SINGLE POINT ENERGY      -652.846370358738

DIPOLE MOMENT
-------------
                                X             Y             Z
Electronic contribution:     -0.37220      -2.04741      -0.40561
Nuclear contribution   :      0.29114       2.79389      -0.06800
                        -----------------------------------------
Total Dipole Moment    :     -0.08106       0.74648      -0.47361
                        -----------------------------------------
Magnitude (a.u.)       :      0.88775
Magnitude (Debye)      :      2.25649

Rotational constants in cm-1:     0.058414     0.013165     0.012856
Rotational constants in MHz :  1751.213080   394.677461   385.424542

                             ****ORCA TERMINATED NORMALLY****
TOTAL RUN TIME: 0 days 1 hours 8 minutes 30 seconds 103 msec
