                         Program Version 4.2.1 -  RELEASE  -
|  1> # Test redundant internal optimization
|  2> #
|  3> ! RKS B3LYP  Opt TightSCF SmallPrint
|  4>
|  5> %basis
|  6>         Basis "6-31G"
|  7> end
|  8>
|  9> %geom
| 10> Constraints
| 11> { D 4  0  19  14  135.0   C } # D for Dihedral angle
| 12> { D 0  19  14  12  90.0   C } # D for Dihedral angle
| 13> { D 0  4  3  2   C } # D for Dihedral angle
| 14> { D 4  3  2  1   C } # D for Dihedral angle
| 15> { D 3  2  1  0   C } # D for Dihedral angle
| 16> { D 2  1  0  4   C } # D for Dihedral angle
| 17> { D 1  0  4  3   C } # D for Dihedral angle
| 18> { D 14  15  16  17   C } # D for Dihedral angle
| 19> { D 15  16  17  12   C } # D for Dihedral angle
| 20> { D 16  17  12  14   C } # D for Dihedral angle
| 21> { D 17  12  14  15   C } # D for Dihedral angle
| 22> { D 12  14  15  16   C } # D for Dihedral angle
| 23> end
| 24> end
| 25>
| 26>
| 27> #%pal
| 28> #nprocs 8
| 29> #end
| 30>
| 31> * xyz 0 1
| 32> C  -21.048   26.222   46.251
| 33> C  -20.361   27.558   45.944
| 34> C  -20.329   28.222   47.341
| 35> C  -20.110   27.022   48.296
| 36> O  -20.473   25.807   47.535
| 37> H  -20.833   25.428   45.533
| 38> H  -19.344   27.382   45.576
| 39> H  -20.898   28.157   45.201
| 40> H  -19.543   28.978   47.434
| 41> H  -21.289   28.710   47.548
| 42> H  -20.733   27.082   49.195
| 43> H  -19.064   26.913   48.597
| 44> C  -23.353   27.301   44.292
| 45> H  -23.470   28.238   43.726
| 46> C  -22.986   27.575   45.755
| 47> C  -24.359   27.951   46.359
| 48> C  -25.345   27.041   45.585
| 49> O  -24.633   26.588   44.369
| 50> H  -22.656   26.649   43.765
| 51> O  -22.472   26.381   46.366
| 52> H  -22.240   28.370   45.869
| 53> H  -24.406   27.791   47.441
| 54> H  -24.579   29.009   46.167
| 55> H  -26.260   27.566   45.289
| 56> H  -25.619   26.145   46.150
| 57> *
| 58>
| 59>                          ****END OF INPUT****
 Total Charge           Charge          ....    0
 Multiplicity           Mult            ....    1
 Number of Electrons    NEL             ....   86
FINAL SINGLE POINT ENERGY      -538.406129566216
FINAL SINGLE POINT ENERGY      -538.422188627054
FINAL SINGLE POINT ENERGY      -538.424009321732
FINAL SINGLE POINT ENERGY      -538.424434290002
FINAL SINGLE POINT ENERGY      -538.424460956790
FINAL SINGLE POINT ENERGY      -538.424468708454
                    ***********************HURRAY********************

CARTESIAN COORDINATES (ANGSTROEM)
---------------------------------
  C    -21.058691   26.281460   46.284556
  C    -20.150791   27.472014   45.965900
  C    -20.107412   28.220453   47.325888
  C    -20.148050   27.060645   48.347274
  O    -20.649590   25.880936   47.605216
  H    -20.905815   25.409452   45.645541
  H    -19.158344   27.083022   45.714062
  H    -20.484859   28.094175   45.132140
  H    -19.210183   28.837574   47.432055
  H    -20.980451   28.872184   47.438561
  H    -20.813034   27.256794   49.192637
  H    -19.155252   26.797742   48.723816
  C    -23.486132   27.447393   44.231984
  H    -23.733797   28.389514   43.717715
  C    -23.095402   27.716947   45.685277
  C    -24.473839   27.889555   46.352852
  C    -25.369229   26.888253   45.586541
  O    -24.655183   26.574388   44.326872
  H    -22.724215   26.912307   43.660755
  O    -22.491806   26.548159   46.308538
  H    -22.469459   28.608427   45.797230
  H    -24.413387   27.677206   47.422355
  H    -24.822917   28.920072   46.214571
  H    -26.354586   27.301224   45.345334
  H    -25.490576   25.946104   46.126331

 Multiplicity           Mult            ....    1
 Number of Electrons    NEL             ....   86
 Basis Dimension        Dim             ....  127

ORBITAL ENERGIES
----------------

  NO   OCC          E(Eh)            E(eV)
   0   2.0000     -19.139318      -520.8073
   1   2.0000     -19.137018      -520.7447
   2   2.0000     -19.126566      -520.4603
   3   2.0000     -10.280496      -279.7465
   4   2.0000     -10.242901      -278.7235
   5   2.0000     -10.228270      -278.3254
   6   2.0000     -10.223014      -278.1824
   7   2.0000     -10.217263      -278.0259
   8   2.0000     -10.196302      -277.4555
   9   2.0000     -10.195920      -277.4451
  10   2.0000     -10.184667      -277.1389
  11   2.0000      -1.051503       -28.6129
  12   2.0000      -1.013788       -27.5866
  13   2.0000      -0.987559       -26.8729
  14   2.0000      -0.792853       -21.5746
  15   2.0000      -0.784234       -21.3401
  16   2.0000      -0.738426       -20.0936
  17   2.0000      -0.727087       -19.7850
  18   2.0000      -0.621115       -16.9014
  19   2.0000      -0.606017       -16.4906
  20   2.0000      -0.594983       -16.1903
  21   2.0000      -0.564342       -15.3565
  22   2.0000      -0.528433       -14.3794
  23   2.0000      -0.504159       -13.7189
  24   2.0000      -0.489735       -13.3264
  25   2.0000      -0.481514       -13.1027
  26   2.0000      -0.452509       -12.3134
  27   2.0000      -0.449067       -12.2197
  28   2.0000      -0.429249       -11.6805
  29   2.0000      -0.421597       -11.4722
  30   2.0000      -0.406486       -11.0611
  31   2.0000      -0.386758       -10.5242
  32   2.0000      -0.371668       -10.1136
  33   2.0000      -0.366545        -9.9742
  34   2.0000      -0.365026        -9.9329
  35   2.0000      -0.361789        -9.8448
  36   2.0000      -0.352890        -9.6026
  37   2.0000      -0.314607        -8.5609
  38   2.0000      -0.303954        -8.2710
  39   2.0000      -0.292599        -7.9620
  40   2.0000      -0.263849        -7.1797
  41   2.0000      -0.250627        -6.8199
  42   2.0000      -0.232213        -6.3188
  43   0.0000       0.069358         1.8873
  44   0.0000       0.094711         2.5772
  45   0.0000       0.098399         2.6776
  46   0.0000       0.103279         2.8104
  47   0.0000       0.109528         2.9804

MULLIKEN ATOMIC CHARGES
-----------------------
   0 C :    0.320849
   1 C :   -0.304611
   2 C :   -0.304153
   3 C :   -0.001127
   4 O :   -0.495172
   5 H :    0.157712
   6 H :    0.157049
   7 H :    0.143768
   8 H :    0.146360
   9 H :    0.150933
  10 H :    0.149871
  11 H :    0.144707
  12 C :    0.005230
  13 H :    0.120377
  14 C :    0.055456
  15 C :   -0.287518
  16 C :    0.005752
  17 O :   -0.517681
  18 H :    0.152650
  19 O :   -0.519549
  20 H :    0.123242
  21 H :    0.168110
  22 H :    0.135440
  23 H :    0.133001
  24 H :    0.159306
Sum of atomic charges:    0.0000000

LOEWDIN ATOMIC CHARGES
----------------------
   0 C :    0.184239
   1 C :   -0.234222
   2 C :   -0.219265
   3 C :   -0.028129
   4 O :   -0.307946
   5 H :    0.105385
   6 H :    0.122925
   7 H :    0.113110
   8 H :    0.116373
   9 H :    0.109339
  10 H :    0.106615
  11 H :    0.103950
  12 C :   -0.047575
  13 H :    0.089345
  14 C :    0.034878
  15 C :   -0.223679
  16 C :   -0.025664
  17 O :   -0.328566
  18 H :    0.113172
  19 O :   -0.326237
  20 H :    0.093753
  21 H :    0.130285
  22 H :    0.108963
  23 H :    0.097220
  24 H :    0.111729

  Mayer bond orders larger than 0.100000
B(  0-C ,  1-C ) :   0.9299 B(  0-C ,  4-O ) :   0.9226 B(  0-C ,  5-H ) :   0.9277
B(  0-C , 19-O ) :   0.8557 B(  1-C ,  2-C ) :   0.9495 B(  1-C ,  6-H ) :   0.9337
B(  1-C ,  7-H ) :   0.9289 B(  2-C ,  3-C ) :   0.9506 B(  2-C ,  8-H ) :   0.9454
B(  2-C ,  9-H ) :   0.9413 B(  3-C ,  4-O ) :   0.8439 B(  3-C , 10-H ) :   0.9342
B(  3-C , 11-H ) :   0.9393 B( 12-C , 13-H ) :   0.9094 B( 12-C , 14-C ) :   0.9103
B( 12-C , 17-O ) :   0.8792 B( 12-C , 18-H ) :   0.9342 B( 14-C , 15-C ) :   0.9518
B( 14-C , 19-O ) :   0.8387 B( 14-C , 20-H ) :   0.9065 B( 15-C , 16-C ) :   0.9481
B( 15-C , 21-H ) :   0.9357 B( 15-C , 22-H ) :   0.9428 B( 16-C , 17-O ) :   0.8508
B( 16-C , 23-H ) :   0.9335 B( 16-C , 24-H ) :   0.9355

FINAL SINGLE POINT ENERGY      -538.424469117038

DIPOLE MOMENT
-------------
                                X             Y             Z
Electronic contribution:     -1.18265      -4.91507      -0.78412
Nuclear contribution   :      1.93785       6.57698       0.94513
                        -----------------------------------------
Total Dipole Moment    :      0.75521       1.66191       0.16102
                        -----------------------------------------
Magnitude (a.u.)       :      1.83254
Magnitude (Debye)      :      4.65795

Rotational constants in cm-1:     0.083718     0.020502     0.019993
Rotational constants in MHz :  2509.813232   614.648173   599.384880

                             ****ORCA TERMINATED NORMALLY****
TOTAL RUN TIME: 0 days 0 hours 7 minutes 7 seconds 8 msec
