                         Program Version 4.2.0 -  RELEASE  -
|  1> # Test redundant internal optimization
|  2> #
|  3> ! RKS B3LYP  Opt TightSCF SmallPrint
|  4>
|  5> %basis
|  6>         Basis "6-31G"
|  7> end
|  8>
|  9> %geom
| 10> Constraints
| 11> { D 4  0  15  12  30.0   C } # D for Dihedral angle
| 12> { D 0  15  12  16  285.0   C } # D for Dihedral angle
| 13> { D 0  4  3  2   C } # D for Dihedral angle
| 14> { D 4  3  2  1   C } # D for Dihedral angle
| 15> { D 3  2  1  0   C } # D for Dihedral angle
| 16> { D 2  1  0  4   C } # D for Dihedral angle
| 17> { D 1  0  4  3   C } # D for Dihedral angle
| 18> { D 16  20  19  18   C } # D for Dihedral angle
| 19> { D 20  19  18  17   C } # D for Dihedral angle
| 20> { D 19  18  17  16   C } # D for Dihedral angle
| 21> { D 18  17  16  20   C } # D for Dihedral angle
| 22> { D 17  16  20  19   C } # D for Dihedral angle
| 23> { D 15  12  16  20   C } # D for Dihedral angle
| 24> end
| 25> end
| 26>
| 27>
| 28> #%pal
| 29> #nprocs 8
| 30> #end
| 31>
| 32> * xyz 0 1
| 33> C  -21.048   26.222   46.251
| 34> C  -20.361   27.558   45.944
| 35> C  -20.329   28.222   47.341
| 36> C  -20.110   27.022   48.296
| 37> O  -20.473   25.807   47.535
| 38> H  -20.833   25.428   45.533
| 39> H  -19.344   27.382   45.576
| 40> H  -20.898   28.157   45.201
| 41> H  -19.543   28.978   47.434
| 42> H  -21.289   28.710   47.548
| 43> H  -20.733   27.082   49.195
| 44> H  -19.064   26.913   48.597
| 45> C  -23.091   26.824   47.779
| 46> H  -22.462   27.640   48.157
| 47> H  -24.125   27.188   47.721
| 48> O  -22.586   26.394   46.375
| 49> C  -23.057   25.663   48.812
| 50> C  -23.669   26.090   50.150
| 51> C  -25.183   25.985   49.851
| 52> C  -25.269   24.767   48.897
| 53> O  -23.906   24.554   48.364
| 54> H  -22.038   25.277   48.883
| 55> O  -23.260   25.091   51.267
| 56> H  -23.366   27.096   50.460
| 57> H  -25.786   25.850   50.755
| 58> H  -25.532   26.894   49.348
| 59> H  -25.958   24.936   48.062
| 60> H  -25.559   23.849   49.416
| 61> H  -23.553   24.075   50.978
| 62> *
| 63>
| 64>                          ****END OF INPUT****
 Total Charge           Charge          ....    0
 Multiplicity           Mult            ....    1
 Number of Electrons    NEL             ....  102
FINAL SINGLE POINT ENERGY      -652.820000195512
FINAL SINGLE POINT ENERGY      -652.844128701689
FINAL SINGLE POINT ENERGY      -652.852498206536
FINAL SINGLE POINT ENERGY      -652.855035708693
FINAL SINGLE POINT ENERGY      -652.855462653827
FINAL SINGLE POINT ENERGY      -652.855513454631
FINAL SINGLE POINT ENERGY      -652.855505858908
                    ***********************HURRAY********************

CARTESIAN COORDINATES (ANGSTROEM)
---------------------------------
  C    -21.123401   26.299143   46.384857
  C    -20.399575   27.575566   45.938233
  C    -20.089077   28.260982   47.297747
  C    -19.806212   27.059051   48.230880
  O    -20.386212   25.868467   47.553226
  H    -21.050810   25.486168   45.660705
  H    -19.473970   27.298209   45.421452
  H    -21.013475   28.184575   45.271348
  H    -19.232113   28.939355   47.238879
  H    -20.949547   28.844857   47.639145
  H    -20.261299   27.158601   49.221119
  H    -18.737145   26.861608   48.349308
  C    -23.142437   26.828777   47.835998
  H    -22.641876   27.701610   48.279400
  H    -24.161746   27.123367   47.570548
  O    -22.555220   26.455500   46.561529
  C    -23.160495   25.686363   48.862079
  C    -23.845184   26.070700   50.181453
  C    -25.344955   25.882305   49.827536
  C    -25.323604   24.666703   48.866281
  O    -23.929992   24.535273   48.381886
  H    -22.142130   25.327693   49.017901
  O    -23.431515   25.183658   51.257474
  H    -23.609293   27.077675   50.530681
  H    -25.935780   25.706041   50.729571
  H    -25.732616   26.778560   49.330292
  H    -25.989879   24.794176   48.007521
  H    -25.581513   23.730031   49.370622
  H    -23.373930   24.268986   50.908329

 Multiplicity           Mult            ....    1
 Number of Electrons    NEL             ....  102
 Basis Dimension        Dim             ....  149

ORBITAL ENERGIES
----------------

  NO   OCC          E(Eh)            E(eV)
   0   2.0000     -19.150606      -521.1145
   1   2.0000     -19.138814      -520.7936
   2   2.0000     -19.135674      -520.7082
   3   2.0000     -19.134551      -520.6776
   4   2.0000     -10.278630      -279.6957
   5   2.0000     -10.239874      -278.6411
   6   2.0000     -10.234765      -278.5021
   7   2.0000     -10.233186      -278.4591
   8   2.0000     -10.225541      -278.2511
   9   2.0000     -10.224379      -278.2195
  10   2.0000     -10.195650      -277.4377
  11   2.0000     -10.188366      -277.2395
  12   2.0000     -10.186729      -277.1950
  13   2.0000      -1.054267       -28.6881
  14   2.0000      -1.031538       -28.0696
  15   2.0000      -1.002697       -27.2848
  16   2.0000      -0.993159       -27.0252
  17   2.0000      -0.791917       -21.5492
  18   2.0000      -0.781620       -21.2690
  19   2.0000      -0.766009       -20.8442
  20   2.0000      -0.734639       -19.9905
  21   2.0000      -0.675305       -18.3760
  22   2.0000      -0.606388       -16.5007
  23   2.0000      -0.603708       -16.4277
  24   2.0000      -0.599116       -16.3028
  25   2.0000      -0.570859       -15.5339
  26   2.0000      -0.518381       -14.1059
  27   2.0000      -0.516191       -14.0463
  28   2.0000      -0.501979       -13.6595
  29   2.0000      -0.488020       -13.2797
  30   2.0000      -0.470391       -12.8000
  31   2.0000      -0.461955       -12.5704
  32   2.0000      -0.447063       -12.1652
  33   2.0000      -0.441845       -12.0232
  34   2.0000      -0.420257       -11.4358
  35   2.0000      -0.414234       -11.2719
  36   2.0000      -0.400821       -10.9069
  37   2.0000      -0.389533       -10.5997
  38   2.0000      -0.378674       -10.3042
  39   2.0000      -0.371371       -10.1055
  40   2.0000      -0.363112        -9.8808
  41   2.0000      -0.360981        -9.8228
  42   2.0000      -0.348710        -9.4889
  43   2.0000      -0.334829        -9.1112
  44   2.0000      -0.321503        -8.7485
  45   2.0000      -0.313876        -8.5410
  46   2.0000      -0.298506        -8.1228
  47   2.0000      -0.267817        -7.2877
  48   2.0000      -0.262382        -7.1398
  49   2.0000      -0.257906        -7.0180
  50   2.0000      -0.232202        -6.3185
  51   0.0000       0.063325         1.7232
  52   0.0000       0.077265         2.1025
  53   0.0000       0.088173         2.3993
  54   0.0000       0.094363         2.5677
  55   0.0000       0.098287         2.6745

MULLIKEN ATOMIC CHARGES
-----------------------
   0 C :    0.298837
   1 C :   -0.261147
   2 C :   -0.318081
   3 C :   -0.019905
   4 O :   -0.508422
   5 H :    0.169885
   6 H :    0.149546
   7 H :    0.157516
   8 H :    0.149288
   9 H :    0.152853
  10 H :    0.145114
  11 H :    0.154925
  12 C :   -0.006728
  13 H :    0.112331
  14 H :    0.151870
  15 O :   -0.518413
  16 C :    0.049894
  17 C :    0.079659
  18 C :   -0.296072
  19 C :   -0.026416
  20 O :   -0.511325
  21 H :    0.197576
  22 O :   -0.606204
  23 H :    0.142153
  24 H :    0.163299
  25 H :    0.138547
  26 H :    0.149224
  27 H :    0.142700
  28 H :    0.367495
Sum of atomic charges:   -0.0000000

LOEWDIN ATOMIC CHARGES
----------------------
   0 C :    0.180277
   1 C :   -0.224363
   2 C :   -0.223240
   3 C :   -0.035948
   4 O :   -0.317949
   5 H :    0.114336
   6 H :    0.117142
   7 H :    0.123703
   8 H :    0.117860
   9 H :    0.109898
  10 H :    0.101770
  11 H :    0.108945
  12 C :   -0.038489
  13 H :    0.087501
  14 H :    0.113489
  15 O :   -0.319351
  16 C :   -0.000581
  17 C :    0.034024
  18 C :   -0.241517
  19 C :   -0.038658
  20 O :   -0.321001
  21 H :    0.130839
  22 O :   -0.416854
  23 H :    0.109906
  24 H :    0.126681
  25 H :    0.110116
  26 H :    0.105272
  27 H :    0.101407
  28 H :    0.284788

  Mayer bond orders larger than 0.100000
B(  0-C ,  1-C ) :   0.9184 B(  0-C ,  4-O ) :   0.8936 B(  0-C ,  5-H ) :   0.9338
B(  0-C , 15-O ) :   0.8759 B(  1-C ,  2-C ) :   0.9535 B(  1-C ,  6-H ) :   0.9349
B(  1-C ,  7-H ) :   0.9373 B(  2-C ,  3-C ) :   0.9495 B(  2-C ,  8-H ) :   0.9443
B(  2-C ,  9-H ) :   0.9411 B(  3-C ,  4-O ) :   0.8351 B(  3-C , 10-H ) :   0.9309
B(  3-C , 11-H ) :   0.9391 B( 12-C , 13-H ) :   0.9036 B( 12-C , 14-H ) :   0.9413
B( 12-C , 15-O ) :   0.8598 B( 12-C , 16-C ) :   0.8762 B( 16-C , 17-C ) :   0.8970
B( 16-C , 20-O ) :   0.8550 B( 16-C , 21-H ) :   0.9045 B( 17-C , 18-C ) :   0.9095
B( 17-C , 22-O ) :   0.8898 B( 17-C , 23-H ) :   0.9347 B( 18-C , 19-C ) :   0.9407
B( 18-C , 24-H ) :   0.9373 B( 18-C , 25-H ) :   0.9346 B( 19-C , 20-O ) :   0.8535
B( 19-C , 26-H ) :   0.9336 B( 19-C , 27-H ) :   0.9383 B( 22-O , 28-H ) :   0.7929

FINAL SINGLE POINT ENERGY      -652.855504275926

DIPOLE MOMENT
-------------
                                X             Y             Z
Electronic contribution:     -0.18145      -5.04536      -0.39483
Nuclear contribution   :      0.22546       6.27307       0.30736
                        -----------------------------------------
Total Dipole Moment    :      0.04401       1.22771      -0.08748
                        -----------------------------------------
Magnitude (a.u.)       :      1.23161
Magnitude (Debye)      :      3.13051

Rotational constants in cm-1:     0.053813     0.014928     0.013561
Rotational constants in MHz :  1613.279779   447.528526   406.536170

                             ****ORCA TERMINATED NORMALLY****
TOTAL RUN TIME: 0 days 0 hours 33 minutes 20 seconds 403 msec
