                         Program Version 4.2.1 -  RELEASE  -
|  1> # Test redundant internal optimization
|  2> #
|  3> ! RKS B3LYP  Opt TightSCF SmallPrint
|  4>
|  5> %basis
|  6>         Basis "6-31G"
|  7> end
|  8>
|  9> %geom
| 10> Constraints
| 11> { D 4  0  19  14  90.0   C } # D for Dihedral angle
| 12> { D 0  19  14  12  120.0   C } # D for Dihedral angle
| 13> { D 0  4  3  2   C } # D for Dihedral angle
| 14> { D 4  3  2  1   C } # D for Dihedral angle
| 15> { D 3  2  1  0   C } # D for Dihedral angle
| 16> { D 2  1  0  4   C } # D for Dihedral angle
| 17> { D 1  0  4  3   C } # D for Dihedral angle
| 18> { D 14  15  16  17   C } # D for Dihedral angle
| 19> { D 15  16  17  12   C } # D for Dihedral angle
| 20> { D 16  17  12  14   C } # D for Dihedral angle
| 21> { D 17  12  14  15   C } # D for Dihedral angle
| 22> { D 12  14  15  16   C } # D for Dihedral angle
| 23> end
| 24> end
| 25>
| 26>
| 27> #%pal
| 28> #nprocs 8
| 29> #end
| 30>
| 31> * xyz 0 1
| 32> C  -21.048   26.222   46.251
| 33> C  -20.361   27.558   45.944
| 34> C  -20.329   28.222   47.341
| 35> C  -20.110   27.022   48.296
| 36> O  -20.473   25.807   47.535
| 37> H  -20.833   25.428   45.533
| 38> H  -19.344   27.382   45.576
| 39> H  -20.898   28.157   45.201
| 40> H  -19.543   28.978   47.434
| 41> H  -21.289   28.710   47.548
| 42> H  -20.733   27.082   49.195
| 43> H  -19.064   26.913   48.597
| 44> C  -23.794   28.298   45.658
| 45> H  -23.892   29.389   45.772
| 46> C  -22.892   27.702   46.744
| 47> C  -23.853   27.644   47.954
| 48> C  -25.220   27.315   47.303
| 49> O  -25.090   27.643   45.866
| 50> H  -23.483   28.072   44.637
| 51> O  -22.472   26.381   46.366
| 52> H  -21.999   28.305   46.940
| 53> H  -23.556   26.899   48.699
| 54> H  -23.890   28.620   48.454
| 55> H  -26.042   27.899   47.731
| 56> H  -25.469   26.251   47.369
| 57> *
| 58>
| 59>                          ****END OF INPUT****
 Total Charge           Charge          ....    0
 Multiplicity           Mult            ....    1
 Number of Electrons    NEL             ....   86
FINAL SINGLE POINT ENERGY      -538.362539128387
FINAL SINGLE POINT ENERGY      -538.418156493509
FINAL SINGLE POINT ENERGY      -538.422117666800
FINAL SINGLE POINT ENERGY      -538.422967731601
FINAL SINGLE POINT ENERGY      -538.423090207097
FINAL SINGLE POINT ENERGY      -538.423148250863
FINAL SINGLE POINT ENERGY      -538.423155175370
FINAL SINGLE POINT ENERGY      -538.423155332714
                    ***********************HURRAY********************

CARTESIAN COORDINATES (ANGSTROEM)
---------------------------------
  C    -21.112955   26.364329   46.408576
  C    -20.168911   27.486398   45.945704
  C    -19.832468   28.207444   47.287752
  C    -19.801033   27.027487   48.295088
  O    -20.517020   25.907301   47.646127
  H    -21.087594   25.493818   45.751170
  H    -19.269555   27.029789   45.521839
  H    -20.614035   28.144274   45.193793
  H    -18.869437   28.726381   47.244611
  H    -20.588705   28.949123   47.554128
  H    -20.287210   27.263072   49.246812
  H    -18.782331   26.682020   48.493808
  C    -24.010727   28.384088   45.688292
  H    -24.281247   29.443388   45.823571
  C    -23.135725   27.900175   46.844894
  C    -24.185547   27.642376   47.945305
  C    -25.409312   27.124255   47.154035
  O    -25.192399   27.525922   45.745633
  H    -23.549060   28.243064   44.709411
  O    -22.526750   26.622350   46.489110
  H    -22.393119   28.642544   47.141353
  H    -23.813018   26.920282   48.675462
  H    -24.417825   28.580944   48.462852
  H    -26.352196   27.554458   47.508058
  H    -25.478823   26.033718   47.166616

 Multiplicity           Mult            ....    1
 Number of Electrons    NEL             ....   86
 Basis Dimension        Dim             ....  127

ORBITAL ENERGIES
----------------

  NO   OCC          E(Eh)            E(eV)
   0   2.0000     -19.140569      -520.8414
   1   2.0000     -19.140054      -520.8274
   2   2.0000     -19.125509      -520.4316
   3   2.0000     -10.280114      -279.7361
   4   2.0000     -10.242487      -278.7123
   5   2.0000     -10.230579      -278.3882
   6   2.0000     -10.221811      -278.1496
   7   2.0000     -10.216784      -278.0128
   8   2.0000     -10.197971      -277.5009
   9   2.0000     -10.196440      -277.4592
  10   2.0000     -10.183589      -277.1095
  11   2.0000      -1.050756       -28.5925
  12   2.0000      -1.013537       -27.5797
  13   2.0000      -0.990608       -26.9558
  14   2.0000      -0.792061       -21.5531
  15   2.0000      -0.785940       -21.3865
  16   2.0000      -0.739916       -20.1341
  17   2.0000      -0.724535       -19.7156
  18   2.0000      -0.622457       -16.9379
  19   2.0000      -0.608069       -16.5464
  20   2.0000      -0.596030       -16.2188
  21   2.0000      -0.565526       -15.3887
  22   2.0000      -0.526410       -14.3243
  23   2.0000      -0.505710       -13.7611
  24   2.0000      -0.484465       -13.1830
  25   2.0000      -0.481330       -13.0976
  26   2.0000      -0.452642       -12.3170
  27   2.0000      -0.448460       -12.2032
  28   2.0000      -0.425860       -11.5882
  29   2.0000      -0.422092       -11.4857
  30   2.0000      -0.411547       -11.1988
  31   2.0000      -0.389137       -10.5889
  32   2.0000      -0.371931       -10.1208
  33   2.0000      -0.369291       -10.0489
  34   2.0000      -0.365681        -9.9507
  35   2.0000      -0.362814        -9.8727
  36   2.0000      -0.346743        -9.4353
  37   2.0000      -0.315601        -8.5879
  38   2.0000      -0.303300        -8.2532
  39   2.0000      -0.290214        -7.8971
  40   2.0000      -0.267605        -7.2819
  41   2.0000      -0.253500        -6.8981
  42   2.0000      -0.230804        -6.2805
  43   0.0000       0.065691         1.7875
  44   0.0000       0.089400         2.4327
  45   0.0000       0.094895         2.5822
  46   0.0000       0.111628         3.0375
  47   0.0000       0.112449         3.0599

MULLIKEN ATOMIC CHARGES
-----------------------
   0 C :    0.307678
   1 C :   -0.290962
   2 C :   -0.317137
   3 C :   -0.006937
   4 O :   -0.500369
   5 H :    0.168066
   6 H :    0.160693
   7 H :    0.146927
   8 H :    0.146624
   9 H :    0.151488
  10 H :    0.143403
  11 H :    0.147865
  12 C :    0.013862
  13 H :    0.118846
  14 C :    0.051633
  15 C :   -0.282396
  16 C :    0.005235
  17 O :   -0.518637
  18 H :    0.155531
  19 O :   -0.517254
  20 H :    0.122976
  21 H :    0.167711
  22 H :    0.135059
  23 H :    0.130081
  24 H :    0.160013
Sum of atomic charges:   -0.0000000

LOEWDIN ATOMIC CHARGES
----------------------
   0 C :    0.176749
   1 C :   -0.230821
   2 C :   -0.224210
   3 C :   -0.033199
   4 O :   -0.321019
   5 H :    0.113409
   6 H :    0.125390
   7 H :    0.116299
   8 H :    0.116184
   9 H :    0.106478
  10 H :    0.102307
  11 H :    0.104878
  12 C :   -0.040347
  13 H :    0.088442
  14 C :    0.034243
  15 C :   -0.227186
  16 C :   -0.026244
  17 O :   -0.328805
  18 H :    0.115795
  19 O :   -0.313402
  20 H :    0.097730
  21 H :    0.130079
  22 H :    0.109068
  23 H :    0.096500
  24 H :    0.111682

  Mayer bond orders larger than 0.100000
B(  0-C ,  1-C ) :   0.9203 B(  0-C ,  4-O ) :   0.8983 B(  0-C ,  5-H ) :   0.9352
B(  0-C , 19-O ) :   0.9113 B(  1-C ,  2-C ) :   0.9536 B(  1-C ,  6-H ) :   0.9349
B(  1-C ,  7-H ) :   0.9356 B(  2-C ,  3-C ) :   0.9460 B(  2-C ,  8-H ) :   0.9443
B(  2-C ,  9-H ) :   0.9339 B(  3-C ,  4-O ) :   0.8519 B(  3-C , 10-H ) :   0.9341
B(  3-C , 11-H ) :   0.9387 B( 12-C , 13-H ) :   0.9117 B( 12-C , 14-C ) :   0.9271
B( 12-C , 17-O ) :   0.8767 B( 12-C , 18-H ) :   0.9335 B( 14-C , 15-C ) :   0.9492
B( 14-C , 19-O ) :   0.8199 B( 14-C , 20-H ) :   0.9039 B( 15-C , 16-C ) :   0.9479
B( 15-C , 21-H ) :   0.9373 B( 15-C , 22-H ) :   0.9397 B( 16-C , 17-O ) :   0.8545
B( 16-C , 23-H ) :   0.9341 B( 16-C , 24-H ) :   0.9352

FINAL SINGLE POINT ENERGY      -538.423153813979

DIPOLE MOMENT
-------------
                                X             Y             Z
Electronic contribution:     -2.06267      -4.06549      -1.82176
Nuclear contribution   :      3.08097       5.39742       2.32719
                        -----------------------------------------
Total Dipole Moment    :      1.01830       1.33193       0.50544
                        -----------------------------------------
Magnitude (a.u.)       :      1.75112
Magnitude (Debye)      :      4.45100

Rotational constants in cm-1:     0.080650     0.021132     0.020119
Rotational constants in MHz :  2417.828564   633.514696   603.155842

                             ****ORCA TERMINATED NORMALLY****
TOTAL RUN TIME: 0 days 0 hours 9 minutes 35 seconds 44 msec
