                         Program Version 4.2.0 -  RELEASE  -
|  1> # Test redundant internal optimization
|  2> #
|  3> ! RKS B3LYP  Opt TightSCF SmallPrint
|  4>
|  5> %basis
|  6>         Basis "6-31G"
|  7> end
|  8>
|  9> %geom
| 10> Constraints
| 11> { D 4  0  15  12  120.0   C } # D for Dihedral angle
| 12> { D 0  15  12  16  120.0   C } # D for Dihedral angle
| 13> { D 0  4  3  2   C } # D for Dihedral angle
| 14> { D 4  3  2  1   C } # D for Dihedral angle
| 15> { D 3  2  1  0   C } # D for Dihedral angle
| 16> { D 2  1  0  4   C } # D for Dihedral angle
| 17> { D 1  0  4  3   C } # D for Dihedral angle
| 18> { D 16  20  19  18   C } # D for Dihedral angle
| 19> { D 20  19  18  17   C } # D for Dihedral angle
| 20> { D 19  18  17  16   C } # D for Dihedral angle
| 21> { D 18  17  16  20   C } # D for Dihedral angle
| 22> { D 17  16  20  19   C } # D for Dihedral angle
| 23> { D 15  12  16  20   C } # D for Dihedral angle
| 24> end
| 25> end
| 26>
| 27>
| 28> #%pal
| 29> #nprocs 8
| 30> #end
| 31>
| 32> * xyz 0 1
| 33> C  -21.048   26.222   46.251
| 34> C  -20.361   27.558   45.944
| 35> C  -20.329   28.222   47.341
| 36> C  -20.110   27.022   48.296
| 37> O  -20.473   25.807   47.535
| 38> H  -20.833   25.428   45.533
| 39> H  -19.344   27.382   45.576
| 40> H  -20.898   28.157   45.201
| 41> H  -19.543   28.978   47.434
| 42> H  -21.289   28.710   47.548
| 43> H  -20.733   27.082   49.195
| 44> H  -19.064   26.913   48.597
| 45> C  -23.119   27.818   46.058
| 46> H  -23.624   28.221   46.944
| 47> H  -22.290   28.490   45.800
| 48> O  -22.586   26.394   46.375
| 49> C  -24.125   27.833   44.874
| 50> C  -24.541   29.264   44.514
| 51> C  -23.324   29.745   43.688
| 52> C  -22.882   28.465   42.936
| 53> O  -23.489   27.324   43.654
| 54> H  -24.958   27.164   45.103
| 55> O  -25.824   29.242   43.640
| 56> H  -24.732   29.890   45.393
| 57> H  -23.572   30.565   43.006
| 58> H  -22.529   30.094   44.357
| 59> H  -21.793   28.342   42.923
| 60> H  -23.254   28.435   41.908
| 61> H  -25.655   28.621   42.753
| 62> *
| 63>
| 64>                          ****END OF INPUT****
 Total Charge           Charge          ....    0
 Multiplicity           Mult            ....    1
 Number of Electrons    NEL             ....  102
FINAL SINGLE POINT ENERGY      -652.815047619162
FINAL SINGLE POINT ENERGY      -652.839534950683
FINAL SINGLE POINT ENERGY      -652.849433049170
FINAL SINGLE POINT ENERGY      -652.851537721133
FINAL SINGLE POINT ENERGY      -652.851923769665
FINAL SINGLE POINT ENERGY      -652.851972530227
FINAL SINGLE POINT ENERGY      -652.851981723698
                    ***********************HURRAY********************

CARTESIAN COORDINATES (ANGSTROEM)
---------------------------------
  C    -21.147593   26.333205   46.283952
  C    -20.164523   27.477133   46.015465
  C    -20.044114   28.137650   47.416699
  C    -20.146462   26.921568   48.369004
  O    -20.741676   25.825940   47.571775
  H    -21.058345   25.493332   45.594175
  H    -19.207248   27.034396   45.720902
  H    -20.471188   28.162532   45.222022
  H    -19.102977   28.682237   47.540185
  H    -20.863887   28.843091   47.590592
  H    -20.778811   27.112781   49.240645
  H    -19.166494   26.572566   48.707393
  C    -23.113479   27.968396   46.047277
  H    -23.693997   28.269534   46.929943
  H    -22.335084   28.719572   45.877436
  O    -22.561325   26.655281   46.298401
  C    -24.039206   27.876457   44.834200
  C    -24.682632   29.203390   44.404884
  C    -23.550540   29.841365   43.558191
  C    -22.895700   28.617825   42.868511
  O    -23.315235   27.423324   43.640805
  H    -24.795678   27.113081   45.036825
  O    -25.879489   28.970133   43.614590
  H    -25.003736   29.831791   45.237362
  H    -23.959796   30.564373   42.847997
  H    -22.838791   30.362996   44.208456
  H    -21.801953   28.672299   42.857642
  H    -23.245899   28.478499   41.841166
  H    -25.716142   28.223254   43.000504

 Multiplicity           Mult            ....    1
 Number of Electrons    NEL             ....  102
 Basis Dimension        Dim             ....  149

ORBITAL ENERGIES
----------------

  NO   OCC          E(Eh)            E(eV)
   0   2.0000     -19.146143      -520.9930
   1   2.0000     -19.141312      -520.8616
   2   2.0000     -19.136146      -520.7210
   3   2.0000     -19.135876      -520.7137
   4   2.0000     -10.277574      -279.6670
   5   2.0000     -10.246728      -278.8276
   6   2.0000     -10.236853      -278.5589
   7   2.0000     -10.236096      -278.5383
   8   2.0000     -10.234420      -278.4927
   9   2.0000     -10.226486      -278.2768
  10   2.0000     -10.195213      -277.4258
  11   2.0000     -10.195054      -277.4215
  12   2.0000     -10.194655      -277.4107
  13   2.0000      -1.049498       -28.5583
  14   2.0000      -1.038729       -28.2653
  15   2.0000      -1.009750       -27.4767
  16   2.0000      -0.990929       -26.9645
  17   2.0000      -0.790817       -21.5192
  18   2.0000      -0.788585       -21.4585
  19   2.0000      -0.772984       -21.0340
  20   2.0000      -0.734091       -19.9756
  21   2.0000      -0.682721       -18.5778
  22   2.0000      -0.608929       -16.5698
  23   2.0000      -0.605056       -16.4644
  24   2.0000      -0.600420       -16.3383
  25   2.0000      -0.576134       -15.6774
  26   2.0000      -0.530656       -14.4399
  27   2.0000      -0.507881       -13.8202
  28   2.0000      -0.506583       -13.7848
  29   2.0000      -0.492182       -13.3930
  30   2.0000      -0.480929       -13.0867
  31   2.0000      -0.462099       -12.5744
  32   2.0000      -0.455082       -12.3834
  33   2.0000      -0.440140       -11.9768
  34   2.0000      -0.431927       -11.7533
  35   2.0000      -0.411690       -11.2027
  36   2.0000      -0.404413       -11.0046
  37   2.0000      -0.398251       -10.8370
  38   2.0000      -0.383624       -10.4389
  39   2.0000      -0.376759       -10.2521
  40   2.0000      -0.365278        -9.9397
  41   2.0000      -0.360709        -9.8154
  42   2.0000      -0.356155        -9.6915
  43   2.0000      -0.334920        -9.1136
  44   2.0000      -0.313580        -8.5329
  45   2.0000      -0.310634        -8.4528
  46   2.0000      -0.290602        -7.9077
  47   2.0000      -0.274486        -7.4691
  48   2.0000      -0.266629        -7.2553
  49   2.0000      -0.256759        -6.9868
  50   2.0000      -0.239146        -6.5075
  51   0.0000       0.050976         1.3871
  52   0.0000       0.075968         2.0672
  53   0.0000       0.081843         2.2271
  54   0.0000       0.098340         2.6760
  55   0.0000       0.101604         2.7648

MULLIKEN ATOMIC CHARGES
-----------------------
   0 C :    0.323840
   1 C :   -0.308061
   2 C :   -0.308845
   3 C :   -0.001784
   4 O :   -0.494890
   5 H :    0.166948
   6 H :    0.158265
   7 H :    0.148485
   8 H :    0.145015
   9 H :    0.147282
  10 H :    0.147970
  11 H :    0.144091
  12 C :   -0.004550
  13 H :    0.141783
  14 H :    0.122435
  15 O :   -0.520258
  16 C :    0.070737
  17 C :    0.075863
  18 C :   -0.297560
  19 C :   -0.035535
  20 O :   -0.514679
  21 H :    0.174561
  22 O :   -0.600110
  23 H :    0.152305
  24 H :    0.165880
  25 H :    0.139555
  26 H :    0.144424
  27 H :    0.150340
  28 H :    0.366492
Sum of atomic charges:   -0.0000000

LOEWDIN ATOMIC CHARGES
----------------------
   0 C :    0.186108
   1 C :   -0.232975
   2 C :   -0.222270
   3 C :   -0.029559
   4 O :   -0.313424
   5 H :    0.112120
   6 H :    0.124317
   7 H :    0.113947
   8 H :    0.115645
   9 H :    0.107806
  10 H :    0.105213
  11 H :    0.103376
  12 C :   -0.039526
  13 H :    0.105075
  14 H :    0.092747
  15 O :   -0.320554
  16 C :    0.011709
  17 C :    0.034307
  18 C :   -0.242118
  19 C :   -0.041235
  20 O :   -0.324732
  21 H :    0.123047
  22 O :   -0.412661
  23 H :    0.115524
  24 H :    0.128161
  25 H :    0.110043
  26 H :    0.100901
  27 H :    0.104678
  28 H :    0.284329

  Mayer bond orders larger than 0.100000
B(  0-C ,  1-C ) :   0.9323 B(  0-C ,  4-O ) :   0.9118 B(  0-C ,  5-H ) :   0.9299
B(  0-C , 15-O ) :   0.8674 B(  1-C ,  2-C ) :   0.9487 B(  1-C ,  6-H ) :   0.9341
B(  1-C ,  7-H ) :   0.9264 B(  2-C ,  3-C ) :   0.9489 B(  2-C ,  8-H ) :   0.9458
B(  2-C ,  9-H ) :   0.9423 B(  3-C ,  4-O ) :   0.8491 B(  3-C , 10-H ) :   0.9342
B(  3-C , 11-H ) :   0.9393 B( 12-C , 13-H ) :   0.9204 B( 12-C , 14-H ) :   0.9071
B( 12-C , 15-O ) :   0.8583 B( 12-C , 16-C ) :   0.8892 B( 16-C , 17-C ) :   0.8959
B( 16-C , 20-O ) :   0.8608 B( 16-C , 21-H ) :   0.9232 B( 17-C , 18-C ) :   0.9074
B( 17-C , 22-O ) :   0.8947 B( 17-C , 23-H ) :   0.9330 B( 18-C , 19-C ) :   0.9430
B( 18-C , 24-H ) :   0.9370 B( 18-C , 25-H ) :   0.9347 B( 19-C , 20-O ) :   0.8532
B( 19-C , 26-H ) :   0.9315 B( 19-C , 27-H ) :   0.9369 B( 22-O , 28-H ) :   0.7936

FINAL SINGLE POINT ENERGY      -652.851982882405

DIPOLE MOMENT
-------------
                                X             Y             Z
Electronic contribution:     -4.56037      -5.59059      -0.58917
Nuclear contribution   :      5.66142       7.14142       0.35159
                        -----------------------------------------
Total Dipole Moment    :      1.10105       1.55083      -0.23758
                        -----------------------------------------
Magnitude (a.u.)       :      1.91672
Magnitude (Debye)      :      4.87192

Rotational constants in cm-1:     0.062631     0.012790     0.012407
Rotational constants in MHz :  1877.643620   383.434164   371.951963

                             ****ORCA TERMINATED NORMALLY****
TOTAL RUN TIME: 0 days 0 hours 57 minutes 40 seconds 85 msec
