                         Program Version 4.2.0 -  RELEASE  -
|  1> # Test redundant internal optimization
|  2> #
|  3> ! RKS B3LYP  Opt TightSCF SmallPrint
|  4>
|  5> %basis
|  6>         Basis "6-31G"
|  7> end
|  8>
|  9> %geom
| 10> Constraints
| 11> { D 4  0  15  12  150.0   C } # D for Dihedral angle
| 12> { D 0  15  12  16  90.0   C } # D for Dihedral angle
| 13> { D 0  4  3  2   C } # D for Dihedral angle
| 14> { D 4  3  2  1   C } # D for Dihedral angle
| 15> { D 3  2  1  0   C } # D for Dihedral angle
| 16> { D 2  1  0  4   C } # D for Dihedral angle
| 17> { D 1  0  4  3   C } # D for Dihedral angle
| 18> { D 16  20  19  18   C } # D for Dihedral angle
| 19> { D 20  19  18  17   C } # D for Dihedral angle
| 20> { D 19  18  17  16   C } # D for Dihedral angle
| 21> { D 18  17  16  20   C } # D for Dihedral angle
| 22> { D 17  16  20  19   C } # D for Dihedral angle
| 23> { D 15  12  16  20   C } # D for Dihedral angle
| 24> end
| 25> end
| 26>
| 27>
| 28> #%pal
| 29> #nprocs 8
| 30> #end
| 31>
| 32> * xyz 0 1
| 33> C  -21.048   26.222   46.251
| 34> C  -20.361   27.558   45.944
| 35> C  -20.329   28.222   47.341
| 36> C  -20.110   27.022   48.296
| 37> O  -20.473   25.807   47.535
| 38> H  -20.833   25.428   45.533
| 39> H  -19.344   27.382   45.576
| 40> H  -20.898   28.157   45.201
| 41> H  -19.543   28.978   47.434
| 42> H  -21.289   28.710   47.548
| 43> H  -20.733   27.082   49.195
| 44> H  -19.064   26.913   48.597
| 45> C  -23.210   27.459   45.431
| 46> H  -24.093   27.897   45.914
| 47> H  -22.491   28.265   45.234
| 48> O  -22.586   26.394   46.375
| 49> C  -23.644   26.867   44.062
| 50> C  -24.147   27.963   43.116
| 51> C  -22.818   28.571   42.606
| 52> C  -21.877   27.343   42.528
| 53> O  -22.490   26.289   43.364
| 54> H  -24.355   26.055   44.232
| 55> H  -24.711   27.518   42.289
| 56> O  -25.055   29.008   43.821
| 57> H  -22.925   29.077   41.641
| 58> H  -22.438   29.303   43.328
| 59> H  -20.872   27.560   42.905
| 60> H  -21.797   26.943   41.513
| 61> H  -24.512   29.468   44.653
| 62> *
| 63>
| 64>                          ****END OF INPUT****
 Total Charge           Charge          ....    0
 Multiplicity           Mult            ....    1
 Number of Electrons    NEL             ....  102
FINAL SINGLE POINT ENERGY      -652.818915497806
FINAL SINGLE POINT ENERGY      -652.843560838242
FINAL SINGLE POINT ENERGY      -652.849604276229
FINAL SINGLE POINT ENERGY      -652.851701292859
FINAL SINGLE POINT ENERGY      -652.851933619477
FINAL SINGLE POINT ENERGY      -652.852001503211
FINAL SINGLE POINT ENERGY      -652.852008529341
FINAL SINGLE POINT ENERGY      -652.852009568364
                    ***********************HURRAY********************

CARTESIAN COORDINATES (ANGSTROEM)
---------------------------------
  C    -21.027158   26.273207   46.233902
  C    -20.163203   27.516707   46.020265
  C    -20.203748   28.185316   47.420222
  C    -20.230310   26.967893   48.370324
  O    -20.650773   25.815311   47.541286
  H    -20.843901   25.458168   45.534046
  H    -19.146263   27.181242   45.786643
  H    -20.484627   28.172892   45.208806
  H    -19.341912   28.835697   47.598073
  H    -21.113267   28.785766   47.531040
  H    -20.936106   27.084109   49.196950
  H    -19.241652   26.724427   48.770874
  C    -23.111919   27.523601   45.467520
  H    -23.999774   27.833290   46.028956
  H    -22.470852   28.404088   45.326230
  O    -22.471595   26.516191   46.285069
  C    -23.548224   26.927051   44.128112
  C    -24.211764   27.914858   43.152686
  C    -22.972448   28.593589   42.496167
  C    -21.946310   27.440654   42.425036
  O    -22.407358   26.397206   43.377788
  H    -24.185614   26.064659   44.340418
  H    -24.784599   27.360874   42.406126
  O    -25.170474   28.822960   43.745520
  H    -23.203201   29.017912   41.515844
  H    -22.615589   29.409002   43.139926
  H    -20.933374   27.753662   42.698073
  H    -21.914111   26.976502   41.435149
  H    -24.715873   29.504167   44.281950

 Multiplicity           Mult            ....    1
 Number of Electrons    NEL             ....  102
 Basis Dimension        Dim             ....  149

ORBITAL ENERGIES
----------------

  NO   OCC          E(Eh)            E(eV)
   0   2.0000     -19.153620      -521.1965
   1   2.0000     -19.145796      -520.9836
   2   2.0000     -19.134099      -520.6653
   3   2.0000     -19.133268      -520.6427
   4   2.0000     -10.272475      -279.5283
   5   2.0000     -10.249326      -278.8984
   6   2.0000     -10.237685      -278.5816
   7   2.0000     -10.232744      -278.4471
   8   2.0000     -10.231048      -278.4010
   9   2.0000     -10.223052      -278.1834
  10   2.0000     -10.201338      -277.5925
  11   2.0000     -10.190305      -277.2923
  12   2.0000     -10.190085      -277.2863
  13   2.0000      -1.047740       -28.5105
  14   2.0000      -1.037352       -28.2278
  15   2.0000      -1.020986       -27.7824
  16   2.0000      -0.986608       -26.8470
  17   2.0000      -0.788081       -21.4448
  18   2.0000      -0.786828       -21.4107
  19   2.0000      -0.770133       -20.9564
  20   2.0000      -0.731922       -19.9166
  21   2.0000      -0.686094       -18.6696
  22   2.0000      -0.617136       -16.7931
  23   2.0000      -0.602964       -16.4075
  24   2.0000      -0.595391       -16.2014
  25   2.0000      -0.568547       -15.4709
  26   2.0000      -0.533068       -14.5055
  27   2.0000      -0.512308       -13.9406
  28   2.0000      -0.503626       -13.7044
  29   2.0000      -0.491588       -13.3768
  30   2.0000      -0.470856       -12.8127
  31   2.0000      -0.460206       -12.5228
  32   2.0000      -0.448958       -12.2168
  33   2.0000      -0.439254       -11.9527
  34   2.0000      -0.429650       -11.6914
  35   2.0000      -0.421959       -11.4821
  36   2.0000      -0.405784       -11.0419
  37   2.0000      -0.401009       -10.9120
  38   2.0000      -0.384656       -10.4670
  39   2.0000      -0.377470       -10.2715
  40   2.0000      -0.361809        -9.8453
  41   2.0000      -0.355051        -9.6614
  42   2.0000      -0.353002        -9.6057
  43   2.0000      -0.336124        -9.1464
  44   2.0000      -0.320607        -8.7241
  45   2.0000      -0.309122        -8.4116
  46   2.0000      -0.290677        -7.9097
  47   2.0000      -0.274839        -7.4788
  48   2.0000      -0.269477        -7.3328
  49   2.0000      -0.252400        -6.8682
  50   2.0000      -0.235339        -6.4039
  51   0.0000       0.043125         1.1735
  52   0.0000       0.057351         1.5606
  53   0.0000       0.085337         2.3221
  54   0.0000       0.094407         2.5689
  55   0.0000       0.099015         2.6943

MULLIKEN ATOMIC CHARGES
-----------------------
   0 C :    0.321749
   1 C :   -0.299818
   2 C :   -0.302480
   3 C :    0.002689
   4 O :   -0.496589
   5 H :    0.169980
   6 H :    0.154226
   7 H :    0.136743
   8 H :    0.142206
   9 H :    0.149014
  10 H :    0.151310
  11 H :    0.141377
  12 C :   -0.029856
  13 H :    0.156445
  14 H :    0.106334
  15 O :   -0.513541
  16 C :    0.090215
  17 C :    0.089599
  18 C :   -0.324791
  19 C :   -0.012620
  20 O :   -0.515661
  21 H :    0.171794
  22 H :    0.169936
  23 O :   -0.598397
  24 H :    0.159745
  25 H :    0.131260
  26 H :    0.140091
  27 H :    0.153972
  28 H :    0.355068
Sum of atomic charges:    0.0000000

LOEWDIN ATOMIC CHARGES
----------------------
   0 C :    0.187324
   1 C :   -0.232855
   2 C :   -0.219534
   3 C :   -0.026420
   4 O :   -0.304567
   5 H :    0.112038
   6 H :    0.121084
   7 H :    0.108576
   8 H :    0.114014
   9 H :    0.110214
  10 H :    0.107656
  11 H :    0.102246
  12 C :   -0.051573
  13 H :    0.115641
  14 H :    0.082333
  15 O :   -0.325149
  16 C :    0.009097
  17 C :    0.035884
  18 C :   -0.242125
  19 C :   -0.031388
  20 O :   -0.321972
  21 H :    0.123027
  22 H :    0.120794
  23 O :   -0.405585
  24 H :    0.124059
  25 H :    0.102480
  26 H :    0.099106
  27 H :    0.108060
  28 H :    0.277536

  Mayer bond orders larger than 0.100000
B(  0-C ,  1-C ) :   0.9319 B(  0-C ,  4-O ) :   0.9210 B(  0-C ,  5-H ) :   0.9203
B(  0-C , 15-O ) :   0.8326 B(  1-C ,  2-C ) :   0.9478 B(  1-C ,  6-H ) :   0.9345
B(  1-C ,  7-H ) :   0.9257 B(  2-C ,  3-C ) :   0.9537 B(  2-C ,  8-H ) :   0.9455
B(  2-C ,  9-H ) :   0.9458 B(  3-C ,  4-O ) :   0.8429 B(  3-C , 10-H ) :   0.9343
B(  3-C , 11-H ) :   0.9398 B( 12-C , 13-H ) :   0.9209 B( 12-C , 14-H ) :   0.9106
B( 12-C , 15-O ) :   0.8800 B( 12-C , 16-C ) :   0.8891 B( 16-C , 17-C ) :   0.8678
B( 16-C , 20-O ) :   0.8568 B( 16-C , 21-H ) :   0.9285 B( 17-C , 18-C ) :   0.9209
B( 17-C , 22-H ) :   0.9319 B( 17-C , 23-O ) :   0.9007 B( 18-C , 19-C ) :   0.9391
B( 18-C , 24-H ) :   0.9416 B( 18-C , 25-H ) :   0.9411 B( 19-C , 20-O ) :   0.8467
B( 19-C , 26-H ) :   0.9286 B( 19-C , 27-H ) :   0.9373 B( 23-O , 28-H ) :   0.7989

FINAL SINGLE POINT ENERGY      -652.852009405787

DIPOLE MOMENT
-------------
                                X             Y             Z
Electronic contribution:     -3.77354      -5.33257       0.56454
Nuclear contribution   :      4.63076       7.16669      -1.20407
                        -----------------------------------------
Total Dipole Moment    :      0.85722       1.83413      -0.63953
                        -----------------------------------------
Magnitude (a.u.)       :      2.12317
Magnitude (Debye)      :      5.39666

Rotational constants in cm-1:     0.053872     0.014024     0.013381
Rotational constants in MHz :  1615.046129   420.428004   401.165826

                             ****ORCA TERMINATED NORMALLY****
TOTAL RUN TIME: 0 days 0 hours 25 minutes 34 seconds 116 msec
