                         Program Version 4.2.0 -  RELEASE  -
|  1> # Test redundant internal optimization
|  2> #
|  3> ! RKS B3LYP  Opt TightSCF SmallPrint
|  4>
|  5> %basis
|  6>         Basis "6-31G"
|  7> end
|  8>
|  9> %geom
| 10> Constraints
| 11> { D 4  0  15  12  90.0   C } # D for Dihedral angle
| 12> { D 0  15  12  16  165.0   C } # D for Dihedral angle
| 13> { D 0  4  3  2   C } # D for Dihedral angle
| 14> { D 4  3  2  1   C } # D for Dihedral angle
| 15> { D 3  2  1  0   C } # D for Dihedral angle
| 16> { D 2  1  0  4   C } # D for Dihedral angle
| 17> { D 1  0  4  3   C } # D for Dihedral angle
| 18> { D 16  20  19  18   C } # D for Dihedral angle
| 19> { D 20  19  18  17   C } # D for Dihedral angle
| 20> { D 19  18  17  16   C } # D for Dihedral angle
| 21> { D 18  17  16  20   C } # D for Dihedral angle
| 22> { D 17  16  20  19   C } # D for Dihedral angle
| 23> { D 15  12  16  20   C } # D for Dihedral angle
| 24> end
| 25> end
| 26>
| 27>
| 28> #%pal
| 29> #nprocs 8
| 30> #end
| 31>
| 32> * xyz 0 1
| 33> C  -21.048   26.222   46.251
| 34> C  -20.361   27.558   45.944
| 35> C  -20.329   28.222   47.341
| 36> C  -20.110   27.022   48.296
| 37> O  -20.473   25.807   47.535
| 38> H  -20.833   25.428   45.533
| 39> H  -19.344   27.382   45.576
| 40> H  -20.898   28.157   45.201
| 41> H  -19.543   28.978   47.434
| 42> H  -21.289   28.710   47.548
| 43> H  -20.733   27.082   49.195
| 44> H  -19.064   26.913   48.597
| 45> C  -23.061   27.816   46.783
| 46> H  -22.860   27.972   47.850
| 47> H  -22.515   28.580   46.216
| 48> O  -22.586   26.394   46.375
| 49> C  -24.579   28.036   46.535
| 50> C  -24.952   27.747   45.076
| 51> C  -25.019   26.200   45.071
| 52> C  -25.577   25.868   46.477
| 53> O  -25.370   27.074   47.308
| 54> H  -24.857   29.032   46.883
| 55> H  -25.933   28.176   44.847
| 56> O  -23.921   28.307   44.059
| 57> H  -25.649   25.805   44.268
| 58> H  -24.014   25.780   44.945
| 59> H  -25.065   25.019   46.942
| 60> H  -26.653   25.668   46.463
| 61> H  -22.931   27.890   44.270
| 62> *
| 63>
| 64>                          ****END OF INPUT****
 Total Charge           Charge          ....    0
 Multiplicity           Mult            ....    1
 Number of Electrons    NEL             ....  102
FINAL SINGLE POINT ENERGY      -652.812797458939
FINAL SINGLE POINT ENERGY      -652.839965683906
FINAL SINGLE POINT ENERGY      -652.852741883905
FINAL SINGLE POINT ENERGY      -652.855438341702
FINAL SINGLE POINT ENERGY      -652.855969549325
FINAL SINGLE POINT ENERGY      -652.856050725296
FINAL SINGLE POINT ENERGY      -652.856057951117
                    ***********************HURRAY********************

CARTESIAN COORDINATES (ANGSTROEM)
---------------------------------
  C    -21.171105   26.360181   46.434326
  C    -20.286329   27.533131   45.990908
  C    -20.009495   28.261072   47.338567
  C    -19.925557   27.083260   48.342498
  O    -20.571517   25.928078   47.674180
  H    -21.114928   25.493846   45.773436
  H    -19.359164   27.127161   45.574602
  H    -20.749480   28.176012   45.236103
  H    -19.081317   28.840011   47.310732
  H    -20.820956   28.947156   47.593100
  H    -20.442793   27.283376   49.285138
  H    -18.893896   26.789691   48.556302
  C    -23.160668   27.882626   46.882638
  H    -23.044877   28.053226   47.959584
  H    -22.669097   28.694915   46.333037
  O    -22.598421   26.585630   46.523942
  C    -24.648227   27.925906   46.540763
  C    -24.998444   27.723246   45.056495
  C    -25.058221   26.167830   44.949489
  C    -25.635243   25.758336   46.322186
  O    -25.442157   26.920352   47.227431
  H    -25.012901   28.897526   46.897113
  H    -25.969852   28.173065   44.840895
  O    -24.075859   28.355230   44.132968
  H    -25.682208   25.837302   44.113833
  H    -24.045654   25.778871   44.823733
  H    -25.122510   24.894702   46.751843
  H    -26.711343   25.563189   46.284000
  H    -23.264780   27.810075   44.069156

 Multiplicity           Mult            ....    1
 Number of Electrons    NEL             ....  102
 Basis Dimension        Dim             ....  149

ORBITAL ENERGIES
----------------

  NO   OCC          E(Eh)            E(eV)
   0   2.0000     -19.152331      -521.1614
   1   2.0000     -19.144146      -520.9387
   2   2.0000     -19.142903      -520.9049
   3   2.0000     -19.131330      -520.5900
   4   2.0000     -10.286455      -279.9087
   5   2.0000     -10.237161      -278.5673
   6   2.0000     -10.233414      -278.4654
   7   2.0000     -10.232260      -278.4340
   8   2.0000     -10.230529      -278.3869
   9   2.0000     -10.218732      -278.0658
  10   2.0000     -10.201070      -277.5852
  11   2.0000     -10.198545      -277.5165
  12   2.0000     -10.179383      -276.9951
  13   2.0000      -1.057004       -28.7625
  14   2.0000      -1.027944       -27.9718
  15   2.0000      -1.010475       -27.4964
  16   2.0000      -0.999558       -27.1993
  17   2.0000      -0.795331       -21.6421
  18   2.0000      -0.777150       -21.1473
  19   2.0000      -0.766724       -20.8636
  20   2.0000      -0.736455       -20.0400
  21   2.0000      -0.682804       -18.5800
  22   2.0000      -0.610644       -16.6165
  23   2.0000      -0.603715       -16.4279
  24   2.0000      -0.601750       -16.3745
  25   2.0000      -0.562899       -15.3173
  26   2.0000      -0.525811       -14.3080
  27   2.0000      -0.514973       -14.0131
  28   2.0000      -0.507451       -13.8084
  29   2.0000      -0.490038       -13.3346
  30   2.0000      -0.473192       -12.8762
  31   2.0000      -0.457561       -12.4509
  32   2.0000      -0.442169       -12.0320
  33   2.0000      -0.434371       -11.8198
  34   2.0000      -0.425460       -11.5774
  35   2.0000      -0.418139       -11.3781
  36   2.0000      -0.407167       -11.0796
  37   2.0000      -0.399838       -10.8801
  38   2.0000      -0.388591       -10.5741
  39   2.0000      -0.371035       -10.0964
  40   2.0000      -0.367498       -10.0001
  41   2.0000      -0.361108        -9.8263
  42   2.0000      -0.347248        -9.4491
  43   2.0000      -0.325235        -8.8501
  44   2.0000      -0.318800        -8.6750
  45   2.0000      -0.309820        -8.4306
  46   2.0000      -0.303529        -8.2594
  47   2.0000      -0.274760        -7.4766
  48   2.0000      -0.263004        -7.1567
  49   2.0000      -0.258622        -7.0375
  50   2.0000      -0.237019        -6.4496
  51   0.0000       0.050625         1.3776
  52   0.0000       0.075865         2.0644
  53   0.0000       0.089210         2.4275
  54   0.0000       0.095023         2.5857
  55   0.0000       0.100186         2.7262

MULLIKEN ATOMIC CHARGES
-----------------------
   0 C :    0.309924
   1 C :   -0.302006
   2 C :   -0.311376
   3 C :   -0.007786
   4 O :   -0.496904
   5 H :    0.160581
   6 H :    0.161305
   7 H :    0.146197
   8 H :    0.148948
   9 H :    0.151715
  10 H :    0.150598
  11 H :    0.147849
  12 C :   -0.017720
  13 H :    0.152137
  14 H :    0.136760
  15 O :   -0.531237
  16 C :    0.098321
  17 C :    0.084297
  18 C :   -0.309132
  19 C :   -0.001531
  20 O :   -0.520245
  21 H :    0.143723
  22 H :    0.161028
  23 O :   -0.609341
  24 H :    0.141429
  25 H :    0.159109
  26 H :    0.154802
  27 H :    0.140538
  28 H :    0.358019
Sum of atomic charges:   -0.0000000

LOEWDIN ATOMIC CHARGES
----------------------
   0 C :    0.172808
   1 C :   -0.233225
   2 C :   -0.222921
   3 C :   -0.031131
   4 O :   -0.316210
   5 H :    0.109556
   6 H :    0.125378
   7 H :    0.114203
   8 H :    0.117702
   9 H :    0.111469
  10 H :    0.106158
  11 H :    0.105090
  12 C :   -0.048809
  13 H :    0.106849
  14 H :    0.098434
  15 O :   -0.324464
  16 C :    0.021369
  17 C :    0.037505
  18 C :   -0.240901
  19 C :   -0.023385
  20 O :   -0.320823
  21 H :    0.112246
  22 H :    0.115876
  23 O :   -0.413271
  24 H :    0.113640
  25 H :    0.119170
  26 H :    0.110099
  27 H :    0.100567
  28 H :    0.277021

  Mayer bond orders larger than 0.100000
B(  0-C ,  1-C ) :   0.9244 B(  0-C ,  4-O ) :   0.9141 B(  0-C ,  5-H ) :   0.9363
B(  0-C , 15-O ) :   0.8845 B(  1-C ,  2-C ) :   0.9530 B(  1-C ,  6-H ) :   0.9340
B(  1-C ,  7-H ) :   0.9312 B(  2-C ,  3-C ) :   0.9477 B(  2-C ,  8-H ) :   0.9453
B(  2-C ,  9-H ) :   0.9390 B(  3-C ,  4-O ) :   0.8449 B(  3-C , 10-H ) :   0.9335
B(  3-C , 11-H ) :   0.9387 B( 12-C , 13-H ) :   0.9180 B( 12-C , 14-H ) :   0.8935
B( 12-C , 15-O ) :   0.8332 B( 12-C , 16-C ) :   0.9114 B( 16-C , 17-C ) :   0.8841
B( 16-C , 20-O ) :   0.8852 B( 16-C , 21-H ) :   0.9298 B( 17-C , 18-C ) :   0.9359
B( 17-C , 22-H ) :   0.9362 B( 17-C , 23-O ) :   0.8923 B( 18-C , 19-C ) :   0.9480
B( 18-C , 24-H ) :   0.9413 B( 18-C , 25-H ) :   0.9276 B( 19-C , 20-O ) :   0.8365
B( 19-C , 26-H ) :   0.9314 B( 19-C , 27-H ) :   0.9375 B( 23-O , 28-H ) :   0.7947

FINAL SINGLE POINT ENERGY      -652.856056700900

DIPOLE MOMENT
-------------
                                X             Y             Z
Electronic contribution:     -3.01981      -1.90925       0.61979
Nuclear contribution   :      4.00218       2.37490      -1.05070
                        -----------------------------------------
Total Dipole Moment    :      0.98237       0.46566      -0.43091
                        -----------------------------------------
Magnitude (a.u.)       :      1.16943
Magnitude (Debye)      :      2.97246

Rotational constants in cm-1:     0.049989     0.015562     0.014253
Rotational constants in MHz :  1498.629971   466.537604   427.281539

                             ****ORCA TERMINATED NORMALLY****
TOTAL RUN TIME: 0 days 0 hours 26 minutes 8 seconds 700 msec
