                         Program Version 4.2.0 -  RELEASE  -
|  1> # Test redundant internal optimization
|  2> #
|  3> ! RKS B3LYP  Opt TightSCF SmallPrint
|  4>
|  5> %basis
|  6>         Basis "6-31G"
|  7> end
|  8>
|  9> %geom
| 10> Constraints
| 11> { D 4  0  15  12  210.0   C } # D for Dihedral angle
| 12> { D 0  15  12  16  45.0   C } # D for Dihedral angle
| 13> { D 0  4  3  2   C } # D for Dihedral angle
| 14> { D 4  3  2  1   C } # D for Dihedral angle
| 15> { D 3  2  1  0   C } # D for Dihedral angle
| 16> { D 2  1  0  4   C } # D for Dihedral angle
| 17> { D 1  0  4  3   C } # D for Dihedral angle
| 18> { D 16  20  19  18   C } # D for Dihedral angle
| 19> { D 20  19  18  17   C } # D for Dihedral angle
| 20> { D 19  18  17  16   C } # D for Dihedral angle
| 21> { D 18  17  16  20   C } # D for Dihedral angle
| 22> { D 17  16  20  19   C } # D for Dihedral angle
| 23> { D 15  12  16  20   C } # D for Dihedral angle
| 24> end
| 25> end
| 26>
| 27>
| 28> #%pal
| 29> #nprocs 8
| 30> #end
| 31>
| 32> * xyz 0 1
| 33> C  -21.048   26.222   46.251
| 34> C  -20.361   27.558   45.944
| 35> C  -20.329   28.222   47.341
| 36> C  -20.110   27.022   48.296
| 37> O  -20.473   25.807   47.535
| 38> H  -20.833   25.428   45.533
| 39> H  -19.344   27.382   45.576
| 40> H  -20.898   28.157   45.201
| 41> H  -19.543   28.978   47.434
| 42> H  -21.289   28.710   47.548
| 43> H  -20.733   27.082   49.195
| 44> H  -19.064   26.913   48.597
| 45> C  -23.389   26.110   45.076
| 46> H  -24.453   26.004   45.324
| 47> H  -23.284   26.944   44.370
| 48> O  -22.586   26.394   46.375
| 49> C  -22.924   24.816   44.353
| 50> C  -23.656   24.630   43.020
| 51> C  -22.885   25.605   42.099
| 52> C  -21.430   25.506   42.622
| 53> O  -21.510   24.919   43.977
| 54> H  -23.012   23.971   45.039
| 55> O  -23.497   23.166   42.524
| 56> H  -24.726   24.859   43.081
| 57> H  -22.966   25.343   41.039
| 58> H  -23.272   26.624   42.222
| 59> H  -20.940   26.484   42.684
| 60> H  -20.813   24.837   42.016
| 61> H  -22.433   22.915   42.455
| 62> *
| 63>
| 64>                          ****END OF INPUT****
 Total Charge           Charge          ....    0
 Multiplicity           Mult            ....    1
 Number of Electrons    NEL             ....  102
FINAL SINGLE POINT ENERGY      -652.825413210862
FINAL SINGLE POINT ENERGY      -652.846822764574
FINAL SINGLE POINT ENERGY      -652.855200162711
FINAL SINGLE POINT ENERGY      -652.857381151232
FINAL SINGLE POINT ENERGY      -652.857767153133
FINAL SINGLE POINT ENERGY      -652.857818691766
FINAL SINGLE POINT ENERGY      -652.857823888078
                    ***********************HURRAY********************

CARTESIAN COORDINATES (ANGSTROEM)
---------------------------------
  C    -20.856179   26.236344   46.250025
  C    -20.238769   27.620456   46.057157
  C    -20.446566   28.261945   47.450875
  C    -20.270289   27.063876   48.408635
  O    -20.439627   25.850107   47.570106
  H    -20.532017   25.468130   45.553881
  H    -19.171324   27.515497   45.828258
  H    -20.713013   28.187171   45.250345
  H    -19.736411   29.068929   47.654696
  H    -21.461484   28.663561   47.521702
  H    -21.011971   27.042348   49.211606
  H    -19.266245   27.009334   48.841057
  C    -23.129756   26.083979   45.098654
  H    -24.145919   25.976600   45.492054
  H    -23.116093   26.971226   44.442349
  O    -22.317312   26.342676   46.269953
  C    -22.796048   24.838971   44.267927
  C    -23.693931   24.664040   43.032816
  C    -22.979558   25.568809   41.991996
  C    -21.480064   25.392608   42.344496
  O    -21.432023   24.844229   43.724511
  H    -22.853265   23.957035   44.915204
  O    -23.733205   23.276676   42.606039
  H    -24.734773   24.942763   43.202023
  H    -23.218454   25.247290   40.975547
  H    -23.297331   26.610087   42.109998
  H    -20.923795   26.334048   42.316506
  H    -20.976774   24.669814   41.695069
  H    -22.828804   22.899451   42.643513

 Multiplicity           Mult            ....    1
 Number of Electrons    NEL             ....  102
 Basis Dimension        Dim             ....  149

ORBITAL ENERGIES
----------------

  NO   OCC          E(Eh)            E(eV)
   0   2.0000     -19.156325      -521.2701
   1   2.0000     -19.145869      -520.9856
   2   2.0000     -19.130833      -520.5764
   3   2.0000     -19.128428      -520.5110
   4   2.0000     -10.262134      -279.2469
   5   2.0000     -10.251557      -278.9591
   6   2.0000     -10.242073      -278.7010
   7   2.0000     -10.241747      -278.6921
   8   2.0000     -10.236231      -278.5420
   9   2.0000     -10.215518      -277.9784
  10   2.0000     -10.198449      -277.5139
  11   2.0000     -10.177672      -276.9485
  12   2.0000     -10.177047      -276.9315
  13   2.0000      -1.049045       -28.5460
  14   2.0000      -1.038026       -28.2461
  15   2.0000      -1.015400       -27.6304
  16   2.0000      -0.982795       -26.7432
  17   2.0000      -0.793197       -21.5840
  18   2.0000      -0.778199       -21.1759
  19   2.0000      -0.770344       -20.9621
  20   2.0000      -0.727797       -19.8044
  21   2.0000      -0.676487       -18.4081
  22   2.0000      -0.613622       -16.6975
  23   2.0000      -0.605127       -16.4663
  24   2.0000      -0.589116       -16.0307
  25   2.0000      -0.569740       -15.5034
  26   2.0000      -0.533699       -14.5227
  27   2.0000      -0.508764       -13.8442
  28   2.0000      -0.495459       -13.4821
  29   2.0000      -0.485306       -13.2059
  30   2.0000      -0.477323       -12.9886
  31   2.0000      -0.458009       -12.4630
  32   2.0000      -0.447854       -12.1867
  33   2.0000      -0.441686       -12.0189
  34   2.0000      -0.428407       -11.6575
  35   2.0000      -0.408348       -11.1117
  36   2.0000      -0.403210       -10.9719
  37   2.0000      -0.395311       -10.7569
  38   2.0000      -0.382339       -10.4040
  39   2.0000      -0.370376       -10.0784
  40   2.0000      -0.364321        -9.9137
  41   2.0000      -0.348630        -9.4867
  42   2.0000      -0.345849        -9.4110
  43   2.0000      -0.335830        -9.1384
  44   2.0000      -0.323547        -8.8042
  45   2.0000      -0.302134        -8.2215
  46   2.0000      -0.299432        -8.1480
  47   2.0000      -0.280233        -7.6255
  48   2.0000      -0.261615        -7.1189
  49   2.0000      -0.250970        -6.8292
  50   2.0000      -0.232642        -6.3305
  51   0.0000       0.055090         1.4991
  52   0.0000       0.078679         2.1410
  53   0.0000       0.086296         2.3482
  54   0.0000       0.093440         2.5426
  55   0.0000       0.101771         2.7693

MULLIKEN ATOMIC CHARGES
-----------------------
   0 C :    0.265592
   1 C :   -0.259987
   2 C :   -0.297209
   3 C :   -0.000292
   4 O :   -0.502509
   5 H :    0.196992
   6 H :    0.141582
   7 H :    0.132828
   8 H :    0.135787
   9 H :    0.158243
  10 H :    0.149693
  11 H :    0.137276
  12 C :    0.013244
  13 H :    0.155932
  14 H :    0.113923
  15 O :   -0.528024
  16 C :    0.040949
  17 C :    0.079448
  18 C :   -0.288618
  19 C :   -0.035503
  20 O :   -0.525046
  21 H :    0.176190
  22 O :   -0.600270
  23 H :    0.157383
  24 H :    0.165541
  25 H :    0.145050
  26 H :    0.150925
  27 H :    0.153797
  28 H :    0.367082
Sum of atomic charges:   -0.0000000

LOEWDIN ATOMIC CHARGES
----------------------
   0 C :    0.170144
   1 C :   -0.225565
   2 C :   -0.217587
   3 C :   -0.027105
   4 O :   -0.308125
   5 H :    0.122982
   6 H :    0.111736
   7 H :    0.110008
   8 H :    0.111046
   9 H :    0.117185
  10 H :    0.106644
  11 H :    0.099813
  12 C :   -0.037853
  13 H :    0.119146
  14 H :    0.083296
  15 O :   -0.337331
  16 C :    0.001763
  17 C :    0.039331
  18 C :   -0.238687
  19 C :   -0.039238
  20 O :   -0.329727
  21 H :    0.121845
  22 O :   -0.411614
  23 H :    0.118468
  24 H :    0.128506
  25 H :    0.113745
  26 H :    0.106179
  27 H :    0.106113
  28 H :    0.284885

  Mayer bond orders larger than 0.100000
B(  0-C ,  1-C ) :   0.9359 B(  0-C ,  4-O ) :   0.9223 B(  0-C ,  5-H ) :   0.8913
B(  0-C , 15-O ) :   0.8105 B(  1-C ,  2-C ) :   0.9540 B(  1-C ,  6-H ) :   0.9366
B(  1-C ,  7-H ) :   0.9405 B(  2-C ,  3-C ) :   0.9556 B(  2-C ,  8-H ) :   0.9459
B(  2-C ,  9-H ) :   0.9443 B(  3-C ,  4-O ) :   0.8417 B(  3-C , 10-H ) :   0.9350
B(  3-C , 11-H ) :   0.9401 B( 12-C , 13-H ) :   0.9266 B( 12-C , 14-H ) :   0.9173
B( 12-C , 15-O ) :   0.8726 B( 12-C , 16-C ) :   0.8915 B( 16-C , 17-C ) :   0.8970
B( 16-C , 20-O ) :   0.8345 B( 16-C , 21-H ) :   0.9208 B( 17-C , 18-C ) :   0.9101
B( 17-C , 22-O ) :   0.8942 B( 17-C , 23-H ) :   0.9333 B( 18-C , 19-C ) :   0.9419
B( 18-C , 24-H ) :   0.9367 B( 18-C , 25-H ) :   0.9331 B( 19-C , 20-O ) :   0.8372
B( 19-C , 26-H ) :   0.9340 B( 19-C , 27-H ) :   0.9370 B( 22-O , 28-H ) :   0.7935

FINAL SINGLE POINT ENERGY      -652.857824109395

DIPOLE MOMENT
-------------
                                X             Y             Z
Electronic contribution:     -1.16534      -5.79038       1.09471
Nuclear contribution   :      1.31393       6.91570      -2.13413
                        -----------------------------------------
Total Dipole Moment    :      0.14859       1.12532      -1.03942
                        -----------------------------------------
Magnitude (a.u.)       :      1.53910
Magnitude (Debye)      :      3.91208

Rotational constants in cm-1:     0.066768     0.012539     0.012062
Rotational constants in MHz :  2001.666205   375.916913   361.616411

                             ****ORCA TERMINATED NORMALLY****
TOTAL RUN TIME: 0 days 0 hours 26 minutes 0 seconds 961 msec
