                         Program Version 4.2.0 -  RELEASE  -
|  1> # Test redundant internal optimization
|  2> #
|  3> ! RKS B3LYP  Opt TightSCF SmallPrint
|  4>
|  5> %basis
|  6>         Basis "6-31G"
|  7> end
|  8>
|  9> %geom
| 10> Constraints
| 11> { D 4  0  15  12  15.0   C } # D for Dihedral angle
| 12> { D 0  15  12  16  225.0   C } # D for Dihedral angle
| 13> { D 0  4  3  2   C } # D for Dihedral angle
| 14> { D 4  3  2  1   C } # D for Dihedral angle
| 15> { D 3  2  1  0   C } # D for Dihedral angle
| 16> { D 2  1  0  4   C } # D for Dihedral angle
| 17> { D 1  0  4  3   C } # D for Dihedral angle
| 18> { D 16  20  19  18   C } # D for Dihedral angle
| 19> { D 20  19  18  17   C } # D for Dihedral angle
| 20> { D 19  18  17  16   C } # D for Dihedral angle
| 21> { D 18  17  16  20   C } # D for Dihedral angle
| 22> { D 17  16  20  19   C } # D for Dihedral angle
| 23> { D 15  12  16  20   C } # D for Dihedral angle
| 24> end
| 25> end
| 26>
| 27>
| 28> #%pal
| 29> #nprocs 8
| 30> #end
| 31>
| 32> * xyz 0 1
| 33> C  -21.048   26.222   46.251
| 34> C  -20.361   27.558   45.944
| 35> C  -20.329   28.222   47.341
| 36> C  -20.110   27.022   48.296
| 37> O  -20.473   25.807   47.535
| 38> H  -20.833   25.428   45.533
| 39> H  -19.344   27.382   45.576
| 40> H  -20.898   28.157   45.201
| 41> H  -19.543   28.978   47.434
| 42> H  -21.289   28.710   47.548
| 43> H  -20.733   27.082   49.195
| 44> H  -19.064   26.913   48.597
| 45> C  -23.128   26.462   47.829
| 46> H  -22.350   26.118   48.522
| 47> H  -23.390   27.495   48.093
| 48> O  -22.586   26.394   46.375
| 49> C  -24.393   25.585   48.041
| 50> C  -24.966   25.765   49.450
| 51> C  -25.730   27.104   49.309
| 52> C  -26.271   27.048   47.858
| 53> O  -25.474   26.022   47.152
| 54> H  -24.159   24.551   47.776
| 55> O  -25.947   24.607   49.780
| 56> H  -24.195   25.797   50.228
| 57> H  -26.529   27.217   50.049
| 58> H  -25.039   27.946   49.432
| 59> H  -26.167   28.006   47.335
| 60> H  -27.317   26.732   47.815
| 61> H  -26.728   24.557   49.014
| 62> *
| 63>
| 64>                          ****END OF INPUT****
 Total Charge           Charge          ....    0
 Multiplicity           Mult            ....    1
 Number of Electrons    NEL             ....  102
FINAL SINGLE POINT ENERGY      -652.827774163072
FINAL SINGLE POINT ENERGY      -652.850878140369
FINAL SINGLE POINT ENERGY      -652.855121323103
FINAL SINGLE POINT ENERGY      -652.856466784690
FINAL SINGLE POINT ENERGY      -652.856600474092
FINAL SINGLE POINT ENERGY      -652.856625715914
                    ***********************HURRAY********************

CARTESIAN COORDINATES (ANGSTROEM)
---------------------------------
  C    -21.161040   26.233236   46.404045
  C    -20.459524   27.515110   45.948449
  C    -20.169535   28.216391   47.299064
  C    -19.869525   27.034435   48.248532
  O    -20.425621   25.825437   47.578487
  H    -21.094603   25.408733   45.692119
  H    -19.527076   27.253638   45.434686
  H    -21.085266   28.106285   45.276819
  H    -19.333038   28.919212   47.239381
  H    -21.053049   28.772747   47.631104
  H    -20.333462   27.138928   49.233478
  H    -18.798507   26.852555   48.374699
  C    -23.123190   26.551918   47.958670
  H    -22.392373   26.183287   48.686220
  H    -23.346285   27.606788   48.169459
  O    -22.589707   26.436908   46.613093
  C    -24.384587   25.695333   48.059697
  C    -25.074299   25.765270   49.428873
  C    -25.913577   27.064829   49.294048
  C    -26.337252   27.050446   47.803407
  O    -25.422630   26.112660   47.113070
  H    -24.123863   24.666401   47.795470
  O    -25.921322   24.602373   49.643079
  H    -24.385426   25.780479   50.275071
  H    -26.763172   27.049195   49.980897
  H    -25.297170   27.940566   49.525799
  H    -26.262357   28.035393   47.332058
  H    -27.355822   26.674505   47.661567
  H    -26.390722   24.393943   48.807656

 Multiplicity           Mult            ....    1
 Number of Electrons    NEL             ....  102
 Basis Dimension        Dim             ....  149

ORBITAL ENERGIES
----------------

  NO   OCC          E(Eh)            E(eV)
   0   2.0000     -19.153175      -521.1844
   1   2.0000     -19.136580      -520.7328
   2   2.0000     -19.136283      -520.7247
   3   2.0000     -19.135627      -520.7069
   4   2.0000     -10.278984      -279.7054
   5   2.0000     -10.240716      -278.6641
   6   2.0000     -10.235909      -278.5332
   7   2.0000     -10.229440      -278.3572
   8   2.0000     -10.228734      -278.3380
   9   2.0000     -10.227363      -278.3007
  10   2.0000     -10.194611      -277.4095
  11   2.0000     -10.187788      -277.2238
  12   2.0000     -10.186336      -277.1843
  13   2.0000      -1.055823       -28.7304
  14   2.0000      -1.033397       -28.1202
  15   2.0000      -1.003753       -27.3135
  16   2.0000      -0.991296       -26.9745
  17   2.0000      -0.792791       -21.5729
  18   2.0000      -0.782005       -21.2794
  19   2.0000      -0.767474       -20.8840
  20   2.0000      -0.734873       -19.9969
  21   2.0000      -0.672854       -18.3093
  22   2.0000      -0.606384       -16.5006
  23   2.0000      -0.602860       -16.4047
  24   2.0000      -0.596501       -16.2316
  25   2.0000      -0.574052       -15.6207
  26   2.0000      -0.524149       -14.2628
  27   2.0000      -0.509466       -13.8633
  28   2.0000      -0.501454       -13.6453
  29   2.0000      -0.491734       -13.3808
  30   2.0000      -0.475605       -12.9419
  31   2.0000      -0.461982       -12.5712
  32   2.0000      -0.451877       -12.2962
  33   2.0000      -0.435998       -11.8641
  34   2.0000      -0.422501       -11.4968
  35   2.0000      -0.417348       -11.3566
  36   2.0000      -0.397424       -10.8145
  37   2.0000      -0.390847       -10.6355
  38   2.0000      -0.377837       -10.2815
  39   2.0000      -0.369755       -10.0615
  40   2.0000      -0.362869        -9.8742
  41   2.0000      -0.356355        -9.6969
  42   2.0000      -0.351773        -9.5722
  43   2.0000      -0.333680        -9.0799
  44   2.0000      -0.327193        -8.9034
  45   2.0000      -0.310036        -8.4365
  46   2.0000      -0.299728        -8.1560
  47   2.0000      -0.269760        -7.3406
  48   2.0000      -0.266158        -7.2425
  49   2.0000      -0.255685        -6.9576
  50   2.0000      -0.233835        -6.3630
  51   0.0000       0.067304         1.8314
  52   0.0000       0.076002         2.0681
  53   0.0000       0.087588         2.3834
  54   0.0000       0.096783         2.6336
  55   0.0000       0.103885         2.8269

MULLIKEN ATOMIC CHARGES
-----------------------
   0 C :    0.293939
   1 C :   -0.255136
   2 C :   -0.312295
   3 C :   -0.020685
   4 O :   -0.510605
   5 H :    0.163844
   6 H :    0.144956
   7 H :    0.162089
   8 H :    0.149213
   9 H :    0.152849
  10 H :    0.141716
  11 H :    0.154289
  12 C :   -0.008110
  13 H :    0.155038
  14 H :    0.122427
  15 O :   -0.520467
  16 C :    0.067988
  17 C :    0.074188
  18 C :   -0.291596
  19 C :   -0.026983
  20 O :   -0.509095
  21 H :    0.167668
  22 O :   -0.602380
  23 H :    0.149978
  24 H :    0.162825
  25 H :    0.138137
  26 H :    0.146664
  27 H :    0.143016
  28 H :    0.366527
Sum of atomic charges:   -0.0000000

LOEWDIN ATOMIC CHARGES
----------------------
   0 C :    0.181843
   1 C :   -0.223301
   2 C :   -0.221182
   3 C :   -0.034516
   4 O :   -0.318650
   5 H :    0.110281
   6 H :    0.114370
   7 H :    0.126212
   8 H :    0.118298
   9 H :    0.112486
  10 H :    0.100226
  11 H :    0.108478
  12 C :   -0.045765
  13 H :    0.112049
  14 H :    0.090610
  15 O :   -0.327094
  16 C :    0.015102
  17 C :    0.034124
  18 C :   -0.241105
  19 C :   -0.037905
  20 O :   -0.320465
  21 H :    0.120799
  22 O :   -0.414902
  23 H :    0.114124
  24 H :    0.126497
  25 H :    0.109875
  26 H :    0.104257
  27 H :    0.101169
  28 H :    0.284087

  Mayer bond orders larger than 0.100000
B(  0-C ,  1-C ) :   0.9210 B(  0-C ,  4-O ) :   0.9057 B(  0-C ,  5-H ) :   0.9312
B(  0-C , 15-O ) :   0.8636 B(  1-C ,  2-C ) :   0.9536 B(  1-C ,  6-H ) :   0.9346
B(  1-C ,  7-H ) :   0.9362 B(  2-C ,  3-C ) :   0.9508 B(  2-C ,  8-H ) :   0.9448
B(  2-C ,  9-H ) :   0.9449 B(  3-C ,  4-O ) :   0.8319 B(  3-C , 10-H ) :   0.9322
B(  3-C , 11-H ) :   0.9404 B( 12-C , 13-H ) :   0.8977 B( 12-C , 14-H ) :   0.9212
B( 12-C , 15-O ) :   0.8445 B( 12-C , 16-C ) :   0.8988 B( 16-C , 17-C ) :   0.8990
B( 16-C , 20-O ) :   0.8634 B( 16-C , 21-H ) :   0.9245 B( 17-C , 18-C ) :   0.9096
B( 17-C , 22-O ) :   0.8935 B( 17-C , 23-H ) :   0.9333 B( 18-C , 19-C ) :   0.9406
B( 18-C , 24-H ) :   0.9370 B( 18-C , 25-H ) :   0.9352 B( 19-C , 20-O ) :   0.8532
B( 19-C , 26-H ) :   0.9343 B( 19-C , 27-H ) :   0.9382 B( 22-O , 28-H ) :   0.7928

FINAL SINGLE POINT ENERGY      -652.856628913703

DIPOLE MOMENT
-------------
                                X             Y             Z
Electronic contribution:     -2.29750      -5.73033      -1.74557
Nuclear contribution   :      2.89178       7.11683       2.07034
                        -----------------------------------------
Total Dipole Moment    :      0.59428       1.38650       0.32476
                        -----------------------------------------
Magnitude (a.u.)       :      1.54306
Magnitude (Debye)      :      3.92214

Rotational constants in cm-1:     0.057551     0.012498     0.011972
Rotational constants in MHz :  1725.338795   374.686802   358.907972

                             ****ORCA TERMINATED NORMALLY****
TOTAL RUN TIME: 0 days 2 hours 10 minutes 32 seconds 359 msec
