                         Program Version 4.2.0 -  RELEASE  -
|  1> # Test redundant internal optimization
|  2> #
|  3> ! RKS B3LYP  Opt TightSCF SmallPrint
|  4>
|  5> %basis
|  6>         Basis "6-31G"
|  7> end
|  8>
|  9> %geom
| 10> Constraints
| 11> { D 4  0  15  12  195.0   C } # D for Dihedral angle
| 12> { D 0  15  12  16  150.0   C } # D for Dihedral angle
| 13> { D 0  4  3  2   C } # D for Dihedral angle
| 14> { D 4  3  2  1   C } # D for Dihedral angle
| 15> { D 3  2  1  0   C } # D for Dihedral angle
| 16> { D 2  1  0  4   C } # D for Dihedral angle
| 17> { D 1  0  4  3   C } # D for Dihedral angle
| 18> { D 16  20  19  18   C } # D for Dihedral angle
| 19> { D 20  19  18  17   C } # D for Dihedral angle
| 20> { D 19  18  17  16   C } # D for Dihedral angle
| 21> { D 18  17  16  20   C } # D for Dihedral angle
| 22> { D 17  16  20  19   C } # D for Dihedral angle
| 23> { D 15  12  16  20   C } # D for Dihedral angle
| 24> end
| 25> end
| 26>
| 27>
| 28> #%pal
| 29> #nprocs 8
| 30> #end
| 31>
| 32> * xyz 0 1
| 33> C  -21.048   26.222   46.251
| 34> C  -20.361   27.558   45.944
| 35> C  -20.329   28.222   47.341
| 36> C  -20.110   27.022   48.296
| 37> O  -20.473   25.807   47.535
| 38> H  -20.833   25.428   45.533
| 39> H  -19.344   27.382   45.576
| 40> H  -20.898   28.157   45.201
| 41> H  -19.543   28.978   47.434
| 42> H  -21.289   28.710   47.548
| 43> H  -20.733   27.082   49.195
| 44> H  -19.064   26.913   48.597
| 45> C  -23.353   26.472   45.026
| 46> H  -23.409   27.519   44.702
| 47> H  -22.826   25.901   44.251
| 48> O  -22.586   26.394   46.375
| 49> C  -24.799   25.913   45.124
| 50> C  -25.661   26.762   46.065
| 51> C  -26.023   27.964   45.159
| 52> C  -26.162   27.318   43.758
| 53> O  -25.475   26.011   43.827
| 54> H  -24.756   24.853   45.383
| 55> H  -26.563   26.209   46.350
| 56> O  -24.917   27.186   47.360
| 57> H  -26.937   28.474   45.477
| 58> H  -25.209   28.699   45.168
| 59> H  -25.703   27.924   42.970
| 60> H  -27.204   27.122   43.491
| 61> H  -24.010   27.742   47.098
| 62> *
| 63>
| 64>                          ****END OF INPUT****
 Total Charge           Charge          ....    0
 Multiplicity           Mult            ....    1
 Number of Electrons    NEL             ....  102
FINAL SINGLE POINT ENERGY      -652.829473402521
FINAL SINGLE POINT ENERGY      -652.853888902864
FINAL SINGLE POINT ENERGY      -652.860176961980
FINAL SINGLE POINT ENERGY      -652.862653634755
FINAL SINGLE POINT ENERGY      -652.864201789464
FINAL SINGLE POINT ENERGY      -652.865162679775
FINAL SINGLE POINT ENERGY      -652.865674594159
FINAL SINGLE POINT ENERGY      -652.865798352814
FINAL SINGLE POINT ENERGY      -652.865818200451
FINAL SINGLE POINT ENERGY      -652.865822298861
                    ***********************HURRAY********************

CARTESIAN COORDINATES (ANGSTROEM)
---------------------------------
  C    -21.111064   26.230957   46.189745
  C    -20.351400   27.523754   45.905754
  C    -20.415868   28.241384   47.275149
  C    -20.330251   27.075776   48.280618
  O    -20.680376   25.853872   47.499212
  H    -20.905213   25.398239   45.509966
  H    -19.316910   27.279819   45.637689
  H    -20.787286   28.111771   45.092835
  H    -19.606464   28.965473   47.406273
  H    -21.368697   28.770315   47.374191
  H    -21.030809   27.165014   49.113980
  H    -19.320393   26.915241   48.667473
  C    -23.249934   26.513527   44.943679
  H    -23.248811   27.542877   44.563607
  H    -22.746818   25.871968   44.208761
  O    -22.556746   26.451654   46.231959
  C    -24.676394   25.997273   45.164286
  C    -25.528900   26.840322   46.127169
  C    -25.974785   28.014186   45.207052
  C    -26.151167   27.335196   43.833361
  O    -25.408100   26.041265   43.901172
  H    -24.627237   24.948626   45.468949
  H    -26.407198   26.251909   46.418888
  O    -24.875620   27.288101   47.330797
  H    -26.891342   28.487634   45.568144
  H    -25.184783   28.772977   45.198027
  H    -25.752037   27.924999   43.002163
  H    -27.193384   27.083201   43.617389
  H    -23.920013   27.046671   47.296713

 Multiplicity           Mult            ....    1
 Number of Electrons    NEL             ....  102
 Basis Dimension        Dim             ....  149

ORBITAL ENERGIES
----------------

  NO   OCC          E(Eh)            E(eV)
   0   2.0000     -19.163266      -521.4590
   1   2.0000     -19.152842      -521.1753
   2   2.0000     -19.140447      -520.8380
   3   2.0000     -19.111226      -520.0429
   4   2.0000     -10.294195      -280.1193
   5   2.0000     -10.241565      -278.6871
   6   2.0000     -10.234298      -278.4894
   7   2.0000     -10.234254      -278.4882
   8   2.0000     -10.229472      -278.3581
   9   2.0000     -10.226781      -278.2849
  10   2.0000     -10.197475      -277.4874
  11   2.0000     -10.195542      -277.4348
  12   2.0000     -10.178962      -276.9836
  13   2.0000      -1.068035       -29.0627
  14   2.0000      -1.026390       -27.9295
  15   2.0000      -1.009555       -27.4714
  16   2.0000      -0.990816       -26.9615
  17   2.0000      -0.797118       -21.6907
  18   2.0000      -0.774499       -21.0752
  19   2.0000      -0.768022       -20.8989
  20   2.0000      -0.738111       -20.0850
  21   2.0000      -0.681012       -18.5313
  22   2.0000      -0.610657       -16.6168
  23   2.0000      -0.602098       -16.3839
  24   2.0000      -0.595062       -16.1925
  25   2.0000      -0.580213       -15.7884
  26   2.0000      -0.529534       -14.4093
  27   2.0000      -0.523068       -14.2334
  28   2.0000      -0.502443       -13.6722
  29   2.0000      -0.489801       -13.3282
  30   2.0000      -0.476036       -12.9536
  31   2.0000      -0.459924       -12.5152
  32   2.0000      -0.450205       -12.2507
  33   2.0000      -0.436448       -11.8764
  34   2.0000      -0.428008       -11.6467
  35   2.0000      -0.415724       -11.3124
  36   2.0000      -0.410416       -11.1680
  37   2.0000      -0.387478       -10.5438
  38   2.0000      -0.383599       -10.4383
  39   2.0000      -0.369862       -10.0645
  40   2.0000      -0.366911        -9.9842
  41   2.0000      -0.365247        -9.9389
  42   2.0000      -0.349746        -9.5171
  43   2.0000      -0.342325        -9.3151
  44   2.0000      -0.323075        -8.7913
  45   2.0000      -0.320096        -8.7103
  46   2.0000      -0.285035        -7.7562
  47   2.0000      -0.276516        -7.5244
  48   2.0000      -0.268659        -7.3106
  49   2.0000      -0.248281        -6.7561
  50   2.0000      -0.241824        -6.5804
  51   0.0000       0.055643         1.5141
  52   0.0000       0.075052         2.0423
  53   0.0000       0.087662         2.3854
  54   0.0000       0.096703         2.6314
  55   0.0000       0.105553         2.8723

MULLIKEN ATOMIC CHARGES
-----------------------
   0 C :    0.313617
   1 C :   -0.272680
   2 C :   -0.302884
   3 C :   -0.010013
   4 O :   -0.500982
   5 H :    0.149217
   6 H :    0.151895
   7 H :    0.147137
   8 H :    0.148461
   9 H :    0.164056
  10 H :    0.162237
  11 H :    0.148911
  12 C :   -0.018931
  13 H :    0.139451
  14 H :    0.153419
  15 O :   -0.554674
  16 C :    0.049504
  17 C :    0.126090
  18 C :   -0.302078
  19 C :   -0.020500
  20 O :   -0.521286
  21 H :    0.163799
  22 H :    0.145829
  23 O :   -0.645734
  24 H :    0.150694
  25 H :    0.146581
  26 H :    0.139761
  27 H :    0.149831
  28 H :    0.399270
Sum of atomic charges:    0.0000000

LOEWDIN ATOMIC CHARGES
----------------------
   0 C :    0.184074
   1 C :   -0.228944
   2 C :   -0.217277
   3 C :   -0.025765
   4 O :   -0.300362
   5 H :    0.102479
   6 H :    0.118012
   7 H :    0.116258
   8 H :    0.117938
   9 H :    0.119322
  10 H :    0.113049
  11 H :    0.106538
  12 C :   -0.045552
  13 H :    0.096934
  14 H :    0.109050
  15 O :   -0.345240
  16 C :    0.017441
  17 C :    0.043305
  18 C :   -0.235914
  19 C :   -0.032477
  20 O :   -0.324368
  21 H :    0.117546
  22 H :    0.103881
  23 O :   -0.437796
  24 H :    0.121176
  25 H :    0.111236
  26 H :    0.100616
  27 H :    0.106245
  28 H :    0.288595

  Mayer bond orders larger than 0.100000
B(  0-C ,  1-C ) :   0.9315 B(  0-C ,  4-O ) :   0.9532 B(  0-C ,  5-H ) :   0.9203
B(  0-C , 15-O ) :   0.7887 B(  1-C ,  2-C ) :   0.9506 B(  1-C ,  6-H ) :   0.9333
B(  1-C ,  7-H ) :   0.9352 B(  2-C ,  3-C ) :   0.9542 B(  2-C ,  8-H ) :   0.9446
B(  2-C ,  9-H ) :   0.9435 B(  3-C ,  4-O ) :   0.8273 B(  3-C , 10-H ) :   0.9335
B(  3-C , 11-H ) :   0.9394 B( 12-C , 13-H ) :   0.9204 B( 12-C , 14-H ) :   0.9205
B( 12-C , 15-O ) :   0.7906 B( 12-C , 16-C ) :   0.9023 B( 16-C , 17-C ) :   0.9158
B( 16-C , 20-O ) :   0.8561 B( 16-C , 21-H ) :   0.9282 B( 17-C , 18-C ) :   0.9034
B( 17-C , 22-H ) :   0.9282 B( 17-C , 23-O ) :   0.9327 B( 18-C , 19-C ) :   0.9380
B( 18-C , 24-H ) :   0.9453 B( 18-C , 25-H ) :   0.9428 B( 19-C , 20-O ) :   0.8316
B( 19-C , 26-H ) :   0.9349 B( 19-C , 27-H ) :   0.9387 B( 23-O , 28-H ) :   0.7206

FINAL SINGLE POINT ENERGY      -652.865823157151

DIPOLE MOMENT
-------------
                                X             Y             Z
Electronic contribution:     -1.42110      -5.17492       1.07582
Nuclear contribution   :      2.42153       6.14197      -1.77803
                        -----------------------------------------
Total Dipole Moment    :      1.00043       0.96706      -0.70221
                        -----------------------------------------
Magnitude (a.u.)       :      1.55857
Magnitude (Debye)      :      3.96158

Rotational constants in cm-1:     0.057631     0.013333     0.012604
Rotational constants in MHz :  1727.728454   399.725697   377.853523

                             ****ORCA TERMINATED NORMALLY****
TOTAL RUN TIME: 0 days 0 hours 55 minutes 57 seconds 998 msec
