                         Program Version 4.2.0 -  RELEASE  -
|  1> # Test redundant internal optimization
|  2> #
|  3> ! RKS B3LYP  Opt TightSCF SmallPrint
|  4>
|  5> %basis
|  6>         Basis "6-31G"
|  7> end
|  8>
|  9> %geom
| 10> Constraints
| 11> { D 4  0  15  12  165.0   C } # D for Dihedral angle
| 12> { D 0  15  12  16  105.0   C } # D for Dihedral angle
| 13> { D 0  4  3  2   C } # D for Dihedral angle
| 14> { D 4  3  2  1   C } # D for Dihedral angle
| 15> { D 3  2  1  0   C } # D for Dihedral angle
| 16> { D 2  1  0  4   C } # D for Dihedral angle
| 17> { D 1  0  4  3   C } # D for Dihedral angle
| 18> { D 16  20  19  18   C } # D for Dihedral angle
| 19> { D 20  19  18  17   C } # D for Dihedral angle
| 20> { D 19  18  17  16   C } # D for Dihedral angle
| 21> { D 18  17  16  20   C } # D for Dihedral angle
| 22> { D 17  16  20  19   C } # D for Dihedral angle
| 23> { D 15  12  16  20   C } # D for Dihedral angle
| 24> end
| 25> end
| 26>
| 27>
| 28> #%pal
| 29> #nprocs 8
| 30> #end
| 31>
| 32> * xyz 0 1
| 33> C  -21.048   26.222   46.251
| 34> C  -20.361   27.558   45.944
| 35> C  -20.329   28.222   47.341
| 36> C  -20.110   27.022   48.296
| 37> O  -20.473   25.807   47.535
| 38> H  -20.833   25.428   45.533
| 39> H  -19.344   27.382   45.576
| 40> H  -20.898   28.157   45.201
| 41> H  -19.543   28.978   47.434
| 42> H  -21.289   28.710   47.548
| 43> H  -20.733   27.082   49.195
| 44> H  -19.064   26.913   48.597
| 45> C  -23.260   27.170   45.210
| 46> H  -23.963   27.904   45.623
| 47> H  -22.507   27.710   44.622
| 48> O  -22.586   26.394   46.375
| 49> C  -24.039   26.240   44.240
| 50> C  -25.224   25.569   44.943
| 51> C  -26.274   26.706   44.941
| 52> C  -26.007   27.428   43.596
| 53> O  -24.653   27.022   43.162
| 54> H  -23.339   25.545   43.772
| 55> O  -25.725   24.360   44.107
| 56> H  -24.983   25.215   45.951
| 57> H  -27.301   26.336   45.020
| 58> H  -26.096   27.383   45.786
| 59> H  -26.041   28.519   43.692
| 60> H  -26.704   27.120   42.812
| 61> H  -25.973   24.691   43.092
| 62> *
| 63>
| 64>                          ****END OF INPUT****
 Total Charge           Charge          ....    0
 Multiplicity           Mult            ....    1
 Number of Electrons    NEL             ....  102
FINAL SINGLE POINT ENERGY      -652.831339314325
FINAL SINGLE POINT ENERGY      -652.853962123258
FINAL SINGLE POINT ENERGY      -652.857705550022
FINAL SINGLE POINT ENERGY      -652.858411158084
FINAL SINGLE POINT ENERGY      -652.858525276761
FINAL SINGLE POINT ENERGY      -652.858544321916
                    ***********************HURRAY********************

CARTESIAN COORDINATES (ANGSTROEM)
---------------------------------
  C    -21.109500   26.258092   46.146943
  C    -20.269985   27.512916   45.911119
  C    -20.319835   28.201797   47.299505
  C    -20.321485   27.003113   48.270380
  O    -20.723607   25.827332   47.457551
  H    -20.913429   25.428712   45.462180
  H    -19.247177   27.201764   45.668832
  H    -20.620832   28.156744   45.101496
  H    -19.470246   28.871422   47.462953
  H    -21.241467   28.783660   47.397595
  H    -21.030183   27.115563   49.094464
  H    -19.328923   26.779461   48.671997
  C    -23.216921   27.270365   45.157848
  H    -23.875534   27.990458   45.656288
  H    -22.517397   27.831280   44.529596
  O    -22.550689   26.515540   46.209156
  C    -24.022062   26.323290   44.263428
  C    -25.160608   25.575622   44.970348
  C    -26.270454   26.655870   45.001576
  C    -26.064414   27.416968   43.667569
  O    -24.690366   27.091502   43.205452
  H    -23.346769   25.618353   43.768058
  O    -25.566145   24.406360   44.204998
  H    -24.875719   25.203575   45.952853
  H    -27.257569   26.193652   45.079315
  H    -26.133889   27.317120   45.863997
  H    -26.154380   28.502362   43.776548
  H    -26.753890   27.087105   42.883807
  H    -25.646525   24.653002   43.259148

 Multiplicity           Mult            ....    1
 Number of Electrons    NEL             ....  102
 Basis Dimension        Dim             ....  149

ORBITAL ENERGIES
----------------

  NO   OCC          E(Eh)            E(eV)
   0   2.0000     -19.145433      -520.9737
   1   2.0000     -19.142603      -520.8967
   2   2.0000     -19.141993      -520.8801
   3   2.0000     -19.133286      -520.6432
   4   2.0000     -10.283420      -279.8261
   5   2.0000     -10.233590      -278.4701
   6   2.0000     -10.233374      -278.4643
   7   2.0000     -10.232659      -278.4448
   8   2.0000     -10.231883      -278.4237
   9   2.0000     -10.227196      -278.2961
  10   2.0000     -10.192760      -277.3591
  11   2.0000     -10.191409      -277.3223
  12   2.0000     -10.187000      -277.2024
  13   2.0000      -1.054435       -28.6926
  14   2.0000      -1.035285       -28.1715
  15   2.0000      -1.003056       -27.2946
  16   2.0000      -0.994370       -27.0582
  17   2.0000      -0.790606       -21.5135
  18   2.0000      -0.779361       -21.2075
  19   2.0000      -0.767953       -20.8971
  20   2.0000      -0.734308       -19.9815
  21   2.0000      -0.678714       -18.4688
  22   2.0000      -0.605200       -16.4683
  23   2.0000      -0.602487       -16.3945
  24   2.0000      -0.599351       -16.3092
  25   2.0000      -0.573130       -15.5957
  26   2.0000      -0.523843       -14.2545
  27   2.0000      -0.516579       -14.0568
  28   2.0000      -0.498927       -13.5765
  29   2.0000      -0.493864       -13.4387
  30   2.0000      -0.472204       -12.8493
  31   2.0000      -0.459738       -12.5101
  32   2.0000      -0.454343       -12.3633
  33   2.0000      -0.438360       -11.9284
  34   2.0000      -0.426472       -11.6049
  35   2.0000      -0.409067       -11.1313
  36   2.0000      -0.408836       -11.1250
  37   2.0000      -0.391620       -10.6565
  38   2.0000      -0.380439       -10.3523
  39   2.0000      -0.367524       -10.0008
  40   2.0000      -0.362247        -9.8572
  41   2.0000      -0.358522        -9.7559
  42   2.0000      -0.355489        -9.6734
  43   2.0000      -0.330584        -8.9956
  44   2.0000      -0.316328        -8.6077
  45   2.0000      -0.307281        -8.3615
  46   2.0000      -0.298989        -8.1359
  47   2.0000      -0.275599        -7.4994
  48   2.0000      -0.262235        -7.1358
  49   2.0000      -0.259916        -7.0727
  50   2.0000      -0.239512        -6.5174
  51   0.0000       0.064770         1.7625
  52   0.0000       0.072385         1.9697
  53   0.0000       0.096020         2.6128
  54   0.0000       0.098399         2.6776
  55   0.0000       0.103796         2.8244

MULLIKEN ATOMIC CHARGES
-----------------------
   0 C :    0.310312
   1 C :   -0.291163
   2 C :   -0.298296
   3 C :   -0.000092
   4 O :   -0.496858
   5 H :    0.149804
   6 H :    0.152976
   7 H :    0.147752
   8 H :    0.144397
   9 H :    0.155913
  10 H :    0.154341
  11 H :    0.143758
  12 C :   -0.025126
  13 H :    0.142395
  14 H :    0.141973
  15 O :   -0.520231
  16 C :    0.060119
  17 C :    0.093127
  18 C :   -0.295244
  19 C :   -0.040311
  20 O :   -0.527925
  21 H :    0.155996
  22 O :   -0.603117
  23 H :    0.181329
  24 H :    0.160888
  25 H :    0.146165
  26 H :    0.148131
  27 H :    0.148494
  28 H :    0.360493
Sum of atomic charges:   -0.0000000

LOEWDIN ATOMIC CHARGES
----------------------
   0 C :    0.184834
   1 C :   -0.233583
   2 C :   -0.216579
   3 C :   -0.025405
   4 O :   -0.301193
   5 H :    0.100609
   6 H :    0.119332
   7 H :    0.114916
   8 H :    0.115485
   9 H :    0.114888
  10 H :    0.109588
  11 H :    0.103642
  12 C :   -0.044823
  13 H :    0.104294
  14 H :    0.103470
  15 O :   -0.338720
  16 C :    0.008565
  17 C :    0.038808
  18 C :   -0.240166
  19 C :   -0.041089
  20 O :   -0.334162
  21 H :    0.112805
  22 O :   -0.414454
  23 H :    0.130714
  24 H :    0.126401
  25 H :    0.114430
  26 H :    0.104160
  27 H :    0.103092
  28 H :    0.280141

  Mayer bond orders larger than 0.100000
B(  0-C ,  1-C ) :   0.9314 B(  0-C ,  4-O ) :   0.9409 B(  0-C ,  5-H ) :   0.9229
B(  0-C , 15-O ) :   0.8293 B(  1-C ,  2-C ) :   0.9483 B(  1-C ,  6-H ) :   0.9333
B(  1-C ,  7-H ) :   0.9265 B(  2-C ,  3-C ) :   0.9555 B(  2-C ,  8-H ) :   0.9449
B(  2-C ,  9-H ) :   0.9461 B(  3-C ,  4-O ) :   0.8349 B(  3-C , 10-H ) :   0.9345
B(  3-C , 11-H ) :   0.9396 B( 12-C , 13-H ) :   0.9359 B( 12-C , 14-H ) :   0.9110
B( 12-C , 15-O ) :   0.8415 B( 12-C , 16-C ) :   0.8808 B( 16-C , 17-C ) :   0.9141
B( 16-C , 20-O ) :   0.8401 B( 16-C , 21-H ) :   0.9293 B( 17-C , 18-C ) :   0.9123
B( 17-C , 22-O ) :   0.8883 B( 17-C , 23-H ) :   0.9228 B( 18-C , 19-C ) :   0.9426
B( 18-C , 24-H ) :   0.9379 B( 18-C , 25-H ) :   0.9349 B( 19-C , 20-O ) :   0.8444
B( 19-C , 26-H ) :   0.9349 B( 19-C , 27-H ) :   0.9373 B( 22-O , 28-H ) :   0.7973

FINAL SINGLE POINT ENERGY      -652.858546606272

DIPOLE MOMENT
-------------
                                X             Y             Z
Electronic contribution:     -1.06899      -5.11193      -1.55159
Nuclear contribution   :      1.34797       6.64787       1.42226
                        -----------------------------------------
Total Dipole Moment    :      0.27897       1.53595      -0.12932
                        -----------------------------------------
Magnitude (a.u.)       :      1.56642
Magnitude (Debye)      :      3.98153

Rotational constants in cm-1:     0.060983     0.011919     0.011201
Rotational constants in MHz :  1828.212551   357.334319   335.782648

                             ****ORCA TERMINATED NORMALLY****
TOTAL RUN TIME: 0 days 0 hours 13 minutes 22 seconds 269 msec
