                         Program Version 4.2.0 -  RELEASE  -
|  1> # Test redundant internal optimization
|  2> #
|  3> ! RKS B3LYP  Opt TightSCF SmallPrint
|  4>
|  5> %basis
|  6>         Basis "6-31G"
|  7> end
|  8>
|  9> %geom
| 10> Constraints
| 11> { D 4  0  15  12  315.0   C } # D for Dihedral angle
| 12> { D 0  15  12  16  195.0   C } # D for Dihedral angle
| 13> { D 0  4  3  2   C } # D for Dihedral angle
| 14> { D 4  3  2  1   C } # D for Dihedral angle
| 15> { D 3  2  1  0   C } # D for Dihedral angle
| 16> { D 2  1  0  4   C } # D for Dihedral angle
| 17> { D 1  0  4  3   C } # D for Dihedral angle
| 18> { D 16  20  19  18   C } # D for Dihedral angle
| 19> { D 20  19  18  17   C } # D for Dihedral angle
| 20> { D 19  18  17  16   C } # D for Dihedral angle
| 21> { D 18  17  16  20   C } # D for Dihedral angle
| 22> { D 17  16  20  19   C } # D for Dihedral angle
| 23> { D 15  12  16  20   C } # D for Dihedral angle
| 24> end
| 25> end
| 26>
| 27>
| 28> #%pal
| 29> #nprocs 8
| 30> #end
| 31>
| 32> * xyz 0 1
| 33> C  -21.048   26.222   46.251
| 34> C  -20.361   27.558   45.944
| 35> C  -20.329   28.222   47.341
| 36> C  -20.110   27.022   48.296
| 37> O  -20.473   25.807   47.535
| 38> H  -20.833   25.428   45.533
| 39> H  -19.344   27.382   45.576
| 40> H  -20.898   28.157   45.201
| 41> H  -19.543   28.978   47.434
| 42> H  -21.289   28.710   47.548
| 43> H  -20.733   27.082   49.195
| 44> H  -19.064   26.913   48.597
| 45> C  -23.319   25.255   47.135
| 46> H  -22.935   24.286   46.792
| 47> H  -23.136   25.333   48.214
| 48> O  -22.586   26.394   46.375
| 49> C  -24.857   25.277   46.914
| 50> C  -25.558   24.215   47.767
| 51> C  -25.592   24.899   49.154
| 52> C  -25.797   26.394   48.804
| 53> O  -25.423   26.547   47.381
| 54> H  -25.065   25.208   45.844
| 55> H  -26.574   24.043   47.396
| 56> O  -24.807   22.855   47.785
| 57> H  -26.385   24.510   49.800
| 58> H  -24.636   24.751   49.671
| 59> H  -25.171   27.057   49.412
| 60> H  -26.840   26.706   48.899
| 61> H  -23.787   23.001   48.155
| 62> *
| 63>
| 64>                          ****END OF INPUT****
 Total Charge           Charge          ....    0
 Multiplicity           Mult            ....    1
 Number of Electrons    NEL             ....  102
FINAL SINGLE POINT ENERGY      -652.831028282363
FINAL SINGLE POINT ENERGY      -652.855935389405
FINAL SINGLE POINT ENERGY      -652.860623363597
FINAL SINGLE POINT ENERGY      -652.861421318521
FINAL SINGLE POINT ENERGY      -652.861557383148
FINAL SINGLE POINT ENERGY      -652.861580256352
FINAL SINGLE POINT ENERGY      -652.861583096798
                    ***********************HURRAY********************

CARTESIAN COORDINATES (ANGSTROEM)
---------------------------------
  C    -21.096020   26.174143   46.277271
  C    -20.532924   27.558021   45.954402
  C    -20.455649   28.199159   47.356417
  C    -20.086417   27.011923   48.272718
  O    -20.416524   25.783548   47.498024
  H    -20.876753   25.380963   45.553548
  H    -19.537556   27.447718   45.509443
  H    -21.175403   28.109629   45.264957
  H    -19.719479   29.007324   47.409900
  H    -21.435575   28.603465   47.625385
  H    -20.649342   27.001091   49.209967
  H    -19.016466   26.960164   48.495113
  C    -23.158110   25.229816   47.188405
  H    -22.798414   24.254002   46.828393
  H    -22.900953   25.316574   48.251415
  O    -22.522998   26.305664   46.446072
  C    -24.661835   25.321353   46.953600
  C    -25.468994   24.263709   47.725337
  C    -25.605341   24.926667   49.129614
  C    -25.733550   26.426654   48.785538
  O    -25.229878   26.591704   47.397657
  H    -24.843323   25.276587   45.876032
  H    -26.451032   24.149046   47.262107
  O    -24.911314   22.927624   47.728088
  H    -26.463494   24.540620   49.686043
  H    -24.700784   24.724747   49.718457
  H    -25.152626   27.069012   49.454638
  H    -26.774188   26.764150   48.789854
  H    -24.118059   22.886922   48.300606

 Multiplicity           Mult            ....    1
 Number of Electrons    NEL             ....  102
 Basis Dimension        Dim             ....  149

ORBITAL ENERGIES
----------------

  NO   OCC          E(Eh)            E(eV)
   0   2.0000     -19.148194      -521.0488
   1   2.0000     -19.142846      -520.9033
   2   2.0000     -19.140275      -520.8333
   3   2.0000     -19.134511      -520.6765
   4   2.0000     -10.276058      -279.6258
   5   2.0000     -10.243343      -278.7355
   6   2.0000     -10.228345      -278.3274
   7   2.0000     -10.228084      -278.3203
   8   2.0000     -10.226817      -278.2858
   9   2.0000     -10.226024      -278.2643
  10   2.0000     -10.193598      -277.3819
  11   2.0000     -10.183731      -277.1134
  12   2.0000     -10.182964      -277.0925
  13   2.0000      -1.054402       -28.6917
  14   2.0000      -1.031610       -28.0715
  15   2.0000      -1.013246       -27.5718
  16   2.0000      -0.991369       -26.9765
  17   2.0000      -0.788745       -21.4628
  18   2.0000      -0.780064       -21.2266
  19   2.0000      -0.765543       -20.8315
  20   2.0000      -0.729165       -19.8416
  21   2.0000      -0.677035       -18.4231
  22   2.0000      -0.609525       -16.5860
  23   2.0000      -0.599079       -16.3018
  24   2.0000      -0.588598       -16.0166
  25   2.0000      -0.572123       -15.5683
  26   2.0000      -0.530427       -14.4337
  27   2.0000      -0.508256       -13.8303
  28   2.0000      -0.494718       -13.4620
  29   2.0000      -0.491569       -13.3763
  30   2.0000      -0.469887       -12.7863
  31   2.0000      -0.455118       -12.3844
  32   2.0000      -0.444263       -12.0890
  33   2.0000      -0.433363       -11.7924
  34   2.0000      -0.425620       -11.5817
  35   2.0000      -0.410008       -11.1569
  36   2.0000      -0.403360       -10.9760
  37   2.0000      -0.401016       -10.9122
  38   2.0000      -0.376897       -10.2559
  39   2.0000      -0.366738        -9.9794
  40   2.0000      -0.357589        -9.7305
  41   2.0000      -0.353404        -9.6166
  42   2.0000      -0.345446        -9.4001
  43   2.0000      -0.337344        -9.1796
  44   2.0000      -0.322635        -8.7794
  45   2.0000      -0.312259        -8.4970
  46   2.0000      -0.298467        -8.1217
  47   2.0000      -0.269723        -7.3395
  48   2.0000      -0.259816        -7.0700
  49   2.0000      -0.255905        -6.9635
  50   2.0000      -0.239570        -6.5190
  51   0.0000       0.053100         1.4449
  52   0.0000       0.074814         2.0358
  53   0.0000       0.091037         2.4772
  54   0.0000       0.098282         2.6744
  55   0.0000       0.104050         2.8314

MULLIKEN ATOMIC CHARGES
-----------------------
   0 C :    0.290167
   1 C :   -0.262429
   2 C :   -0.300190
   3 C :   -0.009678
   4 O :   -0.518555
   5 H :    0.145072
   6 H :    0.143476
   7 H :    0.165065
   8 H :    0.141259
   9 H :    0.168331
  10 H :    0.141088
  11 H :    0.145202
  12 C :    0.004369
  13 H :    0.130480
  14 H :    0.132415
  15 O :   -0.518756
  16 C :    0.087355
  17 C :    0.081575
  18 C :   -0.322437
  19 C :   -0.009737
  20 O :   -0.505409
  21 H :    0.162899
  22 H :    0.167131
  23 O :   -0.598358
  24 H :    0.156827
  25 H :    0.134367
  26 H :    0.143644
  27 H :    0.147267
  28 H :    0.357561
Sum of atomic charges:   -0.0000000

LOEWDIN ATOMIC CHARGES
----------------------
   0 C :    0.173879
   1 C :   -0.214053
   2 C :   -0.216778
   3 C :   -0.029989
   4 O :   -0.332525
   5 H :    0.095414
   6 H :    0.113373
   7 H :    0.128430
   8 H :    0.113795
   9 H :    0.122171
  10 H :    0.101595
  11 H :    0.103714
  12 C :   -0.048669
  13 H :    0.099177
  14 H :    0.094525
  15 O :   -0.318113
  16 C :    0.020596
  17 C :    0.034891
  18 C :   -0.241829
  19 C :   -0.030187
  20 O :   -0.314413
  21 H :    0.119522
  22 H :    0.119542
  23 O :   -0.406698
  24 H :    0.122044
  25 H :    0.104376
  26 H :    0.102371
  27 H :    0.105058
  28 H :    0.278779

  Mayer bond orders larger than 0.100000
B(  0-C ,  1-C ) :   0.9515 B(  0-C ,  4-O ) :   0.8894 B(  0-C ,  5-H ) :   0.9187
B(  0-C , 15-O ) :   0.8637 B(  1-C ,  2-C ) :   0.9547 B(  1-C ,  6-H ) :   0.9392
B(  1-C ,  7-H ) :   0.9346 B(  2-C ,  3-C ) :   0.9560 B(  2-C ,  8-H ) :   0.9449
B(  2-C ,  9-H ) :   0.9429 B(  3-C ,  4-O ) :   0.8358 B(  3-C , 10-H ) :   0.9359
B(  3-C , 11-H ) :   0.9405 B( 12-C , 13-H ) :   0.9039 B( 12-C , 14-H ) :   0.9198
B( 12-C , 15-O ) :   0.8306 B( 12-C , 16-C ) :   0.9051 B( 16-C , 17-C ) :   0.8744
B( 16-C , 20-O ) :   0.8693 B( 16-C , 21-H ) :   0.9292 B( 17-C , 18-C ) :   0.9220
B( 17-C , 22-H ) :   0.9343 B( 17-C , 23-O ) :   0.8999 B( 18-C , 19-C ) :   0.9387
B( 18-C , 24-H ) :   0.9423 B( 18-C , 25-H ) :   0.9406 B( 19-C , 20-O ) :   0.8529
B( 19-C , 26-H ) :   0.9313 B( 19-C , 27-H ) :   0.9380 B( 23-O , 28-H ) :   0.7969

FINAL SINGLE POINT ENERGY      -652.861583486049

DIPOLE MOMENT
-------------
                                X             Y             Z
Electronic contribution:     -1.92898      -2.90485      -2.93407
Nuclear contribution   :      2.36384       3.23851       3.81458
                        -----------------------------------------
Total Dipole Moment    :      0.43486       0.33366       0.88051
                        -----------------------------------------
Magnitude (a.u.)       :      1.03718
Magnitude (Debye)      :      2.63629

Rotational constants in cm-1:     0.050432     0.013455     0.012614
Rotational constants in MHz :  1511.926637   403.365821   378.146828

                             ****ORCA TERMINATED NORMALLY****
TOTAL RUN TIME: 0 days 0 hours 22 minutes 26 seconds 49 msec
