                         Program Version 4.2.0 -  RELEASE  -
|  1> # Test redundant internal optimization
|  2> #
|  3> ! RKS B3LYP  Opt TightSCF SmallPrint
|  4>
|  5> %basis
|  6>         Basis "6-31G"
|  7> end
|  8>
|  9> %geom
| 10> Constraints
| 11> { D 4  0  15  12  90.0   C } # D for Dihedral angle
| 12> { D 0  15  12  16  135.0   C } # D for Dihedral angle
| 13> { D 0  4  3  2   C } # D for Dihedral angle
| 14> { D 4  3  2  1   C } # D for Dihedral angle
| 15> { D 3  2  1  0   C } # D for Dihedral angle
| 16> { D 2  1  0  4   C } # D for Dihedral angle
| 17> { D 1  0  4  3   C } # D for Dihedral angle
| 18> { D 16  20  19  18   C } # D for Dihedral angle
| 19> { D 20  19  18  17   C } # D for Dihedral angle
| 20> { D 19  18  17  16   C } # D for Dihedral angle
| 21> { D 18  17  16  20   C } # D for Dihedral angle
| 22> { D 17  16  20  19   C } # D for Dihedral angle
| 23> { D 15  12  16  20   C } # D for Dihedral angle
| 24> end
| 25> end
| 26>
| 27>
| 28> #%pal
| 29> #nprocs 8
| 30> #end
| 31>
| 32> * xyz 0 1
| 33> C  -21.048   26.222   46.251
| 34> C  -20.361   27.558   45.944
| 35> C  -20.329   28.222   47.341
| 36> C  -20.110   27.022   48.296
| 37> O  -20.473   25.807   47.535
| 38> H  -20.833   25.428   45.533
| 39> H  -19.344   27.382   45.576
| 40> H  -20.898   28.157   45.201
| 41> H  -19.543   28.978   47.434
| 42> H  -21.289   28.710   47.548
| 43> H  -20.733   27.082   49.195
| 44> H  -19.064   26.913   48.597
| 45> C  -23.061   27.816   46.783
| 46> H  -23.369   27.806   47.836
| 47> H  -22.244   28.540   46.672
| 48> O  -22.586   26.394   46.375
| 49> C  -24.257   28.318   45.928
| 50> C  -23.929   28.273   44.431
| 51> C  -24.131   26.773   44.111
| 52> C  -25.311   26.372   45.031
| 53> O  -25.405   27.417   46.074
| 54> H  -24.571   29.297   46.293
| 55> O  -24.942   29.143   43.638
| 56> H  -22.917   28.624   44.201
| 57> H  -24.345   26.589   43.053
| 58> H  -23.228   26.207   44.372
| 59> H  -25.159   25.399   45.509
| 60> H  -26.268   26.360   44.501
| 61> H  -25.963   28.809   43.853
| 62> *
| 63>
| 64>                          ****END OF INPUT****
 Total Charge           Charge          ....    0
 Multiplicity           Mult            ....    1
 Number of Electrons    NEL             ....  102
FINAL SINGLE POINT ENERGY      -652.800978865674
FINAL SINGLE POINT ENERGY      -652.833665444664
FINAL SINGLE POINT ENERGY      -652.849879557205
FINAL SINGLE POINT ENERGY      -652.853107577748
FINAL SINGLE POINT ENERGY      -652.853562918948
FINAL SINGLE POINT ENERGY      -652.853630893512
FINAL SINGLE POINT ENERGY      -652.853640445761
FINAL SINGLE POINT ENERGY      -652.853640852293
                    ***********************HURRAY********************

CARTESIAN COORDINATES (ANGSTROEM)
---------------------------------
  C    -21.213799   26.342370   46.460605
  C    -20.294465   27.479788   45.988773
  C    -19.992840   28.233645   47.320918
  C    -19.942770   27.073417   48.349139
  O    -20.622345   25.924479   47.710030
  H    -21.169996   25.460550   45.819584
  H    -19.379000   27.038167   45.584013
  H    -20.742444   28.114248   45.218357
  H    -19.043842   28.777392   47.278038
  H    -20.773503   28.956109   47.567759
  H    -20.449542   27.310705   49.289194
  H    -18.919061   26.755943   48.567051
  C    -23.243033   27.868726   46.855851
  H    -23.634647   27.809882   47.877375
  H    -22.522520   28.691443   46.802165
  O    -22.636547   26.584764   46.531365
  C    -24.397761   28.194665   45.907354
  C    -24.069164   28.304953   44.410874
  C    -24.141890   26.821135   43.958489
  C    -25.282770   26.248941   44.836709
  O    -25.459905   27.192943   45.964331
  H    -24.837871   29.136660   46.259051
  O    -25.051345   29.136907   43.732586
  H    -23.106616   28.775575   44.202534
  H    -24.353572   26.755272   42.887384
  H    -23.199820   26.317327   44.177246
  H    -25.039873   25.264072   45.242371
  H    -26.240380   26.195360   44.308029
  H    -25.949680   28.852561   44.004827

 Multiplicity           Mult            ....    1
 Number of Electrons    NEL             ....  102
 Basis Dimension        Dim             ....  149

ORBITAL ENERGIES
----------------

  NO   OCC          E(Eh)            E(eV)
   0   2.0000     -19.148604      -521.0600
   1   2.0000     -19.143437      -520.9194
   2   2.0000     -19.137621      -520.7612
   3   2.0000     -19.136898      -520.7415
   4   2.0000     -10.285775      -279.8902
   5   2.0000     -10.240311      -278.6530
   6   2.0000     -10.236200      -278.5412
   7   2.0000     -10.234681      -278.4998
   8   2.0000     -10.232449      -278.4391
   9   2.0000     -10.221992      -278.1545
  10   2.0000     -10.200604      -277.5725
  11   2.0000     -10.199701      -277.5480
  12   2.0000     -10.179317      -276.9933
  13   2.0000      -1.055198       -28.7134
  14   2.0000      -1.033898       -28.1338
  15   2.0000      -1.006062       -27.3763
  16   2.0000      -0.997392       -27.1404
  17   2.0000      -0.794693       -21.6247
  18   2.0000      -0.782008       -21.2795
  19   2.0000      -0.767799       -20.8929
  20   2.0000      -0.737890       -20.0790
  21   2.0000      -0.681436       -18.5428
  22   2.0000      -0.611777       -16.6473
  23   2.0000      -0.606282       -16.4978
  24   2.0000      -0.598991       -16.2994
  25   2.0000      -0.569573       -15.4989
  26   2.0000      -0.524138       -14.2625
  27   2.0000      -0.516882       -14.0651
  28   2.0000      -0.506843       -13.7919
  29   2.0000      -0.491117       -13.3640
  30   2.0000      -0.473526       -12.8853
  31   2.0000      -0.454315       -12.3625
  32   2.0000      -0.453198       -12.3321
  33   2.0000      -0.439373       -11.9559
  34   2.0000      -0.426605       -11.6085
  35   2.0000      -0.424001       -11.5376
  36   2.0000      -0.405239       -11.0271
  37   2.0000      -0.389400       -10.5961
  38   2.0000      -0.386961       -10.5298
  39   2.0000      -0.368637       -10.0311
  40   2.0000      -0.367591       -10.0027
  41   2.0000      -0.364439        -9.9169
  42   2.0000      -0.353514        -9.6196
  43   2.0000      -0.328481        -8.9384
  44   2.0000      -0.319812        -8.7025
  45   2.0000      -0.304830        -8.2949
  46   2.0000      -0.300254        -8.1703
  47   2.0000      -0.273258        -7.4357
  48   2.0000      -0.266554        -7.2533
  49   2.0000      -0.259571        -7.0633
  50   2.0000      -0.239268        -6.5108
  51   0.0000       0.059213         1.6113
  52   0.0000       0.072305         1.9675
  53   0.0000       0.084927         2.3110
  54   0.0000       0.094923         2.5830
  55   0.0000       0.107628         2.9287

MULLIKEN ATOMIC CHARGES
-----------------------
   0 C :    0.315821
   1 C :   -0.299183
   2 C :   -0.315536
   3 C :   -0.007277
   4 O :   -0.499723
   5 H :    0.162404
   6 H :    0.162142
   7 H :    0.147945
   8 H :    0.148789
   9 H :    0.152910
  10 H :    0.148228
  11 H :    0.148509
  12 C :   -0.002994
  13 H :    0.160264
  14 H :    0.123503
  15 O :   -0.528021
  16 C :    0.077738
  17 C :    0.076223
  18 C :   -0.286464
  19 C :   -0.014543
  20 O :   -0.524750
  21 H :    0.150166
  22 O :   -0.604820
  23 H :    0.139551
  24 H :    0.151169
  25 H :    0.160193
  26 H :    0.159133
  27 H :    0.134208
  28 H :    0.364413
Sum of atomic charges:   -0.0000000

LOEWDIN ATOMIC CHARGES
----------------------
   0 C :    0.176005
   1 C :   -0.232614
   2 C :   -0.223945
   3 C :   -0.031675
   4 O :   -0.316724
   5 H :    0.110103
   6 H :    0.126472
   7 H :    0.114416
   8 H :    0.117239
   9 H :    0.108909
  10 H :    0.105000
  11 H :    0.105308
  12 C :   -0.038725
  13 H :    0.114610
  14 H :    0.096999
  15 O :   -0.320703
  16 C :    0.012206
  17 C :    0.038169
  18 C :   -0.240285
  19 C :   -0.031109
  20 O :   -0.327885
  21 H :    0.113517
  22 O :   -0.416860
  23 H :    0.108505
  24 H :    0.119063
  25 H :    0.122737
  26 H :    0.112418
  27 H :    0.095763
  28 H :    0.283086

  Mayer bond orders larger than 0.100000
B(  0-C ,  1-C ) :   0.9223 B(  0-C ,  4-O ) :   0.9070 B(  0-C ,  5-H ) :   0.9353
B(  0-C , 15-O ) :   0.8857 B(  1-C ,  2-C ) :   0.9525 B(  1-C ,  6-H ) :   0.9338
B(  1-C ,  7-H ) :   0.9315 B(  2-C ,  3-C ) :   0.9453 B(  2-C ,  8-H ) :   0.9450
B(  2-C ,  9-H ) :   0.9367 B(  3-C ,  4-O ) :   0.8479 B(  3-C , 10-H ) :   0.9340
B(  3-C , 11-H ) :   0.9387 B( 12-C , 13-H ) :   0.9250 B( 12-C , 14-H ) :   0.8974
B( 12-C , 15-O ) :   0.8448 B( 12-C , 16-C ) :   0.8982 B( 16-C , 17-C ) :   0.9075
B( 16-C , 20-O ) :   0.8771 B( 16-C , 21-H ) :   0.9207 B( 17-C , 18-C ) :   0.9239
B( 17-C , 22-O ) :   0.8894 B( 17-C , 23-H ) :   0.9347 B( 18-C , 19-C ) :   0.9454
B( 18-C , 24-H ) :   0.9369 B( 18-C , 25-H ) :   0.9226 B( 19-C , 20-O ) :   0.8364
B( 19-C , 26-H ) :   0.9330 B( 19-C , 27-H ) :   0.9377 B( 22-O , 28-H ) :   0.7950

FINAL SINGLE POINT ENERGY      -652.853639322389

DIPOLE MOMENT
-------------
                                X             Y             Z
Electronic contribution:     -4.38290      -1.94256       0.64968
Nuclear contribution   :      5.39585       2.54766      -0.79181
                        -----------------------------------------
Total Dipole Moment    :      1.01295       0.60511      -0.14213
                        -----------------------------------------
Magnitude (a.u.)       :      1.18846
Magnitude (Debye)      :      3.02082

Rotational constants in cm-1:     0.056352     0.014168     0.013440
Rotational constants in MHz :  1689.392698   424.752365   402.931643

                             ****ORCA TERMINATED NORMALLY****
TOTAL RUN TIME: 0 days 0 hours 51 minutes 46 seconds 118 msec
