                         Program Version 4.2.0 -  RELEASE  -
|  1> # Test redundant internal optimization
|  2> #
|  3> ! RKS B3LYP  Opt TightSCF SmallPrint
|  4>
|  5> %basis
|  6>         Basis "6-31G"
|  7> end
|  8>
|  9> %geom
| 10> Constraints
| 11> { D 4  0  15  12  0.0   C } # D for Dihedral angle
| 12> { D 0  15  12  16  285.0   C } # D for Dihedral angle
| 13> { D 0  4  3  2   C } # D for Dihedral angle
| 14> { D 4  3  2  1   C } # D for Dihedral angle
| 15> { D 3  2  1  0   C } # D for Dihedral angle
| 16> { D 2  1  0  4   C } # D for Dihedral angle
| 17> { D 1  0  4  3   C } # D for Dihedral angle
| 18> { D 16  20  19  18   C } # D for Dihedral angle
| 19> { D 20  19  18  17   C } # D for Dihedral angle
| 20> { D 19  18  17  16   C } # D for Dihedral angle
| 21> { D 18  17  16  20   C } # D for Dihedral angle
| 22> { D 17  16  20  19   C } # D for Dihedral angle
| 23> { D 15  12  16  20   C } # D for Dihedral angle
| 24> end
| 25> end
| 26>
| 27>
| 28> #%pal
| 29> #nprocs 8
| 30> #end
| 31>
| 32> * xyz 0 1
| 33> C  -21.048   26.222   46.251
| 34> C  -20.361   27.558   45.944
| 35> C  -20.329   28.222   47.341
| 36> C  -20.110   27.022   48.296
| 37> O  -20.473   25.807   47.535
| 38> H  -20.833   25.428   45.533
| 39> H  -19.344   27.382   45.576
| 40> H  -20.898   28.157   45.201
| 41> H  -19.543   28.978   47.434
| 42> H  -21.289   28.710   47.548
| 43> H  -20.733   27.082   49.195
| 44> H  -19.064   26.913   48.597
| 45> C  -23.172   26.101   47.783
| 46> H  -22.548   26.588   48.543
| 47> H  -24.190   26.502   47.867
| 48> O  -22.586   26.394   46.375
| 49> C  -23.235   24.581   48.103
| 50> C  -21.831   23.970   48.176
| 51> C  -21.372   24.405   49.588
| 52> C  -22.682   24.353   50.415
| 53> O  -23.794   24.362   49.441
| 54> H  -23.905   24.094   47.393
| 55> O  -21.920   22.422   48.081
| 56> H  -21.164   24.325   47.383
| 57> H  -20.593   23.756   49.999
| 58> H  -20.975   25.426   49.556
| 59> H  -22.786   25.210   51.088
| 60> H  -22.771   23.433   50.998
| 61> H  -22.583   22.041   48.867
| 62> *
| 63>
| 64>                          ****END OF INPUT****
 Total Charge           Charge          ....    0
 Multiplicity           Mult            ....    1
 Number of Electrons    NEL             ....  102
FINAL SINGLE POINT ENERGY      -652.798123979110
FINAL SINGLE POINT ENERGY      -652.836229920855
FINAL SINGLE POINT ENERGY      -652.854391056174
FINAL SINGLE POINT ENERGY      -652.857519822189
FINAL SINGLE POINT ENERGY      -652.857998592933
FINAL SINGLE POINT ENERGY      -652.858074321682
FINAL SINGLE POINT ENERGY      -652.858080411723
FINAL SINGLE POINT ENERGY      -652.858081173084
                    ***********************HURRAY********************

CARTESIAN COORDINATES (ANGSTROEM)
---------------------------------
  C    -20.984182   26.344861   46.260405
  C    -20.498651   27.748402   45.891010
  C    -20.309114   28.394282   47.285021
  C    -19.816798   27.217707   48.155280
  O    -20.181727   25.979321   47.406038
  H    -20.782836   25.586682   45.499659
  H    -19.544011   27.671616   45.357950
  H    -21.219495   28.275887   45.263570
  H    -19.595623   29.223730   47.272352
  H    -21.267119   28.777254   47.651224
  H    -20.282700   27.183850   49.143923
  H    -18.729296   27.198274   48.270682
  C    -23.076755   26.011213   47.724860
  H    -22.636780   26.579756   48.556735
  H    -24.102247   26.358186   47.587567
  O    -22.418297   26.345717   46.470036
  C    -23.129658   24.517170   48.108763
  C    -21.840977   23.711377   48.339036
  C    -21.450470   24.144633   49.778102
  C    -22.824165   24.322029   50.472786
  O    -23.833805   24.445129   49.396977
  H    -23.752721   23.990242   47.377977
  O    -22.142424   22.286458   48.270119
  H    -21.051417   23.887546   47.617530
  H    -20.827233   23.384736   50.256783
  H    -20.892118   25.082129   49.738468
  H    -22.870493   25.213588   51.107051
  H    -23.103362   23.452738   51.077365
  H    -22.967524   22.109489   48.769730

 Multiplicity           Mult            ....    1
 Number of Electrons    NEL             ....  102
 Basis Dimension        Dim             ....  149

ORBITAL ENERGIES
----------------

  NO   OCC          E(Eh)            E(eV)
   0   2.0000     -19.160153      -521.3743
   1   2.0000     -19.140937      -520.8514
   2   2.0000     -19.140883      -520.8499
   3   2.0000     -19.127614      -520.4888
   4   2.0000     -10.285684      -279.8877
   5   2.0000     -10.240812      -278.6667
   6   2.0000     -10.232690      -278.4456
   7   2.0000     -10.227138      -278.2946
   8   2.0000     -10.226773      -278.2847
   9   2.0000     -10.226451      -278.2759
  10   2.0000     -10.196948      -277.4731
  11   2.0000     -10.190654      -277.3018
  12   2.0000     -10.178911      -276.9822
  13   2.0000      -1.060272       -28.8515
  14   2.0000      -1.031418       -28.0663
  15   2.0000      -0.999118       -27.1874
  16   2.0000      -0.995673       -27.0936
  17   2.0000      -0.797037       -21.6885
  18   2.0000      -0.770945       -20.9785
  19   2.0000      -0.765937       -20.8422
  20   2.0000      -0.737613       -20.0715
  21   2.0000      -0.675564       -18.3830
  22   2.0000      -0.611303       -16.6344
  23   2.0000      -0.600594       -16.3430
  24   2.0000      -0.594601       -16.1799
  25   2.0000      -0.570362       -15.5203
  26   2.0000      -0.525005       -14.2861
  27   2.0000      -0.510406       -13.8888
  28   2.0000      -0.509417       -13.8619
  29   2.0000      -0.480590       -13.0775
  30   2.0000      -0.476533       -12.9671
  31   2.0000      -0.455517       -12.3953
  32   2.0000      -0.454442       -12.3660
  33   2.0000      -0.431384       -11.7385
  34   2.0000      -0.420282       -11.4365
  35   2.0000      -0.413829       -11.2609
  36   2.0000      -0.410071       -11.1586
  37   2.0000      -0.385957       -10.5024
  38   2.0000      -0.379235       -10.3195
  39   2.0000      -0.368677       -10.0322
  40   2.0000      -0.360488        -9.8094
  41   2.0000      -0.355734        -9.6800
  42   2.0000      -0.351871        -9.5749
  43   2.0000      -0.337751        -9.1907
  44   2.0000      -0.323777        -8.8104
  45   2.0000      -0.311059        -8.4643
  46   2.0000      -0.298499        -8.1226
  47   2.0000      -0.270959        -7.3732
  48   2.0000      -0.268695        -7.3116
  49   2.0000      -0.257507        -7.0071
  50   2.0000      -0.234886        -6.3916
  51   0.0000       0.058026         1.5790
  52   0.0000       0.072200         1.9647
  53   0.0000       0.088583         2.4105
  54   0.0000       0.096332         2.6213
  55   0.0000       0.107433         2.9234

MULLIKEN ATOMIC CHARGES
-----------------------
   0 C :    0.309164
   1 C :   -0.256934
   2 C :   -0.310677
   3 C :   -0.018700
   4 O :   -0.522191
   5 H :    0.160943
   6 H :    0.146924
   7 H :    0.164851
   8 H :    0.150129
   9 H :    0.158161
  10 H :    0.143530
  11 H :    0.156769
  12 C :    0.002276
  13 H :    0.119428
  14 H :    0.170111
  15 O :   -0.543189
  16 C :    0.046919
  17 C :    0.089107
  18 C :   -0.304004
  19 C :   -0.030728
  20 O :   -0.529978
  21 H :    0.159829
  22 O :   -0.607341
  23 H :    0.187737
  24 H :    0.157409
  25 H :    0.156163
  26 H :    0.139750
  27 H :    0.144057
  28 H :    0.360485
Sum of atomic charges:   -0.0000000

LOEWDIN ATOMIC CHARGES
----------------------
   0 C :    0.182054
   1 C :   -0.218169
   2 C :   -0.218912
   3 C :   -0.033939
   4 O :   -0.321425
   5 H :    0.105779
   6 H :    0.114877
   7 H :    0.127997
   8 H :    0.118933
   9 H :    0.116104
  10 H :    0.099402
  11 H :    0.109458
  12 C :   -0.032062
  13 H :    0.089139
  14 H :    0.125007
  15 O :   -0.341793
  16 C :    0.005332
  17 C :    0.036304
  18 C :   -0.240519
  19 C :   -0.040269
  20 O :   -0.332598
  21 H :    0.113620
  22 O :   -0.419128
  23 H :    0.132485
  24 H :    0.124217
  25 H :    0.117819
  26 H :    0.100103
  27 H :    0.100818
  28 H :    0.279368

  Mayer bond orders larger than 0.100000
B(  0-C ,  1-C ) :   0.9329 B(  0-C ,  4-O ) :   0.8867 B(  0-C ,  5-H ) :   0.9281
B(  0-C , 15-O ) :   0.8505 B(  1-C ,  2-C ) :   0.9530 B(  1-C ,  6-H ) :   0.9351
B(  1-C ,  7-H ) :   0.9362 B(  2-C ,  3-C ) :   0.9536 B(  2-C ,  8-H ) :   0.9437
B(  2-C ,  9-H ) :   0.9448 B(  3-C ,  4-O ) :   0.8241 B(  3-C , 10-H ) :   0.9267
B(  3-C , 11-H ) :   0.9391 B( 12-C , 13-H ) :   0.9248 B( 12-C , 14-H ) :   0.9342
B( 12-C , 15-O ) :   0.8369 B( 12-C , 16-C ) :   0.8786 B( 16-C , 17-C ) :   0.9172
B( 16-C , 20-O ) :   0.8252 B( 16-C , 21-H ) :   0.9256 B( 17-C , 18-C ) :   0.9171
B( 17-C , 22-O ) :   0.8714 B( 17-C , 23-H ) :   0.9144 B( 18-C , 19-C ) :   0.9415
B( 18-C , 24-H ) :   0.9390 B( 18-C , 25-H ) :   0.9237 B( 19-C , 20-O ) :   0.8408
B( 19-C , 26-H ) :   0.9366 B( 19-C , 27-H ) :   0.9379 B( 22-O , 28-H ) :   0.7961

FINAL SINGLE POINT ENERGY      -652.858081065012

DIPOLE MOMENT
-------------
                                X             Y             Z
Electronic contribution:     -3.27569      -4.73090      -2.24612
Nuclear contribution   :      3.99778       6.05076       2.74907
                        -----------------------------------------
Total Dipole Moment    :      0.72209       1.31986       0.50294
                        -----------------------------------------
Magnitude (a.u.)       :      1.58631
Magnitude (Debye)      :      4.03208

Rotational constants in cm-1:     0.049140     0.016360     0.015931
Rotational constants in MHz :  1473.192878   490.460641   477.612499

                             ****ORCA TERMINATED NORMALLY****
TOTAL RUN TIME: 0 days 1 hours 15 minutes 53 seconds 315 msec
