                         Program Version 4.2.0 -  RELEASE  -
|  1> # Test redundant internal optimization
|  2> #
|  3> ! RKS B3LYP  Opt TightSCF SmallPrint
|  4>
|  5> %basis
|  6>         Basis "6-31G"
|  7> end
|  8>
|  9> %geom
| 10> Constraints
| 11> { D 4  0  15  12  330.0   C } # D for Dihedral angle
| 12> { D 0  15  12  16  135.0   C } # D for Dihedral angle
| 13> { D 0  4  3  2   C } # D for Dihedral angle
| 14> { D 4  3  2  1   C } # D for Dihedral angle
| 15> { D 3  2  1  0   C } # D for Dihedral angle
| 16> { D 2  1  0  4   C } # D for Dihedral angle
| 17> { D 1  0  4  3   C } # D for Dihedral angle
| 18> { D 16  20  19  18   C } # D for Dihedral angle
| 19> { D 20  19  18  17   C } # D for Dihedral angle
| 20> { D 19  18  17  16   C } # D for Dihedral angle
| 21> { D 18  17  16  20   C } # D for Dihedral angle
| 22> { D 17  16  20  19   C } # D for Dihedral angle
| 23> { D 15  12  16  20   C } # D for Dihedral angle
| 24> end
| 25> end
| 26>
| 27>
| 28> #%pal
| 29> #nprocs 8
| 30> #end
| 31>
| 32> * xyz 0 1
| 33> C  -21.048   26.222   46.251
| 34> C  -20.361   27.558   45.944
| 35> C  -20.329   28.222   47.341
| 36> C  -20.110   27.022   48.296
| 37> O  -20.473   25.807   47.535
| 38> H  -20.833   25.428   45.533
| 39> H  -19.344   27.382   45.576
| 40> H  -20.898   28.157   45.201
| 41> H  -19.543   28.978   47.434
| 42> H  -21.289   28.710   47.548
| 43> H  -20.733   27.082   49.195
| 44> H  -19.064   26.913   48.597
| 45> C  -23.271   25.476   47.424
| 46> H  -23.796   24.663   46.906
| 47> H  -22.522   25.030   48.091
| 48> O  -22.586   26.394   46.375
| 49> C  -24.298   26.236   48.308
| 50> C  -24.868   25.329   49.404
| 51> C  -23.726   25.344   50.448
| 52> C  -23.169   26.785   50.339
| 53> O  -23.639   27.320   49.043
| 54> H  -25.052   26.696   47.666
| 55> H  -25.780   25.769   49.822
| 56> O  -25.203   23.898   48.900
| 57> H  -24.072   25.106   51.460
| 58> H  -22.957   24.611   50.176
| 59> H  -22.073   26.814   50.363
| 60> H  -23.558   27.444   51.120
| 61> H  -24.304   23.436   48.477
| 62> *
| 63>
| 64>                          ****END OF INPUT****
 Total Charge           Charge          ....    0
 Multiplicity           Mult            ....    1
 Number of Electrons    NEL             ....  102
FINAL SINGLE POINT ENERGY      -652.830603514363
FINAL SINGLE POINT ENERGY      -652.854773043336
FINAL SINGLE POINT ENERGY      -652.860431163336
FINAL SINGLE POINT ENERGY      -652.861282791668
FINAL SINGLE POINT ENERGY      -652.861481290728
FINAL SINGLE POINT ENERGY      -652.861529859271
FINAL SINGLE POINT ENERGY      -652.861535511493
                    ***********************HURRAY********************

CARTESIAN COORDINATES (ANGSTROEM)
---------------------------------
  C    -21.045487   26.215986   46.247806
  C    -20.537108   27.631194   45.976876
  C    -20.414730   28.199312   47.407658
  C    -19.971896   26.979547   48.240013
  O    -20.303703   25.783065   47.410575
  H    -20.827238   25.477935   45.469114
  H    -19.561713   27.575610   45.479486
  H    -21.228206   28.197779   45.349213
  H    -19.701544   29.026903   47.472245
  H    -21.395238   28.542226   47.747109
  H    -20.495541   26.902639   49.193924
  H    -18.892065   26.940031   48.411867
  C    -23.112708   25.387220   47.393748
  H    -23.663901   24.612974   46.843523
  H    -22.339165   24.913519   48.009558
  O    -22.480853   26.289595   46.446882
  C    -24.096261   26.190528   48.243500
  C    -24.846997   25.374145   49.310585
  C    -23.829239   25.382188   50.489644
  C    -23.180871   26.777731   50.376818
  O    -23.464476   27.271309   49.000842
  H    -24.788674   26.691697   47.560107
  H    -25.761558   25.899919   49.591933
  O    -25.295769   24.062190   48.897473
  H    -24.313254   25.213939   51.455335
  H    -23.089815   24.584589   50.337590
  H    -22.099555   26.756774   50.539134
  H    -23.626189   27.498746   51.068569
  H    -24.535246   23.452712   48.801873

 Multiplicity           Mult            ....    1
 Number of Electrons    NEL             ....  102
 Basis Dimension        Dim             ....  149

ORBITAL ENERGIES
----------------

  NO   OCC          E(Eh)            E(eV)
   0   2.0000     -19.149609      -521.0873
   1   2.0000     -19.145096      -520.9645
   2   2.0000     -19.142657      -520.8982
   3   2.0000     -19.134828      -520.6851
   4   2.0000     -10.274855      -279.5930
   5   2.0000     -10.245380      -278.7910
   6   2.0000     -10.233453      -278.4664
   7   2.0000     -10.228885      -278.3421
   8   2.0000     -10.224261      -278.2163
   9   2.0000     -10.224191      -278.2144
  10   2.0000     -10.196011      -277.4476
  11   2.0000     -10.178603      -276.9739
  12   2.0000     -10.176007      -276.9032
  13   2.0000      -1.050916       -28.5969
  14   2.0000      -1.033840       -28.1322
  15   2.0000      -1.016680       -27.6653
  16   2.0000      -0.988615       -26.9016
  17   2.0000      -0.786305       -21.3965
  18   2.0000      -0.781642       -21.2696
  19   2.0000      -0.765221       -20.8227
  20   2.0000      -0.730045       -19.8655
  21   2.0000      -0.676922       -18.4200
  22   2.0000      -0.612589       -16.6694
  23   2.0000      -0.596613       -16.2347
  24   2.0000      -0.587122       -15.9764
  25   2.0000      -0.571303       -15.5460
  26   2.0000      -0.527934       -14.3658
  27   2.0000      -0.512470       -13.9450
  28   2.0000      -0.493104       -13.4180
  29   2.0000      -0.486824       -13.2472
  30   2.0000      -0.472723       -12.8634
  31   2.0000      -0.459170       -12.4946
  32   2.0000      -0.442174       -12.0322
  33   2.0000      -0.435284       -11.8447
  34   2.0000      -0.425373       -11.5750
  35   2.0000      -0.413390       -11.2489
  36   2.0000      -0.402982       -10.9657
  37   2.0000      -0.394062       -10.7230
  38   2.0000      -0.379808       -10.3351
  39   2.0000      -0.368782       -10.0351
  40   2.0000      -0.355188        -9.6652
  41   2.0000      -0.349272        -9.5042
  42   2.0000      -0.342949        -9.3321
  43   2.0000      -0.331845        -9.0300
  44   2.0000      -0.329043        -8.9537
  45   2.0000      -0.314999        -8.5716
  46   2.0000      -0.294164        -8.0046
  47   2.0000      -0.271361        -7.3841
  48   2.0000      -0.260814        -7.0971
  49   2.0000      -0.258076        -7.0226
  50   2.0000      -0.238916        -6.5012
  51   0.0000       0.051334         1.3969
  52   0.0000       0.066726         1.8157
  53   0.0000       0.091741         2.4964
  54   0.0000       0.100801         2.7429
  55   0.0000       0.103489         2.8161

MULLIKEN ATOMIC CHARGES
-----------------------
   0 C :    0.303268
   1 C :   -0.260202
   2 C :   -0.308099
   3 C :   -0.020030
   4 O :   -0.518905
   5 H :    0.143964
   6 H :    0.139430
   7 H :    0.161351
   8 H :    0.136141
   9 H :    0.190772
  10 H :    0.146780
  11 H :    0.144053
  12 C :   -0.023915
  13 H :    0.133856
  14 H :    0.151045
  15 O :   -0.530948
  16 C :    0.100104
  17 C :    0.081486
  18 C :   -0.315906
  19 C :   -0.022757
  20 O :   -0.511946
  21 H :    0.164954
  22 H :    0.168913
  23 O :   -0.598426
  24 H :    0.154669
  25 H :    0.137949
  26 H :    0.143220
  27 H :    0.152596
  28 H :    0.356581
Sum of atomic charges:    0.0000000

LOEWDIN ATOMIC CHARGES
----------------------
   0 C :    0.182044
   1 C :   -0.215044
   2 C :   -0.220959
   3 C :   -0.029342
   4 O :   -0.327079
   5 H :    0.095445
   6 H :    0.110725
   7 H :    0.126726
   8 H :    0.111924
   9 H :    0.132861
  10 H :    0.101645
  11 H :    0.102796
  12 C :   -0.055144
  13 H :    0.100419
  14 H :    0.105792
  15 O :   -0.330494
  16 C :    0.018149
  17 C :    0.035380
  18 C :   -0.239475
  19 C :   -0.033037
  20 O :   -0.318773
  21 H :    0.119017
  22 H :    0.119841
  23 O :   -0.405153
  24 H :    0.121947
  25 H :    0.106629
  26 H :    0.098112
  27 H :    0.106768
  28 H :    0.278284

  Mayer bond orders larger than 0.100000
B(  0-C ,  1-C ) :   0.9449 B(  0-C ,  4-O ) :   0.9038 B(  0-C ,  5-H ) :   0.9245
B(  0-C , 15-O ) :   0.8491 B(  1-C ,  2-C ) :   0.9558 B(  1-C ,  6-H ) :   0.9383
B(  1-C ,  7-H ) :   0.9355 B(  2-C ,  3-C ) :   0.9598 B(  2-C ,  8-H ) :   0.9441
B(  2-C ,  9-H ) :   0.9269 B(  3-C ,  4-O ) :   0.8275 B(  3-C , 10-H ) :   0.9228
B(  3-C , 11-H ) :   0.9404 B( 12-C , 13-H ) :   0.9126 B( 12-C , 14-H ) :   0.9072
B( 12-C , 15-O ) :   0.8426 B( 12-C , 16-C ) :   0.9049 B( 16-C , 17-C ) :   0.8739
B( 16-C , 20-O ) :   0.8551 B( 16-C , 21-H ) :   0.9299 B( 17-C , 18-C ) :   0.9197
B( 17-C , 22-H ) :   0.9330 B( 17-C , 23-O ) :   0.8983 B( 18-C , 19-C ) :   0.9424
B( 18-C , 24-H ) :   0.9426 B( 18-C , 25-H ) :   0.9413 B( 19-C , 20-O ) :   0.8523
B( 19-C , 26-H ) :   0.9181 B( 19-C , 27-H ) :   0.9371 B( 23-O , 28-H ) :   0.7977

FINAL SINGLE POINT ENERGY      -652.861535259224

DIPOLE MOMENT
-------------
                                X             Y             Z
Electronic contribution:     -3.03443      -2.19138      -2.53064
Nuclear contribution   :      3.70387       2.16449       3.25808
                        -----------------------------------------
Total Dipole Moment    :      0.66944      -0.02689       0.72744
                        -----------------------------------------
Magnitude (a.u.)       :      0.98896
Magnitude (Debye)      :      2.51373

Rotational constants in cm-1:     0.049240     0.016733     0.014848
Rotational constants in MHz :  1476.165680   501.631354   445.140292

                             ****ORCA TERMINATED NORMALLY****
TOTAL RUN TIME: 0 days 2 hours 16 minutes 59 seconds 358 msec
