                         Program Version 4.2.0 -  RELEASE  -
|  1> # Test redundant internal optimization
|  2> #
|  3> ! RKS B3LYP  Opt TightSCF SmallPrint
|  4>
|  5> %basis
|  6>         Basis "6-31G"
|  7> end
|  8>
|  9> %geom
| 10> Constraints
| 11> { D 4  0  15  12  75.0   C } # D for Dihedral angle
| 12> { D 0  15  12  16  300.0   C } # D for Dihedral angle
| 13> { D 0  4  3  2   C } # D for Dihedral angle
| 14> { D 4  3  2  1   C } # D for Dihedral angle
| 15> { D 3  2  1  0   C } # D for Dihedral angle
| 16> { D 2  1  0  4   C } # D for Dihedral angle
| 17> { D 1  0  4  3   C } # D for Dihedral angle
| 18> { D 16  20  19  18   C } # D for Dihedral angle
| 19> { D 20  19  18  17   C } # D for Dihedral angle
| 20> { D 19  18  17  16   C } # D for Dihedral angle
| 21> { D 18  17  16  20   C } # D for Dihedral angle
| 22> { D 17  16  20  19   C } # D for Dihedral angle
| 23> { D 15  12  16  20   C } # D for Dihedral angle
| 24> end
| 25> end
| 26>
| 27>
| 28> #%pal
| 29> #nprocs 8
| 30> #end
| 31>
| 32> * xyz 0 1
| 33> C  -21.048   26.222   46.251
| 34> C  -20.361   27.558   45.944
| 35> C  -20.329   28.222   47.341
| 36> C  -20.110   27.022   48.296
| 37> O  -20.473   25.807   47.535
| 38> H  -20.833   25.428   45.533
| 39> H  -19.344   27.382   45.576
| 40> H  -20.898   28.157   45.201
| 41> H  -19.543   28.978   47.434
| 42> H  -21.289   28.710   47.548
| 43> H  -20.733   27.082   49.195
| 44> H  -19.064   26.913   48.597
| 45> C  -23.049   27.675   47.122
| 46> H  -22.683   28.559   46.586
| 47> H  -24.145   27.724   47.156
| 48> O  -22.586   26.394   46.375
| 49> C  -22.527   27.739   48.584
| 50> C  -23.097   28.954   49.325
| 51> C  -24.517   28.461   49.691
| 52> C  -24.304   26.953   49.973
| 53> O  -23.012   26.588   49.353
| 54> H  -21.437   27.684   48.577
| 55> H  -22.511   29.152   50.230
| 56> O  -23.111   30.244   48.461
| 57> H  -24.942   28.990   50.550
| 58> H  -25.195   28.603   48.841
| 59> H  -25.096   26.329   49.543
| 60> H  -24.222   26.735   51.041
| 61> H  -23.693   30.071   47.549
| 62> *
| 63>
| 64>                          ****END OF INPUT****
 Total Charge           Charge          ....    0
 Multiplicity           Mult            ....    1
 Number of Electrons    NEL             ....  102
FINAL SINGLE POINT ENERGY      -652.707481227357
FINAL SINGLE POINT ENERGY      -652.807922428962
FINAL SINGLE POINT ENERGY      -652.833096333648
FINAL SINGLE POINT ENERGY      -652.841300876772
FINAL SINGLE POINT ENERGY      -652.842782666290
FINAL SINGLE POINT ENERGY      -652.843369032373
FINAL SINGLE POINT ENERGY      -652.843503022204
FINAL SINGLE POINT ENERGY      -652.843576166661
FINAL SINGLE POINT ENERGY      -652.843588634771
FINAL SINGLE POINT ENERGY      -652.843590306327
                    ***********************HURRAY********************

CARTESIAN COORDINATES (ANGSTROEM)
---------------------------------
  C    -21.087052   26.342953   46.342257
  C    -20.188833   27.475202   45.823940
  C    -19.681753   28.122235   47.146416
  C    -19.547151   26.894558   48.086556
  O    -20.357187   25.817280   47.471717
  H    -21.146378   25.508531   45.640789
  H    -19.356952   27.031599   45.267137
  H    -20.716037   28.175073   45.169809
  H    -18.725305   28.638558   47.018435
  H    -20.400899   28.856807   47.520626
  H    -19.902951   27.073824   49.105259
  H    -18.517697   26.526767   48.134905
  C    -23.084727   27.728765   47.240689
  H    -22.826000   28.675952   46.740740
  H    -24.156441   27.552898   47.108078
  O    -22.494103   26.613921   46.519116
  C    -22.758716   27.876760   48.730453
  C    -23.504925   29.054482   49.383847
  C    -24.900837   28.424965   49.684306
  C    -24.541836   26.965218   50.041954
  O    -23.174833   26.719939   49.516962
  H    -21.685779   27.965022   48.882222
  H    -23.003492   29.320394   50.317358
  O    -23.528214   30.285039   48.619771
  H    -25.421808   28.946138   50.491852
  H    -25.529924   28.477725   48.785775
  H    -25.227989   26.236329   49.600522
  H    -24.502311   26.802939   51.123191
  H    -24.181869   30.226124   47.893316

 Multiplicity           Mult            ....    1
 Number of Electrons    NEL             ....  102
 Basis Dimension        Dim             ....  149

ORBITAL ENERGIES
----------------

  NO   OCC          E(Eh)            E(eV)
   0   2.0000     -19.154830      -521.2294
   1   2.0000     -19.138169      -520.7761
   2   2.0000     -19.136815      -520.7392
   3   2.0000     -19.136287      -520.7248
   4   2.0000     -10.273263      -279.5497
   5   2.0000     -10.249185      -278.8945
   6   2.0000     -10.232909      -278.4516
   7   2.0000     -10.232271      -278.4342
   8   2.0000     -10.230713      -278.3918
   9   2.0000     -10.224788      -278.2306
  10   2.0000     -10.198259      -277.5087
  11   2.0000     -10.190239      -277.2905
  12   2.0000     -10.187393      -277.2131
  13   2.0000      -1.044434       -28.4205
  14   2.0000      -1.036387       -28.2015
  15   2.0000      -1.016798       -27.6685
  16   2.0000      -0.991783       -26.9878
  17   2.0000      -0.785964       -21.3872
  18   2.0000      -0.784445       -21.3458
  19   2.0000      -0.772217       -21.0131
  20   2.0000      -0.732013       -19.9191
  21   2.0000      -0.685514       -18.6538
  22   2.0000      -0.614086       -16.7101
  23   2.0000      -0.608811       -16.5666
  24   2.0000      -0.599848       -16.3227
  25   2.0000      -0.563133       -15.3236
  26   2.0000      -0.526959       -14.3393
  27   2.0000      -0.506585       -13.7849
  28   2.0000      -0.505030       -13.7426
  29   2.0000      -0.493440       -13.4272
  30   2.0000      -0.466425       -12.6921
  31   2.0000      -0.452059       -12.3011
  32   2.0000      -0.449072       -12.2199
  33   2.0000      -0.432902       -11.7799
  34   2.0000      -0.429842       -11.6966
  35   2.0000      -0.421402       -11.4669
  36   2.0000      -0.412362       -11.2209
  37   2.0000      -0.403349       -10.9757
  38   2.0000      -0.379900       -10.3376
  39   2.0000      -0.376488       -10.2447
  40   2.0000      -0.357958        -9.7405
  41   2.0000      -0.356565        -9.7026
  42   2.0000      -0.344207        -9.3664
  43   2.0000      -0.333314        -9.0699
  44   2.0000      -0.317945        -8.6517
  45   2.0000      -0.309550        -8.4233
  46   2.0000      -0.296792        -8.0761
  47   2.0000      -0.274496        -7.4694
  48   2.0000      -0.260370        -7.0850
  49   2.0000      -0.254333        -6.9208
  50   2.0000      -0.235268        -6.4020
  51   0.0000       0.047807         1.3009
  52   0.0000       0.074964         2.0399
  53   0.0000       0.080966         2.2032
  54   0.0000       0.087312         2.3759
  55   0.0000       0.099851         2.7171

MULLIKEN ATOMIC CHARGES
-----------------------
   0 C :    0.308591
   1 C :   -0.282732
   2 C :   -0.325201
   3 C :   -0.016627
   4 O :   -0.495328
   5 H :    0.167091
   6 H :    0.155986
   7 H :    0.146720
   8 H :    0.146173
   9 H :    0.156962
  10 H :    0.158732
  11 H :    0.145606
  12 C :   -0.005049
  13 H :    0.119513
  14 H :    0.148657
  15 O :   -0.520675
  16 C :    0.072457
  17 C :    0.079933
  18 C :   -0.326669
  19 C :   -0.011647
  20 O :   -0.499924
  21 H :    0.154268
  22 H :    0.167584
  23 O :   -0.598139
  24 H :    0.159094
  25 H :    0.135855
  26 H :    0.151332
  27 H :    0.150743
  28 H :    0.356697
Sum of atomic charges:   -0.0000000

LOEWDIN ATOMIC CHARGES
----------------------
   0 C :    0.176162
   1 C :   -0.229758
   2 C :   -0.227268
   3 C :   -0.036918
   4 O :   -0.312081
   5 H :    0.113520
   6 H :    0.121648
   7 H :    0.116889
   8 H :    0.116336
   9 H :    0.110545
  10 H :    0.105164
  11 H :    0.104658
  12 C :   -0.048015
  13 H :    0.090275
  14 H :    0.111489
  15 O :   -0.313150
  16 C :    0.004130
  17 C :    0.033984
  18 C :   -0.242395
  19 C :   -0.029739
  20 O :   -0.310626
  21 H :    0.114408
  22 H :    0.118937
  23 O :   -0.407475
  24 H :    0.123029
  25 H :    0.104658
  26 H :    0.106639
  27 H :    0.106694
  28 H :    0.278260

  Mayer bond orders larger than 0.100000
B(  0-C ,  1-C ) :   0.9151 B(  0-C ,  4-O ) :   0.9060 B(  0-C ,  5-H ) :   0.9375
B(  0-C , 15-O ) :   0.8989 B(  1-C ,  2-C ) :   0.9546 B(  1-C ,  6-H ) :   0.9359
B(  1-C ,  7-H ) :   0.9372 B(  2-C ,  3-C ) :   0.9460 B(  2-C ,  8-H ) :   0.9447
B(  2-C ,  9-H ) :   0.9347 B(  3-C ,  4-O ) :   0.8467 B(  3-C , 10-H ) :   0.9189
B(  3-C , 11-H ) :   0.9368 B( 12-C , 13-H ) :   0.8997 B( 12-C , 14-H ) :   0.9383
B( 12-C , 15-O ) :   0.8668 B( 12-C , 16-C ) :   0.8868 B( 16-C , 17-C ) :   0.8671
B( 16-C , 20-O ) :   0.8721 B( 16-C , 21-H ) :   0.9103 B( 17-C , 18-C ) :   0.9238
B( 17-C , 22-H ) :   0.9324 B( 17-C , 23-O ) :   0.8978 B( 18-C , 19-C ) :   0.9380
B( 18-C , 24-H ) :   0.9414 B( 18-C , 25-H ) :   0.9406 B( 19-C , 20-O ) :   0.8504
B( 19-C , 26-H ) :   0.9303 B( 19-C , 27-H ) :   0.9373 B( 23-O , 28-H ) :   0.7977

FINAL SINGLE POINT ENERGY      -652.843588921223

DIPOLE MOMENT
-------------
                                X             Y             Z
Electronic contribution:     -0.77513      -3.37928      -0.18841
Nuclear contribution   :      0.38296       4.53928       0.06247
                        -----------------------------------------
Total Dipole Moment    :     -0.39217       1.16000      -0.12594
                        -----------------------------------------
Magnitude (a.u.)       :      1.23096
Magnitude (Debye)      :      3.12885

Rotational constants in cm-1:     0.045769     0.016615     0.015314
Rotational constants in MHz :  1372.114716   498.108309   459.102942

                             ****ORCA TERMINATED NORMALLY****
TOTAL RUN TIME: 0 days 0 hours 35 minutes 10 seconds 49 msec
