                         Program Version 4.2.0 -  RELEASE  -
|  1> # Test redundant internal optimization
|  2> #
|  3> ! RKS B3LYP  Opt TightSCF SmallPrint
|  4>
|  5> %basis
|  6>         Basis "6-31G"
|  7> end
|  8>
|  9> %geom
| 10> Constraints
| 11> { D 4  0  15  12  15.0   C } # D for Dihedral angle
| 12> { D 0  15  12  16  180.0   C } # D for Dihedral angle
| 13> { D 0  4  3  2   C } # D for Dihedral angle
| 14> { D 4  3  2  1   C } # D for Dihedral angle
| 15> { D 3  2  1  0   C } # D for Dihedral angle
| 16> { D 2  1  0  4   C } # D for Dihedral angle
| 17> { D 1  0  4  3   C } # D for Dihedral angle
| 18> { D 16  20  19  18   C } # D for Dihedral angle
| 19> { D 20  19  18  17   C } # D for Dihedral angle
| 20> { D 19  18  17  16   C } # D for Dihedral angle
| 21> { D 18  17  16  20   C } # D for Dihedral angle
| 22> { D 17  16  20  19   C } # D for Dihedral angle
| 23> { D 15  12  16  20   C } # D for Dihedral angle
| 24> end
| 25> end
| 26>
| 27>
| 28> #%pal
| 29> #nprocs 8
| 30> #end
| 31>
| 32> * xyz 0 1
| 33> C  -21.048   26.222   46.251
| 34> C  -20.361   27.558   45.944
| 35> C  -20.329   28.222   47.341
| 36> C  -20.110   27.022   48.296
| 37> O  -20.473   25.807   47.535
| 38> H  -20.833   25.428   45.533
| 39> H  -19.344   27.382   45.576
| 40> H  -20.898   28.157   45.201
| 41> H  -19.543   28.978   47.434
| 42> H  -21.289   28.710   47.548
| 43> H  -20.733   27.082   49.195
| 44> H  -19.064   26.913   48.597
| 45> C  -23.128   26.462   47.829
| 46> H  -22.864   25.538   48.358
| 47> H  -22.677   27.306   48.368
| 48> O  -22.586   26.394   46.375
| 49> C  -24.671   26.634   47.888
| 50> C  -25.125   27.863   47.090
| 51> C  -25.085   27.326   45.639
| 52> C  -25.519   25.848   45.799
| 53> O  -25.338   25.508   47.227
| 54> H  -24.992   26.629   48.931
| 55> O  -26.574   28.252   47.491
| 56> H  -24.479   28.735   47.238
| 57> H  -25.741   27.883   44.962
| 58> H  -24.065   27.389   45.242
| 59> H  -24.918   25.166   45.188
| 60> H  -26.577   25.695   45.563
| 61> H  -27.239   27.393   47.350
| 62> *
| 63>
| 64>                          ****END OF INPUT****
 Total Charge           Charge          ....    0
 Multiplicity           Mult            ....    1
 Number of Electrons    NEL             ....  102
FINAL SINGLE POINT ENERGY      -652.832162364415
FINAL SINGLE POINT ENERGY      -652.854556951284
FINAL SINGLE POINT ENERGY      -652.859479834754
FINAL SINGLE POINT ENERGY      -652.860577158115
FINAL SINGLE POINT ENERGY      -652.860693371437
FINAL SINGLE POINT ENERGY      -652.860711606637
                    ***********************HURRAY********************

CARTESIAN COORDINATES (ANGSTROEM)
---------------------------------
  C    -21.126203   26.224568   46.405127
  C    -20.442672   27.528896   45.987168
  C    -20.242139   28.236196   47.351704
  C    -19.953651   27.059864   48.312540
  O    -20.438296   25.838004   47.613006
  H    -20.997144   25.404620   45.696225
  H    -19.478081   27.294243   45.522721
  H    -21.045514   28.106339   45.282958
  H    -19.423452   28.962056   47.333582
  H    -21.154496   28.769244   47.639343
  H    -20.468747   27.143022   49.273444
  H    -18.884836   26.912280   48.490703
  C    -23.147143   26.458677   47.884433
  H    -22.914204   25.547313   48.444493
  H    -22.750699   27.319778   48.442128
  O    -22.569681   26.373374   46.551186
  C    -24.663264   26.609812   47.782939
  C    -25.191380   27.843797   47.035331
  C    -25.156178   27.360349   45.561012
  C    -25.517640   25.858694   45.679955
  O    -25.289542   25.482465   47.094858
  H    -25.051403   26.605533   48.809280
  O    -26.538637   28.172413   47.480013
  H    -24.605625   28.747495   47.207968
  H    -25.868079   27.924535   44.951991
  H    -24.148722   27.481224   45.161258
  H    -24.887916   25.229465   45.046326
  H    -26.570290   25.654565   45.458199
  H    -27.077367   27.353180   47.489108

 Multiplicity           Mult            ....    1
 Number of Electrons    NEL             ....  102
 Basis Dimension        Dim             ....  149

ORBITAL ENERGIES
----------------

  NO   OCC          E(Eh)            E(eV)
   0   2.0000     -19.154355      -521.2165
   1   2.0000     -19.143963      -520.9337
   2   2.0000     -19.133869      -520.6590
   3   2.0000     -19.132685      -520.6268
   4   2.0000     -10.284215      -279.8477
   5   2.0000     -10.237318      -278.5716
   6   2.0000     -10.234580      -278.4971
   7   2.0000     -10.231819      -278.4220
   8   2.0000     -10.231254      -278.4066
   9   2.0000     -10.218836      -278.0687
  10   2.0000     -10.197983      -277.5012
  11   2.0000     -10.192086      -277.3408
  12   2.0000     -10.173501      -276.8350
  13   2.0000      -1.059800       -28.8386
  14   2.0000      -1.030082       -28.0300
  15   2.0000      -1.002400       -27.2767
  16   2.0000      -0.993505       -27.0346
  17   2.0000      -0.795978       -21.6597
  18   2.0000      -0.778114       -21.1736
  19   2.0000      -0.762746       -20.7554
  20   2.0000      -0.736508       -20.0414
  21   2.0000      -0.672944       -18.3117
  22   2.0000      -0.610043       -16.6001
  23   2.0000      -0.601650       -16.3717
  24   2.0000      -0.594162       -16.1680
  25   2.0000      -0.569163       -15.4877
  26   2.0000      -0.524692       -14.2776
  27   2.0000      -0.513920       -13.9845
  28   2.0000      -0.499608       -13.5950
  29   2.0000      -0.489436       -13.3182
  30   2.0000      -0.471542       -12.8313
  31   2.0000      -0.456656       -12.4262
  32   2.0000      -0.448681       -12.2092
  33   2.0000      -0.437232       -11.8977
  34   2.0000      -0.423709       -11.5297
  35   2.0000      -0.410819       -11.1790
  36   2.0000      -0.405152       -11.0248
  37   2.0000      -0.384320       -10.4579
  38   2.0000      -0.378935       -10.3114
  39   2.0000      -0.369553       -10.0560
  40   2.0000      -0.366649        -9.9770
  41   2.0000      -0.359583        -9.7847
  42   2.0000      -0.349404        -9.5078
  43   2.0000      -0.337451        -9.1825
  44   2.0000      -0.322846        -8.7851
  45   2.0000      -0.311812        -8.4848
  46   2.0000      -0.298846        -8.1320
  47   2.0000      -0.269323        -7.3287
  48   2.0000      -0.263734        -7.1766
  49   2.0000      -0.251422        -6.8415
  50   2.0000      -0.239496        -6.5170
  51   0.0000       0.059804         1.6274
  52   0.0000       0.077621         2.1122
  53   0.0000       0.091446         2.4884
  54   0.0000       0.100003         2.7212
  55   0.0000       0.104959         2.8561

MULLIKEN ATOMIC CHARGES
-----------------------
   0 C :    0.304234
   1 C :   -0.257400
   2 C :   -0.313696
   3 C :   -0.017017
   4 O :   -0.508245
   5 H :    0.163204
   6 H :    0.148194
   7 H :    0.155701
   8 H :    0.150934
   9 H :    0.152425
  10 H :    0.147224
  11 H :    0.153607
  12 C :    0.015585
  13 H :    0.167516
  14 H :    0.113840
  15 O :   -0.545469
  16 C :    0.061548
  17 C :    0.076930
  18 C :   -0.287556
  19 C :   -0.015120
  20 O :   -0.524840
  21 H :    0.155060
  22 O :   -0.603784
  23 H :    0.144063
  24 H :    0.147604
  25 H :    0.167776
  26 H :    0.152927
  27 H :    0.132241
  28 H :    0.362515
Sum of atomic charges:   -0.0000000

LOEWDIN ATOMIC CHARGES
----------------------
   0 C :    0.182698
   1 C :   -0.222944
   2 C :   -0.221286
   3 C :   -0.033509
   4 O :   -0.315184
   5 H :    0.110137
   6 H :    0.116203
   7 H :    0.122225
   8 H :    0.119052
   9 H :    0.111314
  10 H :    0.103316
  11 H :    0.108661
  12 C :   -0.033942
  13 H :    0.115469
  14 H :    0.087372
  15 O :   -0.339970
  16 C :    0.015310
  17 C :    0.038568
  18 C :   -0.242522
  19 C :   -0.032090
  20 O :   -0.328278
  21 H :    0.115143
  22 O :   -0.418102
  23 H :    0.112043
  24 H :    0.117608
  25 H :    0.126955
  26 H :    0.109031
  27 H :    0.094961
  28 H :    0.281761

  Mayer bond orders larger than 0.100000
B(  0-C ,  1-C ) :   0.9246 B(  0-C ,  4-O ) :   0.9147 B(  0-C ,  5-H ) :   0.9326
B(  0-C , 15-O ) :   0.8425 B(  1-C ,  2-C ) :   0.9518 B(  1-C ,  6-H ) :   0.9342
B(  1-C ,  7-H ) :   0.9367 B(  2-C ,  3-C ) :   0.9515 B(  2-C ,  8-H ) :   0.9442
B(  2-C ,  9-H ) :   0.9433 B(  3-C ,  4-O ) :   0.8310 B(  3-C , 10-H ) :   0.9317
B(  3-C , 11-H ) :   0.9394 B( 12-C , 13-H ) :   0.9152 B( 12-C , 14-H ) :   0.9022
B( 12-C , 15-O ) :   0.8287 B( 12-C , 16-C ) :   0.9085 B( 16-C , 17-C ) :   0.9071
B( 16-C , 20-O ) :   0.8741 B( 16-C , 21-H ) :   0.9231 B( 17-C , 18-C ) :   0.9241
B( 17-C , 22-O ) :   0.8895 B( 17-C , 23-H ) :   0.9369 B( 18-C , 19-C ) :   0.9479
B( 18-C , 24-H ) :   0.9371 B( 18-C , 25-H ) :   0.9193 B( 19-C , 20-O ) :   0.8399
B( 19-C , 26-H ) :   0.9338 B( 19-C , 27-H ) :   0.9378 B( 22-O , 28-H ) :   0.7961

FINAL SINGLE POINT ENERGY      -652.860712314217

DIPOLE MOMENT
-------------
                                X             Y             Z
Electronic contribution:     -3.36817      -3.91134       1.21280
Nuclear contribution   :      4.38350       4.63275      -1.47513
                        -----------------------------------------
Total Dipole Moment    :      1.01532       0.72141      -0.26233
                        -----------------------------------------
Magnitude (a.u.)       :      1.27284
Magnitude (Debye)      :      3.23531

Rotational constants in cm-1:     0.054632     0.014137     0.013796
Rotational constants in MHz :  1637.830576   423.813279   413.593753

                             ****ORCA TERMINATED NORMALLY****
TOTAL RUN TIME: 0 days 1 hours 14 minutes 2 seconds 611 msec
