                         Program Version 4.2.0 -  RELEASE  -
|  1> # Test redundant internal optimization
|  2> #
|  3> ! RKS B3LYP  Opt TightSCF SmallPrint
|  4>
|  5> %basis
|  6>         Basis "6-31G"
|  7> end
|  8>
|  9> %geom
| 10> Constraints
| 11> { D 4  0  15  12  225.0   C } # D for Dihedral angle
| 12> { D 0  15  12  16  120.0   C } # D for Dihedral angle
| 13> { D 0  4  3  2   C } # D for Dihedral angle
| 14> { D 4  3  2  1   C } # D for Dihedral angle
| 15> { D 3  2  1  0   C } # D for Dihedral angle
| 16> { D 2  1  0  4   C } # D for Dihedral angle
| 17> { D 1  0  4  3   C } # D for Dihedral angle
| 18> { D 16  20  19  18   C } # D for Dihedral angle
| 19> { D 20  19  18  17   C } # D for Dihedral angle
| 20> { D 19  18  17  16   C } # D for Dihedral angle
| 21> { D 18  17  16  20   C } # D for Dihedral angle
| 22> { D 17  16  20  19   C } # D for Dihedral angle
| 23> { D 15  12  16  20   C } # D for Dihedral angle
| 24> end
| 25> end
| 26>
| 27>
| 28> #%pal
| 29> #nprocs 8
| 30> #end
| 31>
| 32> * xyz 0 1
| 33> C  -21.048   26.222   46.251
| 34> C  -20.361   27.558   45.944
| 35> C  -20.329   28.222   47.341
| 36> C  -20.110   27.022   48.296
| 37> O  -20.473   25.807   47.535
| 38> H  -20.833   25.428   45.533
| 39> H  -19.344   27.382   45.576
| 40> H  -20.898   28.157   45.201
| 41> H  -19.543   28.978   47.434
| 42> H  -21.289   28.710   47.548
| 43> H  -20.733   27.082   49.195
| 44> H  -19.064   26.913   48.597
| 45> C  -23.415   25.773   45.218
| 46> H  -23.989   26.564   44.718
| 47> H  -22.752   25.309   44.476
| 48> O  -22.586   26.394   46.375
| 49> C  -24.410   24.685   45.709
| 50> C  -25.484   25.284   46.624
| 51> C  -26.449   25.923   45.597
| 52> C  -26.392   24.940   44.401
| 53> O  -25.165   24.133   44.579
| 54> H  -23.848   23.860   46.151
| 55> H  -25.987   24.488   47.184
| 56> O  -24.916   26.314   47.639
| 57> H  -27.464   26.045   45.988
| 58> H  -26.083   26.913   45.302
| 59> H  -26.346   25.455   43.436
| 60> H  -27.236   24.245   44.391
| 61> H  -24.407   27.120   47.099
| 62> *
| 63>
| 64>                          ****END OF INPUT****
 Total Charge           Charge          ....    0
 Multiplicity           Mult            ....    1
 Number of Electrons    NEL             ....  102
FINAL SINGLE POINT ENERGY      -652.830408275176
FINAL SINGLE POINT ENERGY      -652.854331940412
FINAL SINGLE POINT ENERGY      -652.860418979634
FINAL SINGLE POINT ENERGY      -652.862734398374
FINAL SINGLE POINT ENERGY      -652.864190012803
FINAL SINGLE POINT ENERGY      -652.865114715141
FINAL SINGLE POINT ENERGY      -652.865584364925
FINAL SINGLE POINT ENERGY      -652.865704648052
FINAL SINGLE POINT ENERGY      -652.865722073245
FINAL SINGLE POINT ENERGY      -652.865725016385
                    ***********************HURRAY********************

CARTESIAN COORDINATES (ANGSTROEM)
---------------------------------
  C    -21.087200   26.181739   46.188626
  C    -20.387634   27.512489   45.922073
  C    -20.488529   28.208997   47.299994
  C    -20.350717   27.035331   48.292172
  O    -20.640894   25.807940   47.498312
  H    -20.834413   25.366284   45.504790
  H    -19.341281   27.322929   45.654964
  H    -20.858721   28.080882   45.116381
  H    -19.715268   28.969203   47.444001
  H    -21.466147   28.690193   47.400719
  H    -21.055891   27.083630   49.125290
  H    -19.335097   26.919847   48.680622
  C    -23.327679   25.783652   45.107764
  H    -23.833041   26.602336   44.585273
  H    -22.677524   25.265934   44.392115
  O    -22.536249   26.361526   46.198932
  C    -24.328128   24.783914   45.697669
  C    -25.368702   25.397660   46.648842
  C    -26.391322   26.005242   45.646051
  C    -26.379217   24.998227   44.478109
  O    -25.124618   24.199077   44.621051
  H    -23.776583   23.964059   46.166708
  H    -25.846601   24.587159   47.211442
  O    -24.868886   26.358939   47.599100
  H    -27.380840   26.122371   46.095256
  H    -26.040434   26.997234   45.342954
  H    -26.380650   25.475075   43.493160
  H    -27.207515   24.285263   44.525575
  H    -23.924219   26.558866   47.400055

 Multiplicity           Mult            ....    1
 Number of Electrons    NEL             ....  102
 Basis Dimension        Dim             ....  149

ORBITAL ENERGIES
----------------

  NO   OCC          E(Eh)            E(eV)
   0   2.0000     -19.162160      -521.4289
   1   2.0000     -19.150648      -521.1156
   2   2.0000     -19.139599      -520.8150
   3   2.0000     -19.110423      -520.0210
   4   2.0000     -10.293819      -280.1091
   5   2.0000     -10.241031      -278.6726
   6   2.0000     -10.232621      -278.4438
   7   2.0000     -10.231754      -278.4202
   8   2.0000     -10.228093      -278.3206
   9   2.0000     -10.225555      -278.2515
  10   2.0000     -10.194515      -277.4069
  11   2.0000     -10.193447      -277.3778
  12   2.0000     -10.177222      -276.9363
  13   2.0000      -1.065370       -28.9902
  14   2.0000      -1.024596       -27.8807
  15   2.0000      -1.007661       -27.4198
  16   2.0000      -0.989839       -26.9349
  17   2.0000      -0.795642       -21.6505
  18   2.0000      -0.772803       -21.0290
  19   2.0000      -0.766667       -20.8621
  20   2.0000      -0.736877       -20.0514
  21   2.0000      -0.679834       -18.4992
  22   2.0000      -0.608035       -16.5455
  23   2.0000      -0.601790       -16.3755
  24   2.0000      -0.594570       -16.1791
  25   2.0000      -0.580298       -15.7907
  26   2.0000      -0.528742       -14.3878
  27   2.0000      -0.522875       -14.2281
  28   2.0000      -0.498180       -13.5562
  29   2.0000      -0.488205       -13.2847
  30   2.0000      -0.472926       -12.8690
  31   2.0000      -0.457090       -12.4380
  32   2.0000      -0.450348       -12.2546
  33   2.0000      -0.436054       -11.8656
  34   2.0000      -0.425853       -11.5881
  35   2.0000      -0.414172       -11.2702
  36   2.0000      -0.408242       -11.1088
  37   2.0000      -0.385834       -10.4991
  38   2.0000      -0.381719       -10.3871
  39   2.0000      -0.367003        -9.9867
  40   2.0000      -0.363787        -9.8991
  41   2.0000      -0.363015        -9.8781
  42   2.0000      -0.347565        -9.4577
  43   2.0000      -0.341609        -9.2956
  44   2.0000      -0.325408        -8.8548
  45   2.0000      -0.319908        -8.7051
  46   2.0000      -0.284695        -7.7469
  47   2.0000      -0.280582        -7.6350
  48   2.0000      -0.264052        -7.1852
  49   2.0000      -0.245570        -6.6823
  50   2.0000      -0.239884        -6.5276
  51   0.0000       0.055512         1.5106
  52   0.0000       0.080914         2.2018
  53   0.0000       0.089091         2.4243
  54   0.0000       0.098299         2.6749
  55   0.0000       0.104225         2.8361

MULLIKEN ATOMIC CHARGES
-----------------------
   0 C :    0.298547
   1 C :   -0.255725
   2 C :   -0.304604
   3 C :   -0.009643
   4 O :   -0.499405
   5 H :    0.148799
   6 H :    0.148812
   7 H :    0.148485
   8 H :    0.147469
   9 H :    0.164295
  10 H :    0.161256
  11 H :    0.147716
  12 C :   -0.025807
  13 H :    0.151634
  14 H :    0.151839
  15 O :   -0.557953
  16 C :    0.057970
  17 C :    0.127036
  18 C :   -0.302454
  19 C :   -0.016595
  20 O :   -0.523960
  21 H :    0.161011
  22 H :    0.145412
  23 O :   -0.646029
  24 H :    0.150899
  25 H :    0.145572
  26 H :    0.138158
  27 H :    0.149145
  28 H :    0.398120
Sum of atomic charges:    0.0000000

LOEWDIN ATOMIC CHARGES
----------------------
   0 C :    0.181585
   1 C :   -0.223191
   2 C :   -0.217179
   3 C :   -0.026918
   4 O :   -0.307359
   5 H :    0.102958
   6 H :    0.115954
   7 H :    0.118861
   8 H :    0.117315
   9 H :    0.119692
  10 H :    0.112320
  11 H :    0.105806
  12 C :   -0.041726
  13 H :    0.106445
  14 H :    0.109555
  15 O :   -0.345929
  16 C :    0.012788
  17 C :    0.043529
  18 C :   -0.235644
  19 C :   -0.031663
  20 O :   -0.326584
  21 H :    0.115961
  22 H :    0.103713
  23 O :   -0.437347
  24 H :    0.121112
  25 H :    0.111279
  26 H :    0.100320
  27 H :    0.106026
  28 H :    0.288323

  Mayer bond orders larger than 0.100000
B(  0-C ,  1-C ) :   0.9400 B(  0-C ,  4-O ) :   0.9500 B(  0-C ,  5-H ) :   0.9185
B(  0-C , 15-O ) :   0.7933 B(  1-C ,  2-C ) :   0.9541 B(  1-C ,  6-H ) :   0.9341
B(  1-C ,  7-H ) :   0.9381 B(  2-C ,  3-C ) :   0.9534 B(  2-C ,  8-H ) :   0.9446
B(  2-C ,  9-H ) :   0.9434 B(  3-C ,  4-O ) :   0.8287 B(  3-C , 10-H ) :   0.9335
B(  3-C , 11-H ) :   0.9395 B( 12-C , 13-H ) :   0.9305 B( 12-C , 14-H ) :   0.9243
B( 12-C , 15-O ) :   0.7928 B( 12-C , 16-C ) :   0.8927 B( 16-C , 17-C ) :   0.9154
B( 16-C , 20-O ) :   0.8521 B( 16-C , 21-H ) :   0.9302 B( 17-C , 18-C ) :   0.9026
B( 17-C , 22-H ) :   0.9299 B( 17-C , 23-O ) :   0.9327 B( 18-C , 19-C ) :   0.9384
B( 18-C , 24-H ) :   0.9449 B( 18-C , 25-H ) :   0.9432 B( 19-C , 20-O ) :   0.8333
B( 19-C , 26-H ) :   0.9353 B( 19-C , 27-H ) :   0.9387 B( 23-O , 28-H ) :   0.7221

FINAL SINGLE POINT ENERGY      -652.865725564944

DIPOLE MOMENT
-------------
                                X             Y             Z
Electronic contribution:     -0.35605      -4.24534       1.04235
Nuclear contribution   :      1.11323       5.17168      -1.82551
                        -----------------------------------------
Total Dipole Moment    :      0.75718       0.92634      -0.78315
                        -----------------------------------------
Magnitude (a.u.)       :      1.42995
Magnitude (Debye)      :      3.63464

Rotational constants in cm-1:     0.060921     0.013006     0.012185
Rotational constants in MHz :  1826.354345   389.904210   365.293439

                             ****ORCA TERMINATED NORMALLY****
TOTAL RUN TIME: 0 days 1 hours 10 minutes 31 seconds 697 msec
