                         Program Version 4.2.0 -  RELEASE  -
|  1> # Test redundant internal optimization
|  2> #
|  3> ! RKS B3LYP  Opt TightSCF SmallPrint
|  4>
|  5> %basis
|  6>         Basis "6-31G"
|  7> end
|  8>
|  9> %geom
| 10> Constraints
| 11> { D 4  0  15  12  0.0   C } # D for Dihedral angle
| 12> { D 0  15  12  16  120.0   C } # D for Dihedral angle
| 13> { D 0  4  3  2   C } # D for Dihedral angle
| 14> { D 4  3  2  1   C } # D for Dihedral angle
| 15> { D 3  2  1  0   C } # D for Dihedral angle
| 16> { D 2  1  0  4   C } # D for Dihedral angle
| 17> { D 1  0  4  3   C } # D for Dihedral angle
| 18> { D 16  20  19  18   C } # D for Dihedral angle
| 19> { D 20  19  18  17   C } # D for Dihedral angle
| 20> { D 19  18  17  16   C } # D for Dihedral angle
| 21> { D 18  17  16  20   C } # D for Dihedral angle
| 22> { D 17  16  20  19   C } # D for Dihedral angle
| 23> { D 15  12  16  20   C } # D for Dihedral angle
| 24> end
| 25> end
| 26>
| 27>
| 28> #%pal
| 29> #nprocs 8
| 30> #end
| 31>
| 32> * xyz 0 1
| 33> C  -21.048   26.222   46.251
| 34> C  -20.361   27.558   45.944
| 35> C  -20.329   28.222   47.341
| 36> C  -20.110   27.022   48.296
| 37> O  -20.473   25.807   47.535
| 38> H  -20.833   25.428   45.533
| 39> H  -19.344   27.382   45.576
| 40> H  -20.898   28.157   45.201
| 41> H  -19.543   28.978   47.434
| 42> H  -21.289   28.710   47.548
| 43> H  -20.733   27.082   49.195
| 44> H  -19.064   26.913   48.597
| 45> C  -23.172   26.101   47.783
| 46> H  -23.891   25.276   47.711
| 47> H  -22.375   25.801   48.476
| 48> O  -22.586   26.394   46.375
| 49> C  -23.897   27.329   48.400
| 50> C  -25.135   27.713   47.581
| 51> C  -26.167   26.666   48.064
| 52> C  -25.804   26.477   49.558
| 53> O  -24.430   26.997   49.725
| 54> H  -23.177   28.138   48.537
| 55> O  -25.595   29.149   47.953
| 56> H  -24.965   27.675   46.499
| 57> H  -27.202   26.995   47.924
| 58> H  -26.037   25.728   47.512
| 59> H  -25.830   25.427   49.866
| 60> H  -26.451   27.057   50.221
| 61> H  -25.772   29.211   49.033
| 62> *
| 63>
| 64>                          ****END OF INPUT****
 Total Charge           Charge          ....    0
 Multiplicity           Mult            ....    1
 Number of Electrons    NEL             ....  102
FINAL SINGLE POINT ENERGY      -652.835745390117
FINAL SINGLE POINT ENERGY      -652.857928994577
FINAL SINGLE POINT ENERGY      -652.861684198427
FINAL SINGLE POINT ENERGY      -652.862344647688
FINAL SINGLE POINT ENERGY      -652.862435459896
FINAL SINGLE POINT ENERGY      -652.862452550971
                    ***********************HURRAY********************

CARTESIAN COORDINATES (ANGSTROEM)
---------------------------------
  C    -21.129324   26.248251   46.368444
  C    -20.545626   27.611111   45.992563
  C    -20.333349   28.259636   47.382035
  C    -19.933853   27.062284   48.271616
  O    -20.372159   25.844771   47.526379
  H    -20.975404   25.469412   45.617735
  H    -19.590329   27.461045   45.476723
  H    -21.215968   28.182315   45.346729
  H    -19.561931   29.035887   47.367890
  H    -21.263254   28.719098   47.729056
  H    -20.416416   27.065774   49.252642
  H    -18.852176   26.969210   48.401710
  C    -23.156010   26.015244   47.876174
  H    -23.845133   25.173143   47.736724
  H    -22.384364   25.705447   48.584506
  O    -22.574141   26.328971   46.577209
  C    -23.900840   27.238608   48.410238
  C    -25.092159   27.695414   47.555926
  C    -26.193954   26.701693   48.000968
  C    -25.890048   26.481765   49.504203
  O    -24.489781   26.926948   49.719048
  H    -23.201585   28.064703   48.567868
  O    -25.449218   29.073834   47.858585
  H    -24.880589   27.672198   46.488052
  H    -27.187919   27.120448   47.823443
  H    -26.110996   25.766455   47.437322
  H    -25.980098   25.434609   49.807940
  H    -26.524760   27.090251   50.155815
  H    -25.459618   29.196474   48.831458

 Multiplicity           Mult            ....    1
 Number of Electrons    NEL             ....  102
 Basis Dimension        Dim             ....  149

ORBITAL ENERGIES
----------------

  NO   OCC          E(Eh)            E(eV)
   0   2.0000     -19.153606      -521.1961
   1   2.0000     -19.143727      -520.9273
   2   2.0000     -19.139675      -520.8170
   3   2.0000     -19.134480      -520.6757
   4   2.0000     -10.281192      -279.7655
   5   2.0000     -10.234234      -278.4877
   6   2.0000     -10.233970      -278.4805
   7   2.0000     -10.230609      -278.3890
   8   2.0000     -10.230222      -278.3785
   9   2.0000     -10.225074      -278.2384
  10   2.0000     -10.192386      -277.3489
  11   2.0000     -10.187469      -277.2151
  12   2.0000     -10.186118      -277.1784
  13   2.0000      -1.056209       -28.7409
  14   2.0000      -1.034412       -28.1478
  15   2.0000      -1.003070       -27.2949
  16   2.0000      -0.993509       -27.0348
  17   2.0000      -0.792631       -21.5686
  18   2.0000      -0.778858       -21.1938
  19   2.0000      -0.767798       -20.8928
  20   2.0000      -0.733702       -19.9650
  21   2.0000      -0.672452       -18.2983
  22   2.0000      -0.605540       -16.4776
  23   2.0000      -0.602360       -16.3910
  24   2.0000      -0.596210       -16.2237
  25   2.0000      -0.574489       -15.6326
  26   2.0000      -0.525388       -14.2965
  27   2.0000      -0.508391       -13.8340
  28   2.0000      -0.500683       -13.6243
  29   2.0000      -0.493191       -13.4204
  30   2.0000      -0.474065       -12.9000
  31   2.0000      -0.456639       -12.4258
  32   2.0000      -0.452114       -12.3026
  33   2.0000      -0.434792       -11.8313
  34   2.0000      -0.422822       -11.5056
  35   2.0000      -0.416802       -11.3418
  36   2.0000      -0.400424       -10.8961
  37   2.0000      -0.390319       -10.6211
  38   2.0000      -0.376823       -10.2539
  39   2.0000      -0.366072        -9.9613
  40   2.0000      -0.362250        -9.8573
  41   2.0000      -0.357236        -9.7209
  42   2.0000      -0.350545        -9.5388
  43   2.0000      -0.339954        -9.2506
  44   2.0000      -0.324994        -8.8435
  45   2.0000      -0.310919        -8.4605
  46   2.0000      -0.299295        -8.1442
  47   2.0000      -0.272760        -7.4222
  48   2.0000      -0.268571        -7.3082
  49   2.0000      -0.258035        -7.0215
  50   2.0000      -0.237752        -6.4696
  51   0.0000       0.065860         1.7921
  52   0.0000       0.071076         1.9341
  53   0.0000       0.090795         2.4707
  54   0.0000       0.095547         2.6000
  55   0.0000       0.100688         2.7399

MULLIKEN ATOMIC CHARGES
-----------------------
   0 C :    0.307194
   1 C :   -0.260524
   2 C :   -0.315540
   3 C :   -0.023875
   4 O :   -0.510689
   5 H :    0.157355
   6 H :    0.146918
   7 H :    0.162513
   8 H :    0.149912
   9 H :    0.162138
  10 H :    0.152458
  11 H :    0.154602
  12 C :   -0.023711
  13 H :    0.137058
  14 H :    0.175704
  15 O :   -0.545503
  16 C :    0.056091
  17 C :    0.086749
  18 C :   -0.299204
  19 C :   -0.030822
  20 O :   -0.529446
  21 H :    0.156426
  22 O :   -0.605623
  23 H :    0.176707
  24 H :    0.159161
  25 H :    0.150556
  26 H :    0.145947
  27 H :    0.146671
  28 H :    0.360774
Sum of atomic charges:   -0.0000000

LOEWDIN ATOMIC CHARGES
----------------------
   0 C :    0.184909
   1 C :   -0.220955
   2 C :   -0.220766
   3 C :   -0.033205
   4 O :   -0.316367
   5 H :    0.104577
   6 H :    0.115263
   7 H :    0.126645
   8 H :    0.118720
   9 H :    0.114323
  10 H :    0.106165
  11 H :    0.109001
  12 C :   -0.042329
  13 H :    0.099897
  14 H :    0.120986
  15 O :   -0.347009
  16 C :    0.008908
  17 C :    0.036376
  18 C :   -0.241217
  19 C :   -0.038320
  20 O :   -0.333291
  21 H :    0.108321
  22 O :   -0.417032
  23 H :    0.127712
  24 H :    0.125506
  25 H :    0.116442
  26 H :    0.104087
  27 H :    0.102256
  28 H :    0.280398

  Mayer bond orders larger than 0.100000
B(  0-C ,  1-C ) :   0.9299 B(  0-C ,  4-O ) :   0.9161 B(  0-C ,  5-H ) :   0.9302
B(  0-C , 15-O ) :   0.8384 B(  1-C ,  2-C ) :   0.9528 B(  1-C ,  6-H ) :   0.9350
B(  1-C ,  7-H ) :   0.9353 B(  2-C ,  3-C ) :   0.9527 B(  2-C ,  8-H ) :   0.9439
B(  2-C ,  9-H ) :   0.9355 B(  3-C ,  4-O ) :   0.8257 B(  3-C , 10-H ) :   0.9322
B(  3-C , 11-H ) :   0.9403 B( 12-C , 13-H ) :   0.9337 B( 12-C , 14-H ) :   0.9053
B( 12-C , 15-O ) :   0.8262 B( 12-C , 16-C ) :   0.8891 B( 16-C , 17-C ) :   0.9116
B( 16-C , 20-O ) :   0.8368 B( 16-C , 21-H ) :   0.9200 B( 17-C , 18-C ) :   0.9147
B( 17-C , 22-O ) :   0.8874 B( 17-C , 23-H ) :   0.9238 B( 18-C , 19-C ) :   0.9416
B( 18-C , 24-H ) :   0.9383 B( 18-C , 25-H ) :   0.9331 B( 19-C , 20-O ) :   0.8448
B( 19-C , 26-H ) :   0.9359 B( 19-C , 27-H ) :   0.9373 B( 22-O , 28-H ) :   0.7972

FINAL SINGLE POINT ENERGY      -652.862454553265

DIPOLE MOMENT
-------------
                                X             Y             Z
Electronic contribution:     -0.58861      -1.24550       0.07358
Nuclear contribution   :      0.79887       1.30045       0.04687
                        -----------------------------------------
Total Dipole Moment    :      0.21026       0.05494       0.12046
                        -----------------------------------------
Magnitude (a.u.)       :      0.24847
Magnitude (Debye)      :      0.63157

Rotational constants in cm-1:     0.051762     0.014327     0.013766
Rotational constants in MHz :  1551.786630   429.527632   412.688337

                             ****ORCA TERMINATED NORMALLY****
TOTAL RUN TIME: 0 days 1 hours 8 minutes 36 seconds 519 msec
