                         Program Version 4.2.0 -  RELEASE  -
|  1> # Test redundant internal optimization
|  2> #
|  3> ! RKS B3LYP  Opt TightSCF SmallPrint
|  4>
|  5> %basis
|  6>         Basis "6-31G"
|  7> end
|  8>
|  9> %geom
| 10> Constraints
| 11> { D 4  0  15  12  165.0   C } # D for Dihedral angle
| 12> { D 0  15  12  16  135.0   C } # D for Dihedral angle
| 13> { D 0  4  3  2   C } # D for Dihedral angle
| 14> { D 4  3  2  1   C } # D for Dihedral angle
| 15> { D 3  2  1  0   C } # D for Dihedral angle
| 16> { D 2  1  0  4   C } # D for Dihedral angle
| 17> { D 1  0  4  3   C } # D for Dihedral angle
| 18> { D 16  20  19  18   C } # D for Dihedral angle
| 19> { D 20  19  18  17   C } # D for Dihedral angle
| 20> { D 19  18  17  16   C } # D for Dihedral angle
| 21> { D 18  17  16  20   C } # D for Dihedral angle
| 22> { D 17  16  20  19   C } # D for Dihedral angle
| 23> { D 15  12  16  20   C } # D for Dihedral angle
| 24> end
| 25> end
| 26>
| 27>
| 28> #%pal
| 29> #nprocs 8
| 30> #end
| 31>
| 32> * xyz 0 1
| 33> C  -21.048   26.222   46.251
| 34> C  -20.361   27.558   45.944
| 35> C  -20.329   28.222   47.341
| 36> C  -20.110   27.022   48.296
| 37> O  -20.473   25.807   47.535
| 38> H  -20.833   25.428   45.533
| 39> H  -19.344   27.382   45.576
| 40> H  -20.898   28.157   45.201
| 41> H  -19.543   28.978   47.434
| 42> H  -21.289   28.710   47.548
| 43> H  -20.733   27.082   49.195
| 44> H  -19.064   26.913   48.597
| 45> C  -23.260   27.170   45.210
| 46> H  -23.512   28.183   45.548
| 47> H  -22.574   27.254   44.357
| 48> O  -22.586   26.394   46.375
| 49> C  -24.561   26.486   44.706
| 50> C  -24.302   25.030   44.299
| 51> C  -24.279   24.320   45.674
| 52> C  -25.335   25.104   46.493
| 53> O  -25.543   26.390   45.791
| 54> H  -25.008   27.101   43.923
| 55> O  -25.477   24.504   43.431
| 56> H  -23.372   24.898   43.738
| 57> H  -24.513   23.253   45.605
| 58> H  -23.287   24.417   46.131
| 59> H  -25.007   25.304   47.519
| 60> H  -26.302   24.594   46.524
| 61> H  -26.421   24.626   43.974
| 62> *
| 63>
| 64>                          ****END OF INPUT****
 Total Charge           Charge          ....    0
 Multiplicity           Mult            ....    1
 Number of Electrons    NEL             ....  102
FINAL SINGLE POINT ENERGY      -652.830280714339
FINAL SINGLE POINT ENERGY      -652.852480539134
FINAL SINGLE POINT ENERGY      -652.856586537848
FINAL SINGLE POINT ENERGY      -652.857881843222
FINAL SINGLE POINT ENERGY      -652.858000122270
FINAL SINGLE POINT ENERGY      -652.858019660290
                    ***********************HURRAY********************

CARTESIAN COORDINATES (ANGSTROEM)
---------------------------------
  C    -21.064462   26.264892   46.209803
  C    -20.299905   27.555406   45.918690
  C    -20.338510   28.271722   47.293324
  C    -20.244916   27.097498   48.288969
  O    -20.613039   25.883778   47.514149
  H    -20.853766   25.431978   45.531816
  H    -19.270623   27.297512   45.643369
  H    -20.722549   28.158548   45.111806
  H    -19.520032   28.987786   47.413017
  H    -21.285473   28.807147   47.411259
  H    -20.931576   27.191492   49.133435
  H    -19.229497   26.932893   48.660419
  C    -23.198456   27.167894   45.233383
  H    -23.450721   28.175312   45.584127
  H    -22.561962   27.257719   44.341358
  O    -22.512010   26.461742   46.308820
  C    -24.487671   26.452601   44.828817
  C    -24.349382   25.010762   44.316273
  C    -24.322508   24.203647   45.642401
  C    -25.287228   25.001934   46.553851
  O    -25.427328   26.346622   45.942989
  H    -24.975479   27.073102   44.066007
  O    -25.483100   24.657798   43.473732
  H    -23.470931   24.847459   43.689956
  H    -24.649576   23.173781   45.473321
  H    -23.315547   24.205874   46.061352
  H    -24.895735   25.119072   47.567000
  H    -26.290448   24.565311   46.600810
  H    -26.311569   24.907720   43.934746

 Multiplicity           Mult            ....    1
 Number of Electrons    NEL             ....  102
 Basis Dimension        Dim             ....  149

ORBITAL ENERGIES
----------------

  NO   OCC          E(Eh)            E(eV)
   0   2.0000     -19.145674      -520.9803
   1   2.0000     -19.144530      -520.9491
   2   2.0000     -19.134788      -520.6841
   3   2.0000     -19.134486      -520.6758
   4   2.0000     -10.286841      -279.9192
   5   2.0000     -10.236191      -278.5409
   6   2.0000     -10.235750      -278.5289
   7   2.0000     -10.232476      -278.4398
   8   2.0000     -10.229623      -278.3622
   9   2.0000     -10.218287      -278.0537
  10   2.0000     -10.195042      -277.4212
  11   2.0000     -10.193066      -277.3674
  12   2.0000     -10.173352      -276.8310
  13   2.0000      -1.058095       -28.7922
  14   2.0000      -1.030731       -28.0476
  15   2.0000      -1.002844       -27.2888
  16   2.0000      -0.993642       -27.0384
  17   2.0000      -0.792688       -21.5701
  18   2.0000      -0.776390       -21.1267
  19   2.0000      -0.762632       -20.7523
  20   2.0000      -0.736170       -20.0322
  21   2.0000      -0.677185       -18.4271
  22   2.0000      -0.607870       -16.5410
  23   2.0000      -0.599367       -16.3096
  24   2.0000      -0.594536       -16.1781
  25   2.0000      -0.571045       -15.5389
  26   2.0000      -0.526696       -14.3321
  27   2.0000      -0.507878       -13.8201
  28   2.0000      -0.505006       -13.7419
  29   2.0000      -0.487293       -13.2599
  30   2.0000      -0.474163       -12.9026
  31   2.0000      -0.458380       -12.4732
  32   2.0000      -0.449047       -12.2192
  33   2.0000      -0.433577       -11.7982
  34   2.0000      -0.428249       -11.6533
  35   2.0000      -0.413036       -11.2393
  36   2.0000      -0.405323       -11.0294
  37   2.0000      -0.384952       -10.4751
  38   2.0000      -0.383425       -10.4335
  39   2.0000      -0.363478        -9.8907
  40   2.0000      -0.362707        -9.8697
  41   2.0000      -0.358181        -9.7466
  42   2.0000      -0.354279        -9.6404
  43   2.0000      -0.326967        -8.8972
  44   2.0000      -0.317571        -8.6415
  45   2.0000      -0.304932        -8.2976
  46   2.0000      -0.300961        -8.1896
  47   2.0000      -0.267170        -7.2701
  48   2.0000      -0.262623        -7.1463
  49   2.0000      -0.261381        -7.1125
  50   2.0000      -0.236326        -6.4308
  51   0.0000       0.068216         1.8562
  52   0.0000       0.077526         2.1096
  53   0.0000       0.094787         2.5793
  54   0.0000       0.098275         2.6742
  55   0.0000       0.107908         2.9363

MULLIKEN ATOMIC CHARGES
-----------------------
   0 C :    0.307572
   1 C :   -0.286995
   2 C :   -0.300237
   3 C :   -0.000329
   4 O :   -0.501449
   5 H :    0.143223
   6 H :    0.151940
   7 H :    0.145544
   8 H :    0.145639
   9 H :    0.161170
  10 H :    0.157053
  11 H :    0.144241
  12 C :   -0.009669
  13 H :    0.151527
  14 H :    0.124800
  15 O :   -0.519026
  16 C :    0.073573
  17 C :    0.070786
  18 C :   -0.286305
  19 C :   -0.020429
  20 O :   -0.526489
  21 H :    0.151660
  22 O :   -0.604366
  23 H :    0.142351
  24 H :    0.147977
  25 H :    0.177410
  26 H :    0.161413
  27 H :    0.133403
  28 H :    0.364010
Sum of atomic charges:   -0.0000000

LOEWDIN ATOMIC CHARGES
----------------------
   0 C :    0.181071
   1 C :   -0.233362
   2 C :   -0.216275
   3 C :   -0.024519
   4 O :   -0.303160
   5 H :    0.096890
   6 H :    0.118518
   7 H :    0.114619
   8 H :    0.116156
   9 H :    0.117537
  10 H :    0.111135
  11 H :    0.103923
  12 C :   -0.042079
  13 H :    0.108807
  14 H :    0.095558
  15 O :   -0.337415
  16 C :    0.011455
  17 C :    0.037511
  18 C :   -0.240688
  19 C :   -0.032364
  20 O :   -0.330349
  21 H :    0.113648
  22 O :   -0.417875
  23 H :    0.110992
  24 H :    0.118165
  25 H :    0.130824
  26 H :    0.113420
  27 H :    0.095103
  28 H :    0.282754

  Mayer bond orders larger than 0.100000
B(  0-C ,  1-C ) :   0.9324 B(  0-C ,  4-O ) :   0.9398 B(  0-C ,  5-H ) :   0.9206
B(  0-C , 15-O ) :   0.8270 B(  1-C ,  2-C ) :   0.9495 B(  1-C ,  6-H ) :   0.9336
B(  1-C ,  7-H ) :   0.9293 B(  2-C ,  3-C ) :   0.9558 B(  2-C ,  8-H ) :   0.9448
B(  2-C ,  9-H ) :   0.9446 B(  3-C ,  4-O ) :   0.8318 B(  3-C , 10-H ) :   0.9343
B(  3-C , 11-H ) :   0.9397 B( 12-C , 13-H ) :   0.9216 B( 12-C , 14-H ) :   0.9086
B( 12-C , 15-O ) :   0.8491 B( 12-C , 16-C ) :   0.8964 B( 16-C , 17-C ) :   0.9070
B( 16-C , 20-O ) :   0.8767 B( 16-C , 21-H ) :   0.9202 B( 17-C , 18-C ) :   0.9256
B( 17-C , 22-O ) :   0.8918 B( 17-C , 23-H ) :   0.9368 B( 18-C , 19-C ) :   0.9453
B( 18-C , 24-H ) :   0.9365 B( 18-C , 25-H ) :   0.9183 B( 19-C , 20-O ) :   0.8362
B( 19-C , 26-H ) :   0.9325 B( 19-C , 27-H ) :   0.9375 B( 22-O , 28-H ) :   0.7953

FINAL SINGLE POINT ENERGY      -652.858020107096

DIPOLE MOMENT
-------------
                                X             Y             Z
Electronic contribution:     -3.71556      -2.32351      -0.91666
Nuclear contribution   :      4.67256       3.17139       0.88001
                        -----------------------------------------
Total Dipole Moment    :      0.95700       0.84788      -0.03665
                        -----------------------------------------
Magnitude (a.u.)       :      1.27910
Magnitude (Debye)      :      3.25122

Rotational constants in cm-1:     0.059478     0.013472     0.013038
Rotational constants in MHz :  1783.108331   403.869281   390.859572

                             ****ORCA TERMINATED NORMALLY****
TOTAL RUN TIME: 0 days 0 hours 20 minutes 5 seconds 360 msec
