                         Program Version 4.2.0 -  RELEASE  -
|  1> # Test redundant internal optimization
|  2> #
|  3> ! RKS B3LYP  Opt TightSCF SmallPrint
|  4>
|  5> %basis
|  6>         Basis "6-31G"
|  7> end
|  8>
|  9> %geom
| 10> Constraints
| 11> { D 4  0  15  12  30.0   C } # D for Dihedral angle
| 12> { D 0  15  12  16  210.0   C } # D for Dihedral angle
| 13> { D 0  4  3  2   C } # D for Dihedral angle
| 14> { D 4  3  2  1   C } # D for Dihedral angle
| 15> { D 3  2  1  0   C } # D for Dihedral angle
| 16> { D 2  1  0  4   C } # D for Dihedral angle
| 17> { D 1  0  4  3   C } # D for Dihedral angle
| 18> { D 16  20  19  18   C } # D for Dihedral angle
| 19> { D 20  19  18  17   C } # D for Dihedral angle
| 20> { D 19  18  17  16   C } # D for Dihedral angle
| 21> { D 18  17  16  20   C } # D for Dihedral angle
| 22> { D 17  16  20  19   C } # D for Dihedral angle
| 23> { D 15  12  16  20   C } # D for Dihedral angle
| 24> end
| 25> end
| 26>
| 27>
| 28> #%pal
| 29> #nprocs 8
| 30> #end
| 31>
| 32> * xyz 0 1
| 33> C  -21.048   26.222   46.251
| 34> C  -20.361   27.558   45.944
| 35> C  -20.329   28.222   47.341
| 36> C  -20.110   27.022   48.296
| 37> O  -20.473   25.807   47.535
| 38> H  -20.833   25.428   45.533
| 39> H  -19.344   27.382   45.576
| 40> H  -20.898   28.157   45.201
| 41> H  -19.543   28.978   47.434
| 42> H  -21.289   28.710   47.548
| 43> H  -20.733   27.082   49.195
| 44> H  -19.064   26.913   48.597
| 45> C  -23.091   26.824   47.779
| 46> H  -22.404   26.441   48.544
| 47> H  -23.118   27.918   47.860
| 48> O  -22.586   26.394   46.375
| 49> C  -24.517   26.292   48.093
| 50> C  -25.029   26.830   49.434
| 51> C  -25.480   28.259   49.048
| 52> C  -26.028   28.078   47.610
| 53> O  -25.481   26.798   47.110
| 54> H  -24.519   25.203   48.013
| 55> H  -25.883   26.235   49.778
| 56> O  -23.947   26.821   50.548
| 57> H  -26.230   28.667   49.732
| 58> H  -24.619   28.939   49.051
| 59> H  -25.718   28.887   46.939
| 60> H  -27.118   27.995   47.586
| 61> H  -23.082   27.411   50.228
| 62> *
| 63>
| 64>                          ****END OF INPUT****
 Total Charge           Charge          ....    0
 Multiplicity           Mult            ....    1
 Number of Electrons    NEL             ....  102
FINAL SINGLE POINT ENERGY      -652.819039391467
FINAL SINGLE POINT ENERGY      -652.843820794644
FINAL SINGLE POINT ENERGY      -652.849610280314
FINAL SINGLE POINT ENERGY      -652.852140827726
FINAL SINGLE POINT ENERGY      -652.852373755483
FINAL SINGLE POINT ENERGY      -652.852457755894
FINAL SINGLE POINT ENERGY      -652.852470711401
FINAL SINGLE POINT ENERGY      -652.852473053513
                    ***********************HURRAY********************

CARTESIAN COORDINATES (ANGSTROEM)
---------------------------------
  C    -21.151398   26.284419   46.382822
  C    -20.383592   27.521627   45.904010
  C    -20.028282   28.217720   47.245349
  C    -19.781306   27.022945   48.197107
  O    -20.417133   25.845683   47.548994
  H    -21.130436   25.456979   45.672007
  H    -19.476658   27.199623   45.379858
  H    -20.981985   28.143348   45.234569
  H    -19.149421   28.864718   47.164785
  H    -20.866136   28.834123   47.587742
  H    -20.217151   27.161140   49.191263
  H    -18.719230   26.784290   48.304718
  C    -23.048109   26.935672   47.900319
  H    -22.418034   26.515105   48.691933
  H    -23.037030   28.034313   47.966076
  O    -22.568249   26.509860   46.598685
  C    -24.462838   26.386878   48.072302
  C    -25.130440   26.788099   49.398848
  C    -25.691616   28.202711   49.061463
  C    -26.101566   28.058646   47.579042
  O    -25.391506   26.866299   47.053303
  H    -24.414206   25.302109   47.943421
  H    -25.946484   26.095540   49.615635
  O    -24.282822   26.729661   50.572040
  H    -26.525177   28.482438   49.711243
  H    -24.897214   28.950878   49.188727
  H    -25.832297   28.930610   46.974177
  H    -27.173600   27.869713   47.463750
  H    -23.651085   27.477851   50.574810

 Multiplicity           Mult            ....    1
 Number of Electrons    NEL             ....  102
 Basis Dimension        Dim             ....  149

ORBITAL ENERGIES
----------------

  NO   OCC          E(Eh)            E(eV)
   0   2.0000     -19.149569      -521.0863
   1   2.0000     -19.149437      -521.0827
   2   2.0000     -19.137196      -520.7496
   3   2.0000     -19.133268      -520.6427
   4   2.0000     -10.277283      -279.6591
   5   2.0000     -10.243708      -278.7455
   6   2.0000     -10.234905      -278.5059
   7   2.0000     -10.228513      -278.3320
   8   2.0000     -10.228441      -278.3300
   9   2.0000     -10.226894      -278.2879
  10   2.0000     -10.195408      -277.4312
  11   2.0000     -10.195230      -277.4263
  12   2.0000     -10.186877      -277.1990
  13   2.0000      -1.054404       -28.6918
  14   2.0000      -1.032497       -28.0957
  15   2.0000      -1.013747       -27.5854
  16   2.0000      -0.992758       -27.0143
  17   2.0000      -0.791125       -21.5276
  18   2.0000      -0.781390       -21.2627
  19   2.0000      -0.770087       -20.9551
  20   2.0000      -0.733530       -19.9604
  21   2.0000      -0.680010       -18.5040
  22   2.0000      -0.610157       -16.6032
  23   2.0000      -0.606068       -16.4919
  24   2.0000      -0.596605       -16.2344
  25   2.0000      -0.569743       -15.5035
  26   2.0000      -0.526337       -14.3223
  27   2.0000      -0.509634       -13.8679
  28   2.0000      -0.501227       -13.6391
  29   2.0000      -0.497154       -13.5282
  30   2.0000      -0.471348       -12.8260
  31   2.0000      -0.462367       -12.5816
  32   2.0000      -0.445572       -12.1246
  33   2.0000      -0.430365       -11.7108
  34   2.0000      -0.423939       -11.5360
  35   2.0000      -0.416816       -11.3421
  36   2.0000      -0.414393       -11.2762
  37   2.0000      -0.398461       -10.8427
  38   2.0000      -0.379383       -10.3235
  39   2.0000      -0.373762       -10.1706
  40   2.0000      -0.362353        -9.8601
  41   2.0000      -0.355296        -9.6681
  42   2.0000      -0.348174        -9.4743
  43   2.0000      -0.333534        -9.0759
  44   2.0000      -0.324368        -8.8265
  45   2.0000      -0.313522        -8.5314
  46   2.0000      -0.304613        -8.2889
  47   2.0000      -0.269907        -7.3445
  48   2.0000      -0.264593        -7.1999
  49   2.0000      -0.251859        -6.8534
  50   2.0000      -0.235477        -6.4077
  51   0.0000       0.045125         1.2279
  52   0.0000       0.072648         1.9769
  53   0.0000       0.085662         2.3310
  54   0.0000       0.091632         2.4934
  55   0.0000       0.102952         2.8015

MULLIKEN ATOMIC CHARGES
-----------------------
   0 C :    0.294110
   1 C :   -0.259579
   2 C :   -0.312904
   3 C :   -0.016871
   4 O :   -0.507813
   5 H :    0.166574
   6 H :    0.147795
   7 H :    0.159248
   8 H :    0.148066
   9 H :    0.146731
  10 H :    0.136961
  11 H :    0.153381
  12 C :   -0.020341
  13 H :    0.156165
  14 H :    0.111717
  15 O :   -0.514717
  16 C :    0.092979
  17 C :    0.077431
  18 C :   -0.325451
  19 C :   -0.011551
  20 O :   -0.501704
  21 H :    0.169782
  22 H :    0.171899
  23 O :   -0.595733
  24 H :    0.158114
  25 H :    0.130390
  26 H :    0.143745
  27 H :    0.150269
  28 H :    0.351302
Sum of atomic charges:   -0.0000000

LOEWDIN ATOMIC CHARGES
----------------------
   0 C :    0.178881
   1 C :   -0.225829
   2 C :   -0.222445
   3 C :   -0.034591
   4 O :   -0.318252
   5 H :    0.113070
   6 H :    0.116386
   7 H :    0.124525
   8 H :    0.117369
   9 H :    0.108573
  10 H :    0.097849
  11 H :    0.107713
  12 C :   -0.054996
  13 H :    0.111405
  14 H :    0.082069
  15 O :   -0.316609
  16 C :    0.021034
  17 C :    0.033503
  18 C :   -0.242951
  19 C :   -0.031186
  20 O :   -0.311728
  21 H :    0.122785
  22 H :    0.121042
  23 O :   -0.405767
  24 H :    0.122462
  25 H :    0.102088
  26 H :    0.102661
  27 H :    0.105944
  28 H :    0.274993

  Mayer bond orders larger than 0.100000
B(  0-C ,  1-C ) :   0.9157 B(  0-C ,  4-O ) :   0.9020 B(  0-C ,  5-H ) :   0.9336
B(  0-C , 15-O ) :   0.8799 B(  1-C ,  2-C ) :   0.9553 B(  1-C ,  6-H ) :   0.9347
B(  1-C ,  7-H ) :   0.9368 B(  2-C ,  3-C ) :   0.9488 B(  2-C ,  8-H ) :   0.9448
B(  2-C ,  9-H ) :   0.9438 B(  3-C ,  4-O ) :   0.8385 B(  3-C , 10-H ) :   0.9323
B(  3-C , 11-H ) :   0.9400 B( 12-C , 13-H ) :   0.8917 B( 12-C , 14-H ) :   0.9137
B( 12-C , 15-O ) :   0.8472 B( 12-C , 16-C ) :   0.9055 B( 16-C , 17-C ) :   0.8714
B( 16-C , 20-O ) :   0.8716 B( 16-C , 21-H ) :   0.9278 B( 17-C , 18-C ) :   0.9239
B( 17-C , 22-H ) :   0.9327 B( 17-C , 23-O ) :   0.8952 B( 18-C , 19-C ) :   0.9396
B( 18-C , 24-H ) :   0.9414 B( 18-C , 25-H ) :   0.9411 B( 19-C , 20-O ) :   0.8531
B( 19-C , 26-H ) :   0.9312 B( 19-C , 27-H ) :   0.9374 B( 23-O , 28-H ) :   0.8002

FINAL SINGLE POINT ENERGY      -652.852463587335

DIPOLE MOMENT
-------------
                                X             Y             Z
Electronic contribution:     -2.15367      -5.55327      -0.93268
Nuclear contribution   :      2.71717       7.21566       1.31455
                        -----------------------------------------
Total Dipole Moment    :      0.56349       1.66239       0.38187
                        -----------------------------------------
Magnitude (a.u.)       :      1.79636
Magnitude (Debye)      :      4.56598

Rotational constants in cm-1:     0.048402     0.014281     0.012904
Rotational constants in MHz :  1451.059375   428.122526   386.841608

                             ****ORCA TERMINATED NORMALLY****
TOTAL RUN TIME: 0 days 0 hours 26 minutes 56 seconds 292 msec
