                         Program Version 4.2.0 -  RELEASE  -
|  1> # Test redundant internal optimization
|  2> #
|  3> ! RKS B3LYP  Opt TightSCF SmallPrint
|  4>
|  5> %basis
|  6>         Basis "6-31G"
|  7> end
|  8>
|  9> %geom
| 10> Constraints
| 11> { D 4  0  15  12  255.0   C } # D for Dihedral angle
| 12> { D 0  15  12  16  120.0   C } # D for Dihedral angle
| 13> { D 0  4  3  2   C } # D for Dihedral angle
| 14> { D 4  3  2  1   C } # D for Dihedral angle
| 15> { D 3  2  1  0   C } # D for Dihedral angle
| 16> { D 2  1  0  4   C } # D for Dihedral angle
| 17> { D 1  0  4  3   C } # D for Dihedral angle
| 18> { D 16  20  19  18   C } # D for Dihedral angle
| 19> { D 20  19  18  17   C } # D for Dihedral angle
| 20> { D 19  18  17  16   C } # D for Dihedral angle
| 21> { D 18  17  16  20   C } # D for Dihedral angle
| 22> { D 17  16  20  19   C } # D for Dihedral angle
| 23> { D 15  12  16  20   C } # D for Dihedral angle
| 24> end
| 25> end
| 26>
| 27>
| 28> #%pal
| 29> #nprocs 8
| 30> #end
| 31>
| 32> * xyz 0 1
| 33> C  -21.048   26.222   46.251
| 34> C  -20.361   27.558   45.944
| 35> C  -20.329   28.222   47.341
| 36> C  -20.110   27.022   48.296
| 37> O  -20.473   25.807   47.535
| 38> H  -20.833   25.428   45.533
| 39> H  -19.344   27.382   45.576
| 40> H  -20.898   28.157   45.201
| 41> H  -19.543   28.978   47.434
| 42> H  -21.289   28.710   47.548
| 43> H  -20.733   27.082   49.195
| 44> H  -19.064   26.913   48.597
| 45> C  -23.431   25.260   45.734
| 46> H  -24.069   25.683   44.947
| 47> H  -22.778   24.506   45.276
| 48> O  -22.586   26.394   46.375
| 49> C  -24.342   24.534   46.762
| 50> C  -25.405   25.481   47.330
| 51> C  -26.449   25.502   46.188
| 52> C  -26.391   24.056   45.634
| 53> O  -25.116   23.476   46.105
| 54> H  -23.717   24.052   47.516
| 55> H  -25.838   25.056   48.243
| 56> O  -24.849   26.893   47.664
| 57> H  -27.450   25.776   46.534
| 58> H  -26.150   26.224   45.419
| 59> H  -26.416   24.026   44.539
| 60> H  -27.196   23.427   46.024
| 61> H  -24.410   27.337   46.764
| 62> *
| 63>
| 64>                          ****END OF INPUT****
 Total Charge           Charge          ....    0
 Multiplicity           Mult            ....    1
 Number of Electrons    NEL             ....  102
FINAL SINGLE POINT ENERGY      -652.833032755277
FINAL SINGLE POINT ENERGY      -652.857287404355
FINAL SINGLE POINT ENERGY      -652.863508196916
FINAL SINGLE POINT ENERGY      -652.865733507438
FINAL SINGLE POINT ENERGY      -652.866993450072
FINAL SINGLE POINT ENERGY      -652.867736124297
FINAL SINGLE POINT ENERGY      -652.868033370854
FINAL SINGLE POINT ENERGY      -652.868089310862
FINAL SINGLE POINT ENERGY      -652.868095745440
                    ***********************HURRAY********************

CARTESIAN COORDINATES (ANGSTROEM)
---------------------------------
  C    -21.069378   26.140163   46.208162
  C    -20.462451   27.515779   45.934690
  C    -20.563169   28.191267   47.323516
  C    -20.320785   27.017772   48.297909
  O    -20.557212   25.781598   47.504161
  H    -20.784889   25.343756   45.515513
  H    -19.415247   27.392944   45.635492
  H    -20.995310   28.056138   45.149702
  H    -19.833257   28.995829   47.452424
  H    -21.563204   28.613518   47.462617
  H    -21.001306   27.018369   49.152673
  H    -19.288377   26.965409   48.654690
  C    -23.334215   25.204121   45.627354
  H    -23.910995   25.651550   44.810633
  H    -22.695921   24.414610   45.214345
  O    -22.516703   26.263664   46.228847
  C    -24.247966   24.609651   46.704543
  C    -25.268041   25.594986   47.300221
  C    -26.373409   25.605169   46.204255
  C    -26.369588   24.150933   45.689469
  O    -25.068428   23.552846   46.117750
  H    -23.626782   24.143530   47.474715
  H    -25.673458   25.163513   48.222021
  O    -24.766437   26.907703   47.619842
  H    -27.342445   25.910294   46.607900
  H    -26.094192   26.322724   45.425511
  H    -26.448002   24.074385   44.600235
  H    -27.155332   23.540639   46.143121
  H    -23.871498   27.021140   47.222691

 Multiplicity           Mult            ....    1
 Number of Electrons    NEL             ....  102
 Basis Dimension        Dim             ....  149

ORBITAL ENERGIES
----------------

  NO   OCC          E(Eh)            E(eV)
   0   2.0000     -19.163815      -521.4739
   1   2.0000     -19.147987      -521.0432
   2   2.0000     -19.139151      -520.8028
   3   2.0000     -19.112374      -520.0741
   4   2.0000     -10.292995      -280.0866
   5   2.0000     -10.240295      -278.6526
   6   2.0000     -10.231042      -278.4008
   7   2.0000     -10.230853      -278.3957
   8   2.0000     -10.228490      -278.3314
   9   2.0000     -10.225568      -278.2519
  10   2.0000     -10.193709      -277.3849
  11   2.0000     -10.192540      -277.3531
  12   2.0000     -10.177926      -276.9554
  13   2.0000      -1.064996       -28.9800
  14   2.0000      -1.024029       -27.8653
  15   2.0000      -1.007161       -27.4062
  16   2.0000      -0.991398       -26.9773
  17   2.0000      -0.795720       -21.6526
  18   2.0000      -0.772149       -21.0112
  19   2.0000      -0.766599       -20.8602
  20   2.0000      -0.735467       -20.0131
  21   2.0000      -0.679288       -18.4844
  22   2.0000      -0.606272       -16.4975
  23   2.0000      -0.601388       -16.3646
  24   2.0000      -0.594208       -16.1692
  25   2.0000      -0.582246       -15.8437
  26   2.0000      -0.527766       -14.3613
  27   2.0000      -0.522863       -14.2278
  28   2.0000      -0.497571       -13.5396
  29   2.0000      -0.487218       -13.2579
  30   2.0000      -0.472276       -12.8513
  31   2.0000      -0.456759       -12.4290
  32   2.0000      -0.445521       -12.1232
  33   2.0000      -0.438355       -11.9282
  34   2.0000      -0.425082       -11.5671
  35   2.0000      -0.415406       -11.3038
  36   2.0000      -0.406969       -11.0742
  37   2.0000      -0.386947       -10.5294
  38   2.0000      -0.381399       -10.3784
  39   2.0000      -0.365831        -9.9548
  40   2.0000      -0.363037        -9.8787
  41   2.0000      -0.358348        -9.7511
  42   2.0000      -0.347139        -9.4461
  43   2.0000      -0.342973        -9.3328
  44   2.0000      -0.328310        -8.9338
  45   2.0000      -0.317307        -8.6344
  46   2.0000      -0.288061        -7.8385
  47   2.0000      -0.282106        -7.6765
  48   2.0000      -0.261390        -7.1128
  49   2.0000      -0.247011        -6.7215
  50   2.0000      -0.239934        -6.5289
  51   0.0000       0.054285         1.4772
  52   0.0000       0.083602         2.2749
  53   0.0000       0.091870         2.4999
  54   0.0000       0.097616         2.6563
  55   0.0000       0.103520         2.8169

MULLIKEN ATOMIC CHARGES
-----------------------
   0 C :    0.294459
   1 C :   -0.256521
   2 C :   -0.306208
   3 C :   -0.008610
   4 O :   -0.500958
   5 H :    0.149460
   6 H :    0.150005
   7 H :    0.153105
   8 H :    0.147421
   9 H :    0.164886
  10 H :    0.160088
  11 H :    0.146729
  12 C :   -0.024073
  13 H :    0.149769
  14 H :    0.156160
  15 O :   -0.560496
  16 C :    0.058308
  17 C :    0.125156
  18 C :   -0.301646
  19 C :   -0.022654
  20 O :   -0.522414
  21 H :    0.167228
  22 H :    0.145473
  23 O :   -0.648563
  24 H :    0.148666
  25 H :    0.146432
  26 H :    0.141203
  27 H :    0.149926
  28 H :    0.397671
Sum of atomic charges:   -0.0000000

LOEWDIN ATOMIC CHARGES
----------------------
   0 C :    0.178532
   1 C :   -0.218280
   2 C :   -0.216862
   3 C :   -0.027984
   4 O :   -0.318043
   5 H :    0.103665
   6 H :    0.116671
   7 H :    0.121923
   8 H :    0.117144
   9 H :    0.119013
  10 H :    0.111744
  11 H :    0.105319
  12 C :   -0.040197
  13 H :    0.105393
  14 H :    0.112426
  15 O :   -0.341319
  16 C :    0.012793
  17 C :    0.043196
  18 C :   -0.236476
  19 C :   -0.033394
  20 O :   -0.325845
  21 H :    0.118934
  22 H :    0.104680
  23 O :   -0.437804
  24 H :    0.120460
  25 H :    0.111269
  26 H :    0.101252
  27 H :    0.106367
  28 H :    0.285424

  Mayer bond orders larger than 0.100000
B(  0-C ,  1-C ) :   0.9474 B(  0-C ,  4-O ) :   0.9414 B(  0-C ,  5-H ) :   0.9190
B(  0-C , 15-O ) :   0.8079 B(  1-C ,  2-C ) :   0.9558 B(  1-C ,  6-H ) :   0.9368
B(  1-C ,  7-H ) :   0.9370 B(  2-C ,  3-C ) :   0.9524 B(  2-C ,  8-H ) :   0.9448
B(  2-C ,  9-H ) :   0.9432 B(  3-C ,  4-O ) :   0.8307 B(  3-C , 10-H ) :   0.9336
B(  3-C , 11-H ) :   0.9396 B( 12-C , 13-H ) :   0.9321 B( 12-C , 14-H ) :   0.9250
B( 12-C , 15-O ) :   0.7893 B( 12-C , 16-C ) :   0.8937 B( 16-C , 17-C ) :   0.9155
B( 16-C , 20-O ) :   0.8518 B( 16-C , 21-H ) :   0.9280 B( 17-C , 18-C ) :   0.9016
B( 17-C , 22-H ) :   0.9312 B( 17-C , 23-O ) :   0.9300 B( 18-C , 19-C ) :   0.9401
B( 18-C , 24-H ) :   0.9454 B( 18-C , 25-H ) :   0.9431 B( 19-C , 20-O ) :   0.8346
B( 19-C , 26-H ) :   0.9342 B( 19-C , 27-H ) :   0.9383 B( 23-O , 28-H ) :   0.7197

FINAL SINGLE POINT ENERGY      -652.868097338330

DIPOLE MOMENT
-------------
                                X             Y             Z
Electronic contribution:     -0.03986      -3.51402       1.16055
Nuclear contribution   :      0.66309       4.11692      -1.98364
                        -----------------------------------------
Total Dipole Moment    :      0.62323       0.60291      -0.82309
                        -----------------------------------------
Magnitude (a.u.)       :      1.19557
Magnitude (Debye)      :      3.03891

Rotational constants in cm-1:     0.059826     0.013461     0.012623
Rotational constants in MHz :  1793.552939   403.557357   378.426212

                             ****ORCA TERMINATED NORMALLY****
TOTAL RUN TIME: 0 days 0 hours 30 minutes 11 seconds 134 msec
