                         Program Version 4.2.0 -  RELEASE  -
|  1> # Test redundant internal optimization
|  2> #
|  3> ! RKS B3LYP  Opt TightSCF SmallPrint
|  4>
|  5> %basis
|  6>         Basis "6-31G"
|  7> end
|  8>
|  9> %geom
| 10> Constraints
| 11> { D 4  0  15  12  15.0   C } # D for Dihedral angle
| 12> { D 0  15  12  16  150.0   C } # D for Dihedral angle
| 13> { D 0  4  3  2   C } # D for Dihedral angle
| 14> { D 4  3  2  1   C } # D for Dihedral angle
| 15> { D 3  2  1  0   C } # D for Dihedral angle
| 16> { D 2  1  0  4   C } # D for Dihedral angle
| 17> { D 1  0  4  3   C } # D for Dihedral angle
| 18> { D 16  20  19  18   C } # D for Dihedral angle
| 19> { D 20  19  18  17   C } # D for Dihedral angle
| 20> { D 19  18  17  16   C } # D for Dihedral angle
| 21> { D 18  17  16  20   C } # D for Dihedral angle
| 22> { D 17  16  20  19   C } # D for Dihedral angle
| 23> { D 15  12  16  20   C } # D for Dihedral angle
| 24> end
| 25> end
| 26>
| 27>
| 28> #%pal
| 29> #nprocs 8
| 30> #end
| 31>
| 32> * xyz 0 1
| 33> C  -21.048   26.222   46.251
| 34> C  -20.361   27.558   45.944
| 35> C  -20.329   28.222   47.341
| 36> C  -20.110   27.022   48.296
| 37> O  -20.473   25.807   47.535
| 38> H  -20.833   25.428   45.533
| 39> H  -19.344   27.382   45.576
| 40> H  -20.898   28.157   45.201
| 41> H  -19.543   28.978   47.434
| 42> H  -21.289   28.710   47.548
| 43> H  -20.733   27.082   49.195
| 44> H  -19.064   26.913   48.597
| 45> C  -23.128   26.462   47.829
| 46> H  -23.360   25.448   48.177
| 47> H  -22.372   26.890   48.501
| 48> O  -22.586   26.394   46.375
| 49> C  -24.413   27.327   47.951
| 50> C  -24.188   28.739   47.398
| 51> C  -24.308   28.501   45.874
| 52> C  -25.391   27.397   45.774
| 53> O  -25.483   26.776   47.113
| 54> H  -24.767   27.297   48.983
| 55> O  -25.312   29.690   47.894
| 56> H  -23.222   29.166   47.686
| 57> H  -24.583   29.406   45.323
| 58> H  -23.353   28.142   45.472
| 59> H  -25.138   26.627   45.037
| 60> H  -26.379   27.802   45.538
| 61> H  -26.290   29.282   47.615
| 62> *
| 63>
| 64>                          ****END OF INPUT****
 Total Charge           Charge          ....    0
 Multiplicity           Mult            ....    1
 Number of Electrons    NEL             ....  102
FINAL SINGLE POINT ENERGY      -652.826066746793
FINAL SINGLE POINT ENERGY      -652.849418453526
FINAL SINGLE POINT ENERGY      -652.854727815152
FINAL SINGLE POINT ENERGY      -652.857414831904
FINAL SINGLE POINT ENERGY      -652.857660971803
FINAL SINGLE POINT ENERGY      -652.857699453558
FINAL SINGLE POINT ENERGY      -652.857701388108
                    ***********************HURRAY********************

CARTESIAN COORDINATES (ANGSTROEM)
---------------------------------
  C    -21.112580   26.209065   46.417164
  C    -20.412020   27.496243   45.972193
  C    -20.187553   28.223435   47.324049
  C    -19.908943   27.056716   48.300057
  O    -20.419078   25.832539   47.624773
  H    -20.986825   25.378957   45.718917
  H    -19.454115   27.234555   45.508684
  H    -21.003725   28.073167   45.258688
  H    -19.358088   28.935899   47.286606
  H    -21.087903   28.776137   47.613678
  H    -20.408870   27.164751   49.267170
  H    -18.840504   26.895581   48.469351
  C    -23.168558   26.452080   47.875031
  H    -23.430480   25.443346   48.214210
  H    -22.482911   26.885878   48.610359
  O    -22.556680   26.356013   46.555598
  C    -24.443788   27.293572   47.833634
  C    -24.314545   28.755582   47.381052
  C    -24.384233   28.617584   45.836184
  C    -25.379051   27.446201   45.639245
  O    -25.448725   26.730352   46.933275
  H    -24.875189   27.257537   48.842163
  O    -25.408077   29.554619   47.914013
  H    -23.406690   29.247524   47.732816
  H    -24.725888   29.550092   45.378558
  H    -23.401431   28.352415   45.445612
  H    -25.046552   26.744584   44.869955
  H    -26.393125   27.785072   45.402617
  H    -26.251871   29.077504   47.765347

 Multiplicity           Mult            ....    1
 Number of Electrons    NEL             ....  102
 Basis Dimension        Dim             ....  149

ORBITAL ENERGIES
----------------

  NO   OCC          E(Eh)            E(eV)
   0   2.0000     -19.155612      -521.2507
   1   2.0000     -19.143065      -520.9093
   2   2.0000     -19.136287      -520.7248
   3   2.0000     -19.135920      -520.7148
   4   2.0000     -10.285037      -279.8701
   5   2.0000     -10.239005      -278.6175
   6   2.0000     -10.238500      -278.6038
   7   2.0000     -10.233013      -278.4545
   8   2.0000     -10.231236      -278.4061
   9   2.0000     -10.221358      -278.1373
  10   2.0000     -10.199762      -277.5496
  11   2.0000     -10.193636      -277.3829
  12   2.0000     -10.177690      -276.9490
  13   2.0000      -1.059640       -28.8343
  14   2.0000      -1.032803       -28.1040
  15   2.0000      -1.004356       -27.3299
  16   2.0000      -0.994538       -27.0628
  17   2.0000      -0.796857       -21.6836
  18   2.0000      -0.779589       -21.2137
  19   2.0000      -0.765952       -20.8426
  20   2.0000      -0.738205       -20.0876
  21   2.0000      -0.675013       -18.3681
  22   2.0000      -0.612035       -16.6543
  23   2.0000      -0.603237       -16.4149
  24   2.0000      -0.597428       -16.2568
  25   2.0000      -0.570647       -15.5281
  26   2.0000      -0.524599       -14.2751
  27   2.0000      -0.516329       -14.0500
  28   2.0000      -0.502273       -13.6675
  29   2.0000      -0.493995       -13.4423
  30   2.0000      -0.471941       -12.8422
  31   2.0000      -0.458547       -12.4777
  32   2.0000      -0.449935       -12.2434
  33   2.0000      -0.433137       -11.7862
  34   2.0000      -0.424843       -11.5606
  35   2.0000      -0.418948       -11.4002
  36   2.0000      -0.406830       -11.0704
  37   2.0000      -0.386960       -10.5297
  38   2.0000      -0.380113       -10.3434
  39   2.0000      -0.370562       -10.0835
  40   2.0000      -0.368237       -10.0202
  41   2.0000      -0.361972        -9.8498
  42   2.0000      -0.349799        -9.5185
  43   2.0000      -0.338559        -9.2127
  44   2.0000      -0.324082        -8.8187
  45   2.0000      -0.313930        -8.5425
  46   2.0000      -0.302252        -8.2247
  47   2.0000      -0.270437        -7.3590
  48   2.0000      -0.266188        -7.2433
  49   2.0000      -0.254419        -6.9231
  50   2.0000      -0.237720        -6.4687
  51   0.0000       0.053822         1.4646
  52   0.0000       0.074629         2.0307
  53   0.0000       0.086697         2.3592
  54   0.0000       0.093708         2.5499
  55   0.0000       0.103114         2.8059

MULLIKEN ATOMIC CHARGES
-----------------------
   0 C :    0.305577
   1 C :   -0.263907
   2 C :   -0.321017
   3 C :   -0.021190
   4 O :   -0.508043
   5 H :    0.163520
   6 H :    0.149991
   7 H :    0.156894
   8 H :    0.153079
   9 H :    0.157109
  10 H :    0.147873
  11 H :    0.154791
  12 C :    0.018386
  13 H :    0.156508
  14 H :    0.128678
  15 O :   -0.544171
  16 C :    0.065956
  17 C :    0.073802
  18 C :   -0.283999
  19 C :   -0.018918
  20 O :   -0.524737
  21 H :    0.152624
  22 O :   -0.607012
  23 H :    0.141346
  24 H :    0.146210
  25 H :    0.165399
  26 H :    0.155783
  27 H :    0.134668
  28 H :    0.364801
Sum of atomic charges:    0.0000000

LOEWDIN ATOMIC CHARGES
----------------------
   0 C :    0.184132
   1 C :   -0.223823
   2 C :   -0.222835
   3 C :   -0.034960
   4 O :   -0.315633
   5 H :    0.109187
   6 H :    0.117240
   7 H :    0.120903
   8 H :    0.120399
   9 H :    0.110327
  10 H :    0.101909
  11 H :    0.108824
  12 C :   -0.030052
  13 H :    0.111464
  14 H :    0.099200
  15 O :   -0.340284
  16 C :    0.012736
  17 C :    0.038228
  18 C :   -0.239884
  19 C :   -0.032634
  20 O :   -0.328513
  21 H :    0.114429
  22 O :   -0.418161
  23 H :    0.107932
  24 H :    0.117515
  25 H :    0.122809
  26 H :    0.110465
  27 H :    0.095826
  28 H :    0.283256

  Mayer bond orders larger than 0.100000
B(  0-C ,  1-C ) :   0.9215 B(  0-C ,  4-O ) :   0.9128 B(  0-C ,  5-H ) :   0.9321
B(  0-C , 15-O ) :   0.8499 B(  1-C ,  2-C ) :   0.9532 B(  1-C ,  6-H ) :   0.9338
B(  1-C ,  7-H ) :   0.9331 B(  2-C ,  3-C ) :   0.9502 B(  2-C ,  8-H ) :   0.9444
B(  2-C ,  9-H ) :   0.9362 B(  3-C ,  4-O ) :   0.8322 B(  3-C , 10-H ) :   0.9283
B(  3-C , 11-H ) :   0.9390 B( 12-C , 13-H ) :   0.9229 B( 12-C , 14-H ) :   0.9036
B( 12-C , 15-O ) :   0.8304 B( 12-C , 16-C ) :   0.9071 B( 16-C , 17-C ) :   0.9053
B( 16-C , 20-O ) :   0.8689 B( 16-C , 21-H ) :   0.9220 B( 17-C , 18-C ) :   0.9243
B( 17-C , 22-O ) :   0.8881 B( 17-C , 23-H ) :   0.9307 B( 18-C , 19-C ) :   0.9452
B( 18-C , 24-H ) :   0.9374 B( 18-C , 25-H ) :   0.9165 B( 19-C , 20-O ) :   0.8417
B( 19-C , 26-H ) :   0.9332 B( 19-C , 27-H ) :   0.9373 B( 22-O , 28-H ) :   0.7946

FINAL SINGLE POINT ENERGY      -652.857699416399

DIPOLE MOMENT
-------------
                                X             Y             Z
Electronic contribution:     -3.68498      -3.67429       1.15627
Nuclear contribution   :      4.64314       4.28772      -1.42353
                        -----------------------------------------
Total Dipole Moment    :      0.95816       0.61343      -0.26726
                        -----------------------------------------
Magnitude (a.u.)       :      1.16867
Magnitude (Debye)      :      2.97053

Rotational constants in cm-1:     0.049269     0.015892     0.015162
Rotational constants in MHz :  1477.034105   476.428818   454.558941

                             ****ORCA TERMINATED NORMALLY****
TOTAL RUN TIME: 0 days 0 hours 36 minutes 22 seconds 114 msec
