                         Program Version 4.2.0 -  RELEASE  -
|  1> # Test redundant internal optimization
|  2> #
|  3> ! RKS B3LYP  Opt TightSCF SmallPrint
|  4>
|  5> %basis
|  6>         Basis "6-31G"
|  7> end
|  8>
|  9> %geom
| 10> Constraints
| 11> { D 4  0  15  12  315.0   C } # D for Dihedral angle
| 12> { D 0  15  12  16  90.0   C } # D for Dihedral angle
| 13> { D 0  4  3  2   C } # D for Dihedral angle
| 14> { D 4  3  2  1   C } # D for Dihedral angle
| 15> { D 3  2  1  0   C } # D for Dihedral angle
| 16> { D 2  1  0  4   C } # D for Dihedral angle
| 17> { D 1  0  4  3   C } # D for Dihedral angle
| 18> { D 16  20  19  18   C } # D for Dihedral angle
| 19> { D 20  19  18  17   C } # D for Dihedral angle
| 20> { D 19  18  17  16   C } # D for Dihedral angle
| 21> { D 18  17  16  20   C } # D for Dihedral angle
| 22> { D 17  16  20  19   C } # D for Dihedral angle
| 23> { D 15  12  16  20   C } # D for Dihedral angle
| 24> end
| 25> end
| 26>
| 27>
| 28> #%pal
| 29> #nprocs 8
| 30> #end
| 31>
| 32> * xyz 0 1
| 33> C  -21.048   26.222   46.251
| 34> C  -20.361   27.558   45.944
| 35> C  -20.329   28.222   47.341
| 36> C  -20.110   27.022   48.296
| 37> O  -20.473   25.807   47.535
| 38> H  -20.833   25.428   45.533
| 39> H  -19.344   27.382   45.576
| 40> H  -20.898   28.157   45.201
| 41> H  -19.543   28.978   47.434
| 42> H  -21.289   28.710   47.548
| 43> H  -20.733   27.082   49.195
| 44> H  -19.064   26.913   48.597
| 45> C  -23.319   25.255   47.135
| 46> H  -24.334   25.146   46.733
| 47> H  -22.792   24.301   46.998
| 48> O  -22.586   26.394   46.375
| 49> C  -23.424   25.522   48.662
| 50> C  -24.047   24.329   49.394
| 51> C  -22.846   23.357   49.490
| 52> C  -21.639   24.309   49.686
| 53> O  -22.087   25.650   49.253
| 54> H  -23.938   26.471   48.825
| 55> O  -24.519   24.759   50.810
| 56> H  -24.901   23.896   48.862
| 57> H  -22.947   22.637   50.309
| 58> H  -22.744   22.791   48.557
| 59> H  -20.770   24.011   49.089
| 60> H  -21.338   24.392   50.734
| 61> H  -23.678   25.195   51.362
| 62> *
| 63>
| 64>                          ****END OF INPUT****
 Total Charge           Charge          ....    0
 Multiplicity           Mult            ....    1
 Number of Electrons    NEL             ....  102
FINAL SINGLE POINT ENERGY      -652.822263112422
FINAL SINGLE POINT ENERGY      -652.844471297356
FINAL SINGLE POINT ENERGY      -652.859552168821
FINAL SINGLE POINT ENERGY      -652.862105759664
FINAL SINGLE POINT ENERGY      -652.862582486777
FINAL SINGLE POINT ENERGY      -652.862638515102
FINAL SINGLE POINT ENERGY      -652.862649359962
                    ***********************HURRAY********************

CARTESIAN COORDINATES (ANGSTROEM)
---------------------------------
  C    -21.022648   26.234618   46.264034
  C    -20.527591   27.633153   45.904258
  C    -20.329118   28.267484   47.298680
  C    -19.844163   27.082299   48.161029
  O    -20.225786   25.856258   47.397699
  H    -20.839358   25.458760   45.511350
  H    -19.574595   27.548836   45.369060
  H    -21.241231   28.174543   45.279612
  H    -19.612344   29.094710   47.285831
  H    -21.286918   28.644626   47.668861
  H    -20.325202   27.027183   49.135611
  H    -18.754829   27.048960   48.263900
  C    -23.180650   25.308433   47.193380
  H    -24.191627   25.328779   46.770820
  H    -22.738279   24.325251   46.969591
  O    -22.461684   26.336087   46.465403
  C    -23.318116   25.490069   48.717126
  C    -24.062674   24.300639   49.337278
  C    -22.909610   23.281972   49.562104
  C    -21.713476   24.195788   49.930602
  O    -22.074313   25.558997   49.470939
  H    -23.841924   26.432015   48.910300
  O    -24.697849   24.674388   50.591488
  H    -24.869075   23.907917   48.716086
  H    -23.173113   22.576977   50.354273
  H    -22.711340   22.716206   48.645496
  H    -20.785963   23.905256   49.432029
  H    -21.542334   24.253825   51.010122
  H    -24.078189   25.231972   51.108038

 Multiplicity           Mult            ....    1
 Number of Electrons    NEL             ....  102
 Basis Dimension        Dim             ....  149

ORBITAL ENERGIES
----------------

  NO   OCC          E(Eh)            E(eV)
   0   2.0000     -19.141861      -520.8765
   1   2.0000     -19.138379      -520.7818
   2   2.0000     -19.138373      -520.7816
   3   2.0000     -19.135410      -520.7010
   4   2.0000     -10.272471      -279.5281
   5   2.0000     -10.242375      -278.7092
   6   2.0000     -10.233354      -278.4637
   7   2.0000     -10.231633      -278.4169
   8   2.0000     -10.227175      -278.2956
   9   2.0000     -10.211231      -277.8617
  10   2.0000     -10.188768      -277.2505
  11   2.0000     -10.177772      -276.9513
  12   2.0000     -10.176971      -276.9295
  13   2.0000      -1.046169       -28.4677
  14   2.0000      -1.035073       -28.1658
  15   2.0000      -1.005586       -27.3634
  16   2.0000      -0.988959       -26.9110
  17   2.0000      -0.787571       -21.4309
  18   2.0000      -0.777882       -21.1672
  19   2.0000      -0.763477       -20.7753
  20   2.0000      -0.726879       -19.7794
  21   2.0000      -0.669731       -18.2243
  22   2.0000      -0.603544       -16.4233
  23   2.0000      -0.594237       -16.1700
  24   2.0000      -0.589783       -16.0488
  25   2.0000      -0.572590       -15.5810
  26   2.0000      -0.521314       -14.1857
  27   2.0000      -0.512546       -13.9471
  28   2.0000      -0.490741       -13.3537
  29   2.0000      -0.477210       -12.9855
  30   2.0000      -0.475170       -12.9300
  31   2.0000      -0.452441       -12.3116
  32   2.0000      -0.448717       -12.2102
  33   2.0000      -0.435326       -11.8458
  34   2.0000      -0.419441       -11.4136
  35   2.0000      -0.403643       -10.9837
  36   2.0000      -0.396395       -10.7865
  37   2.0000      -0.390481       -10.6255
  38   2.0000      -0.373189       -10.1550
  39   2.0000      -0.369976       -10.0675
  40   2.0000      -0.353298        -9.6137
  41   2.0000      -0.348458        -9.4820
  42   2.0000      -0.341597        -9.2953
  43   2.0000      -0.330926        -9.0050
  44   2.0000      -0.322504        -8.7758
  45   2.0000      -0.306255        -8.3336
  46   2.0000      -0.291556        -7.9336
  47   2.0000      -0.273368        -7.4387
  48   2.0000      -0.266509        -7.2521
  49   2.0000      -0.251785        -6.8514
  50   2.0000      -0.232233        -6.3194
  51   0.0000       0.067142         1.8270
  52   0.0000       0.089875         2.4456
  53   0.0000       0.092961         2.5296
  54   0.0000       0.100509         2.7350
  55   0.0000       0.108303         2.9471

MULLIKEN ATOMIC CHARGES
-----------------------
   0 C :    0.305768
   1 C :   -0.266385
   2 C :   -0.303317
   3 C :   -0.011094
   4 O :   -0.512204
   5 H :    0.139479
   6 H :    0.142098
   7 H :    0.157050
   8 H :    0.137763
   9 H :    0.158174
  10 H :    0.176522
  11 H :    0.134513
  12 C :    0.002537
  13 H :    0.147663
  14 H :    0.123464
  15 O :   -0.533614
  16 C :    0.081191
  17 C :    0.070471
  18 C :   -0.297026
  19 C :   -0.027004
  20 O :   -0.515422
  21 H :    0.159971
  22 O :   -0.603054
  23 H :    0.152208
  24 H :    0.162908
  25 H :    0.146592
  26 H :    0.165605
  27 H :    0.141817
  28 H :    0.363327
Sum of atomic charges:    0.0000000

LOEWDIN ATOMIC CHARGES
----------------------
   0 C :    0.177111
   1 C :   -0.215562
   2 C :   -0.216481
   3 C :   -0.034567
   4 O :   -0.321018
   5 H :    0.092338
   6 H :    0.112124
   7 H :    0.123709
   8 H :    0.112060
   9 H :    0.116792
  10 H :    0.119964
  11 H :    0.098134
  12 C :   -0.039997
  13 H :    0.113819
  14 H :    0.093448
  15 O :   -0.334310
  16 C :    0.009289
  17 C :    0.033954
  18 C :   -0.240489
  19 C :   -0.037340
  20 O :   -0.316010
  21 H :    0.114573
  22 O :   -0.414703
  23 H :    0.114875
  24 H :    0.126781
  25 H :    0.113815
  26 H :    0.115042
  27 H :    0.100409
  28 H :    0.282241

  Mayer bond orders larger than 0.100000
B(  0-C ,  1-C ) :   0.9455 B(  0-C ,  4-O ) :   0.9273 B(  0-C ,  5-H ) :   0.9249
B(  0-C , 15-O ) :   0.8405 B(  1-C ,  2-C ) :   0.9589 B(  1-C ,  6-H ) :   0.9399
B(  1-C ,  7-H ) :   0.9366 B(  2-C ,  3-C ) :   0.9613 B(  2-C ,  8-H ) :   0.9451
B(  2-C ,  9-H ) :   0.9444 B(  3-C ,  4-O ) :   0.8182 B(  3-C , 10-H ) :   0.9148
B(  3-C , 11-H ) :   0.9409 B( 12-C , 13-H ) :   0.9282 B( 12-C , 14-H ) :   0.9224
B( 12-C , 15-O ) :   0.8557 B( 12-C , 16-C ) :   0.8801 B( 16-C , 17-C ) :   0.8924
B( 16-C , 20-O ) :   0.8642 B( 16-C , 21-H ) :   0.9274 B( 17-C , 18-C ) :   0.9126
B( 17-C , 22-O ) :   0.8891 B( 17-C , 23-H ) :   0.9326 B( 18-C , 19-C ) :   0.9443
B( 18-C , 24-H ) :   0.9368 B( 18-C , 25-H ) :   0.9320 B( 19-C , 20-O ) :   0.8342
B( 19-C , 26-H ) :   0.9267 B( 19-C , 27-H ) :   0.9381 B( 22-O , 28-H ) :   0.7951

FINAL SINGLE POINT ENERGY      -652.862650821726

DIPOLE MOMENT
-------------
                                X             Y             Z
Electronic contribution:     -2.39066      -0.54942       0.59748
Nuclear contribution   :      2.88486       0.40639      -0.70790
                        -----------------------------------------
Total Dipole Moment    :      0.49420      -0.14303      -0.11042
                        -----------------------------------------
Magnitude (a.u.)       :      0.52620
Magnitude (Debye)      :      1.33748

Rotational constants in cm-1:     0.055164     0.016052     0.014810
Rotational constants in MHz :  1653.787130   481.236097   444.005763

                             ****ORCA TERMINATED NORMALLY****
TOTAL RUN TIME: 0 days 1 hours 57 minutes 20 seconds 512 msec
