                         Program Version 4.2.0 -  RELEASE  -
|  1> # Test redundant internal optimization
|  2> #
|  3> ! RKS B3LYP  Opt TightSCF SmallPrint
|  4>
|  5> %basis
|  6>         Basis "6-31G"
|  7> end
|  8>
|  9> %geom
| 10> Constraints
| 11> { D 4  0  15  12  45.0   C } # D for Dihedral angle
| 12> { D 0  15  12  16  270.0   C } # D for Dihedral angle
| 13> { D 0  4  3  2   C } # D for Dihedral angle
| 14> { D 4  3  2  1   C } # D for Dihedral angle
| 15> { D 3  2  1  0   C } # D for Dihedral angle
| 16> { D 2  1  0  4   C } # D for Dihedral angle
| 17> { D 1  0  4  3   C } # D for Dihedral angle
| 18> { D 16  20  19  18   C } # D for Dihedral angle
| 19> { D 20  19  18  17   C } # D for Dihedral angle
| 20> { D 19  18  17  16   C } # D for Dihedral angle
| 21> { D 18  17  16  20   C } # D for Dihedral angle
| 22> { D 17  16  20  19   C } # D for Dihedral angle
| 23> { D 15  12  16  20   C } # D for Dihedral angle
| 24> end
| 25> end
| 26>
| 27>
| 28> #%pal
| 29> #nprocs 8
| 30> #end
| 31>
| 32> * xyz 0 1
| 33> C  -21.048   26.222   46.251
| 34> C  -20.361   27.558   45.944
| 35> C  -20.329   28.222   47.341
| 36> C  -20.110   27.022   48.296
| 37> O  -20.473   25.807   47.535
| 38> H  -20.833   25.428   45.533
| 39> H  -19.344   27.382   45.576
| 40> H  -20.898   28.157   45.201
| 41> H  -19.543   28.978   47.434
| 42> H  -21.289   28.710   47.548
| 43> H  -20.733   27.082   49.195
| 44> H  -19.064   26.913   48.597
| 45> C  -23.065   27.161   47.638
| 46> H  -22.300   27.892   47.929
| 47> H  -23.995   27.705   47.427
| 48> O  -22.586   26.394   46.375
| 49> C  -23.330   26.222   48.847
| 50> C  -24.328   25.116   48.484
| 51> C  -23.426   24.122   47.713
| 52> C  -22.068   24.235   48.450
| 53> O  -22.108   25.501   49.214
| 54> H  -23.618   26.824   49.711
| 55> O  -24.887   24.459   49.775
| 56> H  -25.171   25.475   47.885
| 57> H  -23.819   23.100   47.717
| 58> H  -23.325   24.438   46.667
| 59> H  -21.217   24.258   47.760
| 60> H  -21.916   23.428   49.172
| 61> H  -24.059   24.091   50.390
| 62> *
| 63>
| 64>                          ****END OF INPUT****
 Total Charge           Charge          ....    0
 Multiplicity           Mult            ....    1
 Number of Electrons    NEL             ....  102
FINAL SINGLE POINT ENERGY      -652.782873342738
FINAL SINGLE POINT ENERGY      -652.833456136382
FINAL SINGLE POINT ENERGY      -652.852283334255
FINAL SINGLE POINT ENERGY      -652.856572777200
FINAL SINGLE POINT ENERGY      -652.857249728788
FINAL SINGLE POINT ENERGY      -652.857436862961
FINAL SINGLE POINT ENERGY      -652.857469522864
FINAL SINGLE POINT ENERGY      -652.857474048845
                    ***********************HURRAY********************

CARTESIAN COORDINATES (ANGSTROEM)
---------------------------------
  C    -21.054019   26.467937   46.246409
  C    -20.379385   27.802871   45.908373
  C    -20.038674   28.364895   47.319898
  C    -19.693225   27.080684   48.114823
  O    -20.269575   25.955062   47.333472
  H    -20.993280   25.734732   45.440916
  H    -19.462825   27.605519   45.340885
  H    -21.026642   28.457541   45.320043
  H    -19.196196   29.063595   47.293937
  H    -20.892026   28.895322   47.750476
  H    -20.128703   27.046521   49.115147
  H    -18.615445   26.902309   48.171784
  C    -23.145462   27.075203   47.652643
  H    -22.568494   27.902834   48.079195
  H    -24.092884   27.487772   47.287261
  O    -22.492221   26.556408   46.456398
  C    -23.467288   26.088174   48.787560
  C    -24.431775   24.953636   48.414369
  C    -23.458907   23.883744   47.851550
  C    -22.195679   24.061971   48.730391
  O    -22.315332   25.404912   49.359684
  H    -23.908133   26.692863   49.591017
  O    -25.154101   24.482643   49.588569
  H    -25.205050   25.251035   47.705908
  H    -23.893937   22.882989   47.920904
  H    -23.238349   24.114739   46.806111
  H    -21.267963   24.044419   48.160266
  H    -22.145806   23.335845   49.549207
  H    -24.511624   24.305827   50.307805

 Multiplicity           Mult            ....    1
 Number of Electrons    NEL             ....  102
 Basis Dimension        Dim             ....  149

ORBITAL ENERGIES
----------------

  NO   OCC          E(Eh)            E(eV)
   0   2.0000     -19.146779      -521.0103
   1   2.0000     -19.143542      -520.9223
   2   2.0000     -19.134582      -520.6784
   3   2.0000     -19.129785      -520.5479
   4   2.0000     -10.282294      -279.7955
   5   2.0000     -10.234379      -278.4916
   6   2.0000     -10.230707      -278.3917
   7   2.0000     -10.229405      -278.3563
   8   2.0000     -10.227380      -278.3012
   9   2.0000     -10.212047      -277.8839
  10   2.0000     -10.193404      -277.3766
  11   2.0000     -10.189365      -277.2667
  12   2.0000     -10.172469      -276.8070
  13   2.0000      -1.053198       -28.6590
  14   2.0000      -1.027103       -27.9489
  15   2.0000      -0.998661       -27.1749
  16   2.0000      -0.993479       -27.0339
  17   2.0000      -0.789217       -21.4757
  18   2.0000      -0.776449       -21.1282
  19   2.0000      -0.760763       -20.7014
  20   2.0000      -0.733055       -19.9474
  21   2.0000      -0.674407       -18.3515
  22   2.0000      -0.605473       -16.4757
  23   2.0000      -0.602890       -16.4055
  24   2.0000      -0.591253       -16.0888
  25   2.0000      -0.562378       -15.3031
  26   2.0000      -0.522736       -14.2244
  27   2.0000      -0.508130       -13.8269
  28   2.0000      -0.494806       -13.4644
  29   2.0000      -0.483534       -13.1576
  30   2.0000      -0.468947       -12.7607
  31   2.0000      -0.458105       -12.4657
  32   2.0000      -0.443772       -12.0757
  33   2.0000      -0.429856       -11.6970
  34   2.0000      -0.423300       -11.5186
  35   2.0000      -0.414168       -11.2701
  36   2.0000      -0.396966       -10.8020
  37   2.0000      -0.382981       -10.4214
  38   2.0000      -0.381183       -10.3725
  39   2.0000      -0.363639        -9.8951
  40   2.0000      -0.359096        -9.7715
  41   2.0000      -0.356442        -9.6993
  42   2.0000      -0.346899        -9.4396
  43   2.0000      -0.327294        -8.9061
  44   2.0000      -0.315426        -8.5832
  45   2.0000      -0.308778        -8.4023
  46   2.0000      -0.297297        -8.0899
  47   2.0000      -0.265675        -7.2294
  48   2.0000      -0.264919        -7.2088
  49   2.0000      -0.255900        -6.9634
  50   2.0000      -0.230364        -6.2685
  51   0.0000       0.068394         1.8611
  52   0.0000       0.080708         2.1962
  53   0.0000       0.093947         2.5564
  54   0.0000       0.101754         2.7689
  55   0.0000       0.107163         2.9160

MULLIKEN ATOMIC CHARGES
-----------------------
   0 C :    0.308795
   1 C :   -0.269570
   2 C :   -0.323503
   3 C :   -0.010516
   4 O :   -0.505791
   5 H :    0.162101
   6 H :    0.151468
   7 H :    0.153206
   8 H :    0.147537
   9 H :    0.152739
  10 H :    0.170579
  11 H :    0.146733
  12 C :   -0.011583
  13 H :    0.130549
  14 H :    0.148942
  15 O :   -0.537533
  16 C :    0.081647
  17 C :    0.081274
  18 C :   -0.302332
  19 C :   -0.029668
  20 O :   -0.528874
  21 H :    0.148907
  22 O :   -0.606411
  23 H :    0.150658
  24 H :    0.148861
  25 H :    0.170281
  26 H :    0.179919
  27 H :    0.130772
  28 H :    0.360812
Sum of atomic charges:   -0.0000000

LOEWDIN ATOMIC CHARGES
----------------------
   0 C :    0.178277
   1 C :   -0.226047
   2 C :   -0.223698
   3 C :   -0.032711
   4 O :   -0.308689
   5 H :    0.110954
   6 H :    0.118222
   7 H :    0.120859
   8 H :    0.116612
   9 H :    0.109165
  10 H :    0.116632
  11 H :    0.104944
  12 C :   -0.038357
  13 H :    0.096470
  14 H :    0.114324
  15 O :   -0.337543
  16 C :    0.004816
  17 C :    0.037369
  18 C :   -0.242689
  19 C :   -0.040505
  20 O :   -0.329384
  21 H :    0.113451
  22 O :   -0.418994
  23 H :    0.114902
  24 H :    0.118962
  25 H :    0.126936
  26 H :    0.121187
  27 H :    0.093847
  28 H :    0.280689

  Mayer bond orders larger than 0.100000
B(  0-C ,  1-C ) :   0.9229 B(  0-C ,  4-O ) :   0.9119 B(  0-C ,  5-H ) :   0.9363
B(  0-C , 15-O ) :   0.8623 B(  1-C ,  2-C ) :   0.9552 B(  1-C ,  6-H ) :   0.9350
B(  1-C ,  7-H ) :   0.9379 B(  2-C ,  3-C ) :   0.9491 B(  2-C ,  8-H ) :   0.9439
B(  2-C ,  9-H ) :   0.9378 B(  3-C ,  4-O ) :   0.8219 B(  3-C , 10-H ) :   0.9232
B(  3-C , 11-H ) :   0.9397 B( 12-C , 13-H ) :   0.9115 B( 12-C , 14-H ) :   0.9294
B( 12-C , 15-O ) :   0.8597 B( 12-C , 16-C ) :   0.8801 B( 16-C , 17-C ) :   0.9088
B( 16-C , 20-O ) :   0.8797 B( 16-C , 21-H ) :   0.9154 B( 17-C , 18-C ) :   0.9236
B( 17-C , 22-O ) :   0.8872 B( 17-C , 23-H ) :   0.9357 B( 18-C , 19-C ) :   0.9485
B( 18-C , 24-H ) :   0.9375 B( 18-C , 25-H ) :   0.9216 B( 19-C , 20-O ) :   0.8247
B( 19-C , 26-H ) :   0.9138 B( 19-C , 27-H ) :   0.9386 B( 22-O , 28-H ) :   0.7973

FINAL SINGLE POINT ENERGY      -652.857472659577

DIPOLE MOMENT
-------------
                                X             Y             Z
Electronic contribution:     -2.59160      -2.67213       1.30088
Nuclear contribution   :      3.42583       3.50931      -1.64098
                        -----------------------------------------
Total Dipole Moment    :      0.83423       0.83717      -0.34010
                        -----------------------------------------
Magnitude (a.u.)       :      1.22982
Magnitude (Debye)      :      3.12596

Rotational constants in cm-1:     0.057042     0.016716     0.015977
Rotational constants in MHz :  1710.069113   501.142626   478.983175

                             ****ORCA TERMINATED NORMALLY****
TOTAL RUN TIME: 0 days 1 hours 23 minutes 29 seconds 134 msec
