                         Program Version 4.2.1 -  RELEASE  -
|  1> # Test redundant internal optimization
|  2> #
|  3> ! RKS B3LYP  Opt TightSCF SmallPrint
|  4>
|  5> %basis
|  6>         Basis "6-31G"
|  7> end
|  8>
|  9> %geom
| 10> Constraints
| 11> { D 4  0  19  14  120.0   C } # D for Dihedral angle
| 12> { D 0  19  14  12  135.0   C } # D for Dihedral angle
| 13> { D 0  4  3  2   C } # D for Dihedral angle
| 14> { D 4  3  2  1   C } # D for Dihedral angle
| 15> { D 3  2  1  0   C } # D for Dihedral angle
| 16> { D 2  1  0  4   C } # D for Dihedral angle
| 17> { D 1  0  4  3   C } # D for Dihedral angle
| 18> { D 14  15  16  17   C } # D for Dihedral angle
| 19> { D 15  16  17  12   C } # D for Dihedral angle
| 20> { D 16  17  12  14   C } # D for Dihedral angle
| 21> { D 17  12  14  15   C } # D for Dihedral angle
| 22> { D 12  14  15  16   C } # D for Dihedral angle
| 23> end
| 24> end
| 25>
| 26>
| 27> #%pal
| 28> #nprocs 8
| 29> #end
| 30>
| 31> * xyz 0 1
| 32> C  -21.048   26.222   46.251
| 33> C  -20.361   27.558   45.944
| 34> C  -20.329   28.222   47.341
| 35> C  -20.110   27.022   48.296
| 36> O  -20.473   25.807   47.535
| 37> H  -20.833   25.428   45.533
| 38> H  -19.344   27.382   45.576
| 39> H  -20.898   28.157   45.201
| 40> H  -19.543   28.978   47.434
| 41> H  -21.289   28.710   47.548
| 42> H  -20.733   27.082   49.195
| 43> H  -19.064   26.913   48.597
| 44> C  -24.183   27.629   45.166
| 45> H  -24.392   28.600   44.691
| 46> C  -22.946   27.704   46.069
| 47> C  -23.523   28.375   47.337
| 48> C  -24.959   27.798   47.419
| 49> O  -25.273   27.260   46.076
| 50> H  -24.135   26.857   44.396
| 51> O  -22.472   26.381   46.366
| 52> H  -22.123   28.274   45.624
| 53> H  -22.936   28.162   48.236
| 54> H  -23.552   29.465   47.208
| 55> H  -25.703   28.557   47.684
| 56> H  -25.035   26.966   48.125
| 57> *
| 58>
| 59>                          ****END OF INPUT****
 Total Charge           Charge          ....    0
 Multiplicity           Mult            ....    1
 Number of Electrons    NEL             ....   86
FINAL SINGLE POINT ENERGY      -538.391625357629
FINAL SINGLE POINT ENERGY      -538.420488007815
FINAL SINGLE POINT ENERGY      -538.422073942572
FINAL SINGLE POINT ENERGY      -538.422409098543
FINAL SINGLE POINT ENERGY      -538.422423674723
FINAL SINGLE POINT ENERGY      -538.422427155694
                    ***********************HURRAY********************

CARTESIAN COORDINATES (ANGSTROEM)
---------------------------------
  C    -21.059158   26.325524   46.293394
  C    -20.126568   27.490839   45.947937
  C    -19.982054   28.207588   47.318404
  C    -20.009078   27.026891   48.318868
  O    -20.592340   25.881110   47.584660
  H    -20.954852   25.460333   45.636506
  H    -19.165694   27.068245   45.635934
  H    -20.478984   28.141323   45.143795
  H    -19.057874   28.789025   47.388209
  H    -20.821581   28.889606   47.488817
  H    -20.617926   27.230380   49.204760
  H    -19.007123   26.724492   48.636689
  C    -24.315060   27.645271   45.154134
  H    -24.644130   28.591118   44.696262
  C    -23.104327   27.877077   46.060269
  C    -23.769714   28.433219   47.336226
  C    -25.107541   27.658633   47.403903
  O    -25.339079   27.109293   46.049639
  H    -24.128269   26.900176   44.379770
  O    -22.486912   26.588577   46.340815
  H    -22.391077   28.579244   45.618369
  H    -23.145653   28.271476   48.218699
  H    -23.942834   29.510811   47.223695
  H    -25.951275   28.300815   47.680309
  H    -25.057898   26.807934   48.087937

 Multiplicity           Mult            ....    1
 Number of Electrons    NEL             ....   86
 Basis Dimension        Dim             ....  127

ORBITAL ENERGIES
----------------

  NO   OCC          E(Eh)            E(eV)
   0   2.0000     -19.139174      -520.8034
   1   2.0000     -19.137348      -520.7537
   2   2.0000     -19.125178      -520.4226
   3   2.0000     -10.281798      -279.7819
   4   2.0000     -10.243802      -278.7480
   5   2.0000     -10.229531      -278.3597
   6   2.0000     -10.220646      -278.1179
   7   2.0000     -10.217770      -278.0397
   8   2.0000     -10.197953      -277.5004
   9   2.0000     -10.197247      -277.4812
  10   2.0000     -10.186463      -277.1877
  11   2.0000      -1.050778       -28.5931
  12   2.0000      -1.013052       -27.5666
  13   2.0000      -0.988223       -26.8909
  14   2.0000      -0.793679       -21.5971
  15   2.0000      -0.785435       -21.3728
  16   2.0000      -0.741104       -20.1665
  17   2.0000      -0.725171       -19.7329
  18   2.0000      -0.622463       -16.9381
  19   2.0000      -0.605998       -16.4901
  20   2.0000      -0.596934       -16.2434
  21   2.0000      -0.564666       -15.3653
  22   2.0000      -0.527933       -14.3658
  23   2.0000      -0.507468       -13.8089
  24   2.0000      -0.488913       -13.3040
  25   2.0000      -0.480851       -13.0846
  26   2.0000      -0.452166       -12.3041
  27   2.0000      -0.446964       -12.1625
  28   2.0000      -0.427768       -11.6402
  29   2.0000      -0.424794       -11.5592
  30   2.0000      -0.407092       -11.0775
  31   2.0000      -0.387245       -10.5375
  32   2.0000      -0.377467       -10.2714
  33   2.0000      -0.368375       -10.0240
  34   2.0000      -0.365122        -9.9355
  35   2.0000      -0.358731        -9.7616
  36   2.0000      -0.355040        -9.6611
  37   2.0000      -0.316401        -8.6097
  38   2.0000      -0.301575        -8.2063
  39   2.0000      -0.289509        -7.8779
  40   2.0000      -0.266862        -7.2617
  41   2.0000      -0.251525        -6.8443
  42   2.0000      -0.229293        -6.2394
  43   0.0000       0.065170         1.7734
  44   0.0000       0.090800         2.4708
  45   0.0000       0.091588         2.4922
  46   0.0000       0.108394         2.9496
  47   0.0000       0.114790         3.1236

MULLIKEN ATOMIC CHARGES
-----------------------
   0 C :    0.318591
   1 C :   -0.306470
   2 C :   -0.309834
   3 C :   -0.003835
   4 O :   -0.494017
   5 H :    0.160581
   6 H :    0.158890
   7 H :    0.146828
   8 H :    0.146912
   9 H :    0.151603
  10 H :    0.145780
  11 H :    0.145750
  12 C :    0.018890
  13 H :    0.117169
  14 C :    0.054445
  15 C :   -0.290760
  16 C :    0.005132
  17 O :   -0.517514
  18 H :    0.161117
  19 O :   -0.521513
  20 H :    0.126830
  21 H :    0.155874
  22 H :    0.137116
  23 H :    0.131144
  24 H :    0.161291
Sum of atomic charges:   -0.0000000

LOEWDIN ATOMIC CHARGES
----------------------
   0 C :    0.182908
   1 C :   -0.233112
   2 C :   -0.221794
   3 C :   -0.030473
   4 O :   -0.312941
   5 H :    0.108122
   6 H :    0.124129
   7 H :    0.114175
   8 H :    0.116720
   9 H :    0.109789
  10 H :    0.103437
  11 H :    0.104521
  12 C :   -0.036895
  13 H :    0.088036
  14 C :    0.036349
  15 C :   -0.234477
  16 C :   -0.026613
  17 O :   -0.326972
  18 H :    0.120079
  19 O :   -0.322461
  20 H :    0.096592
  21 H :    0.121922
  22 H :    0.109813
  23 H :    0.096690
  24 H :    0.112458

  Mayer bond orders larger than 0.100000
B(  0-C ,  1-C ) :   0.9299 B(  0-C ,  4-O ) :   0.9133 B(  0-C ,  5-H ) :   0.9315
B(  0-C , 19-O ) :   0.8789 B(  1-C ,  2-C ) :   0.9505 B(  1-C ,  6-H ) :   0.9330
B(  1-C ,  7-H ) :   0.9270 B(  2-C ,  3-C ) :   0.9497 B(  2-C ,  8-H ) :   0.9457
B(  2-C ,  9-H ) :   0.9406 B(  3-C ,  4-O ) :   0.8487 B(  3-C , 10-H ) :   0.9328
B(  3-C , 11-H ) :   0.9389 B( 12-C , 13-H ) :   0.9123 B( 12-C , 14-C ) :   0.9298
B( 12-C , 17-O ) :   0.8776 B( 12-C , 18-H ) :   0.9321 B( 14-C , 15-C ) :   0.9389
B( 14-C , 19-O ) :   0.8335 B( 14-C , 20-H ) :   0.9081 B( 15-C , 16-C ) :   0.9472
B( 15-C , 21-H ) :   0.9373 B( 15-C , 22-H ) :   0.9374 B( 16-C , 17-O ) :   0.8564
B( 16-C , 23-H ) :   0.9334 B( 16-C , 24-H ) :   0.9346

FINAL SINGLE POINT ENERGY      -538.422427207322

DIPOLE MOMENT
-------------
                                X             Y             Z
Electronic contribution:     -2.31838      -5.15983      -1.09759
Nuclear contribution   :      3.49568       6.82772       0.99033
                        -----------------------------------------
Total Dipole Moment    :      1.17730       1.66789      -0.10726
                        -----------------------------------------
Magnitude (a.u.)       :      2.04436
Magnitude (Debye)      :      5.19635

Rotational constants in cm-1:     0.077398     0.021752     0.020994
Rotational constants in MHz :  2320.330191   652.117452   629.381471

                             ****ORCA TERMINATED NORMALLY****
TOTAL RUN TIME: 0 days 0 hours 7 minutes 21 seconds 775 msec
