                         Program Version 4.2.0 -  RELEASE  -
|  1> # Test redundant internal optimization
|  2> #
|  3> ! RKS B3LYP  Opt TightSCF SmallPrint
|  4>
|  5> %basis
|  6>         Basis "6-31G"
|  7> end
|  8>
|  9> %geom
| 10> Constraints
| 11> { D 4  0  15  12  105.0   C } # D for Dihedral angle
| 12> { D 0  15  12  16  150.0   C } # D for Dihedral angle
| 13> { D 0  4  3  2   C } # D for Dihedral angle
| 14> { D 4  3  2  1   C } # D for Dihedral angle
| 15> { D 3  2  1  0   C } # D for Dihedral angle
| 16> { D 2  1  0  4   C } # D for Dihedral angle
| 17> { D 1  0  4  3   C } # D for Dihedral angle
| 18> { D 16  20  19  18   C } # D for Dihedral angle
| 19> { D 20  19  18  17   C } # D for Dihedral angle
| 20> { D 19  18  17  16   C } # D for Dihedral angle
| 21> { D 18  17  16  20   C } # D for Dihedral angle
| 22> { D 17  16  20  19   C } # D for Dihedral angle
| 23> { D 15  12  16  20   C } # D for Dihedral angle
| 24> end
| 25> end
| 26>
| 27>
| 28> #%pal
| 29> #nprocs 8
| 30> #end
| 31>
| 32> * xyz 0 1
| 33> C  -21.048   26.222   46.251
| 34> C  -20.361   27.558   45.944
| 35> C  -20.329   28.222   47.341
| 36> C  -20.110   27.022   48.296
| 37> O  -20.473   25.807   47.535
| 38> H  -20.833   25.428   45.533
| 39> H  -19.344   27.382   45.576
| 40> H  -20.898   28.157   45.201
| 41> H  -19.543   28.978   47.434
| 42> H  -21.289   28.710   47.548
| 43> H  -20.733   27.082   49.195
| 44> H  -19.064   26.913   48.597
| 45> C  -23.085   27.864   46.420
| 46> H  -23.109   28.206   47.462
| 47> H  -22.403   28.518   45.861
| 48> O  -22.586   26.394   46.375
| 49> C  -24.506   28.036   45.816
| 50> C  -24.918   29.511   45.771
| 51> C  -24.158   30.011   44.520
| 52> C  -24.201   28.788   43.570
| 53> O  -24.520   27.614   44.411
| 54> H  -25.203   27.388   46.352
| 55> H  -26.000   29.596   45.625
| 56> O  -24.535   30.291   47.059
| 57> H  -24.613   30.902   44.074
| 58> H  -23.122   30.260   44.782
| 59> H  -23.245   28.616   43.063
| 60> H  -24.991   28.870   42.818
| 61> H  -23.455   30.221   47.226
| 62> *
| 63>
| 64>                          ****END OF INPUT****
 Total Charge           Charge          ....    0
 Multiplicity           Mult            ....    1
 Number of Electrons    NEL             ....  102
FINAL SINGLE POINT ENERGY      -652.808401069022
FINAL SINGLE POINT ENERGY      -652.833923262346
FINAL SINGLE POINT ENERGY      -652.845362547619
FINAL SINGLE POINT ENERGY      -652.847338975539
FINAL SINGLE POINT ENERGY      -652.847707154313
FINAL SINGLE POINT ENERGY      -652.847800174718
FINAL SINGLE POINT ENERGY      -652.847814039351
FINAL SINGLE POINT ENERGY      -652.847806889443
FINAL SINGLE POINT ENERGY      -652.847805600755
                    ***********************HURRAY********************

CARTESIAN COORDINATES (ANGSTROEM)
---------------------------------
  C    -21.157756   26.334784   46.333715
  C    -20.161448   27.450134   45.994962
  C    -19.921147   28.104023   47.384871
  C    -19.991814   26.888041   48.343246
  O    -20.674916   25.811520   47.592439
  H    -21.132296   25.490708   45.643726
  H    -19.241129   26.983228   45.629426
  H    -20.512136   28.147512   45.229643
  H    -18.956609   28.617834   47.441981
  H    -20.702448   28.835286   47.616118
  H    -20.551923   27.097490   49.259455
  H    -18.999998   26.511903   48.610891
  C    -23.056286   28.035490   46.465373
  H    -23.177824   28.345150   47.512546
  H    -22.373471   28.735073   45.966661
  O    -22.559525   26.677583   46.390203
  C    -24.420243   28.050636   45.773671
  C    -25.088449   29.434504   45.718678
  C    -24.406111   30.070586   44.469997
  C    -24.221321   28.858854   43.530571
  O    -24.340395   27.642340   44.374358
  H    -25.052366   27.304546   46.263155
  H    -26.159540   29.310817   45.545863
  O    -25.004336   30.221613   46.931829
  H    -25.012402   30.865864   44.028082
  H    -23.440416   30.505340   44.761411
  H    -23.249077   28.853008   43.026629
  H    -25.007944   28.799993   42.771854
  H    -24.101672   30.583138   47.044647

 Multiplicity           Mult            ....    1
 Number of Electrons    NEL             ....  102
 Basis Dimension        Dim             ....  149

ORBITAL ENERGIES
----------------

  NO   OCC          E(Eh)            E(eV)
   0   2.0000     -19.152949      -521.1782
   1   2.0000     -19.138309      -520.7799
   2   2.0000     -19.137973      -520.7707
   3   2.0000     -19.136220      -520.7230
   4   2.0000     -10.277501      -279.6650
   5   2.0000     -10.247655      -278.8529
   6   2.0000     -10.234417      -278.4926
   7   2.0000     -10.233104      -278.4569
   8   2.0000     -10.230735      -278.3924
   9   2.0000     -10.227452      -278.3031
  10   2.0000     -10.199026      -277.5296
  11   2.0000     -10.196362      -277.4571
  12   2.0000     -10.195473      -277.4329
  13   2.0000      -1.049219       -28.5507
  14   2.0000      -1.035563       -28.1791
  15   2.0000      -1.017425       -27.6855
  16   2.0000      -0.992500       -27.0073
  17   2.0000      -0.791235       -21.5306
  18   2.0000      -0.785590       -21.3770
  19   2.0000      -0.773125       -21.0378
  20   2.0000      -0.733254       -19.9529
  21   2.0000      -0.686944       -18.6927
  22   2.0000      -0.614157       -16.7121
  23   2.0000      -0.606106       -16.4930
  24   2.0000      -0.597556       -16.2603
  25   2.0000      -0.573071       -15.5941
  26   2.0000      -0.529819       -14.4171
  27   2.0000      -0.509174       -13.8553
  28   2.0000      -0.505382       -13.7522
  29   2.0000      -0.496338       -13.5061
  30   2.0000      -0.474989       -12.9251
  31   2.0000      -0.462225       -12.5778
  32   2.0000      -0.445751       -12.1295
  33   2.0000      -0.437685       -11.9100
  34   2.0000      -0.428047       -11.6478
  35   2.0000      -0.421629       -11.4731
  36   2.0000      -0.409301       -11.1376
  37   2.0000      -0.403863       -10.9897
  38   2.0000      -0.385073       -10.4784
  39   2.0000      -0.380612       -10.3570
  40   2.0000      -0.363918        -9.9027
  41   2.0000      -0.355991        -9.6870
  42   2.0000      -0.353397        -9.6164
  43   2.0000      -0.332584        -9.0501
  44   2.0000      -0.317096        -8.6286
  45   2.0000      -0.313812        -8.5393
  46   2.0000      -0.292670        -7.9639
  47   2.0000      -0.273185        -7.4337
  48   2.0000      -0.265089        -7.2134
  49   2.0000      -0.252233        -6.8636
  50   2.0000      -0.239630        -6.5207
  51   0.0000       0.042145         1.1468
  52   0.0000       0.064249         1.7483
  53   0.0000       0.081414         2.2154
  54   0.0000       0.091575         2.4919
  55   0.0000       0.099936         2.7194

MULLIKEN ATOMIC CHARGES
-----------------------
   0 C :    0.314416
   1 C :   -0.302959
   2 C :   -0.307598
   3 C :   -0.004442
   4 O :   -0.495767
   5 H :    0.168911
   6 H :    0.159234
   7 H :    0.147352
   8 H :    0.145254
   9 H :    0.139646
  10 H :    0.146659
  11 H :    0.145160
  12 C :   -0.009065
  13 H :    0.137755
  14 H :    0.113667
  15 O :   -0.514516
  16 C :    0.094549
  17 C :    0.074158
  18 C :   -0.321545
  19 C :   -0.015275
  20 O :   -0.501973
  21 H :    0.173876
  22 H :    0.174312
  23 O :   -0.596894
  24 H :    0.159625
  25 H :    0.127573
  26 H :    0.140140
  27 H :    0.154033
  28 H :    0.353715
Sum of atomic charges:   -0.0000000

LOEWDIN ATOMIC CHARGES
----------------------
   0 C :    0.180212
   1 C :   -0.232500
   2 C :   -0.222567
   3 C :   -0.031145
   4 O :   -0.317132
   5 H :    0.113876
   6 H :    0.124557
   7 H :    0.114505
   8 H :    0.115717
   9 H :    0.105067
  10 H :    0.104203
  11 H :    0.103621
  12 C :   -0.048771
  13 H :    0.099002
  14 H :    0.085339
  15 O :   -0.310844
  16 C :    0.020388
  17 C :    0.033373
  18 C :   -0.242490
  19 C :   -0.032389
  20 O :   -0.311211
  21 H :    0.124302
  22 H :    0.122261
  23 O :   -0.406377
  24 H :    0.123389
  25 H :    0.101008
  26 H :    0.100501
  27 H :    0.107796
  28 H :    0.276306

  Mayer bond orders larger than 0.100000
B(  0-C ,  1-C ) :   0.9297 B(  0-C ,  4-O ) :   0.9037 B(  0-C ,  5-H ) :   0.9324
B(  0-C , 15-O ) :   0.8891 B(  1-C ,  2-C ) :   0.9505 B(  1-C ,  6-H ) :   0.9341
B(  1-C ,  7-H ) :   0.9296 B(  2-C ,  3-C ) :   0.9484 B(  2-C ,  8-H ) :   0.9458
B(  2-C ,  9-H ) :   0.9426 B(  3-C ,  4-O ) :   0.8520 B(  3-C , 10-H ) :   0.9339
B(  3-C , 11-H ) :   0.9389 B( 12-C , 13-H ) :   0.9036 B( 12-C , 14-H ) :   0.9056
B( 12-C , 15-O ) :   0.8552 B( 12-C , 16-C ) :   0.8999 B( 16-C , 17-C ) :   0.8741
B( 16-C , 20-O ) :   0.8690 B( 16-C , 21-H ) :   0.9270 B( 17-C , 18-C ) :   0.9231
B( 17-C , 22-H ) :   0.9311 B( 17-C , 23-O ) :   0.8961 B( 18-C , 19-C ) :   0.9390
B( 18-C , 24-H ) :   0.9412 B( 18-C , 25-H ) :   0.9411 B( 19-C , 20-O ) :   0.8534
B( 19-C , 26-H ) :   0.9317 B( 19-C , 27-H ) :   0.9368 B( 23-O , 28-H ) :   0.7994

FINAL SINGLE POINT ENERGY      -652.847805842194

DIPOLE MOMENT
-------------
                                X             Y             Z
Electronic contribution:     -4.08996      -5.08975       0.83007
Nuclear contribution   :      5.18995       6.89636      -1.34447
                        -----------------------------------------
Total Dipole Moment    :      1.09999       1.80661      -0.51439
                        -----------------------------------------
Magnitude (a.u.)       :      2.17679
Magnitude (Debye)      :      5.53296

Rotational constants in cm-1:     0.049891     0.013724     0.012817
Rotational constants in MHz :  1495.704153   411.446124   384.252847

                             ****ORCA TERMINATED NORMALLY****
TOTAL RUN TIME: 0 days 2 hours 11 minutes 52 seconds 940 msec
