                         Program Version 4.2.0 -  RELEASE  -
|  1> # Test redundant internal optimization
|  2> #
|  3> ! RKS B3LYP  Opt TightSCF SmallPrint
|  4>
|  5> %basis
|  6>         Basis "6-31G"
|  7> end
|  8>
|  9> %geom
| 10> Constraints
| 11> { D 4  0  15  12  60.0   C } # D for Dihedral angle
| 12> { D 0  15  12  16  210.0   C } # D for Dihedral angle
| 13> { D 0  4  3  2   C } # D for Dihedral angle
| 14> { D 4  3  2  1   C } # D for Dihedral angle
| 15> { D 3  2  1  0   C } # D for Dihedral angle
| 16> { D 2  1  0  4   C } # D for Dihedral angle
| 17> { D 1  0  4  3   C } # D for Dihedral angle
| 18> { D 16  20  19  18   C } # D for Dihedral angle
| 19> { D 20  19  18  17   C } # D for Dihedral angle
| 20> { D 19  18  17  16   C } # D for Dihedral angle
| 21> { D 18  17  16  20   C } # D for Dihedral angle
| 22> { D 17  16  20  19   C } # D for Dihedral angle
| 23> { D 15  12  16  20   C } # D for Dihedral angle
| 24> end
| 25> end
| 26>
| 27>
| 28> #%pal
| 29> #nprocs 8
| 30> #end
| 31>
| 32> * xyz 0 1
| 33> C  -21.048   26.222   46.251
| 34> C  -20.361   27.558   45.944
| 35> C  -20.329   28.222   47.341
| 36> C  -20.110   27.022   48.296
| 37> O  -20.473   25.807   47.535
| 38> H  -20.833   25.428   45.533
| 39> H  -19.344   27.382   45.576
| 40> H  -20.898   28.157   45.201
| 41> H  -19.543   28.978   47.434
| 42> H  -21.289   28.710   47.548
| 43> H  -20.733   27.082   49.195
| 44> H  -19.064   26.913   48.597
| 45> C  -23.051   27.452   47.413
| 46> H  -22.310   27.516   48.220
| 47> H  -23.134   28.440   46.944
| 48> O  -22.586   26.394   46.375
| 49> C  -24.430   27.110   48.042
| 50> C  -24.361   25.820   48.867
| 51> C  -23.713   26.321   50.180
| 52> C  -24.301   27.745   50.341
| 53> O  -24.819   28.139   49.013
| 54> H  -25.189   27.106   47.259
| 55> O  -25.794   25.281   49.133
| 56> H  -23.781   25.028   48.381
| 57> H  -23.938   25.677   51.036
| 58> H  -22.623   26.362   50.069
| 59> H  -23.551   28.474   50.664
| 60> H  -25.144   27.773   51.037
| 61> H  -26.395   26.058   49.620
| 62> *
| 63>
| 64>                          ****END OF INPUT****
 Total Charge           Charge          ....    0
 Multiplicity           Mult            ....    1
 Number of Electrons    NEL             ....  102
FINAL SINGLE POINT ENERGY      -652.817925601505
FINAL SINGLE POINT ENERGY      -652.845452065840
FINAL SINGLE POINT ENERGY      -652.858270938424
FINAL SINGLE POINT ENERGY      -652.860191966345
FINAL SINGLE POINT ENERGY      -652.860525520859
FINAL SINGLE POINT ENERGY      -652.860583595905
FINAL SINGLE POINT ENERGY      -652.860589023526
                    ***********************HURRAY********************

CARTESIAN COORDINATES (ANGSTROEM)
---------------------------------
  C    -21.210429   26.337326   46.433097
  C    -20.374387   27.495675   45.869418
  C    -19.968089   28.260791   47.161754
  C    -19.783680   27.115561   48.189475
  O    -20.490654   25.937570   47.624630
  H    -21.219127   25.462892   45.781077
  H    -19.492487   27.081235   45.370037
  H    -20.930374   28.107963   45.154834
  H    -19.048123   28.838976   47.030885
  H    -20.754267   28.956855   47.466839
  H    -20.201036   27.344814   49.175044
  H    -18.734719   26.828316   48.307698
  C    -23.098104   27.580315   47.565095
  H    -22.403555   27.707660   48.401736
  H    -23.228130   28.544972   47.061300
  O    -22.617803   26.567978   46.632676
  C    -24.446000   27.089887   48.095047
  C    -24.386863   25.782358   48.897153
  C    -23.891842   26.283829   50.277146
  C    -24.565030   27.672077   50.413702
  O    -24.978651   28.075652   49.044648
  H    -25.161956   27.009195   47.272707
  O    -25.703861   25.170501   48.984006
  H    -23.739293   25.034874   48.443644
  H    -24.184991   25.588536   51.068024
  H    -22.799201   26.361950   50.277903
  H    -23.894246   28.435346   50.821484
  H    -25.471408   27.642828   51.026150
  H    -26.366694   25.861068   49.197791

 Multiplicity           Mult            ....    1
 Number of Electrons    NEL             ....  102
 Basis Dimension        Dim             ....  149

ORBITAL ENERGIES
----------------

  NO   OCC          E(Eh)            E(eV)
   0   2.0000     -19.149252      -521.0776
   1   2.0000     -19.149184      -521.0758
   2   2.0000     -19.143858      -520.9308
   3   2.0000     -19.131380      -520.5913
   4   2.0000     -10.282950      -279.8133
   5   2.0000     -10.236500      -278.5493
   6   2.0000     -10.233626      -278.4711
   7   2.0000     -10.231227      -278.4058
   8   2.0000     -10.231144      -278.4036
   9   2.0000     -10.230562      -278.3878
  10   2.0000     -10.197967      -277.5008
  11   2.0000     -10.194147      -277.3968
  12   2.0000     -10.185164      -277.1524
  13   2.0000      -1.058037       -28.7906
  14   2.0000      -1.033583       -28.1252
  15   2.0000      -1.002779       -27.2870
  16   2.0000      -0.999615       -27.2009
  17   2.0000      -0.793796       -21.6003
  18   2.0000      -0.781183       -21.2571
  19   2.0000      -0.769869       -20.9492
  20   2.0000      -0.734593       -19.9893
  21   2.0000      -0.679159       -18.4808
  22   2.0000      -0.609146       -16.5757
  23   2.0000      -0.602265       -16.3885
  24   2.0000      -0.597126       -16.2486
  25   2.0000      -0.577942       -15.7266
  26   2.0000      -0.522894       -14.2287
  27   2.0000      -0.514418       -13.9980
  28   2.0000      -0.506928       -13.7942
  29   2.0000      -0.490446       -13.3457
  30   2.0000      -0.474245       -12.9049
  31   2.0000      -0.460052       -12.5186
  32   2.0000      -0.452479       -12.3126
  33   2.0000      -0.437020       -11.8919
  34   2.0000      -0.421529       -11.4704
  35   2.0000      -0.420608       -11.4453
  36   2.0000      -0.410019       -11.1572
  37   2.0000      -0.390110       -10.6154
  38   2.0000      -0.385703       -10.4955
  39   2.0000      -0.366583        -9.9752
  40   2.0000      -0.364609        -9.9215
  41   2.0000      -0.359757        -9.7895
  42   2.0000      -0.352455        -9.5908
  43   2.0000      -0.329662        -8.9705
  44   2.0000      -0.321268        -8.7422
  45   2.0000      -0.313590        -8.5332
  46   2.0000      -0.303454        -8.2574
  47   2.0000      -0.274919        -7.4809
  48   2.0000      -0.264556        -7.1989
  49   2.0000      -0.258556        -7.0357
  50   2.0000      -0.244652        -6.6573
  51   0.0000       0.056681         1.5424
  52   0.0000       0.066237         1.8024
  53   0.0000       0.089151         2.4259
  54   0.0000       0.096124         2.6157
  55   0.0000       0.101329         2.7573

MULLIKEN ATOMIC CHARGES
-----------------------
   0 C :    0.296249
   1 C :   -0.270796
   2 C :   -0.318114
   3 C :   -0.016137
   4 O :   -0.507199
   5 H :    0.168774
   6 H :    0.155453
   7 H :    0.153809
   8 H :    0.148681
   9 H :    0.153051
  10 H :    0.140583
  11 H :    0.151249
  12 C :   -0.013462
  13 H :    0.135893
  14 H :    0.148086
  15 O :   -0.521320
  16 C :    0.056633
  17 C :    0.091510
  18 C :   -0.311729
  19 C :   -0.034197
  20 O :   -0.527917
  21 H :    0.169717
  22 O :   -0.601445
  23 H :    0.183990
  24 H :    0.162675
  25 H :    0.155084
  26 H :    0.141897
  27 H :    0.148389
  28 H :    0.360592
Sum of atomic charges:   -0.0000000

LOEWDIN ATOMIC CHARGES
----------------------
   0 C :    0.174155
   1 C :   -0.227730
   2 C :   -0.224898
   3 C :   -0.035635
   4 O :   -0.323600
   5 H :    0.114895
   6 H :    0.121481
   7 H :    0.121361
   8 H :    0.117597
   9 H :    0.111879
  10 H :    0.098284
  11 H :    0.106555
  12 C :   -0.042595
  13 H :    0.097589
  14 H :    0.104838
  15 O :   -0.319548
  16 C :    0.017227
  17 C :    0.039277
  18 C :   -0.244702
  19 C :   -0.040395
  20 O :   -0.332721
  21 H :    0.119973
  22 O :   -0.413607
  23 H :    0.131360
  24 H :    0.127095
  25 H :    0.116769
  26 H :    0.101414
  27 H :    0.103450
  28 H :    0.280232

  Mayer bond orders larger than 0.100000
B(  0-C ,  1-C ) :   0.9169 B(  0-C ,  4-O ) :   0.8991 B(  0-C ,  5-H ) :   0.9353
B(  0-C , 15-O ) :   0.8973 B(  1-C ,  2-C ) :   0.9544 B(  1-C ,  6-H ) :   0.9352
B(  1-C ,  7-H ) :   0.9372 B(  2-C ,  3-C ) :   0.9477 B(  2-C ,  8-H ) :   0.9447
B(  2-C ,  9-H ) :   0.9412 B(  3-C ,  4-O ) :   0.8440 B(  3-C , 10-H ) :   0.9306
B(  3-C , 11-H ) :   0.9382 B( 12-C , 13-H ) :   0.9118 B( 12-C , 14-H ) :   0.9198
B( 12-C , 15-O ) :   0.8254 B( 12-C , 16-C ) :   0.9008 B( 16-C , 17-C ) :   0.9118
B( 16-C , 20-O ) :   0.8456 B( 16-C , 21-H ) :   0.9245 B( 17-C , 18-C ) :   0.9122
B( 17-C , 22-O ) :   0.8904 B( 17-C , 23-H ) :   0.9207 B( 18-C , 19-C ) :   0.9422
B( 18-C , 24-H ) :   0.9375 B( 18-C , 25-H ) :   0.9321 B( 19-C , 20-O ) :   0.8433
B( 19-C , 26-H ) :   0.9359 B( 19-C , 27-H ) :   0.9377 B( 22-O , 28-H ) :   0.7970

FINAL SINGLE POINT ENERGY      -652.860587929592

DIPOLE MOMENT
-------------
                                X             Y             Z
Electronic contribution:     -4.93005      -3.49181      -1.79619
Nuclear contribution   :      6.08669       4.65992       2.07802
                        -----------------------------------------
Total Dipole Moment    :      1.15663       1.16811       0.28184
                        -----------------------------------------
Magnitude (a.u.)       :      1.66785
Magnitude (Debye)      :      4.23934

Rotational constants in cm-1:     0.050597     0.014582     0.014143
Rotational constants in MHz :  1516.870100   437.147137   424.004395

                             ****ORCA TERMINATED NORMALLY****
TOTAL RUN TIME: 0 days 1 hours 16 minutes 49 seconds 848 msec
