                         Program Version 4.2.0 -  RELEASE  -
|  1> # Test redundant internal optimization
|  2> #
|  3> ! RKS B3LYP  Opt TightSCF SmallPrint
|  4>
|  5> %basis
|  6>         Basis "6-31G"
|  7> end
|  8>
|  9> %geom
| 10> Constraints
| 11> { D 4  0  15  12  330.0   C } # D for Dihedral angle
| 12> { D 0  15  12  16  195.0   C } # D for Dihedral angle
| 13> { D 0  4  3  2   C } # D for Dihedral angle
| 14> { D 4  3  2  1   C } # D for Dihedral angle
| 15> { D 3  2  1  0   C } # D for Dihedral angle
| 16> { D 2  1  0  4   C } # D for Dihedral angle
| 17> { D 1  0  4  3   C } # D for Dihedral angle
| 18> { D 16  20  19  18   C } # D for Dihedral angle
| 19> { D 20  19  18  17   C } # D for Dihedral angle
| 20> { D 19  18  17  16   C } # D for Dihedral angle
| 21> { D 18  17  16  20   C } # D for Dihedral angle
| 22> { D 17  16  20  19   C } # D for Dihedral angle
| 23> { D 15  12  16  20   C } # D for Dihedral angle
| 24> end
| 25> end
| 26>
| 27>
| 28> #%pal
| 29> #nprocs 8
| 30> #end
| 31>
| 32> * xyz 0 1
| 33> C  -21.048   26.222   46.251
| 34> C  -20.361   27.558   45.944
| 35> C  -20.329   28.222   47.341
| 36> C  -20.110   27.022   48.296
| 37> O  -20.473   25.807   47.535
| 38> H  -20.833   25.428   45.533
| 39> H  -19.344   27.382   45.576
| 40> H  -20.898   28.157   45.201
| 41> H  -19.543   28.978   47.434
| 42> H  -21.289   28.710   47.548
| 43> H  -20.733   27.082   49.195
| 44> H  -19.064   26.913   48.597
| 45> C  -23.271   25.476   47.424
| 46> H  -22.873   24.458   47.329
| 47> H  -23.062   25.832   48.441
| 48> O  -22.586   26.394   46.375
| 49> C  -24.814   25.415   47.253
| 50> C  -25.434   26.817   47.285
| 51> C  -25.140   27.322   45.851
| 52> C  -25.269   26.039   44.993
| 53> O  -25.162   24.896   45.926
| 54> H  -25.228   24.721   47.986
| 55> O  -26.964   26.717   47.527
| 56> H  -25.002   27.461   48.058
| 57> H  -25.828   28.110   45.529
| 58> H  -24.121   27.723   45.795
| 59> H  -24.482   25.959   44.236
| 60> H  -26.243   25.962   44.500
| 61> H  -27.418   26.077   46.763
| 62> *
| 63>
| 64>                          ****END OF INPUT****
 Total Charge           Charge          ....    0
 Multiplicity           Mult            ....    1
 Number of Electrons    NEL             ....  102
FINAL SINGLE POINT ENERGY      -652.838968004779
FINAL SINGLE POINT ENERGY      -652.861462009892
FINAL SINGLE POINT ENERGY      -652.865570330102
FINAL SINGLE POINT ENERGY      -652.866529254444
FINAL SINGLE POINT ENERGY      -652.866636350759
FINAL SINGLE POINT ENERGY      -652.866650370785
                    ***********************HURRAY********************

CARTESIAN COORDINATES (ANGSTROEM)
---------------------------------
  C    -21.089630   26.149474   46.321104
  C    -20.466594   27.500410   45.971867
  C    -20.402990   28.184568   47.355085
  C    -20.103508   27.014202   48.317331
  O    -20.460416   25.775929   47.567844
  H    -20.880518   25.330889   45.625771
  H    -19.463096   27.337456   45.563068
  H    -21.061406   28.054894   45.242772
  H    -19.638276   28.965885   47.403209
  H    -21.371385   28.638512   47.586857
  H    -20.690979   27.049387   49.238698
  H    -19.042911   26.928561   48.569440
  C    -23.202035   25.495833   47.430750
  H    -22.838153   24.463041   47.370291
  H    -22.991103   25.870811   48.440514
  O    -22.529025   26.315445   46.429787
  C    -24.707420   25.497033   47.181652
  C    -25.420054   26.856283   47.230031
  C    -25.189592   27.386237   45.789189
  C    -25.250301   26.097658   44.931844
  O    -25.047205   24.963118   45.862540
  H    -25.154704   24.819438   47.919360
  O    -26.833065   26.684018   47.537629
  H    -25.039621   27.525605   48.002930
  H    -25.957560   28.116413   45.518251
  H    -24.201978   27.845067   45.724468
  H    -24.466921   26.069470   44.169624
  H    -26.223739   25.950208   44.452105
  H    -27.197816   25.974155   46.967989

 Multiplicity           Mult            ....    1
 Number of Electrons    NEL             ....  102
 Basis Dimension        Dim             ....  149

ORBITAL ENERGIES
----------------

  NO   OCC          E(Eh)            E(eV)
   0   2.0000     -19.151085      -521.1275
   1   2.0000     -19.146344      -520.9985
   2   2.0000     -19.134471      -520.6754
   3   2.0000     -19.132169      -520.6128
   4   2.0000     -10.283106      -279.8175
   5   2.0000     -10.234086      -278.4836
   6   2.0000     -10.233877      -278.4780
   7   2.0000     -10.230718      -278.3920
   8   2.0000     -10.228628      -278.3351
   9   2.0000     -10.220087      -278.1027
  10   2.0000     -10.193078      -277.3677
  11   2.0000     -10.191164      -277.3157
  12   2.0000     -10.174004      -276.8487
  13   2.0000      -1.059988       -28.8438
  14   2.0000      -1.029765       -28.0213
  15   2.0000      -1.001873       -27.2623
  16   2.0000      -0.993279       -27.0285
  17   2.0000      -0.795810       -21.6551
  18   2.0000      -0.775054       -21.0903
  19   2.0000      -0.762012       -20.7354
  20   2.0000      -0.734554       -19.9882
  21   2.0000      -0.671099       -18.2615
  22   2.0000      -0.606924       -16.5152
  23   2.0000      -0.597774       -16.2663
  24   2.0000      -0.594124       -16.1669
  25   2.0000      -0.571002       -15.5377
  26   2.0000      -0.525226       -14.2921
  27   2.0000      -0.509962       -13.8768
  28   2.0000      -0.497802       -13.5459
  29   2.0000      -0.488595       -13.2953
  30   2.0000      -0.469587       -12.7781
  31   2.0000      -0.460899       -12.5417
  32   2.0000      -0.447180       -12.1684
  33   2.0000      -0.433704       -11.8017
  34   2.0000      -0.420738       -11.4489
  35   2.0000      -0.409834       -11.1521
  36   2.0000      -0.403699       -10.9852
  37   2.0000      -0.384520       -10.4633
  38   2.0000      -0.378277       -10.2934
  39   2.0000      -0.366096        -9.9620
  40   2.0000      -0.363684        -9.8963
  41   2.0000      -0.357501        -9.7281
  42   2.0000      -0.349913        -9.5216
  43   2.0000      -0.340705        -9.2711
  44   2.0000      -0.321040        -8.7360
  45   2.0000      -0.306425        -8.3382
  46   2.0000      -0.298720        -8.1286
  47   2.0000      -0.266770        -7.2592
  48   2.0000      -0.265893        -7.2353
  49   2.0000      -0.256960        -6.9922
  50   2.0000      -0.239952        -6.5294
  51   0.0000       0.064146         1.7455
  52   0.0000       0.079732         2.1696
  53   0.0000       0.099620         2.7108
  54   0.0000       0.101143         2.7523
  55   0.0000       0.105641         2.8747

MULLIKEN ATOMIC CHARGES
-----------------------
   0 C :    0.301921
   1 C :   -0.261507
   2 C :   -0.301863
   3 C :   -0.013375
   4 O :   -0.512075
   5 H :    0.156071
   6 H :    0.147607
   7 H :    0.157737
   8 H :    0.147002
   9 H :    0.156138
  10 H :    0.146326
  11 H :    0.150266
  12 C :    0.020986
  13 H :    0.154708
  14 H :    0.128773
  15 O :   -0.545043
  16 C :    0.060471
  17 C :    0.075658
  18 C :   -0.292191
  19 C :   -0.015276
  20 O :   -0.527250
  21 H :    0.156889
  22 O :   -0.604070
  23 H :    0.148220
  24 H :    0.148016
  25 H :    0.171256
  26 H :    0.149022
  27 H :    0.133423
  28 H :    0.362162
Sum of atomic charges:    0.0000000

LOEWDIN ATOMIC CHARGES
----------------------
   0 C :    0.179598
   1 C :   -0.215473
   2 C :   -0.217492
   3 C :   -0.030585
   4 O :   -0.322641
   5 H :    0.102383
   6 H :    0.115611
   7 H :    0.123984
   8 H :    0.116812
   9 H :    0.115659
  10 H :    0.103691
  11 H :    0.106840
  12 C :   -0.032471
  13 H :    0.110796
  14 H :    0.096947
  15 O :   -0.340279
  16 C :    0.013715
  17 C :    0.038343
  18 C :   -0.243588
  19 C :   -0.032747
  20 O :   -0.330186
  21 H :    0.116097
  22 O :   -0.418143
  23 H :    0.113910
  24 H :    0.117658
  25 H :    0.127906
  26 H :    0.106879
  27 H :    0.095220
  28 H :    0.281555

  Mayer bond orders larger than 0.100000
B(  0-C ,  1-C ) :   0.9466 B(  0-C ,  4-O ) :   0.9033 B(  0-C ,  5-H ) :   0.9220
B(  0-C , 15-O ) :   0.8382 B(  1-C ,  2-C ) :   0.9527 B(  1-C ,  6-H ) :   0.9370
B(  1-C ,  7-H ) :   0.9361 B(  2-C ,  3-C ) :   0.9549 B(  2-C ,  8-H ) :   0.9446
B(  2-C ,  9-H ) :   0.9454 B(  3-C ,  4-O ) :   0.8322 B(  3-C , 10-H ) :   0.9337
B(  3-C , 11-H ) :   0.9402 B( 12-C , 13-H ) :   0.9186 B( 12-C , 14-H ) :   0.9133
B( 12-C , 15-O ) :   0.8247 B( 12-C , 16-C ) :   0.9067 B( 16-C , 17-C ) :   0.9074
B( 16-C , 20-O ) :   0.8704 B( 16-C , 21-H ) :   0.9225 B( 17-C , 18-C ) :   0.9239
B( 17-C , 22-O ) :   0.8906 B( 17-C , 23-H ) :   0.9361 B( 18-C , 19-C ) :   0.9473
B( 18-C , 24-H ) :   0.9374 B( 18-C , 25-H ) :   0.9186 B( 19-C , 20-O ) :   0.8403
B( 19-C , 26-H ) :   0.9344 B( 19-C , 27-H ) :   0.9375 B( 22-O , 28-H ) :   0.7961

FINAL SINGLE POINT ENERGY      -652.866651089045

DIPOLE MOMENT
-------------
                                X             Y             Z
Electronic contribution:     -3.10584      -4.66515       0.30009
Nuclear contribution   :      4.03658       5.48193      -0.46650
                        -----------------------------------------
Total Dipole Moment    :      0.93075       0.81678      -0.16641
                        -----------------------------------------
Magnitude (a.u.)       :      1.24944
Magnitude (Debye)      :      3.17583

Rotational constants in cm-1:     0.054674     0.013854     0.013723
Rotational constants in MHz :  1639.082384   415.320396   411.391905

                             ****ORCA TERMINATED NORMALLY****
TOTAL RUN TIME: 0 days 0 hours 42 minutes 59 seconds 706 msec
