                         Program Version 4.2.0 -  RELEASE  -
|  1> # Test redundant internal optimization
|  2> #
|  3> ! RKS B3LYP  Opt TightSCF SmallPrint
|  4>
|  5> %basis
|  6>         Basis "6-31G"
|  7> end
|  8>
|  9> %geom
| 10> Constraints
| 11> { D 4  0  15  12  15.0   C } # D for Dihedral angle
| 12> { D 0  15  12  16  225.0   C } # D for Dihedral angle
| 13> { D 0  4  3  2   C } # D for Dihedral angle
| 14> { D 4  3  2  1   C } # D for Dihedral angle
| 15> { D 3  2  1  0   C } # D for Dihedral angle
| 16> { D 2  1  0  4   C } # D for Dihedral angle
| 17> { D 1  0  4  3   C } # D for Dihedral angle
| 18> { D 16  20  19  18   C } # D for Dihedral angle
| 19> { D 20  19  18  17   C } # D for Dihedral angle
| 20> { D 19  18  17  16   C } # D for Dihedral angle
| 21> { D 18  17  16  20   C } # D for Dihedral angle
| 22> { D 17  16  20  19   C } # D for Dihedral angle
| 23> { D 15  12  16  20   C } # D for Dihedral angle
| 24> end
| 25> end
| 26>
| 27>
| 28> #%pal
| 29> #nprocs 8
| 30> #end
| 31>
| 32> * xyz 0 1
| 33> C  -21.048   26.222   46.251
| 34> C  -20.361   27.558   45.944
| 35> C  -20.329   28.222   47.341
| 36> C  -20.110   27.022   48.296
| 37> O  -20.473   25.807   47.535
| 38> H  -20.833   25.428   45.533
| 39> H  -19.344   27.382   45.576
| 40> H  -20.898   28.157   45.201
| 41> H  -19.543   28.978   47.434
| 42> H  -21.289   28.710   47.548
| 43> H  -20.733   27.082   49.195
| 44> H  -19.064   26.913   48.597
| 45> C  -23.128   26.462   47.829
| 46> H  -22.350   26.118   48.522
| 47> H  -23.390   27.495   48.093
| 48> O  -22.586   26.394   46.375
| 49> C  -24.393   25.585   48.041
| 50> C  -24.966   25.765   49.450
| 51> C  -25.730   27.104   49.309
| 52> C  -26.271   27.048   47.858
| 53> O  -25.474   26.022   47.152
| 54> H  -24.159   24.551   47.776
| 55> H  -25.658   24.948   49.684
| 56> O  -23.873   25.810   50.553
| 57> H  -26.529   27.217   50.049
| 58> H  -25.039   27.946   49.432
| 59> H  -26.167   28.006   47.335
| 60> H  -27.317   26.732   47.815
| 61> H  -23.168   26.621   50.342
| 62> *
| 63>
| 64>                          ****END OF INPUT****
 Total Charge           Charge          ....    0
 Multiplicity           Mult            ....    1
 Number of Electrons    NEL             ....  102
FINAL SINGLE POINT ENERGY      -652.822238824962
FINAL SINGLE POINT ENERGY      -652.845996656153
FINAL SINGLE POINT ENERGY      -652.850634701426
FINAL SINGLE POINT ENERGY      -652.852177287414
FINAL SINGLE POINT ENERGY      -652.852343483650
FINAL SINGLE POINT ENERGY      -652.852397724484
FINAL SINGLE POINT ENERGY      -652.852403293413
FINAL SINGLE POINT ENERGY      -652.852404501954
                    ***********************HURRAY********************

CARTESIAN COORDINATES (ANGSTROEM)
---------------------------------
  C    -21.125840   26.249668   46.373491
  C    -20.433633   27.537047   45.919093
  C    -20.138279   28.234090   47.270935
  C    -19.826340   27.048945   48.212727
  O    -20.380461   25.840790   47.541391
  H    -21.058883   25.428664   45.657671
  H    -19.503361   27.283215   45.397605
  H    -21.067393   28.128115   45.254897
  H    -19.305679   28.941403   47.209303
  H    -21.022795   28.784368   47.610404
  H    -20.284068   27.145931   49.201510
  H    -18.753567   26.872393   48.331694
  C    -23.080488   26.553164   47.939600
  H    -22.348490   26.178295   48.662025
  H    -23.303208   27.608872   48.153410
  O    -22.553731   26.445769   46.591140
  C    -24.337473   25.689887   48.043216
  C    -25.018871   25.750184   49.420171
  C    -25.881617   27.043902   49.294694
  C    -26.312200   27.018764   47.811114
  O    -25.387720   26.092554   47.112515
  H    -24.064117   24.669575   47.761278
  H    -25.659918   24.875264   49.546280
  O    -24.129005   25.716598   50.562852
  H    -26.728826   27.046123   49.985408
  H    -25.259685   27.920932   49.517970
  H    -26.260267   28.003042   47.334741
  H    -27.323556   26.620547   47.682144
  H    -23.673528   26.576898   50.666720

 Multiplicity           Mult            ....    1
 Number of Electrons    NEL             ....  102
 Basis Dimension        Dim             ....  149

ORBITAL ENERGIES
----------------

  NO   OCC          E(Eh)            E(eV)
   0   2.0000     -19.151837      -521.1480
   1   2.0000     -19.148162      -521.0480
   2   2.0000     -19.134224      -520.6687
   3   2.0000     -19.131982      -520.6077
   4   2.0000     -10.277561      -279.6667
   5   2.0000     -10.242208      -278.7046
   6   2.0000     -10.235307      -278.5169
   7   2.0000     -10.227027      -278.2916
   8   2.0000     -10.225902      -278.2609
   9   2.0000     -10.224751      -278.2296
  10   2.0000     -10.194276      -277.4003
  11   2.0000     -10.193486      -277.3788
  12   2.0000     -10.185506      -277.1617
  13   2.0000      -1.054494       -28.6942
  14   2.0000      -1.031213       -28.0607
  15   2.0000      -1.012415       -27.5492
  16   2.0000      -0.990525       -26.9535
  17   2.0000      -0.791517       -21.5383
  18   2.0000      -0.779767       -21.2185
  19   2.0000      -0.767757       -20.8917
  20   2.0000      -0.733459       -19.9584
  21   2.0000      -0.677877       -18.4460
  22   2.0000      -0.608858       -16.5679
  23   2.0000      -0.605711       -16.4822
  24   2.0000      -0.595875       -16.2146
  25   2.0000      -0.567164       -15.4333
  26   2.0000      -0.525656       -14.3038
  27   2.0000      -0.509671       -13.8688
  28   2.0000      -0.500514       -13.6197
  29   2.0000      -0.497008       -13.5243
  30   2.0000      -0.469872       -12.7859
  31   2.0000      -0.460639       -12.5346
  32   2.0000      -0.443991       -12.0816
  33   2.0000      -0.429135       -11.6774
  34   2.0000      -0.423047       -11.5117
  35   2.0000      -0.415040       -11.2938
  36   2.0000      -0.414655       -11.2833
  37   2.0000      -0.396868       -10.7993
  38   2.0000      -0.376996       -10.2586
  39   2.0000      -0.372582       -10.1385
  40   2.0000      -0.361964        -9.8495
  41   2.0000      -0.353175        -9.6104
  42   2.0000      -0.348500        -9.4832
  43   2.0000      -0.334206        -9.0942
  44   2.0000      -0.325212        -8.8495
  45   2.0000      -0.312440        -8.5019
  46   2.0000      -0.302003        -8.2179
  47   2.0000      -0.269224        -7.3259
  48   2.0000      -0.265224        -7.2171
  49   2.0000      -0.252579        -6.8730
  50   2.0000      -0.231368        -6.2959
  51   0.0000       0.047631         1.2961
  52   0.0000       0.074618         2.0305
  53   0.0000       0.087222         2.3734
  54   0.0000       0.092107         2.5064
  55   0.0000       0.104925         2.8552

MULLIKEN ATOMIC CHARGES
-----------------------
   0 C :    0.293959
   1 C :   -0.255612
   2 C :   -0.312051
   3 C :   -0.018517
   4 O :   -0.508557
   5 H :    0.164165
   6 H :    0.144963
   7 H :    0.161821
   8 H :    0.148888
   9 H :    0.150651
  10 H :    0.137823
  11 H :    0.154470
  12 C :   -0.023318
  13 H :    0.161176
  14 H :    0.112556
  15 O :   -0.520570
  16 C :    0.099528
  17 C :    0.083021
  18 C :   -0.321455
  19 C :   -0.008933
  20 O :   -0.503946
  21 H :    0.162166
  22 H :    0.168216
  23 O :   -0.599051
  24 H :    0.157934
  25 H :    0.128151
  26 H :    0.143577
  27 H :    0.146498
  28 H :    0.352447
Sum of atomic charges:   -0.0000000

LOEWDIN ATOMIC CHARGES
----------------------
   0 C :    0.181652
   1 C :   -0.223510
   2 C :   -0.221425
   3 C :   -0.034092
   4 O :   -0.317012
   5 H :    0.110512
   6 H :    0.114322
   7 H :    0.126034
   8 H :    0.118056
   9 H :    0.111352
  10 H :    0.098462
  11 H :    0.108528
  12 C :   -0.055383
  13 H :    0.114239
  14 H :    0.084580
  15 O :   -0.324782
  16 C :    0.019789
  17 C :    0.034110
  18 C :   -0.241647
  19 C :   -0.030024
  20 O :   -0.312988
  21 H :    0.120131
  22 H :    0.119867
  23 O :   -0.407072
  24 H :    0.122280
  25 H :    0.101519
  26 H :    0.102429
  27 H :    0.104592
  28 H :    0.275480

  Mayer bond orders larger than 0.100000
B(  0-C ,  1-C ) :   0.9206 B(  0-C ,  4-O ) :   0.9058 B(  0-C ,  5-H ) :   0.9312
B(  0-C , 15-O ) :   0.8649 B(  1-C ,  2-C ) :   0.9537 B(  1-C ,  6-H ) :   0.9347
B(  1-C ,  7-H ) :   0.9363 B(  2-C ,  3-C ) :   0.9505 B(  2-C ,  8-H ) :   0.9448
B(  2-C ,  9-H ) :   0.9453 B(  3-C ,  4-O ) :   0.8338 B(  3-C , 10-H ) :   0.9327
B(  3-C , 11-H ) :   0.9403 B( 12-C , 13-H ) :   0.8886 B( 12-C , 14-H ) :   0.9212
B( 12-C , 15-O ) :   0.8478 B( 12-C , 16-C ) :   0.9047 B( 16-C , 17-C ) :   0.8712
B( 16-C , 20-O ) :   0.8693 B( 16-C , 21-H ) :   0.9302 B( 17-C , 18-C ) :   0.9227
B( 17-C , 22-H ) :   0.9335 B( 17-C , 23-O ) :   0.8932 B( 18-C , 19-C ) :   0.9394
B( 18-C , 24-H ) :   0.9413 B( 18-C , 25-H ) :   0.9420 B( 19-C , 20-O ) :   0.8531
B( 19-C , 26-H ) :   0.9315 B( 19-C , 27-H ) :   0.9381 B( 23-O , 28-H ) :   0.7996

FINAL SINGLE POINT ENERGY      -652.852404474265

DIPOLE MOMENT
-------------
                                X             Y             Z
Electronic contribution:     -1.42426      -5.28006      -1.32576
Nuclear contribution   :      1.80115       6.81766       1.86933
                        -----------------------------------------
Total Dipole Moment    :      0.37688       1.53760       0.54357
                        -----------------------------------------
Magnitude (a.u.)       :      1.67383
Magnitude (Debye)      :      4.25454

Rotational constants in cm-1:     0.049824     0.014082     0.012630
Rotational constants in MHz :  1493.673103   422.176479   378.645568

                             ****ORCA TERMINATED NORMALLY****
TOTAL RUN TIME: 0 days 0 hours 21 minutes 52 seconds 47 msec
