                         Program Version 4.2.0 -  RELEASE  -
|  1> # Test redundant internal optimization
|  2> #
|  3> ! RKS B3LYP  Opt TightSCF SmallPrint
|  4>
|  5> %basis
|  6>         Basis "6-31G"
|  7> end
|  8>
|  9> %geom
| 10> Constraints
| 11> { D 4  0  15  12  45.0   C } # D for Dihedral angle
| 12> { D 0  15  12  16  210.0   C } # D for Dihedral angle
| 13> { D 0  4  3  2   C } # D for Dihedral angle
| 14> { D 4  3  2  1   C } # D for Dihedral angle
| 15> { D 3  2  1  0   C } # D for Dihedral angle
| 16> { D 2  1  0  4   C } # D for Dihedral angle
| 17> { D 1  0  4  3   C } # D for Dihedral angle
| 18> { D 16  20  19  18   C } # D for Dihedral angle
| 19> { D 20  19  18  17   C } # D for Dihedral angle
| 20> { D 19  18  17  16   C } # D for Dihedral angle
| 21> { D 18  17  16  20   C } # D for Dihedral angle
| 22> { D 17  16  20  19   C } # D for Dihedral angle
| 23> { D 15  12  16  20   C } # D for Dihedral angle
| 24> end
| 25> end
| 26>
| 27>
| 28> #%pal
| 29> #nprocs 8
| 30> #end
| 31>
| 32> * xyz 0 1
| 33> C  -21.048   26.222   46.251
| 34> C  -20.361   27.558   45.944
| 35> C  -20.329   28.222   47.341
| 36> C  -20.110   27.022   48.296
| 37> O  -20.473   25.807   47.535
| 38> H  -20.833   25.428   45.533
| 39> H  -19.344   27.382   45.576
| 40> H  -20.898   28.157   45.201
| 41> H  -19.543   28.978   47.434
| 42> H  -21.289   28.710   47.548
| 43> H  -20.733   27.082   49.195
| 44> H  -19.064   26.913   48.597
| 45> C  -23.065   27.161   47.638
| 46> H  -22.349   26.999   48.453
| 47> H  -23.116   28.239   47.436
| 48> O  -22.586   26.394   46.375
| 49> C  -24.469   26.704   48.122
| 50> C  -24.448   25.244   48.589
| 51> C  -23.833   25.376   50.003
| 52> C  -24.402   26.726   50.509
| 53> O  -24.871   27.459   49.314
| 54> H  -25.203   26.920   47.344
| 55> H  -25.470   24.854   48.647
| 56> O  -23.622   24.317   47.656
| 57> H  -24.096   24.541   50.659
| 58> H  -22.740   25.418   49.935
| 59> H  -23.650   27.330   51.027
| 60> H  -25.265   26.595   51.167
| 61> H  -22.594   24.689   47.584
| 62> *
| 63>
| 64>                          ****END OF INPUT****
 Total Charge           Charge          ....    0
 Multiplicity           Mult            ....    1
 Number of Electrons    NEL             ....  102
FINAL SINGLE POINT ENERGY      -652.818804909012
FINAL SINGLE POINT ENERGY      -652.845872513182
FINAL SINGLE POINT ENERGY      -652.856326050580
FINAL SINGLE POINT ENERGY      -652.859089473703
FINAL SINGLE POINT ENERGY      -652.860117821798
FINAL SINGLE POINT ENERGY      -652.860761487840
FINAL SINGLE POINT ENERGY      -652.861152306977
FINAL SINGLE POINT ENERGY      -652.861290504497
FINAL SINGLE POINT ENERGY      -652.861330916220
FINAL SINGLE POINT ENERGY      -652.861335766684
                    ***********************HURRAY********************

CARTESIAN COORDINATES (ANGSTROEM)
---------------------------------
  C    -21.096801   26.312011   46.428017
  C    -20.363244   27.554383   45.910934
  C    -20.065677   28.324109   47.227266
  C    -19.798417   27.183628   48.238101
  O    -20.378079   25.955232   47.625161
  H    -21.028138   25.457174   45.753906
  H    -19.434159   27.237177   45.425486
  H    -20.960425   28.125731   45.196426
  H    -19.205636   28.993982   47.133508
  H    -20.927076   28.929865   47.524641
  H    -20.260634   27.345982   49.215888
  H    -18.731843   26.985949   48.376438
  C    -23.080809   27.193999   47.748788
  H    -22.400336   27.104745   48.600096
  H    -23.206526   28.251490   47.494495
  O    -22.537791   26.455733   46.599231
  C    -24.447777   26.602897   48.118726
  C    -24.448801   25.141533   48.599064
  C    -23.954764   25.292651   50.067299
  C    -24.577461   26.632032   50.510950
  O    -24.956957   27.359330   49.262424
  H    -25.148719   26.759438   47.294140
  H    -25.486743   24.787817   48.606907
  O    -23.688874   24.211497   47.809154
  H    -24.271917   24.451804   50.690149
  H    -22.859229   25.317890   50.070158
  H    -23.891326   27.261139   51.087870
  H    -25.499432   26.499756   51.084609
  H    -23.096411   24.718024   47.209169

 Multiplicity           Mult            ....    1
 Number of Electrons    NEL             ....  102
 Basis Dimension        Dim             ....  149

ORBITAL ENERGIES
----------------

  NO   OCC          E(Eh)            E(eV)
   0   2.0000     -19.164326      -521.4878
   1   2.0000     -19.160453      -521.3824
   2   2.0000     -19.140033      -520.8268
   3   2.0000     -19.112124      -520.0673
   4   2.0000     -10.293267      -280.0940
   5   2.0000     -10.242843      -278.7219
   6   2.0000     -10.238173      -278.5948
   7   2.0000     -10.233042      -278.4552
   8   2.0000     -10.228547      -278.3329
   9   2.0000     -10.226620      -278.2805
  10   2.0000     -10.202851      -277.6337
  11   2.0000     -10.199192      -277.5341
  12   2.0000     -10.177252      -276.9371
  13   2.0000      -1.068444       -29.0738
  14   2.0000      -1.025641       -27.9091
  15   2.0000      -1.009573       -27.4719
  16   2.0000      -0.992812       -27.0158
  17   2.0000      -0.800185       -21.7741
  18   2.0000      -0.778610       -21.1871
  19   2.0000      -0.767361       -20.8809
  20   2.0000      -0.738916       -20.1069
  21   2.0000      -0.681486       -18.5442
  22   2.0000      -0.615218       -16.7409
  23   2.0000      -0.603888       -16.4326
  24   2.0000      -0.594976       -16.1901
  25   2.0000      -0.576974       -15.7003
  26   2.0000      -0.524034       -14.2597
  27   2.0000      -0.522757       -14.2249
  28   2.0000      -0.511240       -13.9116
  29   2.0000      -0.487081       -13.2541
  30   2.0000      -0.476494       -12.9661
  31   2.0000      -0.464687       -12.6448
  32   2.0000      -0.443702       -12.0737
  33   2.0000      -0.433052       -11.7839
  34   2.0000      -0.426919       -11.6171
  35   2.0000      -0.419575       -11.4172
  36   2.0000      -0.412771       -11.2321
  37   2.0000      -0.391165       -10.6441
  38   2.0000      -0.386567       -10.5190
  39   2.0000      -0.372115       -10.1258
  40   2.0000      -0.367588       -10.0026
  41   2.0000      -0.361413        -9.8345
  42   2.0000      -0.347814        -9.4645
  43   2.0000      -0.339135        -9.2283
  44   2.0000      -0.330245        -8.9864
  45   2.0000      -0.323823        -8.8117
  46   2.0000      -0.295039        -8.0284
  47   2.0000      -0.277696        -7.5565
  48   2.0000      -0.267338        -7.2746
  49   2.0000      -0.247385        -6.7317
  50   2.0000      -0.240385        -6.5412
  51   0.0000       0.055522         1.5108
  52   0.0000       0.065709         1.7880
  53   0.0000       0.086008         2.3404
  54   0.0000       0.095687         2.6038
  55   0.0000       0.102162         2.7800

MULLIKEN ATOMIC CHARGES
-----------------------
   0 C :    0.290290
   1 C :   -0.266691
   2 C :   -0.315628
   3 C :   -0.022022
   4 O :   -0.503670
   5 H :    0.172978
   6 H :    0.157089
   7 H :    0.159790
   8 H :    0.152975
   9 H :    0.155520
  10 H :    0.147857
  11 H :    0.157195
  12 C :   -0.024109
  13 H :    0.151005
  14 H :    0.157378
  15 O :   -0.548365
  16 C :    0.046818
  17 C :    0.119248
  18 C :   -0.309200
  19 C :   -0.026577
  20 O :   -0.520889
  21 H :    0.162894
  22 H :    0.147023
  23 O :   -0.631868
  24 H :    0.151929
  25 H :    0.156113
  26 H :    0.138736
  27 H :    0.152481
  28 H :    0.391701
Sum of atomic charges:   -0.0000000

LOEWDIN ATOMIC CHARGES
----------------------
   0 C :    0.173121
   1 C :   -0.223564
   2 C :   -0.223199
   3 C :   -0.034191
   4 O :   -0.316280
   5 H :    0.115478
   6 H :    0.121768
   7 H :    0.124651
   8 H :    0.120187
   9 H :    0.113806
  10 H :    0.102625
  11 H :    0.109773
  12 C :   -0.050652
  13 H :    0.105029
  14 H :    0.108605
  15 O :   -0.332825
  16 C :    0.018842
  17 C :    0.042814
  18 C :   -0.240043
  19 C :   -0.034598
  20 O :   -0.324644
  21 H :    0.116134
  22 H :    0.104745
  23 O :   -0.426519
  24 H :    0.121566
  25 H :    0.115623
  26 H :    0.099707
  27 H :    0.107201
  28 H :    0.284843

  Mayer bond orders larger than 0.100000
B(  0-C ,  1-C ) :   0.9248 B(  0-C ,  4-O ) :   0.9156 B(  0-C ,  5-H ) :   0.9329
B(  0-C , 15-O ) :   0.8436 B(  1-C ,  2-C ) :   0.9551 B(  1-C ,  6-H ) :   0.9346
B(  1-C ,  7-H ) :   0.9359 B(  2-C ,  3-C ) :   0.9490 B(  2-C ,  8-H ) :   0.9441
B(  2-C ,  9-H ) :   0.9406 B(  3-C ,  4-O ) :   0.8311 B(  3-C , 10-H ) :   0.9301
B(  3-C , 11-H ) :   0.9387 B( 12-C , 13-H ) :   0.9102 B( 12-C , 14-H ) :   0.9216
B( 12-C , 15-O ) :   0.7909 B( 12-C , 16-C ) :   0.9053 B( 16-C , 17-C ) :   0.9130
B( 16-C , 20-O ) :   0.8555 B( 16-C , 21-H ) :   0.9292 B( 17-C , 18-C ) :   0.9002
B( 17-C , 22-H ) :   0.9295 B( 17-C , 23-O ) :   0.9391 B( 18-C , 19-C ) :   0.9392
B( 18-C , 24-H ) :   0.9442 B( 18-C , 25-H ) :   0.9404 B( 19-C , 20-O ) :   0.8311
B( 19-C , 26-H ) :   0.9343 B( 19-C , 27-H ) :   0.9380 B( 23-O , 28-H ) :   0.7292

FINAL SINGLE POINT ENERGY      -652.861337622477

DIPOLE MOMENT
-------------
                                X             Y             Z
Electronic contribution:     -3.27228      -3.24745      -2.35783
Nuclear contribution   :      4.41623       4.51011       2.44479
                        -----------------------------------------
Total Dipole Moment    :      1.14395       1.26266       0.08695
                        -----------------------------------------
Magnitude (a.u.)       :      1.70602
Magnitude (Debye)      :      4.33636

Rotational constants in cm-1:     0.046994     0.016175     0.015225
Rotational constants in MHz :  1408.840722   484.923260   456.423111

                             ****ORCA TERMINATED NORMALLY****
TOTAL RUN TIME: 0 days 1 hours 18 minutes 20 seconds 394 msec
