                         Program Version 4.2.0 -  RELEASE  -
|  1> # Test redundant internal optimization
|  2> #
|  3> ! RKS B3LYP  Opt TightSCF SmallPrint
|  4>
|  5> %basis
|  6>         Basis "6-31G"
|  7> end
|  8>
|  9> %geom
| 10> Constraints
| 11> { D 4  0  15  12  255.0   C } # D for Dihedral angle
| 12> { D 0  15  12  16  15.0   C } # D for Dihedral angle
| 13> { D 0  4  3  2   C } # D for Dihedral angle
| 14> { D 4  3  2  1   C } # D for Dihedral angle
| 15> { D 3  2  1  0   C } # D for Dihedral angle
| 16> { D 2  1  0  4   C } # D for Dihedral angle
| 17> { D 1  0  4  3   C } # D for Dihedral angle
| 18> { D 16  20  19  18   C } # D for Dihedral angle
| 19> { D 20  19  18  17   C } # D for Dihedral angle
| 20> { D 19  18  17  16   C } # D for Dihedral angle
| 21> { D 18  17  16  20   C } # D for Dihedral angle
| 22> { D 17  16  20  19   C } # D for Dihedral angle
| 23> { D 15  12  16  20   C } # D for Dihedral angle
| 24> end
| 25> end
| 26>
| 27>
| 28> #%pal
| 29> #nprocs 8
| 30> #end
| 31>
| 32> * xyz 0 1
| 33> C  -21.048   26.222   46.251
| 34> C  -20.361   27.558   45.944
| 35> C  -20.329   28.222   47.341
| 36> C  -20.110   27.022   48.296
| 37> O  -20.473   25.807   47.535
| 38> H  -20.833   25.428   45.533
| 39> H  -19.344   27.382   45.576
| 40> H  -20.898   28.157   45.201
| 41> H  -19.543   28.978   47.434
| 42> H  -21.289   28.710   47.548
| 43> H  -20.733   27.082   49.195
| 44> H  -19.064   26.913   48.597
| 45> C  -23.431   25.260   45.734
| 46> H  -24.238   24.976   46.421
| 47> H  -23.885   25.603   44.795
| 48> O  -22.586   26.394   46.375
| 49> C  -22.592   23.991   45.416
| 50> C  -23.429   22.939   44.681
| 51> C  -23.427   23.491   43.235
| 52> C  -22.018   24.121   43.102
| 53> O  -21.512   24.313   44.477
| 54> H  -22.122   23.634   46.335
| 55> H  -22.931   21.964   44.723
| 56> O  -24.861   22.783   45.263
| 57> H  -23.610   22.715   42.484
| 58> H  -24.204   24.256   43.123
| 59> H  -22.038   25.089   42.588
| 60> H  -21.313   23.462   42.587
| 61> H  -25.380   23.747   45.230
| 62> *
| 63>
| 64>                          ****END OF INPUT****
 Total Charge           Charge          ....    0
 Multiplicity           Mult            ....    1
 Number of Electrons    NEL             ....  102
FINAL SINGLE POINT ENERGY      -652.819605772058
FINAL SINGLE POINT ENERGY      -652.841442013412
FINAL SINGLE POINT ENERGY      -652.853132798679
FINAL SINGLE POINT ENERGY      -652.855055968560
FINAL SINGLE POINT ENERGY      -652.855442848914
FINAL SINGLE POINT ENERGY      -652.855495981021
FINAL SINGLE POINT ENERGY      -652.855505583134
FINAL SINGLE POINT ENERGY      -652.855506911514
                    ***********************HURRAY********************

CARTESIAN COORDINATES (ANGSTROEM)
---------------------------------
  C    -20.846177   26.245590   46.228833
  C    -20.340959   27.675497   46.028077
  C    -20.480608   28.267056   47.452502
  C    -20.147028   27.059763   48.358881
  O    -20.296922   25.856327   47.508816
  H    -20.520492   25.511881   45.496581
  H    -19.289618   27.647338   45.717927
  H    -20.919925   28.215714   45.276242
  H    -19.812148   29.115751   47.625926
  H    -21.511538   28.595653   47.612508
  H    -20.818094   26.973467   49.218005
  H    -19.110904   27.069961   48.712131
  C    -23.172099   25.308622   45.725220
  H    -23.941701   25.107989   46.479389
  H    -23.659350   25.767953   44.851405
  O    -22.297056   26.316596   46.302120
  C    -22.553829   23.966303   45.325225
  C    -23.563016   22.991037   44.690405
  C    -23.569267   23.461810   43.201674
  C    -22.101281   23.889459   42.973461
  O    -21.498376   24.088344   44.318545
  H    -22.068198   23.528882   46.202907
  H    -23.173205   21.973792   44.765181
  O    -24.861675   22.929403   45.321615
  H    -23.891577   22.670065   42.520424
  H    -24.255866   24.310552   43.087826
  H    -22.011390   24.819424   42.403499
  H    -21.514762   23.111801   42.475714
  H    -25.374940   23.742970   45.138961

 Multiplicity           Mult            ....    1
 Number of Electrons    NEL             ....  102
 Basis Dimension        Dim             ....  149

ORBITAL ENERGIES
----------------

  NO   OCC          E(Eh)            E(eV)
   0   2.0000     -19.155277      -521.2416
   1   2.0000     -19.150323      -521.1068
   2   2.0000     -19.130284      -520.5615
   3   2.0000     -19.123546      -520.3782
   4   2.0000     -10.259016      -279.1620
   5   2.0000     -10.252466      -278.9838
   6   2.0000     -10.239513      -278.6313
   7   2.0000     -10.237287      -278.5708
   8   2.0000     -10.231679      -278.4181
   9   2.0000     -10.212247      -277.8894
  10   2.0000     -10.202118      -277.6137
  11   2.0000     -10.173461      -276.8339
  12   2.0000     -10.172135      -276.7979
  13   2.0000      -1.043853       -28.4047
  14   2.0000      -1.034512       -28.1505
  15   2.0000      -1.023540       -27.8519
  16   2.0000      -0.979612       -26.6566
  17   2.0000      -0.790094       -21.4995
  18   2.0000      -0.777250       -21.1500
  19   2.0000      -0.764909       -20.8142
  20   2.0000      -0.725903       -19.7528
  21   2.0000      -0.679089       -18.4790
  22   2.0000      -0.619374       -16.8540
  23   2.0000      -0.599857       -16.3229
  24   2.0000      -0.585291       -15.9266
  25   2.0000      -0.560776       -15.2595
  26   2.0000      -0.536427       -14.5969
  27   2.0000      -0.510876       -13.9016
  28   2.0000      -0.494779       -13.4636
  29   2.0000      -0.473977       -12.8976
  30   2.0000      -0.471007       -12.8168
  31   2.0000      -0.453244       -12.3334
  32   2.0000      -0.438557       -11.9338
  33   2.0000      -0.434683       -11.8283
  34   2.0000      -0.431699       -11.7471
  35   2.0000      -0.418903       -11.3989
  36   2.0000      -0.406622       -11.0648
  37   2.0000      -0.391489       -10.6530
  38   2.0000      -0.387148       -10.5348
  39   2.0000      -0.366977        -9.9859
  40   2.0000      -0.357783        -9.7358
  41   2.0000      -0.344191        -9.3659
  42   2.0000      -0.337563        -9.1856
  43   2.0000      -0.331867        -9.0306
  44   2.0000      -0.326169        -8.8755
  45   2.0000      -0.308143        -8.3850
  46   2.0000      -0.293991        -7.9999
  47   2.0000      -0.278407        -7.5758
  48   2.0000      -0.256345        -6.9755
  49   2.0000      -0.249025        -6.7763
  50   2.0000      -0.230936        -6.2841
  51   0.0000       0.046409         1.2628
  52   0.0000       0.071824         1.9544
  53   0.0000       0.087767         2.3883
  54   0.0000       0.096319         2.6210
  55   0.0000       0.105773         2.8782

MULLIKEN ATOMIC CHARGES
-----------------------
   0 C :    0.251591
   1 C :   -0.248955
   2 C :   -0.296111
   3 C :    0.001114
   4 O :   -0.509472
   5 H :    0.204838
   6 H :    0.139608
   7 H :    0.141660
   8 H :    0.133247
   9 H :    0.159001
  10 H :    0.143515
  11 H :    0.135796
  12 C :    0.020863
  13 H :    0.150061
  14 H :    0.115705
  15 O :   -0.545956
  16 C :    0.056047
  17 C :    0.083568
  18 C :   -0.324310
  19 C :   -0.012566
  20 O :   -0.522627
  21 H :    0.181134
  22 H :    0.173251
  23 O :   -0.595310
  24 H :    0.161807
  25 H :    0.137841
  26 H :    0.148450
  27 H :    0.157042
  28 H :    0.359168
Sum of atomic charges:   -0.0000000

LOEWDIN ATOMIC CHARGES
----------------------
   0 C :    0.162505
   1 C :   -0.215987
   2 C :   -0.216820
   3 C :   -0.028436
   4 O :   -0.325673
   5 H :    0.126257
   6 H :    0.110519
   7 H :    0.116421
   8 H :    0.109569
   9 H :    0.117527
  10 H :    0.103230
  11 H :    0.098941
  12 C :   -0.041561
  13 H :    0.112482
  14 H :    0.086749
  15 O :   -0.335074
  16 C :    0.004209
  17 C :    0.040168
  18 C :   -0.241669
  19 C :   -0.030347
  20 O :   -0.323944
  21 H :    0.125838
  22 H :    0.121920
  23 O :   -0.402460
  24 H :    0.124731
  25 H :    0.106222
  26 H :    0.104963
  27 H :    0.109524
  28 H :    0.280198

  Mayer bond orders larger than 0.100000
B(  0-C ,  1-C ) :   0.9439 B(  0-C ,  4-O ) :   0.9079 B(  0-C ,  5-H ) :   0.8836
B(  0-C , 15-O ) :   0.8261 B(  1-C ,  2-C ) :   0.9570 B(  1-C ,  6-H ) :   0.9407
B(  1-C ,  7-H ) :   0.9401 B(  2-C ,  3-C ) :   0.9552 B(  2-C ,  8-H ) :   0.9465
B(  2-C ,  9-H ) :   0.9442 B(  3-C ,  4-O ) :   0.8450 B(  3-C , 10-H ) :   0.9357
B(  3-C , 11-H ) :   0.9405 B( 12-C , 13-H ) :   0.9119 B( 12-C , 14-H ) :   0.9242
B( 12-C , 15-O ) :   0.8606 B( 12-C , 16-C ) :   0.9087 B( 16-C , 17-C ) :   0.8690
B( 16-C , 20-O ) :   0.8336 B( 16-C , 21-H ) :   0.9218 B( 17-C , 18-C ) :   0.9221
B( 17-C , 22-H ) :   0.9326 B( 17-C , 23-O ) :   0.9062 B( 18-C , 19-C ) :   0.9402
B( 18-C , 24-H ) :   0.9409 B( 18-C , 25-H ) :   0.9401 B( 19-C , 20-O ) :   0.8330
B( 19-C , 26-H ) :   0.9323 B( 19-C , 27-H ) :   0.9376 B( 23-O , 28-H ) :   0.7962

FINAL SINGLE POINT ENERGY      -652.855506922165

DIPOLE MOMENT
-------------
                                X             Y             Z
Electronic contribution:     -0.61641      -3.82280       1.46808
Nuclear contribution   :      0.13751       4.30752      -2.65920
                        -----------------------------------------
Total Dipole Moment    :     -0.47889       0.48472      -1.19113
                        -----------------------------------------
Magnitude (a.u.)       :      1.37225
Magnitude (Debye)      :      3.48799

Rotational constants in cm-1:     0.059498     0.013088     0.012125
Rotational constants in MHz :  1783.704392   392.368211   363.507598

                             ****ORCA TERMINATED NORMALLY****
TOTAL RUN TIME: 0 days 1 hours 24 minutes 37 seconds 618 msec
