                         Program Version 4.2.0 -  RELEASE  -
|  1> # Test redundant internal optimization
|  2> #
|  3> ! RKS B3LYP  Opt TightSCF SmallPrint
|  4>
|  5> %basis
|  6>         Basis "6-31G"
|  7> end
|  8>
|  9> %geom
| 10> Constraints
| 11> { D 4  0  15  12  270.0   C } # D for Dihedral angle
| 12> { D 0  15  12  16  135.0   C } # D for Dihedral angle
| 13> { D 0  4  3  2   C } # D for Dihedral angle
| 14> { D 4  3  2  1   C } # D for Dihedral angle
| 15> { D 3  2  1  0   C } # D for Dihedral angle
| 16> { D 2  1  0  4   C } # D for Dihedral angle
| 17> { D 1  0  4  3   C } # D for Dihedral angle
| 18> { D 16  20  19  18   C } # D for Dihedral angle
| 19> { D 20  19  18  17   C } # D for Dihedral angle
| 20> { D 19  18  17  16   C } # D for Dihedral angle
| 21> { D 18  17  16  20   C } # D for Dihedral angle
| 22> { D 17  16  20  19   C } # D for Dihedral angle
| 23> { D 15  12  16  20   C } # D for Dihedral angle
| 24> end
| 25> end
| 26>
| 27>
| 28> #%pal
| 29> #nprocs 8
| 30> #end
| 31>
| 32> * xyz 0 1
| 33> C  -21.048   26.222   46.251
| 34> C  -20.361   27.558   45.944
| 35> C  -20.329   28.222   47.341
| 36> C  -20.110   27.022   48.296
| 37> O  -20.473   25.807   47.535
| 38> H  -20.833   25.428   45.533
| 39> H  -19.344   27.382   45.576
| 40> H  -20.898   28.157   45.201
| 41> H  -19.543   28.978   47.434
| 42> H  -21.289   28.710   47.548
| 43> H  -20.733   27.082   49.195
| 44> H  -19.064   26.913   48.597
| 45> C  -23.420   25.119   46.072
| 46> H  -23.881   25.215   45.082
| 47> H  -22.774   24.231   46.066
| 48> O  -22.586   26.394   46.375
| 49> C  -24.546   24.876   47.115
| 50> C  -25.272   23.552   46.852
| 51> C  -24.282   22.527   47.455
| 52> C  -23.695   23.281   48.674
| 53> O  -23.977   24.716   48.457
| 54> H  -25.199   25.751   47.146
| 55> O  -26.624   23.524   47.616
| 56> H  -25.472   23.375   45.790
| 57> H  -24.765   21.587   47.739
| 58> H  -23.494   22.293   46.729
| 59> H  -22.612   23.140   48.773
| 60> H  -24.177   22.996   49.613
| 61> H  -26.447   23.699   48.683
| 62> *
| 63>
| 64>                          ****END OF INPUT****
 Total Charge           Charge          ....    0
 Multiplicity           Mult            ....    1
 Number of Electrons    NEL             ....  102
FINAL SINGLE POINT ENERGY      -652.834403679879
FINAL SINGLE POINT ENERGY      -652.858195854615
FINAL SINGLE POINT ENERGY      -652.862233003907
FINAL SINGLE POINT ENERGY      -652.862962184680
FINAL SINGLE POINT ENERGY      -652.863052984055
FINAL SINGLE POINT ENERGY      -652.863063389361
                    ***********************HURRAY********************

CARTESIAN COORDINATES (ANGSTROEM)
---------------------------------
  C    -21.055743   26.144814   46.192699
  C    -20.519491   27.560161   45.979088
  C    -20.558761   28.135718   47.414391
  C    -20.211421   26.909633   48.288452
  O    -20.447775   25.721135   47.432446
  H    -20.781629   25.403358   45.436337
  H    -19.489382   27.506279   45.607401
  H    -21.125681   28.126004   45.268987
  H    -19.855601   28.961955   47.556018
  H    -21.567850   28.492746   47.638266
  H    -20.841699   26.826510   49.176522
  H    -19.157436   26.880250   48.581634
  C    -23.276083   25.074998   46.004534
  H    -23.759706   25.207212   45.026200
  H    -22.626388   24.191274   45.960013
  O    -22.491198   26.256272   46.310302
  C    -24.343123   24.901459   47.085598
  C    -25.206073   23.644667   46.904678
  C    -24.300799   22.547881   47.525573
  C    -23.601923   23.292235   48.691184
  O    -23.749653   24.740862   48.413460
  H    -24.955103   25.806981   47.127938
  O    -26.464395   23.772072   47.623013
  H    -25.484685   23.440997   45.869629
  H    -24.901034   21.697751   47.858875
  H    -23.574709   22.186703   46.788599
  H    -22.536240   23.058651   48.766834
  H    -24.075987   23.096801   49.657974
  H    -26.288432   24.171623   48.501357

 Multiplicity           Mult            ....    1
 Number of Electrons    NEL             ....  102
 Basis Dimension        Dim             ....  149

ORBITAL ENERGIES
----------------

  NO   OCC          E(Eh)            E(eV)
   0   2.0000     -19.139139      -520.8025
   1   2.0000     -19.137428      -520.7559
   2   2.0000     -19.136910      -520.7418
   3   2.0000     -19.131660      -520.5989
   4   2.0000     -10.275648      -279.6146
   5   2.0000     -10.241453      -278.6841
   6   2.0000     -10.232062      -278.4286
   7   2.0000     -10.231284      -278.4074
   8   2.0000     -10.225903      -278.2610
   9   2.0000     -10.216929      -278.0168
  10   2.0000     -10.187973      -277.2288
  11   2.0000     -10.180146      -277.0159
  12   2.0000     -10.178532      -276.9719
  13   2.0000      -1.049478       -28.5577
  14   2.0000      -1.033207       -28.1150
  15   2.0000      -1.003776       -27.3141
  16   2.0000      -0.989031       -26.9129
  17   2.0000      -0.787094       -21.4179
  18   2.0000      -0.777982       -21.1700
  19   2.0000      -0.763694       -20.7812
  20   2.0000      -0.725827       -19.7507
  21   2.0000      -0.671198       -18.2642
  22   2.0000      -0.601927       -16.3793
  23   2.0000      -0.592137       -16.1129
  24   2.0000      -0.588525       -16.0146
  25   2.0000      -0.583737       -15.8843
  26   2.0000      -0.524572       -14.2743
  27   2.0000      -0.509676       -13.8690
  28   2.0000      -0.488534       -13.2937
  29   2.0000      -0.483167       -13.1476
  30   2.0000      -0.475751       -12.9458
  31   2.0000      -0.455713       -12.4006
  32   2.0000      -0.449816       -12.2401
  33   2.0000      -0.431294       -11.7361
  34   2.0000      -0.426894       -11.6164
  35   2.0000      -0.403066       -10.9680
  36   2.0000      -0.396775       -10.7968
  37   2.0000      -0.391195       -10.6449
  38   2.0000      -0.372828       -10.1452
  39   2.0000      -0.370117       -10.0714
  40   2.0000      -0.353115        -9.6087
  41   2.0000      -0.349588        -9.5128
  42   2.0000      -0.342983        -9.3330
  43   2.0000      -0.329584        -8.9684
  44   2.0000      -0.319137        -8.6841
  45   2.0000      -0.304098        -8.2749
  46   2.0000      -0.298126        -8.1124
  47   2.0000      -0.269773        -7.3409
  48   2.0000      -0.264926        -7.2090
  49   2.0000      -0.245641        -6.6842
  50   2.0000      -0.237793        -6.4707
  51   0.0000       0.069005         1.8777
  52   0.0000       0.085847         2.3360
  53   0.0000       0.090325         2.4579
  54   0.0000       0.104051         2.8314
  55   0.0000       0.109357         2.9757

MULLIKEN ATOMIC CHARGES
-----------------------
   0 C :    0.282641
   1 C :   -0.256835
   2 C :   -0.298294
   3 C :    0.000538
   4 O :   -0.507318
   5 H :    0.136040
   6 H :    0.140883
   7 H :    0.151212
   8 H :    0.136973
   9 H :    0.166384
  10 H :    0.159031
  11 H :    0.136142
  12 C :    0.002956
  13 H :    0.130204
  14 H :    0.134005
  15 O :   -0.512401
  16 C :    0.073547
  17 C :    0.074981
  18 C :   -0.298016
  19 C :   -0.027320
  20 O :   -0.509792
  21 H :    0.167608
  22 O :   -0.602127
  23 H :    0.148359
  24 H :    0.162479
  25 H :    0.141979
  26 H :    0.159212
  27 H :    0.141578
  28 H :    0.365352
Sum of atomic charges:    0.0000000

LOEWDIN ATOMIC CHARGES
----------------------
   0 C :    0.173837
   1 C :   -0.216736
   2 C :   -0.215424
   3 C :   -0.026030
   4 O :   -0.325628
   5 H :    0.095041
   6 H :    0.111461
   7 H :    0.121068
   8 H :    0.111461
   9 H :    0.121265
  10 H :    0.111836
  11 H :    0.099494
  12 C :   -0.039123
  13 H :    0.098450
  14 H :    0.099137
  15 O :   -0.322222
  16 C :    0.015713
  17 C :    0.034019
  18 C :   -0.241552
  19 C :   -0.037638
  20 O :   -0.319915
  21 H :    0.119634
  22 O :   -0.414793
  23 H :    0.113730
  24 H :    0.126407
  25 H :    0.111472
  26 H :    0.110852
  27 H :    0.100720
  28 H :    0.283464

  Mayer bond orders larger than 0.100000
B(  0-C ,  1-C ) :   0.9492 B(  0-C ,  4-O ) :   0.9189 B(  0-C ,  5-H ) :   0.9205
B(  0-C , 15-O ) :   0.8603 B(  1-C ,  2-C ) :   0.9583 B(  1-C ,  6-H ) :   0.9404
B(  1-C ,  7-H ) :   0.9374 B(  2-C ,  3-C ) :   0.9557 B(  2-C ,  8-H ) :   0.9456
B(  2-C ,  9-H ) :   0.9431 B(  3-C ,  4-O ) :   0.8354 B(  3-C , 10-H ) :   0.9333
B(  3-C , 11-H ) :   0.9403 B( 12-C , 13-H ) :   0.9195 B( 12-C , 14-H ) :   0.9187
B( 12-C , 15-O ) :   0.8435 B( 12-C , 16-C ) :   0.8966 B( 16-C , 17-C ) :   0.8991
B( 16-C , 20-O ) :   0.8702 B( 16-C , 21-H ) :   0.9249 B( 17-C , 18-C ) :   0.9103
B( 17-C , 22-O ) :   0.8921 B( 17-C , 23-H ) :   0.9334 B( 18-C , 19-C ) :   0.9392
B( 18-C , 24-H ) :   0.9379 B( 18-C , 25-H ) :   0.9344 B( 19-C , 20-O ) :   0.8491
B( 19-C , 26-H ) :   0.9317 B( 19-C , 27-H ) :   0.9387 B( 22-O , 28-H ) :   0.7933

FINAL SINGLE POINT ENERGY      -652.863065500812

DIPOLE MOMENT
-------------
                                X             Y             Z
Electronic contribution:     -3.05184      -0.71981       0.47606
Nuclear contribution   :      3.66771       0.62533      -0.87704
                        -----------------------------------------
Total Dipole Moment    :      0.61587      -0.09448      -0.40098
                        -----------------------------------------
Magnitude (a.u.)       :      0.74095
Magnitude (Debye)      :      1.88334

Rotational constants in cm-1:     0.061406     0.013245     0.012451
Rotational constants in MHz :  1840.910662   397.080086   373.282509

                             ****ORCA TERMINATED NORMALLY****
TOTAL RUN TIME: 0 days 1 hours 4 minutes 49 seconds 79 msec
