                         Program Version 4.2.0 -  RELEASE  -
|  1> # Test redundant internal optimization
|  2> #
|  3> ! RKS B3LYP  Opt TightSCF SmallPrint
|  4>
|  5> %basis
|  6>         Basis "6-31G"
|  7> end
|  8>
|  9> %geom
| 10> Constraints
| 11> { D 4  0  15  12  345.0   C } # D for Dihedral angle
| 12> { D 0  15  12  16  210.0   C } # D for Dihedral angle
| 13> { D 0  4  3  2   C } # D for Dihedral angle
| 14> { D 4  3  2  1   C } # D for Dihedral angle
| 15> { D 3  2  1  0   C } # D for Dihedral angle
| 16> { D 2  1  0  4   C } # D for Dihedral angle
| 17> { D 1  0  4  3   C } # D for Dihedral angle
| 18> { D 16  20  19  18   C } # D for Dihedral angle
| 19> { D 20  19  18  17   C } # D for Dihedral angle
| 20> { D 19  18  17  16   C } # D for Dihedral angle
| 21> { D 18  17  16  20   C } # D for Dihedral angle
| 22> { D 17  16  20  19   C } # D for Dihedral angle
| 23> { D 15  12  16  20   C } # D for Dihedral angle
| 24> end
| 25> end
| 26>
| 27>
| 28> #%pal
| 29> #nprocs 8
| 30> #end
| 31>
| 32> * xyz 0 1
| 33> C  -21.048   26.222   46.251
| 34> C  -20.361   27.558   45.944
| 35> C  -20.329   28.222   47.341
| 36> C  -20.110   27.022   48.296
| 37> O  -20.473   25.807   47.535
| 38> H  -20.833   25.428   45.533
| 39> H  -19.344   27.382   45.576
| 40> H  -20.898   28.157   45.201
| 41> H  -19.543   28.978   47.434
| 42> H  -21.289   28.710   47.548
| 43> H  -20.733   27.082   49.195
| 44> H  -19.064   26.913   48.597
| 45> C  -23.221   25.764   47.645
| 46> H  -22.624   24.897   47.956
| 47> H  -23.229   26.489   48.470
| 48> O  -22.586   26.394   46.375
| 49> C  -24.684   25.294   47.415
| 50> C  -24.747   24.153   46.393
| 51> C  -24.328   22.937   47.253
| 52> C  -24.940   23.259   48.639
| 53> O  -25.232   24.708   48.643
| 54> H  -25.303   26.158   47.168
| 55> O  -26.201   23.984   45.874
| 56> H  -24.091   24.311   45.530
| 57> H  -24.689   21.987   46.847
| 58> H  -23.235   22.881   47.316
| 59> H  -24.257   23.029   49.463
| 60> H  -25.886   22.738   48.808
| 61> H  -26.879   23.824   46.722
| 62> *
| 63>
| 64>                          ****END OF INPUT****
 Total Charge           Charge          ....    0
 Multiplicity           Mult            ....    1
 Number of Electrons    NEL             ....  102
FINAL SINGLE POINT ENERGY      -652.837774286595
FINAL SINGLE POINT ENERGY      -652.860170838417
FINAL SINGLE POINT ENERGY      -652.863721469473
FINAL SINGLE POINT ENERGY      -652.864309707829
FINAL SINGLE POINT ENERGY      -652.864397645684
FINAL SINGLE POINT ENERGY      -652.864411941722
                    ***********************HURRAY********************

CARTESIAN COORDINATES (ANGSTROEM)
---------------------------------
  C    -21.106904   26.153456   46.351854
  C    -20.549044   27.518356   45.950675
  C    -20.419711   28.220590   47.320550
  C    -20.024468   27.071885   48.273552
  O    -20.390353   25.813935   47.558533
  H    -20.915681   25.340907   45.645999
  H    -19.568759   27.384350   45.478598
  H    -21.210846   28.043004   45.258435
  H    -19.677802   29.024935   47.312516
  H    -21.384766   28.649159   47.607990
  H    -20.554085   27.097054   49.229347
  H    -18.947879   27.018749   48.458166
  C    -23.145080   25.725443   47.753611
  H    -22.548980   24.889788   48.133606
  H    -23.184429   26.494813   48.534487
  O    -22.550342   26.268181   46.535758
  C    -24.566693   25.281664   47.411377
  C    -24.660531   24.149298   46.378422
  C    -24.353248   22.904145   47.248621
  C    -24.998327   23.257240   48.611768
  O    -25.199848   24.727070   48.614649
  H    -25.163114   26.142637   47.097805
  O    -25.994829   24.085635   45.800737
  H    -23.981623   24.282084   45.538098
  H    -24.777416   22.003555   46.798529
  H    -23.271113   22.762861   47.344030
  H    -24.369397   22.982730   49.464137
  H    -25.982935   22.797834   48.742253
  H    -26.658798   24.196641   46.513895

 Multiplicity           Mult            ....    1
 Number of Electrons    NEL             ....  102
 Basis Dimension        Dim             ....  149

ORBITAL ENERGIES
----------------

  NO   OCC          E(Eh)            E(eV)
   0   2.0000     -19.153067      -521.1815
   1   2.0000     -19.141380      -520.8634
   2   2.0000     -19.141365      -520.8630
   3   2.0000     -19.131496      -520.5945
   4   2.0000     -10.282497      -279.8010
   5   2.0000     -10.234015      -278.4817
   6   2.0000     -10.232150      -278.4309
   7   2.0000     -10.228739      -278.3381
   8   2.0000     -10.228554      -278.3331
   9   2.0000     -10.225685      -278.2550
  10   2.0000     -10.191610      -277.3278
  11   2.0000     -10.187789      -277.2238
  12   2.0000     -10.184196      -277.1261
  13   2.0000      -1.057557       -28.7776
  14   2.0000      -1.032620       -28.0990
  15   2.0000      -1.000826       -27.2339
  16   2.0000      -0.993935       -27.0464
  17   2.0000      -0.793942       -21.6043
  18   2.0000      -0.776244       -21.1227
  19   2.0000      -0.766313       -20.8524
  20   2.0000      -0.732940       -19.9443
  21   2.0000      -0.671581       -18.2746
  22   2.0000      -0.605490       -16.4762
  23   2.0000      -0.599975       -16.3262
  24   2.0000      -0.591916       -16.1068
  25   2.0000      -0.576029       -15.6746
  26   2.0000      -0.519180       -14.1276
  27   2.0000      -0.517308       -14.0767
  28   2.0000      -0.499932       -13.6038
  29   2.0000      -0.490476       -13.3465
  30   2.0000      -0.472016       -12.8442
  31   2.0000      -0.456176       -12.4132
  32   2.0000      -0.448500       -12.2043
  33   2.0000      -0.435247       -11.8437
  34   2.0000      -0.419408       -11.4127
  35   2.0000      -0.413676       -11.2567
  36   2.0000      -0.405195       -11.0259
  37   2.0000      -0.389211       -10.5910
  38   2.0000      -0.375655       -10.2221
  39   2.0000      -0.364104        -9.9078
  40   2.0000      -0.363351        -9.8873
  41   2.0000      -0.356167        -9.6918
  42   2.0000      -0.351245        -9.5579
  43   2.0000      -0.339254        -9.2316
  44   2.0000      -0.325851        -8.8669
  45   2.0000      -0.307689        -8.3727
  46   2.0000      -0.301225        -8.1968
  47   2.0000      -0.268811        -7.3147
  48   2.0000      -0.265631        -7.2282
  49   2.0000      -0.256037        -6.9671
  50   2.0000      -0.240730        -6.5506
  51   0.0000       0.068477         1.8634
  52   0.0000       0.071962         1.9582
  53   0.0000       0.095565         2.6005
  54   0.0000       0.099975         2.7205
  55   0.0000       0.102730         2.7954

MULLIKEN ATOMIC CHARGES
-----------------------
   0 C :    0.299995
   1 C :   -0.256448
   2 C :   -0.305969
   3 C :   -0.016032
   4 O :   -0.513777
   5 H :    0.151917
   6 H :    0.144192
   7 H :    0.163740
   8 H :    0.147302
   9 H :    0.160293
  10 H :    0.148738
  11 H :    0.151423
  12 C :   -0.008661
  13 H :    0.155927
  14 H :    0.142030
  15 O :   -0.545635
  16 C :    0.060198
  17 C :    0.092263
  18 C :   -0.303934
  19 C :   -0.026807
  20 O :   -0.529535
  21 H :    0.163506
  22 O :   -0.603801
  23 H :    0.167494
  24 H :    0.158556
  25 H :    0.150956
  26 H :    0.144885
  27 H :    0.145652
  28 H :    0.361533
Sum of atomic charges:   -0.0000000

LOEWDIN ATOMIC CHARGES
----------------------
   0 C :    0.181366
   1 C :   -0.217558
   2 C :   -0.218032
   3 C :   -0.031123
   4 O :   -0.321371
   5 H :    0.101220
   6 H :    0.113563
   7 H :    0.127386
   8 H :    0.117429
   9 H :    0.117717
  10 H :    0.105212
  11 H :    0.107389
  12 C :   -0.041401
  13 H :    0.108165
  14 H :    0.101546
  15 O :   -0.347546
  16 C :    0.017240
  17 C :    0.038429
  18 C :   -0.242905
  19 C :   -0.037169
  20 O :   -0.332092
  21 H :    0.116937
  22 O :   -0.415474
  23 H :    0.123687
  24 H :    0.125327
  25 H :    0.115843
  26 H :    0.103369
  27 H :    0.102084
  28 H :    0.280759

  Mayer bond orders larger than 0.100000
B(  0-C ,  1-C ) :   0.9398 B(  0-C ,  4-O ) :   0.9113 B(  0-C ,  5-H ) :   0.9262
B(  0-C , 15-O ) :   0.8370 B(  1-C ,  2-C ) :   0.9524 B(  1-C ,  6-H ) :   0.9360
B(  1-C ,  7-H ) :   0.9352 B(  2-C ,  3-C ) :   0.9554 B(  2-C ,  8-H ) :   0.9443
B(  2-C ,  9-H ) :   0.9448 B(  3-C ,  4-O ) :   0.8264 B(  3-C , 10-H ) :   0.9340
B(  3-C , 11-H ) :   0.9402 B( 12-C , 13-H ) :   0.9146 B( 12-C , 14-H ) :   0.9223
B( 12-C , 15-O ) :   0.8139 B( 12-C , 16-C ) :   0.9036 B( 16-C , 17-C ) :   0.9108
B( 16-C , 20-O ) :   0.8415 B( 16-C , 21-H ) :   0.9255 B( 17-C , 18-C ) :   0.9132
B( 17-C , 22-O ) :   0.8894 B( 17-C , 23-H ) :   0.9257 B( 18-C , 19-C ) :   0.9423
B( 18-C , 24-H ) :   0.9386 B( 18-C , 25-H ) :   0.9337 B( 19-C , 20-O ) :   0.8430
B( 19-C , 26-H ) :   0.9358 B( 19-C , 27-H ) :   0.9384 B( 22-O , 28-H ) :   0.7964

FINAL SINGLE POINT ENERGY      -652.864413712873

DIPOLE MOMENT
-------------
                                X             Y             Z
Electronic contribution:     -3.69339      -1.33649      -1.11859
Nuclear contribution   :      4.62489       1.59999       1.56519
                        -----------------------------------------
Total Dipole Moment    :      0.93150       0.26349       0.44661
                        -----------------------------------------
Magnitude (a.u.)       :      1.06610
Magnitude (Debye)      :      2.70981

Rotational constants in cm-1:     0.058723     0.012806     0.012058
Rotational constants in MHz :  1760.478159   383.924050   361.480067

                             ****ORCA TERMINATED NORMALLY****
TOTAL RUN TIME: 0 days 1 hours 19 minutes 5 seconds 243 msec
