                         Program Version 4.2.0 -  RELEASE  -
|  1> # Test redundant internal optimization
|  2> #
|  3> ! RKS B3LYP  Opt TightSCF SmallPrint
|  4>
|  5> %basis
|  6>         Basis "6-31G"
|  7> end
|  8>
|  9> %geom
| 10> Constraints
| 11> { D 4  0  15  12  300.0   C } # D for Dihedral angle
| 12> { D 0  15  12  16  255.0   C } # D for Dihedral angle
| 13> { D 0  4  3  2   C } # D for Dihedral angle
| 14> { D 4  3  2  1   C } # D for Dihedral angle
| 15> { D 3  2  1  0   C } # D for Dihedral angle
| 16> { D 2  1  0  4   C } # D for Dihedral angle
| 17> { D 1  0  4  3   C } # D for Dihedral angle
| 18> { D 16  20  19  18   C } # D for Dihedral angle
| 19> { D 20  19  18  17   C } # D for Dihedral angle
| 20> { D 19  18  17  16   C } # D for Dihedral angle
| 21> { D 18  17  16  20   C } # D for Dihedral angle
| 22> { D 17  16  20  19   C } # D for Dihedral angle
| 23> { D 15  12  16  20   C } # D for Dihedral angle
| 24> end
| 25> end
| 26>
| 27>
| 28> #%pal
| 29> #nprocs 8
| 30> #end
| 31>
| 32> * xyz 0 1
| 33> C  -21.048   26.222   46.251
| 34> C  -20.361   27.558   45.944
| 35> C  -20.329   28.222   47.341
| 36> C  -20.110   27.022   48.296
| 37> O  -20.473   25.807   47.535
| 38> H  -20.833   25.428   45.533
| 39> H  -19.344   27.382   45.576
| 40> H  -20.898   28.157   45.201
| 41> H  -19.543   28.978   47.434
| 42> H  -21.289   28.710   47.548
| 43> H  -20.733   27.082   49.195
| 44> H  -19.064   26.913   48.597
| 45> C  -23.362   25.116   46.798
| 46> H  -22.655   24.381   47.202
| 47> H  -24.095   25.353   47.580
| 48> O  -22.586   26.394   46.375
| 49> C  -24.127   24.460   45.616
| 50> C  -25.073   25.460   44.941
| 51> C  -24.094   26.270   44.058
| 52> C  -23.056   25.208   43.617
| 53> O  -23.194   24.071   44.553
| 54> H  -24.611   23.546   45.966
| 55> O  -26.106   24.705   44.061
| 56> H  -25.618   26.086   45.654
| 57> H  -24.587   26.750   43.206
| 58> H  -23.613   27.056   44.653
| 59> H  -22.028   25.583   43.657
| 60> H  -23.253   24.823   42.612
| 61> H  -25.582   24.071   43.338
| 62> *
| 63>
| 64>                          ****END OF INPUT****
 Total Charge           Charge          ....    0
 Multiplicity           Mult            ....    1
 Number of Electrons    NEL             ....  102
FINAL SINGLE POINT ENERGY      -652.839876302943
FINAL SINGLE POINT ENERGY      -652.863736830752
FINAL SINGLE POINT ENERGY      -652.868058362131
FINAL SINGLE POINT ENERGY      -652.869776105044
FINAL SINGLE POINT ENERGY      -652.869910434562
FINAL SINGLE POINT ENERGY      -652.869925788427
FINAL SINGLE POINT ENERGY      -652.869926341828
                    ***********************HURRAY********************

CARTESIAN COORDINATES (ANGSTROEM)
---------------------------------
  C    -21.037279   26.186159   46.277684
  C    -20.381917   27.541250   46.014269
  C    -20.370130   28.166198   47.427189
  C    -20.128488   26.950298   48.348316
  O    -20.467471   25.752489   47.533660
  H    -20.832360   25.388604   45.560099
  H    -19.363586   27.381257   45.642590
  H    -20.936747   28.136714   45.285834
  H    -19.597474   28.932666   47.542040
  H    -21.343300   28.620335   47.634692
  H    -20.754681   26.957380   49.243994
  H    -19.080567   26.838989   48.641401
  C    -23.244965   25.233053   46.768802
  H    -22.574295   24.490848   47.212526
  H    -23.951211   25.561296   47.540284
  O    -22.469340   26.410715   46.376975
  C    -24.011571   24.607913   45.605821
  C    -25.055420   25.481994   44.892991
  C    -24.175214   26.258686   43.878487
  C    -23.097233   25.220545   43.481290
  O    -23.112702   24.171164   44.530669
  H    -24.498355   23.702036   45.989125
  O    -26.057556   24.655180   44.237452
  H    -25.615005   26.132925   45.565393
  H    -24.770535   26.601486   43.027974
  H    -23.720239   27.115576   44.378622
  H    -22.095027   25.655611   43.428431
  H    -23.314544   24.723848   42.529787
  H    -25.607789   23.938783   43.741603

 Multiplicity           Mult            ....    1
 Number of Electrons    NEL             ....  102
 Basis Dimension        Dim             ....  149

ORBITAL ENERGIES
----------------

  NO   OCC          E(Eh)            E(eV)
   0   2.0000     -19.146962      -521.0153
   1   2.0000     -19.143577      -520.9232
   2   2.0000     -19.142434      -520.8921
   3   2.0000     -19.134667      -520.6808
   4   2.0000     -10.277944      -279.6771
   5   2.0000     -10.236659      -278.5537
   6   2.0000     -10.232105      -278.4297
   7   2.0000     -10.227551      -278.3058
   8   2.0000     -10.227504      -278.3045
   9   2.0000     -10.227148      -278.2949
  10   2.0000     -10.187933      -277.2277
  11   2.0000     -10.187310      -277.2108
  12   2.0000     -10.178252      -276.9643
  13   2.0000      -1.056125       -28.7386
  14   2.0000      -1.033191       -28.1146
  15   2.0000      -1.003921       -27.3181
  16   2.0000      -0.992457       -27.0061
  17   2.0000      -0.791746       -21.5445
  18   2.0000      -0.775179       -21.0937
  19   2.0000      -0.765014       -20.8171
  20   2.0000      -0.731824       -19.9140
  21   2.0000      -0.672948       -18.3118
  22   2.0000      -0.602682       -16.3998
  23   2.0000      -0.598590       -16.2885
  24   2.0000      -0.597248       -16.2519
  25   2.0000      -0.572878       -15.5888
  26   2.0000      -0.524696       -14.2777
  27   2.0000      -0.507081       -13.7984
  28   2.0000      -0.495182       -13.4746
  29   2.0000      -0.490320       -13.3423
  30   2.0000      -0.467510       -12.7216
  31   2.0000      -0.461126       -12.5479
  32   2.0000      -0.446701       -12.1554
  33   2.0000      -0.441280       -12.0078
  34   2.0000      -0.417304       -11.3554
  35   2.0000      -0.411951       -11.2097
  36   2.0000      -0.399052       -10.8588
  37   2.0000      -0.390050       -10.6138
  38   2.0000      -0.376810       -10.2535
  39   2.0000      -0.362847        -9.8736
  40   2.0000      -0.362411        -9.8617
  41   2.0000      -0.357637        -9.7318
  42   2.0000      -0.346816        -9.4374
  43   2.0000      -0.335793        -9.1374
  44   2.0000      -0.326131        -8.8745
  45   2.0000      -0.305970        -8.3259
  46   2.0000      -0.297443        -8.0938
  47   2.0000      -0.278371        -7.5748
  48   2.0000      -0.264643        -7.2013
  49   2.0000      -0.258356        -7.0302
  50   2.0000      -0.240404        -6.5417
  51   0.0000       0.064731         1.7614
  52   0.0000       0.085620         2.3298
  53   0.0000       0.097153         2.6437
  54   0.0000       0.104250         2.8368
  55   0.0000       0.108888         2.9630

MULLIKEN ATOMIC CHARGES
-----------------------
   0 C :    0.280661
   1 C :   -0.266067
   2 C :   -0.299203
   3 C :   -0.005120
   4 O :   -0.513694
   5 H :    0.168232
   6 H :    0.147382
   7 H :    0.154031
   8 H :    0.142345
   9 H :    0.162213
  10 H :    0.147326
  11 H :    0.144809
  12 C :   -0.025816
  13 H :    0.174939
  14 H :    0.140537
  15 O :   -0.526829
  16 C :    0.071887
  17 C :    0.082965
  18 C :   -0.288135
  19 C :   -0.021146
  20 O :   -0.531198
  21 H :    0.152408
  22 O :   -0.605244
  23 H :    0.153439
  24 H :    0.149516
  25 H :    0.170050
  26 H :    0.137917
  27 H :    0.139147
  28 H :    0.362648
Sum of atomic charges:   -0.0000000

LOEWDIN ATOMIC CHARGES
----------------------
   0 C :    0.169783
   1 C :   -0.215571
   2 C :   -0.216075
   3 C :   -0.027900
   4 O :   -0.326057
   5 H :    0.107619
   6 H :    0.115434
   7 H :    0.121587
   8 H :    0.113993
   9 H :    0.119091
  10 H :    0.105534
  11 H :    0.104016
  12 C :   -0.043978
  13 H :    0.121991
  14 H :    0.108890
  15 O :   -0.334484
  16 C :    0.007893
  17 C :    0.039029
  18 C :   -0.241505
  19 C :   -0.034372
  20 O :   -0.335390
  21 H :    0.114584
  22 O :   -0.417434
  23 H :    0.117007
  24 H :    0.119375
  25 H :    0.127605
  26 H :    0.099367
  27 H :    0.098149
  28 H :    0.281820

  Mayer bond orders larger than 0.100000
B(  0-C ,  1-C ) :   0.9484 B(  0-C ,  4-O ) :   0.8975 B(  0-C ,  5-H ) :   0.9114
B(  0-C , 15-O ) :   0.8440 B(  1-C ,  2-C ) :   0.9541 B(  1-C ,  6-H ) :   0.9398
B(  1-C ,  7-H ) :   0.9364 B(  2-C ,  3-C ) :   0.9565 B(  2-C ,  8-H ) :   0.9451
B(  2-C ,  9-H ) :   0.9442 B(  3-C ,  4-O ) :   0.8343 B(  3-C , 10-H ) :   0.9358
B(  3-C , 11-H ) :   0.9405 B( 12-C , 13-H ) :   0.9122 B( 12-C , 14-H ) :   0.9280
B( 12-C , 15-O ) :   0.8523 B( 12-C , 16-C ) :   0.8934 B( 16-C , 17-C ) :   0.9115
B( 16-C , 20-O ) :   0.8609 B( 16-C , 21-H ) :   0.9190 B( 17-C , 18-C ) :   0.9219
B( 17-C , 22-O ) :   0.8888 B( 17-C , 23-H ) :   0.9351 B( 18-C , 19-C ) :   0.9460
B( 18-C , 24-H ) :   0.9369 B( 18-C , 25-H ) :   0.9200 B( 19-C , 20-O ) :   0.8409
B( 19-C , 26-H ) :   0.9331 B( 19-C , 27-H ) :   0.9384 B( 22-O , 28-H ) :   0.7964

FINAL SINGLE POINT ENERGY      -652.869925060725

DIPOLE MOMENT
-------------
                                X             Y             Z
Electronic contribution:     -2.71593      -4.93433      -0.28847
Nuclear contribution   :      3.37554       5.81156       0.32507
                        -----------------------------------------
Total Dipole Moment    :      0.65960       0.87723       0.03660
                        -----------------------------------------
Magnitude (a.u.)       :      1.09816
Magnitude (Debye)      :      2.79130

Rotational constants in cm-1:     0.063473     0.013751     0.013235
Rotational constants in MHz :  1902.877733   412.238215   396.775744

                             ****ORCA TERMINATED NORMALLY****
TOTAL RUN TIME: 0 days 0 hours 18 minutes 58 seconds 578 msec
