                         Program Version 4.2.0 -  RELEASE  -
|  1> # Test redundant internal optimization
|  2> #
|  3> ! RKS B3LYP  Opt TightSCF SmallPrint
|  4>
|  5> %basis
|  6>         Basis "6-31G"
|  7> end
|  8>
|  9> %geom
| 10> Constraints
| 11> { D 4  0  15  12  90.0   C } # D for Dihedral angle
| 12> { D 0  15  12  16  165.0   C } # D for Dihedral angle
| 13> { D 0  4  3  2   C } # D for Dihedral angle
| 14> { D 4  3  2  1   C } # D for Dihedral angle
| 15> { D 3  2  1  0   C } # D for Dihedral angle
| 16> { D 2  1  0  4   C } # D for Dihedral angle
| 17> { D 1  0  4  3   C } # D for Dihedral angle
| 18> { D 16  20  19  18   C } # D for Dihedral angle
| 19> { D 20  19  18  17   C } # D for Dihedral angle
| 20> { D 19  18  17  16   C } # D for Dihedral angle
| 21> { D 18  17  16  20   C } # D for Dihedral angle
| 22> { D 17  16  20  19   C } # D for Dihedral angle
| 23> { D 15  12  16  20   C } # D for Dihedral angle
| 24> end
| 25> end
| 26>
| 27>
| 28> #%pal
| 29> #nprocs 8
| 30> #end
| 31>
| 32> * xyz 0 1
| 33> C  -21.048   26.222   46.251
| 34> C  -20.361   27.558   45.944
| 35> C  -20.329   28.222   47.341
| 36> C  -20.110   27.022   48.296
| 37> O  -20.473   25.807   47.535
| 38> H  -20.833   25.428   45.533
| 39> H  -19.344   27.382   45.576
| 40> H  -20.898   28.157   45.201
| 41> H  -19.543   28.978   47.434
| 42> H  -21.289   28.710   47.548
| 43> H  -20.733   27.082   49.195
| 44> H  -19.064   26.913   48.597
| 45> C  -23.061   27.816   46.783
| 46> H  -22.860   27.972   47.850
| 47> H  -22.515   28.580   46.216
| 48> O  -22.586   26.394   46.375
| 49> C  -24.579   28.036   46.535
| 50> C  -25.427   27.118   47.422
| 51> C  -25.383   27.863   48.777
| 52> C  -25.378   29.355   48.358
| 53> O  -24.972   29.391   46.937
| 54> H  -24.783   27.948   45.466
| 55> H  -26.453   27.070   47.040
| 56> O  -24.870   25.671   47.511
| 57> H  -26.229   27.615   49.425
| 58> H  -24.463   27.609   49.316
| 59> H  -24.676   29.953   48.947
| 60> H  -26.370   29.810   48.422
| 61> H  -23.843   25.695   47.891
| 62> *
| 63>
| 64>                          ****END OF INPUT****
 Total Charge           Charge          ....    0
 Multiplicity           Mult            ....    1
 Number of Electrons    NEL             ....  102
FINAL SINGLE POINT ENERGY      -652.812924943078
FINAL SINGLE POINT ENERGY      -652.840653685546
FINAL SINGLE POINT ENERGY      -652.854729992765
FINAL SINGLE POINT ENERGY      -652.858548665303
FINAL SINGLE POINT ENERGY      -652.860308457456
FINAL SINGLE POINT ENERGY      -652.861333567620
FINAL SINGLE POINT ENERGY      -652.861778046223
FINAL SINGLE POINT ENERGY      -652.861892682466
FINAL SINGLE POINT ENERGY      -652.861914310263
FINAL SINGLE POINT ENERGY      -652.861916818021
                    ***********************HURRAY********************

CARTESIAN COORDINATES (ANGSTROEM)
---------------------------------
  C    -21.192832   26.356870   46.415472
  C    -20.270226   27.476628   45.920442
  C    -19.905859   28.206675   47.244403
  C    -19.840700   27.042270   48.263554
  O    -20.570112   25.911090   47.636046
  H    -21.223121   25.483682   45.763427
  H    -19.382436   27.016958   45.475221
  H    -20.733057   28.127123   45.173281
  H    -18.952090   28.738121   47.172384
  H    -20.670777   28.937380   47.518146
  H    -20.310142   27.278904   49.222555
  H    -18.818415   26.697617   48.441567
  C    -23.092659   28.007682   46.927259
  H    -22.910112   28.207903   47.989814
  H    -22.604842   28.783363   46.329458
  O    -22.600770   26.675093   46.568526
  C    -24.594249   28.023523   46.617497
  C    -25.445115   27.042947   47.443219
  C    -25.581096   27.803928   48.795247
  C    -25.657139   29.281092   48.359280
  O    -25.125379   29.340277   46.962890
  H    -24.738856   27.889469   45.542172
  H    -26.432470   26.966126   46.973862
  O    -24.932491   25.706427   47.578498
  H    -26.462571   27.479495   49.354467
  H    -24.698476   27.596493   49.410367
  H    -25.063100   29.952364   48.987079
  H    -26.683564   29.655838   48.314919
  H    -23.980344   25.691662   47.320949

 Multiplicity           Mult            ....    1
 Number of Electrons    NEL             ....  102
 Basis Dimension        Dim             ....  149

ORBITAL ENERGIES
----------------

  NO   OCC          E(Eh)            E(eV)
   0   2.0000     -19.166597      -521.5496
   1   2.0000     -19.151371      -521.1353
   2   2.0000     -19.141507      -520.8669
   3   2.0000     -19.109269      -519.9896
   4   2.0000     -10.293222      -280.0928
   5   2.0000     -10.242410      -278.7101
   6   2.0000     -10.237859      -278.5863
   7   2.0000     -10.234760      -278.5020
   8   2.0000     -10.228542      -278.3328
   9   2.0000     -10.226998      -278.2908
  10   2.0000     -10.204104      -277.6678
  11   2.0000     -10.202650      -277.6282
  12   2.0000     -10.178173      -276.9622
  13   2.0000      -1.065779       -29.0013
  14   2.0000      -1.026219       -27.9248
  15   2.0000      -1.010286       -27.4913
  16   2.0000      -0.989895       -26.9364
  17   2.0000      -0.800117       -21.7723
  18   2.0000      -0.780182       -21.2298
  19   2.0000      -0.768041       -20.8995
  20   2.0000      -0.738927       -20.1072
  21   2.0000      -0.685272       -18.6472
  22   2.0000      -0.615088       -16.7374
  23   2.0000      -0.601811       -16.3761
  24   2.0000      -0.596330       -16.2270
  25   2.0000      -0.578441       -15.7402
  26   2.0000      -0.530281       -14.4297
  27   2.0000      -0.517434       -14.0801
  28   2.0000      -0.513858       -13.9828
  29   2.0000      -0.486846       -13.2478
  30   2.0000      -0.476566       -12.9680
  31   2.0000      -0.464870       -12.6498
  32   2.0000      -0.441329       -12.0092
  33   2.0000      -0.434640       -11.8272
  34   2.0000      -0.430828       -11.7234
  35   2.0000      -0.424757       -11.5582
  36   2.0000      -0.412309       -11.2195
  37   2.0000      -0.393347       -10.7035
  38   2.0000      -0.387752       -10.5513
  39   2.0000      -0.372490       -10.1360
  40   2.0000      -0.366763        -9.9801
  41   2.0000      -0.363633        -9.8950
  42   2.0000      -0.347768        -9.4633
  43   2.0000      -0.340950        -9.2777
  44   2.0000      -0.323429        -8.8010
  45   2.0000      -0.315639        -8.5890
  46   2.0000      -0.295344        -8.0367
  47   2.0000      -0.275187        -7.4882
  48   2.0000      -0.268513        -7.3066
  49   2.0000      -0.249786        -6.7970
  50   2.0000      -0.239200        -6.5090
  51   0.0000       0.055217         1.5025
  52   0.0000       0.067948         1.8490
  53   0.0000       0.088290         2.4025
  54   0.0000       0.095673         2.6034
  55   0.0000       0.102013         2.7759

MULLIKEN ATOMIC CHARGES
-----------------------
   0 C :    0.317602
   1 C :   -0.297684
   2 C :   -0.314819
   3 C :   -0.009481
   4 O :   -0.497631
   5 H :    0.173414
   6 H :    0.164382
   7 H :    0.156107
   8 H :    0.151108
   9 H :    0.152980
  10 H :    0.149298
  11 H :    0.152276
  12 C :   -0.013561
  13 H :    0.140823
  14 H :    0.156152
  15 O :   -0.563029
  16 C :    0.052488
  17 C :    0.123546
  18 C :   -0.303863
  19 C :   -0.022744
  20 O :   -0.523614
  21 H :    0.160819
  22 H :    0.145158
  23 O :   -0.636699
  24 H :    0.153036
  25 H :    0.145595
  26 H :    0.141053
  27 H :    0.149625
  28 H :    0.397661
Sum of atomic charges:   -0.0000000

LOEWDIN ATOMIC CHARGES
----------------------
   0 C :    0.177686
   1 C :   -0.228649
   2 C :   -0.223285
   3 C :   -0.031027
   4 O :   -0.315828
   5 H :    0.116558
   6 H :    0.127129
   7 H :    0.120418
   8 H :    0.119055
   9 H :    0.112018
  10 H :    0.105589
  11 H :    0.107464
  12 C :   -0.045454
  13 H :    0.097680
  14 H :    0.108240
  15 O :   -0.330461
  16 C :    0.019007
  17 C :    0.043115
  18 C :   -0.237994
  19 C :   -0.033165
  20 O :   -0.326250
  21 H :    0.116267
  22 H :    0.104912
  23 O :   -0.432566
  24 H :    0.122041
  25 H :    0.110924
  26 H :    0.100892
  27 H :    0.106423
  28 H :    0.289259

  Mayer bond orders larger than 0.100000
B(  0-C ,  1-C ) :   0.9320 B(  0-C ,  4-O ) :   0.9225 B(  0-C ,  5-H ) :   0.9336
B(  0-C , 15-O ) :   0.8409 B(  1-C ,  2-C ) :   0.9523 B(  1-C ,  6-H ) :   0.9337
B(  1-C ,  7-H ) :   0.9315 B(  2-C ,  3-C ) :   0.9471 B(  2-C ,  8-H ) :   0.9448
B(  2-C ,  9-H ) :   0.9391 B(  3-C ,  4-O ) :   0.8403 B(  3-C , 10-H ) :   0.9342
B(  3-C , 11-H ) :   0.9387 B( 12-C , 13-H ) :   0.9172 B( 12-C , 14-H ) :   0.9145
B( 12-C , 15-O ) :   0.7912 B( 12-C , 16-C ) :   0.9027 B( 16-C , 17-C ) :   0.9125
B( 16-C , 20-O ) :   0.8569 B( 16-C , 21-H ) :   0.9285 B( 17-C , 18-C ) :   0.8990
B( 17-C , 22-H ) :   0.9302 B( 17-C , 23-O ) :   0.9437 B( 18-C , 19-C ) :   0.9382
B( 18-C , 24-H ) :   0.9447 B( 18-C , 25-H ) :   0.9430 B( 19-C , 20-O ) :   0.8317
B( 19-C , 26-H ) :   0.9341 B( 19-C , 27-H ) :   0.9386 B( 23-O , 28-H ) :   0.7216

FINAL SINGLE POINT ENERGY      -652.861917343623

DIPOLE MOMENT
-------------
                                X             Y             Z
Electronic contribution:     -2.62828      -3.97813      -2.17051
Nuclear contribution   :      3.90781       5.18308       2.17707
                        -----------------------------------------
Total Dipole Moment    :      1.27953       1.20495       0.00657
                        -----------------------------------------
Magnitude (a.u.)       :      1.75760
Magnitude (Debye)      :      4.46746

Rotational constants in cm-1:     0.049155     0.014664     0.013537
Rotational constants in MHz :  1473.643507   439.619821   405.835558

                             ****ORCA TERMINATED NORMALLY****
TOTAL RUN TIME: 0 days 1 hours 22 minutes 38 seconds 782 msec
