                         Program Version 4.2.0 -  RELEASE  -
|  1> # Test redundant internal optimization
|  2> #
|  3> ! RKS B3LYP  Opt TightSCF SmallPrint
|  4>
|  5> %basis
|  6>         Basis "6-31G"
|  7> end
|  8>
|  9> %geom
| 10> Constraints
| 11> { D 4  0  15  12  180.0   C } # D for Dihedral angle
| 12> { D 0  15  12  16  75.0   C } # D for Dihedral angle
| 13> { D 0  4  3  2   C } # D for Dihedral angle
| 14> { D 4  3  2  1   C } # D for Dihedral angle
| 15> { D 3  2  1  0   C } # D for Dihedral angle
| 16> { D 2  1  0  4   C } # D for Dihedral angle
| 17> { D 1  0  4  3   C } # D for Dihedral angle
| 18> { D 16  20  19  18   C } # D for Dihedral angle
| 19> { D 20  19  18  17   C } # D for Dihedral angle
| 20> { D 19  18  17  16   C } # D for Dihedral angle
| 21> { D 18  17  16  20   C } # D for Dihedral angle
| 22> { D 17  16  20  19   C } # D for Dihedral angle
| 23> { D 15  12  16  20   C } # D for Dihedral angle
| 24> end
| 25> end
| 26>
| 27>
| 28> #%pal
| 29> #nprocs 8
| 30> #end
| 31>
| 32> * xyz 0 1
| 33> C  -21.048   26.222   46.251
| 34> C  -20.361   27.558   45.944
| 35> C  -20.329   28.222   47.341
| 36> C  -20.110   27.022   48.296
| 37> O  -20.473   25.807   47.535
| 38> H  -20.833   25.428   45.533
| 39> H  -19.344   27.382   45.576
| 40> H  -20.898   28.157   45.201
| 41> H  -19.543   28.978   47.434
| 42> H  -21.289   28.710   47.548
| 43> H  -20.733   27.082   49.195
| 44> H  -19.064   26.913   48.597
| 45> C  -23.309   26.834   45.072
| 46> H  -24.316   27.191   45.320
| 47> H  -22.763   27.654   44.589
| 48> O  -22.586   26.394   46.375
| 49> C  -23.440   25.680   44.040
| 50> C  -22.073   25.068   43.712
| 51> C  -21.838   24.151   44.937
| 52> C  -23.262   23.644   45.274
| 53> O  -24.207   24.567   44.609
| 54> H  -23.994   26.039   43.170
| 55> O  -22.164   24.228   42.409
| 56> H  -21.284   25.817   43.585
| 57> H  -21.142   23.333   44.728
| 58> H  -21.429   24.735   45.770
| 59> H  -23.462   23.639   46.351
| 60> H  -23.455   22.644   44.874
| 61> H  -22.948   23.470   42.513
| 62> *
| 63>
| 64>                          ****END OF INPUT****
 Total Charge           Charge          ....    0
 Multiplicity           Mult            ....    1
 Number of Electrons    NEL             ....  102
FINAL SINGLE POINT ENERGY      -652.732732498755
FINAL SINGLE POINT ENERGY      -652.818438146722
FINAL SINGLE POINT ENERGY      -652.840869269094
FINAL SINGLE POINT ENERGY      -652.847179054803
FINAL SINGLE POINT ENERGY      -652.848181023321
FINAL SINGLE POINT ENERGY      -652.848319947352
FINAL SINGLE POINT ENERGY      -652.848346549558
FINAL SINGLE POINT ENERGY      -652.848355967313
FINAL SINGLE POINT ENERGY      -652.848356723499
FINAL SINGLE POINT ENERGY      -652.848355683054
                    ***********************HURRAY********************

CARTESIAN COORDINATES (ANGSTROEM)
---------------------------------
  C    -20.915615   26.334668   46.528164
  C    -20.154209   27.589662   46.103576
  C    -20.313818   28.500505   47.347663
  C    -20.277334   27.491772   48.513898
  O    -20.561166   26.164763   47.906416
  H    -20.624754   25.427455   46.005959
  H    -19.101000   27.330996   45.941949
  H    -20.532350   28.050481   45.186989
  H    -19.521814   29.252221   47.419074
  H    -21.278066   29.015122   47.311151
  H    -21.030123   27.690248   49.280484
  H    -19.291127   27.415169   48.981518
  C    -23.054553   26.743563   45.233454
  H    -24.035860   27.097455   45.558961
  H    -22.577852   27.557624   44.662608
  O    -22.361248   26.537226   46.493885
  C    -23.330719   25.598535   44.238326
  C    -22.208264   24.852894   43.494279
  C    -21.887931   23.684961   44.476857
  C    -23.284867   23.356286   45.070375
  O    -24.145963   24.526391   44.801298
  H    -23.959791   26.084853   43.477987
  O    -22.693778   24.360109   42.217004
  H    -21.343247   25.472632   43.253508
  H    -21.455487   22.843009   43.928980
  H    -21.186439   23.980089   45.254451
  H    -23.251240   23.185606   46.150035
  H    -23.751944   22.491727   44.588473
  H    -23.566441   23.932980   42.351678

 Multiplicity           Mult            ....    1
 Number of Electrons    NEL             ....  102
 Basis Dimension        Dim             ....  149

ORBITAL ENERGIES
----------------

  NO   OCC          E(Eh)            E(eV)
   0   2.0000     -19.144191      -520.9399
   1   2.0000     -19.143323      -520.9163
   2   2.0000     -19.142680      -520.8988
   3   2.0000     -19.142532      -520.8948
   4   2.0000     -10.281904      -279.7848
   5   2.0000     -10.247637      -278.8524
   6   2.0000     -10.239127      -278.6208
   7   2.0000     -10.236229      -278.5419
   8   2.0000     -10.229300      -278.3534
   9   2.0000     -10.226818      -278.2859
  10   2.0000     -10.191356      -277.3209
  11   2.0000     -10.189815      -277.2790
  12   2.0000     -10.189411      -277.2680
  13   2.0000      -1.055336       -28.7172
  14   2.0000      -1.040420       -28.3113
  15   2.0000      -1.009993       -27.4833
  16   2.0000      -0.994145       -27.0521
  17   2.0000      -0.789328       -21.4787
  18   2.0000      -0.779829       -21.2202
  19   2.0000      -0.773297       -21.0425
  20   2.0000      -0.737931       -20.0801
  21   2.0000      -0.682056       -18.5597
  22   2.0000      -0.610861       -16.6224
  23   2.0000      -0.605929       -16.4882
  24   2.0000      -0.601153       -16.3582
  25   2.0000      -0.574048       -15.6206
  26   2.0000      -0.526281       -14.3208
  27   2.0000      -0.513054       -13.9609
  28   2.0000      -0.504376       -13.7248
  29   2.0000      -0.489980       -13.3330
  30   2.0000      -0.472263       -12.8509
  31   2.0000      -0.461654       -12.5622
  32   2.0000      -0.455288       -12.3890
  33   2.0000      -0.448049       -12.1920
  34   2.0000      -0.423741       -11.5306
  35   2.0000      -0.418382       -11.3848
  36   2.0000      -0.404272       -11.0008
  37   2.0000      -0.394778       -10.7425
  38   2.0000      -0.383072       -10.4239
  39   2.0000      -0.368079       -10.0159
  40   2.0000      -0.363516        -9.8918
  41   2.0000      -0.359603        -9.7853
  42   2.0000      -0.353707        -9.6249
  43   2.0000      -0.334826        -9.1111
  44   2.0000      -0.315698        -8.5906
  45   2.0000      -0.308929        -8.4064
  46   2.0000      -0.303639        -8.2624
  47   2.0000      -0.273962        -7.4549
  48   2.0000      -0.269196        -7.3252
  49   2.0000      -0.259766        -7.0686
  50   2.0000      -0.238659        -6.4942
  51   0.0000       0.060418         1.6440
  52   0.0000       0.074608         2.0302
  53   0.0000       0.089284         2.4295
  54   0.0000       0.098772         2.6877
  55   0.0000       0.101975         2.7749

MULLIKEN ATOMIC CHARGES
-----------------------
   0 C :    0.296438
   1 C :   -0.282170
   2 C :   -0.294226
   3 C :   -0.002148
   4 O :   -0.500649
   5 H :    0.136579
   6 H :    0.148557
   7 H :    0.140931
   8 H :    0.142943
   9 H :    0.159922
  10 H :    0.156761
  11 H :    0.143167
  12 C :   -0.017281
  13 H :    0.172861
  14 H :    0.114233
  15 O :   -0.503809
  16 C :    0.070568
  17 C :    0.068545
  18 C :   -0.308265
  19 C :   -0.024192
  20 O :   -0.520904
  21 H :    0.155360
  22 O :   -0.599094
  23 H :    0.146008
  24 H :    0.161812
  25 H :    0.165066
  26 H :    0.164089
  27 H :    0.141246
  28 H :    0.367651
Sum of atomic charges:   -0.0000000

LOEWDIN ATOMIC CHARGES
----------------------
   0 C :    0.176288
   1 C :   -0.232232
   2 C :   -0.215801
   3 C :   -0.025004
   4 O :   -0.303169
   5 H :    0.092440
   6 H :    0.115860
   7 H :    0.111897
   8 H :    0.114927
   9 H :    0.117650
  10 H :    0.110740
  11 H :    0.102978
  12 C :   -0.043667
  13 H :    0.127973
  14 H :    0.088173
  15 O :   -0.326546
  16 C :    0.000063
  17 C :    0.033991
  18 C :   -0.244233
  19 C :   -0.033985
  20 O :   -0.327377
  21 H :    0.116864
  22 O :   -0.411717
  23 H :    0.112666
  24 H :    0.125331
  25 H :    0.118674
  26 H :    0.113464
  27 H :    0.099097
  28 H :    0.284653

  Mayer bond orders larger than 0.100000
B(  0-C ,  1-C ) :   0.9270 B(  0-C ,  4-O ) :   0.9450 B(  0-C ,  5-H ) :   0.8916
B(  0-C , 15-O ) :   0.8414 B(  1-C ,  2-C ) :   0.9519 B(  1-C ,  6-H ) :   0.9343
B(  1-C ,  7-H ) :   0.9321 B(  2-C ,  3-C ) :   0.9545 B(  2-C ,  8-H ) :   0.9450
B(  2-C ,  9-H ) :   0.9452 B(  3-C ,  4-O ) :   0.8326 B(  3-C , 10-H ) :   0.9344
B(  3-C , 11-H ) :   0.9395 B( 12-C , 13-H ) :   0.9307 B( 12-C , 14-H ) :   0.9022
B( 12-C , 15-O ) :   0.8896 B( 12-C , 16-C ) :   0.8837 B( 16-C , 17-C ) :   0.9043
B( 16-C , 20-O ) :   0.8641 B( 16-C , 21-H ) :   0.9097 B( 17-C , 18-C ) :   0.9191
B( 17-C , 22-O ) :   0.8906 B( 17-C , 23-H ) :   0.9348 B( 18-C , 19-C ) :   0.9407
B( 18-C , 24-H ) :   0.9364 B( 18-C , 25-H ) :   0.9094 B( 19-C , 20-O ) :   0.8429
B( 19-C , 26-H ) :   0.9316 B( 19-C , 27-H ) :   0.9373 B( 22-O , 28-H ) :   0.7923

FINAL SINGLE POINT ENERGY      -652.848354064505

DIPOLE MOMENT
-------------
                                X             Y             Z
Electronic contribution:     -3.76701      -2.98252      -0.64881
Nuclear contribution   :      4.46677       3.61608       0.44817
                        -----------------------------------------
Total Dipole Moment    :      0.69976       0.63356      -0.20064
                        -----------------------------------------
Magnitude (a.u.)       :      0.96504
Magnitude (Debye)      :      2.45295

Rotational constants in cm-1:     0.056264     0.013754     0.013369
Rotational constants in MHz :  1686.759990   412.320360   400.785465

                             ****ORCA TERMINATED NORMALLY****
TOTAL RUN TIME: 0 days 0 hours 47 minutes 41 seconds 129 msec
