                         Program Version 4.2.0 -  RELEASE  -
|  1> # Test redundant internal optimization
|  2> #
|  3> ! RKS B3LYP  Opt TightSCF SmallPrint
|  4>
|  5> %basis
|  6>         Basis "6-31G"
|  7> end
|  8>
|  9> %geom
| 10> Constraints
| 11> { D 4  0  15  12  270.0   C } # D for Dihedral angle
| 12> { D 0  15  12  16  150.0   C } # D for Dihedral angle
| 13> { D 0  4  3  2   C } # D for Dihedral angle
| 14> { D 4  3  2  1   C } # D for Dihedral angle
| 15> { D 3  2  1  0   C } # D for Dihedral angle
| 16> { D 2  1  0  4   C } # D for Dihedral angle
| 17> { D 1  0  4  3   C } # D for Dihedral angle
| 18> { D 16  20  19  18   C } # D for Dihedral angle
| 19> { D 20  19  18  17   C } # D for Dihedral angle
| 20> { D 19  18  17  16   C } # D for Dihedral angle
| 21> { D 18  17  16  20   C } # D for Dihedral angle
| 22> { D 17  16  20  19   C } # D for Dihedral angle
| 23> { D 15  12  16  20   C } # D for Dihedral angle
| 24> end
| 25> end
| 26>
| 27>
| 28> #%pal
| 29> #nprocs 8
| 30> #end
| 31>
| 32> * xyz 0 1
| 33> C  -21.048   26.222   46.251
| 34> C  -20.361   27.558   45.944
| 35> C  -20.329   28.222   47.341
| 36> C  -20.110   27.022   48.296
| 37> O  -20.473   25.807   47.535
| 38> H  -20.833   25.428   45.533
| 39> H  -19.344   27.382   45.576
| 40> H  -20.898   28.157   45.201
| 41> H  -19.543   28.978   47.434
| 42> H  -21.289   28.710   47.548
| 43> H  -20.733   27.082   49.195
| 44> H  -19.064   26.913   48.597
| 45> C  -23.420   25.119   46.072
| 46> H  -23.657   25.087   45.002
| 47> H  -22.847   24.217   46.324
| 48> O  -22.586   26.394   46.375
| 49> C  -24.753   25.070   46.869
| 50> C  -24.505   25.201   48.377
| 51> C  -24.293   26.726   48.528
| 52> C  -25.262   27.322   47.476
| 53> O  -25.591   26.226   46.538
| 54> H  -25.310   24.177   46.579
| 55> O  -25.763   24.742   49.164
| 56> H  -23.647   24.616   48.725
| 57> H  -24.503   27.086   49.540
| 58> H  -23.255   26.987   48.288
| 59> H  -24.816   28.152   46.917
| 60> H  -26.203   27.660   47.920
| 61> H  -26.635   25.315   48.832
| 62> *
| 63>
| 64>                          ****END OF INPUT****
 Total Charge           Charge          ....    0
 Multiplicity           Mult            ....    1
 Number of Electrons    NEL             ....  102
FINAL SINGLE POINT ENERGY      -652.838072529880
FINAL SINGLE POINT ENERGY      -652.861092967699
FINAL SINGLE POINT ENERGY      -652.865111329126
FINAL SINGLE POINT ENERGY      -652.866279013198
FINAL SINGLE POINT ENERGY      -652.866392275325
FINAL SINGLE POINT ENERGY      -652.866407879735
                    ***********************HURRAY********************

CARTESIAN COORDINATES (ANGSTROEM)
---------------------------------
  C    -21.076186   26.150757   46.234159
  C    -20.430976   27.498504   45.909179
  C    -20.414085   28.184428   47.295275
  C    -20.158328   27.007399   48.263914
  O    -20.493950   25.775904   47.504907
  H    -20.848561   25.339335   45.537150
  H    -19.412032   27.331038   45.542379
  H    -20.995102   28.053533   45.157238
  H    -19.644997   28.959089   47.372804
  H    -21.386761   28.645991   47.490621
  H    -20.778412   27.048584   49.163522
  H    -19.107854   26.917986   48.555699
  C    -23.315820   25.151496   46.089609
  H    -23.551908   25.105768   45.019200
  H    -22.756732   24.248920   46.373032
  O    -22.504179   26.342523   46.334333
  C    -24.622143   25.185997   46.876149
  C    -24.511457   25.252496   48.407026
  C    -24.345295   26.775667   48.645991
  C    -25.230259   27.400800   47.538547
  O    -25.450557   26.340605   46.526285
  H    -25.192223   24.294403   46.585362
  O    -25.716651   24.723567   49.029225
  H    -23.691525   24.660136   48.813271
  H    -24.670379   27.047315   49.654092
  H    -23.300319   27.052540   48.506670
  H    -24.747630   28.252443   47.052007
  H    -26.216188   27.707351   47.902823
  H    -26.500490   25.123424   48.596533

 Multiplicity           Mult            ....    1
 Number of Electrons    NEL             ....  102
 Basis Dimension        Dim             ....  149

ORBITAL ENERGIES
----------------

  NO   OCC          E(Eh)            E(eV)
   0   2.0000     -19.149487      -521.0840
   1   2.0000     -19.143753      -520.9280
   2   2.0000     -19.136418      -520.7284
   3   2.0000     -19.132967      -520.6345
   4   2.0000     -10.283562      -279.8299
   5   2.0000     -10.233656      -278.4719
   6   2.0000     -10.233397      -278.4649
   7   2.0000     -10.232784      -278.4482
   8   2.0000     -10.229564      -278.3606
   9   2.0000     -10.221408      -278.1387
  10   2.0000     -10.189953      -277.2827
  11   2.0000     -10.188880      -277.2535
  12   2.0000     -10.175254      -276.8827
  13   2.0000      -1.058178       -28.7945
  14   2.0000      -1.030631       -28.0449
  15   2.0000      -1.002681       -27.2843
  16   2.0000      -0.995379       -27.0856
  17   2.0000      -0.792615       -21.5682
  18   2.0000      -0.775140       -21.0926
  19   2.0000      -0.763335       -20.7714
  20   2.0000      -0.733261       -19.9530
  21   2.0000      -0.673676       -18.3317
  22   2.0000      -0.602837       -16.4040
  23   2.0000      -0.597792       -16.2667
  24   2.0000      -0.594371       -16.1736
  25   2.0000      -0.580207       -15.7882
  26   2.0000      -0.525807       -14.3079
  27   2.0000      -0.505106       -13.7446
  28   2.0000      -0.499164       -13.5830
  29   2.0000      -0.487166       -13.2565
  30   2.0000      -0.473445       -12.8831
  31   2.0000      -0.458276       -12.4703
  32   2.0000      -0.445973       -12.1355
  33   2.0000      -0.437137       -11.8951
  34   2.0000      -0.423763       -11.5312
  35   2.0000      -0.412440       -11.2231
  36   2.0000      -0.405478       -11.0336
  37   2.0000      -0.385721       -10.4960
  38   2.0000      -0.373677       -10.1683
  39   2.0000      -0.365878        -9.9560
  40   2.0000      -0.360534        -9.8106
  41   2.0000      -0.357041        -9.7156
  42   2.0000      -0.349197        -9.5021
  43   2.0000      -0.331063        -9.0087
  44   2.0000      -0.323820        -8.8116
  45   2.0000      -0.307780        -8.3751
  46   2.0000      -0.300646        -8.1810
  47   2.0000      -0.274762        -7.4767
  48   2.0000      -0.264375        -7.1940
  49   2.0000      -0.253902        -6.9090
  50   2.0000      -0.240039        -6.5318
  51   0.0000       0.063421         1.7258
  52   0.0000       0.082829         2.2539
  53   0.0000       0.087764         2.3882
  54   0.0000       0.102672         2.7938
  55   0.0000       0.106844         2.9074

MULLIKEN ATOMIC CHARGES
-----------------------
   0 C :    0.280443
   1 C :   -0.256346
   2 C :   -0.305105
   3 C :   -0.002839
   4 O :   -0.510745
   5 H :    0.145307
   6 H :    0.146783
   7 H :    0.157517
   8 H :    0.144476
   9 H :    0.160736
  10 H :    0.145055
  11 H :    0.145056
  12 C :    0.003697
  13 H :    0.149147
  14 H :    0.140757
  15 O :   -0.521602
  16 C :    0.060887
  17 C :    0.075892
  18 C :   -0.288821
  19 C :   -0.018409
  20 O :   -0.525625
  21 H :    0.154177
  22 O :   -0.604896
  23 H :    0.159918
  24 H :    0.143663
  25 H :    0.174198
  26 H :    0.148754
  27 H :    0.135376
  28 H :    0.362550
Sum of atomic charges:    0.0000000

LOEWDIN ATOMIC CHARGES
----------------------
   0 C :    0.172170
   1 C :   -0.215332
   2 C :   -0.216889
   3 C :   -0.028757
   4 O :   -0.329013
   5 H :    0.099428
   6 H :    0.115061
   7 H :    0.124515
   8 H :    0.115109
   9 H :    0.116460
  10 H :    0.103062
  11 H :    0.104298
  12 C :   -0.037526
  13 H :    0.106971
  14 H :    0.105263
  15 O :   -0.329597
  16 C :    0.012615
  17 C :    0.039790
  18 C :   -0.240197
  19 C :   -0.032557
  20 O :   -0.330725
  21 H :    0.115820
  22 O :   -0.417696
  23 H :    0.120054
  24 H :    0.116698
  25 H :    0.126432
  26 H :    0.106736
  27 H :    0.096159
  28 H :    0.281650

  Mayer bond orders larger than 0.100000
B(  0-C ,  1-C ) :   0.9469 B(  0-C ,  4-O ) :   0.9095 B(  0-C ,  5-H ) :   0.9198
B(  0-C , 15-O ) :   0.8589 B(  1-C ,  2-C ) :   0.9563 B(  1-C ,  6-H ) :   0.9392
B(  1-C ,  7-H ) :   0.9363 B(  2-C ,  3-C ) :   0.9537 B(  2-C ,  8-H ) :   0.9451
B(  2-C ,  9-H ) :   0.9433 B(  3-C ,  4-O ) :   0.8381 B(  3-C , 10-H ) :   0.9330
B(  3-C , 11-H ) :   0.9398 B( 12-C , 13-H ) :   0.9207 B( 12-C , 14-H ) :   0.9088
B( 12-C , 15-O ) :   0.8359 B( 12-C , 16-C ) :   0.9142 B( 16-C , 17-C ) :   0.9085
B( 16-C , 20-O ) :   0.8729 B( 16-C , 21-H ) :   0.9205 B( 17-C , 18-C ) :   0.9234
B( 17-C , 22-O ) :   0.8878 B( 17-C , 23-H ) :   0.9331 B( 18-C , 19-C ) :   0.9447
B( 18-C , 24-H ) :   0.9385 B( 18-C , 25-H ) :   0.9161 B( 19-C , 20-O ) :   0.8402
B( 19-C , 26-H ) :   0.9346 B( 19-C , 27-H ) :   0.9375 B( 22-O , 28-H ) :   0.7959

FINAL SINGLE POINT ENERGY      -652.866407755595

DIPOLE MOMENT
-------------
                                X             Y             Z
Electronic contribution:     -3.60621      -4.22297      -0.96078
Nuclear contribution   :      4.41514       4.99690       0.62464
                        -----------------------------------------
Total Dipole Moment    :      0.80893       0.77393      -0.33614
                        -----------------------------------------
Magnitude (a.u.)       :      1.16890
Magnitude (Debye)      :      2.97111

Rotational constants in cm-1:     0.048857     0.015511     0.015086
Rotational constants in MHz :  1464.691798   465.018827   452.275276

                             ****ORCA TERMINATED NORMALLY****
TOTAL RUN TIME: 0 days 0 hours 15 minutes 31 seconds 128 msec
