                         Program Version 4.2.0 -  RELEASE  -
|  1> # Test redundant internal optimization
|  2> #
|  3> ! RKS B3LYP  Opt TightSCF SmallPrint
|  4>
|  5> %basis
|  6>         Basis "6-31G"
|  7> end
|  8>
|  9> %geom
| 10> Constraints
| 11> { D 4  0  15  12  300.0   C } # D for Dihedral angle
| 12> { D 0  15  12  16  90.0   C } # D for Dihedral angle
| 13> { D 0  4  3  2   C } # D for Dihedral angle
| 14> { D 4  3  2  1   C } # D for Dihedral angle
| 15> { D 3  2  1  0   C } # D for Dihedral angle
| 16> { D 2  1  0  4   C } # D for Dihedral angle
| 17> { D 1  0  4  3   C } # D for Dihedral angle
| 18> { D 16  20  19  18   C } # D for Dihedral angle
| 19> { D 20  19  18  17   C } # D for Dihedral angle
| 20> { D 19  18  17  16   C } # D for Dihedral angle
| 21> { D 18  17  16  20   C } # D for Dihedral angle
| 22> { D 17  16  20  19   C } # D for Dihedral angle
| 23> { D 15  12  16  20   C } # D for Dihedral angle
| 24> end
| 25> end
| 26>
| 27>
| 28> #%pal
| 29> #nprocs 8
| 30> #end
| 31>
| 32> * xyz 0 1
| 33> C  -21.048   26.222   46.251
| 34> C  -20.361   27.558   45.944
| 35> C  -20.329   28.222   47.341
| 36> C  -20.110   27.022   48.296
| 37> O  -20.473   25.807   47.535
| 38> H  -20.833   25.428   45.533
| 39> H  -19.344   27.382   45.576
| 40> H  -20.898   28.157   45.201
| 41> H  -19.543   28.978   47.434
| 42> H  -21.289   28.710   47.548
| 43> H  -20.733   27.082   49.195
| 44> H  -19.064   26.913   48.597
| 45> C  -23.362   25.116   46.798
| 46> H  -24.365   25.139   46.356
| 47> H  -22.847   24.217   46.435
| 48> O  -22.586   26.394   46.375
| 49> C  -23.510   24.986   48.339
| 50> C  -24.176   23.660   48.724
| 51> C  -22.995   22.668   48.599
| 52> C  -21.779   23.508   49.063
| 53> O  -22.190   24.926   48.977
| 54> H  -24.013   25.874   48.727
| 55> O  -24.684   23.725   50.190
| 56> H  -25.020   23.400   48.077
| 57> H  -23.134   21.765   49.202
| 58> H  -22.874   22.357   47.554
| 59> H  -20.896   23.352   48.433
| 60> H  -21.510   23.312   50.105
| 61> H  -23.854   23.985   50.857
| 62> *
| 63>
| 64>                          ****END OF INPUT****
 Total Charge           Charge          ....    0
 Multiplicity           Mult            ....    1
 Number of Electrons    NEL             ....  102
FINAL SINGLE POINT ENERGY      -652.826861222945
FINAL SINGLE POINT ENERGY      -652.851633106903
FINAL SINGLE POINT ENERGY      -652.859387963047
FINAL SINGLE POINT ENERGY      -652.861585569744
FINAL SINGLE POINT ENERGY      -652.861938936191
FINAL SINGLE POINT ENERGY      -652.861992996142
FINAL SINGLE POINT ENERGY      -652.861998653154
                    ***********************HURRAY********************

CARTESIAN COORDINATES (ANGSTROEM)
---------------------------------
  C    -21.006466   26.209997   46.236684
  C    -20.534407   27.630008   45.934800
  C    -20.411749   28.235666   47.352502
  C    -19.931374   27.035417   48.199640
  O    -20.246959   25.828104   47.392608
  H    -20.798321   25.449900   45.475068
  H    -19.557042   27.588830   45.439522
  H    -21.235227   28.168975   45.294164
  H    -19.715170   29.078881   47.390429
  H    -21.393543   28.578230   47.690525
  H    -20.446075   26.940634   49.156973
  H    -18.848184   27.029449   48.356340
  C    -23.207099   25.157891   46.841290
  H    -24.206575   25.306548   46.417677
  H    -22.772536   24.253456   46.387054
  O    -22.446723   26.319103   46.418571
  C    -23.370694   24.966432   48.361508
  C    -24.155504   23.682753   48.665545
  C    -23.031726   22.608620   48.655575
  C    -21.822840   23.375747   49.250930
  O    -22.142450   24.816107   49.127536
  H    -23.876662   25.847777   48.769257
  O    -24.805836   23.760833   49.964899
  H    -24.958472   23.473988   47.957342
  H    -23.326784   21.741470   49.250962
  H    -22.828813   22.273487   47.633014
  H    -20.888202   23.186084   48.717374
  H    -21.674921   23.166820   50.315044
  H    -24.179645   24.153791   50.609167

 Multiplicity           Mult            ....    1
 Number of Electrons    NEL             ....  102
 Basis Dimension        Dim             ....  149

ORBITAL ENERGIES
----------------

  NO   OCC          E(Eh)            E(eV)
   0   2.0000     -19.139898      -520.8231
   1   2.0000     -19.137594      -520.7604
   2   2.0000     -19.136684      -520.7356
   3   2.0000     -19.132471      -520.6210
   4   2.0000     -10.273243      -279.5492
   5   2.0000     -10.240764      -278.6653
   6   2.0000     -10.231287      -278.4075
   7   2.0000     -10.231158      -278.4040
   8   2.0000     -10.225124      -278.2398
   9   2.0000     -10.214533      -277.9516
  10   2.0000     -10.187252      -277.2092
  11   2.0000     -10.177931      -276.9556
  12   2.0000     -10.177621      -276.9472
  13   2.0000      -1.046886       -28.4872
  14   2.0000      -1.033551       -28.1244
  15   2.0000      -1.003507       -27.3068
  16   2.0000      -0.989888       -26.9362
  17   2.0000      -0.786393       -21.3988
  18   2.0000      -0.777134       -21.1469
  19   2.0000      -0.762043       -20.7363
  20   2.0000      -0.726870       -19.7791
  21   2.0000      -0.669170       -18.2090
  22   2.0000      -0.601789       -16.3755
  23   2.0000      -0.593247       -16.1431
  24   2.0000      -0.590410       -16.0659
  25   2.0000      -0.574339       -15.6286
  26   2.0000      -0.520391       -14.1606
  27   2.0000      -0.511299       -13.9131
  28   2.0000      -0.490557       -13.3487
  29   2.0000      -0.477769       -13.0008
  30   2.0000      -0.472861       -12.8672
  31   2.0000      -0.453259       -12.3338
  32   2.0000      -0.448671       -12.2090
  33   2.0000      -0.433452       -11.7948
  34   2.0000      -0.418794       -11.3960
  35   2.0000      -0.405540       -11.0353
  36   2.0000      -0.395200       -10.7539
  37   2.0000      -0.389878       -10.6091
  38   2.0000      -0.372336       -10.1318
  39   2.0000      -0.368834       -10.0365
  40   2.0000      -0.351981        -9.5779
  41   2.0000      -0.348545        -9.4844
  42   2.0000      -0.341235        -9.2855
  43   2.0000      -0.331752        -9.0274
  44   2.0000      -0.320719        -8.7272
  45   2.0000      -0.302876        -8.2417
  46   2.0000      -0.290009        -7.8915
  47   2.0000      -0.271007        -7.3745
  48   2.0000      -0.268769        -7.3136
  49   2.0000      -0.252456        -6.8697
  50   2.0000      -0.228084        -6.2065
  51   0.0000       0.068350         1.8599
  52   0.0000       0.090452         2.4613
  53   0.0000       0.092828         2.5260
  54   0.0000       0.100606         2.7376
  55   0.0000       0.110431         3.0050

MULLIKEN ATOMIC CHARGES
-----------------------
   0 C :    0.298133
   1 C :   -0.265868
   2 C :   -0.299304
   3 C :   -0.005234
   4 O :   -0.499440
   5 H :    0.137258
   6 H :    0.141241
   7 H :    0.156211
   8 H :    0.137294
   9 H :    0.159723
  10 H :    0.163587
  11 H :    0.137148
  12 C :    0.001286
  13 H :    0.146903
  14 H :    0.119085
  15 O :   -0.527426
  16 C :    0.082638
  17 C :    0.069068
  18 C :   -0.294081
  19 C :   -0.023883
  20 O :   -0.506665
  21 H :    0.157639
  22 O :   -0.602665
  23 H :    0.149459
  24 H :    0.161234
  25 H :    0.141676
  26 H :    0.160567
  27 H :    0.140457
  28 H :    0.363960
Sum of atomic charges:   -0.0000000

LOEWDIN ATOMIC CHARGES
----------------------
   0 C :    0.174678
   1 C :   -0.215681
   2 C :   -0.216391
   3 C :   -0.028745
   4 O :   -0.314363
   5 H :    0.092664
   6 H :    0.111468
   7 H :    0.123044
   8 H :    0.111632
   9 H :    0.117896
  10 H :    0.114257
  11 H :    0.099880
  12 C :   -0.041322
  13 H :    0.113518
  14 H :    0.090977
  15 O :   -0.330353
  16 C :    0.009234
  17 C :    0.033404
  18 C :   -0.240636
  19 C :   -0.035940
  20 O :   -0.314317
  21 H :    0.114058
  22 O :   -0.415075
  23 H :    0.113672
  24 H :    0.126003
  25 H :    0.111648
  26 H :    0.112375
  27 H :    0.099894
  28 H :    0.282522

  Mayer bond orders larger than 0.100000
B(  0-C ,  1-C ) :   0.9479 B(  0-C ,  4-O ) :   0.9300 B(  0-C ,  5-H ) :   0.9222
B(  0-C , 15-O ) :   0.8442 B(  1-C ,  2-C ) :   0.9592 B(  1-C ,  6-H ) :   0.9409
B(  1-C ,  7-H ) :   0.9365 B(  2-C ,  3-C ) :   0.9570 B(  2-C ,  8-H ) :   0.9452
B(  2-C ,  9-H ) :   0.9445 B(  3-C ,  4-O ) :   0.8275 B(  3-C , 10-H ) :   0.9265
B(  3-C , 11-H ) :   0.9411 B( 12-C , 13-H ) :   0.9285 B( 12-C , 14-H ) :   0.9223
B( 12-C , 15-O ) :   0.8578 B( 12-C , 16-C ) :   0.8781 B( 16-C , 17-C ) :   0.8934
B( 16-C , 20-O ) :   0.8712 B( 16-C , 21-H ) :   0.9273 B( 17-C , 18-C ) :   0.9111
B( 17-C , 22-O ) :   0.8910 B( 17-C , 23-H ) :   0.9331 B( 18-C , 19-C ) :   0.9413
B( 18-C , 24-H ) :   0.9376 B( 18-C , 25-H ) :   0.9334 B( 19-C , 20-O ) :   0.8421
B( 19-C , 26-H ) :   0.9290 B( 19-C , 27-H ) :   0.9384 B( 22-O , 28-H ) :   0.7944

FINAL SINGLE POINT ENERGY      -652.862000479009

DIPOLE MOMENT
-------------
                                X             Y             Z
Electronic contribution:     -2.19198      -0.78836       1.09581
Nuclear contribution   :      2.68053       0.67941      -1.43105
                        -----------------------------------------
Total Dipole Moment    :      0.48855      -0.10896      -0.33524
                        -----------------------------------------
Magnitude (a.u.)       :      0.60244
Magnitude (Debye)      :      1.53129

Rotational constants in cm-1:     0.056973     0.015285     0.014246
Rotational constants in MHz :  1708.021241   458.222734   427.098024

                             ****ORCA TERMINATED NORMALLY****
TOTAL RUN TIME: 0 days 0 hours 26 minutes 47 seconds 244 msec
