                         Program Version 4.2.0 -  RELEASE  -
|  1> # Test redundant internal optimization
|  2> #
|  3> ! RKS B3LYP  Opt TightSCF SmallPrint
|  4>
|  5> %basis
|  6>         Basis "6-31G"
|  7> end
|  8>
|  9> %geom
| 10> Constraints
| 11> { D 4  0  15  12  240.0   C } # D for Dihedral angle
| 12> { D 0  15  12  16  210.0   C } # D for Dihedral angle
| 13> { D 0  4  3  2   C } # D for Dihedral angle
| 14> { D 4  3  2  1   C } # D for Dihedral angle
| 15> { D 3  2  1  0   C } # D for Dihedral angle
| 16> { D 2  1  0  4   C } # D for Dihedral angle
| 17> { D 1  0  4  3   C } # D for Dihedral angle
| 18> { D 16  20  19  18   C } # D for Dihedral angle
| 19> { D 20  19  18  17   C } # D for Dihedral angle
| 20> { D 19  18  17  16   C } # D for Dihedral angle
| 21> { D 18  17  16  20   C } # D for Dihedral angle
| 22> { D 17  16  20  19   C } # D for Dihedral angle
| 23> { D 15  12  16  20   C } # D for Dihedral angle
| 24> end
| 25> end
| 26>
| 27>
| 28> #%pal
| 29> #nprocs 8
| 30> #end
| 31>
| 32> * xyz 0 1
| 33> C  -21.048   26.222   46.251
| 34> C  -20.361   27.558   45.944
| 35> C  -20.329   28.222   47.341
| 36> C  -20.110   27.022   48.296
| 37> O  -20.473   25.807   47.535
| 38> H  -20.833   25.428   45.533
| 39> H  -19.344   27.382   45.576
| 40> H  -20.898   28.157   45.201
| 41> H  -19.543   28.978   47.434
| 42> H  -21.289   28.710   47.548
| 43> H  -20.733   27.082   49.195
| 44> H  -19.064   26.913   48.597
| 45> C  -23.430   25.483   45.442
| 46> H  -22.859   25.271   44.529
| 47> H  -23.652   24.528   45.936
| 48> O  -22.586   26.394   46.375
| 49> C  -24.782   26.130   45.033
| 50> C  -25.600   26.536   46.265
| 51> C  -24.913   27.862   46.673
| 52> C  -24.516   28.486   45.312
| 53> O  -24.553   27.390   44.319
| 54> H  -25.304   25.463   44.345
| 55> O  -27.079   26.787   45.863
| 56> H  -25.581   25.786   47.062
| 57> H  -25.567   28.517   47.258
| 58> H  -24.021   27.654   47.276
| 59> H  -23.513   28.924   45.327
| 60> H  -25.229   29.246   44.978
| 61> H  -27.122   27.537   45.066
| 62> *
| 63>
| 64>                          ****END OF INPUT****
 Total Charge           Charge          ....    0
 Multiplicity           Mult            ....    1
 Number of Electrons    NEL             ....  102
FINAL SINGLE POINT ENERGY      -652.836712349262
FINAL SINGLE POINT ENERGY      -652.858928101831
FINAL SINGLE POINT ENERGY      -652.862846861137
FINAL SINGLE POINT ENERGY      -652.863827940208
FINAL SINGLE POINT ENERGY      -652.863927879276
FINAL SINGLE POINT ENERGY      -652.863939415216
                    ***********************HURRAY********************

CARTESIAN COORDINATES (ANGSTROEM)
---------------------------------
  C    -21.074618   26.168641   46.204808
  C    -20.429073   27.521215   45.905974
  C    -20.421127   28.187205   47.302819
  C    -20.170360   26.994541   48.252183
  O    -20.501738   25.777858   47.467650
  H    -20.848779   25.373099   45.489325
  H    -19.405804   27.363692   45.545014
  H    -20.986717   28.085786   45.155342
  H    -19.654344   28.962216   47.395911
  H    -21.395916   28.642555   47.502988
  H    -20.797954   27.016255   49.146486
  H    -19.121363   26.900313   48.548032
  C    -23.346209   25.492187   45.478152
  H    -22.818256   25.270222   44.541155
  H    -23.561912   24.543192   45.989831
  O    -22.512413   26.336966   46.320604
  C    -24.653602   26.194056   45.123110
  C    -25.567502   26.599576   46.288793
  C    -24.954161   27.960614   46.710791
  C    -24.487689   28.566804   45.364708
  O    -24.420492   27.443906   44.397632
  H    -25.200710   25.531347   44.440848
  O    -26.945855   26.725761   45.837443
  H    -25.597004   25.870164   47.099001
  H    -25.696134   28.579050   47.223800
  H    -24.101516   27.780964   47.368116
  H    -23.499930   29.030009   45.435946
  H    -25.195417   29.297150   44.958291
  H    -26.965406   27.259656   45.015247

 Multiplicity           Mult            ....    1
 Number of Electrons    NEL             ....  102
 Basis Dimension        Dim             ....  149

ORBITAL ENERGIES
----------------

  NO   OCC          E(Eh)            E(eV)
   0   2.0000     -19.146815      -521.0113
   1   2.0000     -19.141345      -520.8625
   2   2.0000     -19.140374      -520.8360
   3   2.0000     -19.134528      -520.6770
   4   2.0000     -10.282907      -279.8121
   5   2.0000     -10.236554      -278.5508
   6   2.0000     -10.236020      -278.5363
   7   2.0000     -10.235309      -278.5169
   8   2.0000     -10.227039      -278.2919
   9   2.0000     -10.225232      -278.2427
  10   2.0000     -10.188836      -277.2523
  11   2.0000     -10.186879      -277.1991
  12   2.0000     -10.176959      -276.9291
  13   2.0000      -1.055640       -28.7254
  14   2.0000      -1.033091       -28.1118
  15   2.0000      -1.004333       -27.3293
  16   2.0000      -0.995547       -27.0902
  17   2.0000      -0.790345       -21.5064
  18   2.0000      -0.777088       -21.1456
  19   2.0000      -0.765332       -20.8257
  20   2.0000      -0.732731       -19.9386
  21   2.0000      -0.675400       -18.3786
  22   2.0000      -0.601229       -16.3603
  23   2.0000      -0.597637       -16.2625
  24   2.0000      -0.597065       -16.2470
  25   2.0000      -0.582240       -15.8436
  26   2.0000      -0.527078       -14.3425
  27   2.0000      -0.505705       -13.7609
  28   2.0000      -0.496021       -13.4974
  29   2.0000      -0.487365       -13.2619
  30   2.0000      -0.476873       -12.9764
  31   2.0000      -0.461384       -12.5549
  32   2.0000      -0.448105       -12.1936
  33   2.0000      -0.438606       -11.9351
  34   2.0000      -0.424292       -11.5456
  35   2.0000      -0.409062       -11.1311
  36   2.0000      -0.402333       -10.9480
  37   2.0000      -0.388263       -10.5652
  38   2.0000      -0.378299       -10.2941
  39   2.0000      -0.368695       -10.0327
  40   2.0000      -0.358960        -9.7678
  41   2.0000      -0.356853        -9.7105
  42   2.0000      -0.351758        -9.5718
  43   2.0000      -0.328303        -8.9336
  44   2.0000      -0.318860        -8.6766
  45   2.0000      -0.312254        -8.4969
  46   2.0000      -0.301284        -8.1984
  47   2.0000      -0.271225        -7.3804
  48   2.0000      -0.265865        -7.2346
  49   2.0000      -0.253084        -6.8868
  50   2.0000      -0.242349        -6.5947
  51   0.0000       0.061155         1.6641
  52   0.0000       0.081327         2.2130
  53   0.0000       0.086665         2.3583
  54   0.0000       0.100582         2.7370
  55   0.0000       0.104240         2.8365

MULLIKEN ATOMIC CHARGES
-----------------------
   0 C :    0.289993
   1 C :   -0.257232
   2 C :   -0.306378
   3 C :   -0.001053
   4 O :   -0.502546
   5 H :    0.142831
   6 H :    0.144672
   7 H :    0.157481
   8 H :    0.143787
   9 H :    0.158608
  10 H :    0.150055
  11 H :    0.143022
  12 C :    0.003049
  13 H :    0.141856
  14 H :    0.139578
  15 O :   -0.525426
  16 C :    0.063270
  17 C :    0.076487
  18 C :   -0.294867
  19 C :   -0.023732
  20 O :   -0.528610
  21 H :    0.156671
  22 O :   -0.602750
  23 H :    0.156850
  24 H :    0.149019
  25 H :    0.179850
  26 H :    0.145614
  27 H :    0.137846
  28 H :    0.362057
Sum of atomic charges:   -0.0000000

LOEWDIN ATOMIC CHARGES
----------------------
   0 C :    0.178468
   1 C :   -0.221059
   2 C :   -0.217463
   3 C :   -0.026549
   4 O :   -0.316054
   5 H :    0.100367
   6 H :    0.113934
   7 H :    0.122229
   8 H :    0.114977
   9 H :    0.115183
  10 H :    0.107045
  11 H :    0.103009
  12 C :   -0.033844
  13 H :    0.103005
  14 H :    0.101599
  15 O :   -0.335578
  16 C :    0.012359
  17 C :    0.039162
  18 C :   -0.243571
  19 C :   -0.033736
  20 O :   -0.332282
  21 H :    0.116370
  22 O :   -0.417011
  23 H :    0.118607
  24 H :    0.118844
  25 H :    0.130935
  26 H :    0.102931
  27 H :    0.096679
  28 H :    0.281443

  Mayer bond orders larger than 0.100000
B(  0-C ,  1-C ) :   0.9411 B(  0-C ,  4-O ) :   0.9334 B(  0-C ,  5-H ) :   0.9192
B(  0-C , 15-O ) :   0.8338 B(  1-C ,  2-C ) :   0.9567 B(  1-C ,  6-H ) :   0.9363
B(  1-C ,  7-H ) :   0.9342 B(  2-C ,  3-C ) :   0.9536 B(  2-C ,  8-H ) :   0.9449
B(  2-C ,  9-H ) :   0.9429 B(  3-C ,  4-O ) :   0.8383 B(  3-C , 10-H ) :   0.9350
B(  3-C , 11-H ) :   0.9396 B( 12-C , 13-H ) :   0.9170 B( 12-C , 14-H ) :   0.9116
B( 12-C , 15-O ) :   0.8486 B( 12-C , 16-C ) :   0.9056 B( 16-C , 17-C ) :   0.9104
B( 16-C , 20-O ) :   0.8696 B( 16-C , 21-H ) :   0.9208 B( 17-C , 18-C ) :   0.9249
B( 17-C , 22-O ) :   0.8917 B( 17-C , 23-H ) :   0.9342 B( 18-C , 19-C ) :   0.9462
B( 18-C , 24-H ) :   0.9370 B( 18-C , 25-H ) :   0.9161 B( 19-C , 20-O ) :   0.8416
B( 19-C , 26-H ) :   0.9315 B( 19-C , 27-H ) :   0.9367 B( 22-O , 28-H ) :   0.7962

FINAL SINGLE POINT ENERGY      -652.863939349122

DIPOLE MOMENT
-------------
                                X             Y             Z
Electronic contribution:     -3.10830      -3.86528      -1.70929
Nuclear contribution   :      3.89460       4.51955       1.60333
                        -----------------------------------------
Total Dipole Moment    :      0.78630       0.65427      -0.10595
                        -----------------------------------------
Magnitude (a.u.)       :      1.02838
Magnitude (Debye)      :      2.61393

Rotational constants in cm-1:     0.054908     0.014310     0.013794
Rotational constants in MHz :  1646.111439   429.010133   413.528629

                             ****ORCA TERMINATED NORMALLY****
TOTAL RUN TIME: 0 days 0 hours 16 minutes 46 seconds 692 msec
