                         Program Version 4.2.0 -  RELEASE  -
|  1> # Test redundant internal optimization
|  2> #
|  3> ! RKS B3LYP  Opt TightSCF SmallPrint
|  4>
|  5> %basis
|  6>         Basis "6-31G"
|  7> end
|  8>
|  9> %geom
| 10> Constraints
| 11> { D 4  0  15  12  120.0   C } # D for Dihedral angle
| 12> { D 0  15  12  16  180.0   C } # D for Dihedral angle
| 13> { D 0  4  3  2   C } # D for Dihedral angle
| 14> { D 4  3  2  1   C } # D for Dihedral angle
| 15> { D 3  2  1  0   C } # D for Dihedral angle
| 16> { D 2  1  0  4   C } # D for Dihedral angle
| 17> { D 1  0  4  3   C } # D for Dihedral angle
| 18> { D 16  20  19  18   C } # D for Dihedral angle
| 19> { D 20  19  18  17   C } # D for Dihedral angle
| 20> { D 19  18  17  16   C } # D for Dihedral angle
| 21> { D 18  17  16  20   C } # D for Dihedral angle
| 22> { D 17  16  20  19   C } # D for Dihedral angle
| 23> { D 15  12  16  20   C } # D for Dihedral angle
| 24> end
| 25> end
| 26>
| 27>
| 28> #%pal
| 29> #nprocs 8
| 30> #end
| 31>
| 32> * xyz 0 1
| 33> C  -21.048   26.222   46.251
| 34> C  -20.361   27.558   45.944
| 35> C  -20.329   28.222   47.341
| 36> C  -20.110   27.022   48.296
| 37> O  -20.473   25.807   47.535
| 38> H  -20.833   25.428   45.533
| 39> H  -19.344   27.382   45.576
| 40> H  -20.898   28.157   45.201
| 41> H  -19.543   28.978   47.434
| 42> H  -21.289   28.710   47.548
| 43> H  -20.733   27.082   49.195
| 44> H  -19.064   26.913   48.597
| 45> C  -23.119   27.818   46.058
| 46> H  -22.658   28.538   46.745
| 47> H  -22.856   28.107   45.032
| 48> O  -22.586   26.394   46.375
| 49> C  -24.663   27.927   46.199
| 50> C  -25.165   29.309   45.768
| 51> C  -25.161   29.178   44.226
| 52> C  -25.562   27.699   43.999
| 53> O  -25.328   26.998   45.279
| 54> H  -24.951   27.637   47.212
| 55> H  -26.183   29.473   46.139
| 56> O  -24.266   30.470   46.275
| 57> H  -25.848   29.876   43.739
| 58> H  -24.155   29.370   43.835
| 59> H  -24.966   27.219   43.214
| 60> H  -26.623   27.586   43.758
| 61> H  -23.242   30.329   45.915
| 62> *
| 63>
| 64>                          ****END OF INPUT****
 Total Charge           Charge          ....    0
 Multiplicity           Mult            ....    1
 Number of Electrons    NEL             ....  102
FINAL SINGLE POINT ENERGY      -652.811053303277
FINAL SINGLE POINT ENERGY      -652.836292603454
FINAL SINGLE POINT ENERGY      -652.844213121731
FINAL SINGLE POINT ENERGY      -652.846336846460
FINAL SINGLE POINT ENERGY      -652.846714755635
FINAL SINGLE POINT ENERGY      -652.846818979630
FINAL SINGLE POINT ENERGY      -652.846829431728
FINAL SINGLE POINT ENERGY      -652.846820593340
FINAL SINGLE POINT ENERGY      -652.846817722371
                    ***********************HURRAY********************

CARTESIAN COORDINATES (ANGSTROEM)
---------------------------------
  C    -21.143330   26.324306   46.310330
  C    -20.151802   27.449574   45.993156
  C    -20.008016   28.155378   47.371781
  C    -20.111045   26.971278   48.363776
  O    -20.726634   25.855989   47.609194
  H    -21.059908   25.457418   45.652190
  H    -19.201020   26.995589   45.695220
  H    -20.473775   28.119546   45.191622
  H    -19.058051   28.690613   47.465499
  H    -20.814206   28.877535   47.531696
  H    -20.730191   27.196689   49.236554
  H    -19.130558   26.622305   48.700386
  C    -23.049634   27.981266   46.002231
  H    -22.692252   28.734177   46.717121
  H    -22.741359   28.284254   44.989979
  O    -22.556131   26.655854   46.307562
  C    -24.573123   27.919264   46.104808
  C    -25.272317   29.247007   45.771342
  C    -25.349597   29.187322   44.215788
  C    -25.574979   27.683396   43.945696
  O    -25.172364   26.963736   45.180488
  H    -24.823288   27.558355   47.106117
  H    -26.274807   29.245237   46.203860
  O    -24.642045   30.436948   46.308986
  H    -26.147640   29.818307   43.815862
  H    -24.398430   29.532665   43.788196
  H    -24.985466   27.307499   43.103908
  H    -26.628794   27.449087   43.768518
  H    -23.866238   30.688407   45.767136

 Multiplicity           Mult            ....    1
 Number of Electrons    NEL             ....  102
 Basis Dimension        Dim             ....  149

ORBITAL ENERGIES
----------------

  NO   OCC          E(Eh)            E(eV)
   0   2.0000     -19.153173      -521.1843
   1   2.0000     -19.136539      -520.7317
   2   2.0000     -19.136069      -520.7189
   3   2.0000     -19.135713      -520.7092
   4   2.0000     -10.276925      -279.6494
   5   2.0000     -10.246607      -278.8244
   6   2.0000     -10.233682      -278.4726
   7   2.0000     -10.230138      -278.3762
   8   2.0000     -10.229921      -278.3703
   9   2.0000     -10.225749      -278.2568
  10   2.0000     -10.197803      -277.4963
  11   2.0000     -10.195013      -277.4204
  12   2.0000     -10.194321      -277.4016
  13   2.0000      -1.048347       -28.5270
  14   2.0000      -1.035142       -28.1676
  15   2.0000      -1.016130       -27.6503
  16   2.0000      -0.991486       -26.9797
  17   2.0000      -0.790047       -21.4983
  18   2.0000      -0.784512       -21.3477
  19   2.0000      -0.771578       -20.9957
  20   2.0000      -0.732140       -19.9226
  21   2.0000      -0.685129       -18.6433
  22   2.0000      -0.613258       -16.6876
  23   2.0000      -0.605767       -16.4837
  24   2.0000      -0.594182       -16.1685
  25   2.0000      -0.571888       -15.5619
  26   2.0000      -0.527343       -14.3497
  27   2.0000      -0.511734       -13.9250
  28   2.0000      -0.501602       -13.6493
  29   2.0000      -0.496911       -13.5216
  30   2.0000      -0.471819       -12.8388
  31   2.0000      -0.461304       -12.5527
  32   2.0000      -0.441950       -12.0261
  33   2.0000      -0.438473       -11.9315
  34   2.0000      -0.429963       -11.6999
  35   2.0000      -0.416862       -11.3434
  36   2.0000      -0.413250       -11.2451
  37   2.0000      -0.402187       -10.9441
  38   2.0000      -0.383005       -10.4221
  39   2.0000      -0.379432       -10.3249
  40   2.0000      -0.363010        -9.8780
  41   2.0000      -0.355887        -9.6842
  42   2.0000      -0.350531        -9.5384
  43   2.0000      -0.331173        -9.0117
  44   2.0000      -0.316971        -8.6252
  45   2.0000      -0.311817        -8.4850
  46   2.0000      -0.290058        -7.8929
  47   2.0000      -0.272969        -7.4279
  48   2.0000      -0.263674        -7.1749
  49   2.0000      -0.247670        -6.7394
  50   2.0000      -0.240825        -6.5532
  51   0.0000       0.044162         1.2017
  52   0.0000       0.069673         1.8959
  53   0.0000       0.083997         2.2857
  54   0.0000       0.090669         2.4672
  55   0.0000       0.099479         2.7070

MULLIKEN ATOMIC CHARGES
-----------------------
   0 C :    0.316262
   1 C :   -0.296454
   2 C :   -0.312859
   3 C :   -0.002329
   4 O :   -0.493858
   5 H :    0.161366
   6 H :    0.156419
   7 H :    0.140152
   8 H :    0.145154
   9 H :    0.152033
  10 H :    0.150069
  11 H :    0.144323
  12 C :   -0.006567
  13 H :    0.132195
  14 H :    0.107946
  15 O :   -0.515743
  16 C :    0.103663
  17 C :    0.077943
  18 C :   -0.322767
  19 C :   -0.007099
  20 O :   -0.501573
  21 H :    0.168027
  22 H :    0.170293
  23 O :   -0.599495
  24 H :    0.159280
  25 H :    0.128159
  26 H :    0.143640
  27 H :    0.148015
  28 H :    0.353807
Sum of atomic charges:   -0.0000000

LOEWDIN ATOMIC CHARGES
----------------------
   0 C :    0.181180
   1 C :   -0.231847
   2 C :   -0.221813
   3 C :   -0.030080
   4 O :   -0.311952
   5 H :    0.108361
   6 H :    0.123044
   7 H :    0.112334
   8 H :    0.115769
   9 H :    0.108996
  10 H :    0.106408
  11 H :    0.103572
  12 C :   -0.047962
  13 H :    0.094700
  14 H :    0.081435
  15 O :   -0.316076
  16 C :    0.025527
  17 C :    0.034046
  18 C :   -0.241111
  19 C :   -0.029484
  20 O :   -0.309019
  21 H :    0.122753
  22 H :    0.120719
  23 O :   -0.408564
  24 H :    0.122880
  25 H :    0.101146
  26 H :    0.102769
  27 H :    0.105827
  28 H :    0.276442

  Mayer bond orders larger than 0.100000
B(  0-C ,  1-C ) :   0.9302 B(  0-C ,  4-O ) :   0.9151 B(  0-C ,  5-H ) :   0.9308
B(  0-C , 15-O ) :   0.8759 B(  1-C ,  2-C ) :   0.9502 B(  1-C ,  6-H ) :   0.9347
B(  1-C ,  7-H ) :   0.9312 B(  2-C ,  3-C ) :   0.9492 B(  2-C ,  8-H ) :   0.9456
B(  2-C ,  9-H ) :   0.9391 B(  3-C ,  4-O ) :   0.8479 B(  3-C , 10-H ) :   0.9339
B(  3-C , 11-H ) :   0.9393 B( 12-C , 13-H ) :   0.8872 B( 12-C , 14-H ) :   0.9135
B( 12-C , 15-O ) :   0.8543 B( 12-C , 16-C ) :   0.9030 B( 16-C , 17-C ) :   0.8713
B( 16-C , 20-O ) :   0.8736 B( 16-C , 21-H ) :   0.9287 B( 17-C , 18-C ) :   0.9253
B( 17-C , 22-H ) :   0.9331 B( 17-C , 23-O ) :   0.8923 B( 18-C , 19-C ) :   0.9382
B( 18-C , 24-H ) :   0.9414 B( 18-C , 25-H ) :   0.9406 B( 19-C , 20-O ) :   0.8550
B( 19-C , 26-H ) :   0.9315 B( 19-C , 27-H ) :   0.9379 B( 23-O , 28-H ) :   0.7997

FINAL SINGLE POINT ENERGY      -652.846818889076

DIPOLE MOMENT
-------------
                                X             Y             Z
Electronic contribution:     -3.13440      -4.32444       1.86474
Nuclear contribution   :      3.95585       5.89312      -2.94207
                        -----------------------------------------
Total Dipole Moment    :      0.82145       1.56867      -1.07734
                        -----------------------------------------
Magnitude (a.u.)       :      2.07272
Magnitude (Debye)      :      5.26844

Rotational constants in cm-1:     0.052364     0.013276     0.011970
Rotational constants in MHz :  1569.832304   397.993056   358.850780

                             ****ORCA TERMINATED NORMALLY****
TOTAL RUN TIME: 0 days 1 hours 36 minutes 30 seconds 953 msec
