                         Program Version 4.2.0 -  RELEASE  -
|  1> # Test redundant internal optimization
|  2> #
|  3> ! RKS B3LYP  Opt TightSCF SmallPrint
|  4>
|  5> %basis
|  6>         Basis "6-31G"
|  7> end
|  8>
|  9> %geom
| 10> Constraints
| 11> { D 4  0  15  12  165.0   C } # D for Dihedral angle
| 12> { D 0  15  12  16  150.0   C } # D for Dihedral angle
| 13> { D 0  4  3  2   C } # D for Dihedral angle
| 14> { D 4  3  2  1   C } # D for Dihedral angle
| 15> { D 3  2  1  0   C } # D for Dihedral angle
| 16> { D 2  1  0  4   C } # D for Dihedral angle
| 17> { D 1  0  4  3   C } # D for Dihedral angle
| 18> { D 16  20  19  18   C } # D for Dihedral angle
| 19> { D 20  19  18  17   C } # D for Dihedral angle
| 20> { D 19  18  17  16   C } # D for Dihedral angle
| 21> { D 18  17  16  20   C } # D for Dihedral angle
| 22> { D 17  16  20  19   C } # D for Dihedral angle
| 23> { D 15  12  16  20   C } # D for Dihedral angle
| 24> end
| 25> end
| 26>
| 27>
| 28> #%pal
| 29> #nprocs 8
| 30> #end
| 31>
| 32> * xyz 0 1
| 33> C  -21.048   26.222   46.251
| 34> C  -20.361   27.558   45.944
| 35> C  -20.329   28.222   47.341
| 36> C  -20.110   27.022   48.296
| 37> O  -20.473   25.807   47.535
| 38> H  -20.833   25.428   45.533
| 39> H  -19.344   27.382   45.576
| 40> H  -20.898   28.157   45.201
| 41> H  -19.543   28.978   47.434
| 42> H  -21.289   28.710   47.548
| 43> H  -20.733   27.082   49.195
| 44> H  -19.064   26.913   48.597
| 45> C  -23.260   27.170   45.210
| 46> H  -23.268   28.242   45.446
| 47> H  -22.697   27.029   44.278
| 48> O  -22.586   26.394   46.375
| 49> C  -24.723   26.715   44.953
| 50> C  -24.801   25.204   44.704
| 51> C  -24.718   24.645   46.144
| 52> C  -25.483   25.703   46.977
| 53> O  -25.544   26.927   46.149
| 54> H  -25.153   27.327   44.158
| 55> O  -26.164   24.842   44.053
| 56> H  -23.999   24.832   44.057
| 57> H  -25.154   23.645   46.237
| 58> H  -23.671   24.585   46.465
| 59> H  -24.983   25.934   47.924
| 60> H  -26.515   25.404   47.186
| 61> H  -26.982   25.204   44.685
| 62> *
| 63>
| 64>                          ****END OF INPUT****
 Total Charge           Charge          ....    0
 Multiplicity           Mult            ....    1
 Number of Electrons    NEL             ....  102
FINAL SINGLE POINT ENERGY      -652.832024082852
FINAL SINGLE POINT ENERGY      -652.854254018475
FINAL SINGLE POINT ENERGY      -652.858335128857
FINAL SINGLE POINT ENERGY      -652.859494167703
FINAL SINGLE POINT ENERGY      -652.859611332463
FINAL SINGLE POINT ENERGY      -652.859628995729
                    ***********************HURRAY********************

CARTESIAN COORDINATES (ANGSTROEM)
---------------------------------
  C    -21.079787   26.264561   46.196248
  C    -20.322407   27.560499   45.911589
  C    -20.353494   28.263150   47.292857
  C    -20.248034   27.080595   48.277269
  O    -20.617416   25.872303   47.493691
  H    -20.873466   25.440017   45.506682
  H    -19.294395   27.309961   45.625335
  H    -20.756464   28.167076   45.113078
  H    -19.537329   28.981687   47.413551
  H    -21.301892   28.793632   47.423027
  H    -20.928742   27.164369   49.127587
  H    -19.229318   26.916384   48.639672
  C    -23.195472   27.172552   45.226105
  H    -23.213080   28.245235   45.455222
  H    -22.670111   27.028879   44.268506
  O    -22.526156   26.456430   46.302895
  C    -24.634265   26.682817   45.067534
  C    -24.827935   25.194204   44.739567
  C    -24.763568   24.547998   46.149536
  C    -25.435815   25.612850   47.050854
  O    -25.416863   26.884003   46.285754
  H    -25.102353   27.298870   44.289455
  O    -26.110624   24.979134   44.084823
  H    -24.085758   24.796031   44.046480
  H    -25.289163   23.588918   46.157944
  H    -23.723683   24.403364   46.443862
  H    -24.892528   25.762313   47.986922
  H    -26.484238   25.388173   47.272205
  H    -26.811643   25.426995   44.603750

 Multiplicity           Mult            ....    1
 Number of Electrons    NEL             ....  102
 Basis Dimension        Dim             ....  149

ORBITAL ENERGIES
----------------

  NO   OCC          E(Eh)            E(eV)
   0   2.0000     -19.145594      -520.9781
   1   2.0000     -19.145286      -520.9697
   2   2.0000     -19.134468      -520.6753
   3   2.0000     -19.133440      -520.6474
   4   2.0000     -10.286214      -279.9021
   5   2.0000     -10.236483      -278.5489
   6   2.0000     -10.234710      -278.5006
   7   2.0000     -10.232747      -278.4472
   8   2.0000     -10.229547      -278.3601
   9   2.0000     -10.217645      -278.0363
  10   2.0000     -10.194405      -277.4039
  11   2.0000     -10.192681      -277.3570
  12   2.0000     -10.171338      -276.7762
  13   2.0000      -1.058618       -28.8065
  14   2.0000      -1.030099       -28.0304
  15   2.0000      -1.002825       -27.2883
  16   2.0000      -0.993991       -27.0479
  17   2.0000      -0.792407       -21.5625
  18   2.0000      -0.776360       -21.1258
  19   2.0000      -0.761399       -20.7187
  20   2.0000      -0.735533       -20.0149
  21   2.0000      -0.676546       -18.4098
  22   2.0000      -0.607407       -16.5284
  23   2.0000      -0.598823       -16.2948
  24   2.0000      -0.593336       -16.1455
  25   2.0000      -0.571114       -15.5408
  26   2.0000      -0.527390       -14.3510
  27   2.0000      -0.506059       -13.7706
  28   2.0000      -0.504503       -13.7282
  29   2.0000      -0.486068       -13.2266
  30   2.0000      -0.474933       -12.9236
  31   2.0000      -0.457996       -12.4627
  32   2.0000      -0.449080       -12.2201
  33   2.0000      -0.435396       -11.8477
  34   2.0000      -0.426093       -11.5946
  35   2.0000      -0.410893       -11.1810
  36   2.0000      -0.405486       -11.0338
  37   2.0000      -0.383821       -10.4443
  38   2.0000      -0.383250       -10.4288
  39   2.0000      -0.363616        -9.8945
  40   2.0000      -0.362508        -9.8644
  41   2.0000      -0.357113        -9.7175
  42   2.0000      -0.354149        -9.6369
  43   2.0000      -0.327346        -8.9075
  44   2.0000      -0.316516        -8.6128
  45   2.0000      -0.305514        -8.3135
  46   2.0000      -0.300142        -8.1673
  47   2.0000      -0.267162        -7.2699
  48   2.0000      -0.262404        -7.1404
  49   2.0000      -0.259531        -7.0622
  50   2.0000      -0.237574        -6.4647
  51   0.0000       0.069036         1.8786
  52   0.0000       0.077349         2.1048
  53   0.0000       0.094508         2.5717
  54   0.0000       0.100424         2.7327
  55   0.0000       0.109689         2.9848

MULLIKEN ATOMIC CHARGES
-----------------------
   0 C :    0.308673
   1 C :   -0.287910
   2 C :   -0.300758
   3 C :   -0.000592
   4 O :   -0.501809
   5 H :    0.144506
   6 H :    0.151556
   7 H :    0.146265
   8 H :    0.145728
   9 H :    0.162573
  10 H :    0.156532
  11 H :    0.144263
  12 C :   -0.004132
  13 H :    0.148838
  14 H :    0.122236
  15 O :   -0.518680
  16 C :    0.065683
  17 C :    0.074185
  18 C :   -0.284686
  19 C :   -0.021140
  20 O :   -0.526833
  21 H :    0.153351
  22 O :   -0.602881
  23 H :    0.144191
  24 H :    0.145148
  25 H :    0.180105
  26 H :    0.158689
  27 H :    0.134027
  28 H :    0.362871
Sum of atomic charges:   -0.0000000

LOEWDIN ATOMIC CHARGES
----------------------
   0 C :    0.181421
   1 C :   -0.233527
   2 C :   -0.216560
   3 C :   -0.024508
   4 O :   -0.303538
   5 H :    0.098259
   6 H :    0.118408
   7 H :    0.115241
   8 H :    0.116218
   9 H :    0.118177
  10 H :    0.110842
  11 H :    0.103939
  12 C :   -0.042034
  13 H :    0.104600
  14 H :    0.093318
  15 O :   -0.336226
  16 C :    0.013251
  17 C :    0.038736
  18 C :   -0.241025
  19 C :   -0.032772
  20 O :   -0.331020
  21 H :    0.114481
  22 O :   -0.417402
  23 H :    0.112310
  24 H :    0.116892
  25 H :    0.133000
  26 H :    0.111983
  27 H :    0.095411
  28 H :    0.282124

  Mayer bond orders larger than 0.100000
B(  0-C ,  1-C ) :   0.9312 B(  0-C ,  4-O ) :   0.9411 B(  0-C ,  5-H ) :   0.9212
B(  0-C , 15-O ) :   0.8264 B(  1-C ,  2-C ) :   0.9502 B(  1-C ,  6-H ) :   0.9338
B(  1-C ,  7-H ) :   0.9292 B(  2-C ,  3-C ) :   0.9557 B(  2-C ,  8-H ) :   0.9449
B(  2-C ,  9-H ) :   0.9438 B(  3-C ,  4-O ) :   0.8318 B(  3-C , 10-H ) :   0.9343
B(  3-C , 11-H ) :   0.9397 B( 12-C , 13-H ) :   0.9159 B( 12-C , 14-H ) :   0.9086
B( 12-C , 15-O ) :   0.8443 B( 12-C , 16-C ) :   0.9001 B( 16-C , 17-C ) :   0.9071
B( 16-C , 20-O ) :   0.8781 B( 16-C , 21-H ) :   0.9211 B( 17-C , 18-C ) :   0.9249
B( 17-C , 22-O ) :   0.8938 B( 17-C , 23-H ) :   0.9369 B( 18-C , 19-C ) :   0.9467
B( 18-C , 24-H ) :   0.9375 B( 18-C , 25-H ) :   0.9171 B( 19-C , 20-O ) :   0.8350
B( 19-C , 26-H ) :   0.9333 B( 19-C , 27-H ) :   0.9378 B( 22-O , 28-H ) :   0.7956

FINAL SINGLE POINT ENERGY      -652.859629177413

DIPOLE MOMENT
-------------
                                X             Y             Z
Electronic contribution:     -3.60139      -2.21508      -0.90954
Nuclear contribution   :      4.58820       3.01597       0.84257
                        -----------------------------------------
Total Dipole Moment    :      0.98681       0.80089      -0.06697
                        -----------------------------------------
Magnitude (a.u.)       :      1.27267
Magnitude (Debye)      :      3.23488

Rotational constants in cm-1:     0.059483     0.013496     0.013066
Rotational constants in MHz :  1783.256621   404.601076   391.714584

                             ****ORCA TERMINATED NORMALLY****
TOTAL RUN TIME: 0 days 0 hours 46 minutes 3 seconds 396 msec
