                         Program Version 4.2.0 -  RELEASE  -
|  1> # Test redundant internal optimization
|  2> #
|  3> ! RKS B3LYP  Opt TightSCF SmallPrint
|  4>
|  5> %basis
|  6>         Basis "6-31G"
|  7> end
|  8>
|  9> %geom
| 10> Constraints
| 11> { D 4  0  15  12  180.0   C } # D for Dihedral angle
| 12> { D 0  15  12  16  75.0   C } # D for Dihedral angle
| 13> { D 0  4  3  2   C } # D for Dihedral angle
| 14> { D 4  3  2  1   C } # D for Dihedral angle
| 15> { D 3  2  1  0   C } # D for Dihedral angle
| 16> { D 2  1  0  4   C } # D for Dihedral angle
| 17> { D 1  0  4  3   C } # D for Dihedral angle
| 18> { D 16  20  19  18   C } # D for Dihedral angle
| 19> { D 20  19  18  17   C } # D for Dihedral angle
| 20> { D 19  18  17  16   C } # D for Dihedral angle
| 21> { D 18  17  16  20   C } # D for Dihedral angle
| 22> { D 17  16  20  19   C } # D for Dihedral angle
| 23> { D 15  12  16  20   C } # D for Dihedral angle
| 24> end
| 25> end
| 26>
| 27>
| 28> #%pal
| 29> #nprocs 8
| 30> #end
| 31>
| 32> * xyz 0 1
| 33> C  -21.048   26.222   46.251
| 34> C  -20.361   27.558   45.944
| 35> C  -20.329   28.222   47.341
| 36> C  -20.110   27.022   48.296
| 37> O  -20.473   25.807   47.535
| 38> H  -20.833   25.428   45.533
| 39> H  -19.344   27.382   45.576
| 40> H  -20.898   28.157   45.201
| 41> H  -19.543   28.978   47.434
| 42> H  -21.289   28.710   47.548
| 43> H  -20.733   27.082   49.195
| 44> H  -19.064   26.913   48.597
| 45> C  -23.309   26.834   45.072
| 46> H  -24.316   27.191   45.320
| 47> H  -22.763   27.654   44.589
| 48> O  -22.586   26.394   46.375
| 49> C  -23.440   25.680   44.040
| 50> C  -22.073   25.068   43.712
| 51> C  -21.838   24.151   44.937
| 52> C  -23.262   23.644   45.274
| 53> O  -24.207   24.567   44.609
| 54> H  -23.994   26.039   43.170
| 55> H  -22.137   24.475   42.793
| 56> O  -20.955   26.131   43.533
| 57> H  -21.142   23.333   44.728
| 58> H  -21.429   24.735   45.770
| 59> H  -23.462   23.639   46.351
| 60> H  -23.455   22.644   44.874
| 61> H  -20.873   26.736   44.442
| 62> *
| 63>
| 64>                          ****END OF INPUT****
 Total Charge           Charge          ....    0
 Multiplicity           Mult            ....    1
 Number of Electrons    NEL             ....  102
FINAL SINGLE POINT ENERGY      -652.708724217102
FINAL SINGLE POINT ENERGY      -652.811263039230
FINAL SINGLE POINT ENERGY      -652.835573395352
FINAL SINGLE POINT ENERGY      -652.842683163586
FINAL SINGLE POINT ENERGY      -652.843904652734
FINAL SINGLE POINT ENERGY      -652.844232348170
FINAL SINGLE POINT ENERGY      -652.844340974198
FINAL SINGLE POINT ENERGY      -652.844381608524
FINAL SINGLE POINT ENERGY      -652.844387086962
FINAL SINGLE POINT ENERGY      -652.844386544127
                    ***********************HURRAY********************

CARTESIAN COORDINATES (ANGSTROEM)
---------------------------------
  C    -20.930175   26.372094   46.557637
  C    -20.178742   27.637676   46.145525
  C    -20.312295   28.519177   47.413694
  C    -20.250084   27.484498   48.555753
  O    -20.545969   26.170305   47.924750
  H    -20.641687   25.469396   46.020277
  H    -19.126876   27.386992   45.959694
  H    -20.577179   28.119405   45.248298
  H    -19.519426   29.269900   47.483961
  H    -21.277507   29.033029   47.408682
  H    -20.986842   27.664708   49.342013
  H    -19.254223   27.398407   49.000366
  C    -23.104774   26.795833   45.313379
  H    -24.077107   27.132060   45.680367
  H    -22.649340   27.627262   44.752557
  O    -22.370696   26.562313   46.551261
  C    -23.404647   25.682909   44.290238
  C    -22.294879   24.979292   43.485805
  C    -21.939189   23.767273   44.408823
  C    -23.315757   23.405531   45.016926
  O    -24.192412   24.582397   44.821100
  H    -24.069138   26.200216   43.581968
  H    -22.721702   24.620031   42.547632
  O    -21.186047   25.821981   43.088512
  H    -21.503605   22.939581   43.841042
  H    -21.223702   24.052849   45.180827
  H    -23.258983   23.182286   46.086167
  H    -23.787358   22.565277   44.499470
  H    -20.565659   25.953321   43.833275

 Multiplicity           Mult            ....    1
 Number of Electrons    NEL             ....  102
 Basis Dimension        Dim             ....  149

ORBITAL ENERGIES
----------------

  NO   OCC          E(Eh)            E(eV)
   0   2.0000     -19.152795      -521.1741
   1   2.0000     -19.145218      -520.9679
   2   2.0000     -19.144818      -520.9570
   3   2.0000     -19.137517      -520.7583
   4   2.0000     -10.286829      -279.9188
   5   2.0000     -10.248114      -278.8654
   6   2.0000     -10.234979      -278.5079
   7   2.0000     -10.233265      -278.4613
   8   2.0000     -10.229026      -278.3459
   9   2.0000     -10.228136      -278.3217
  10   2.0000     -10.195304      -277.4283
  11   2.0000     -10.194137      -277.3966
  12   2.0000     -10.192270      -277.3458
  13   2.0000      -1.057553       -28.7775
  14   2.0000      -1.035571       -28.1793
  15   2.0000      -1.018209       -27.7069
  16   2.0000      -0.995332       -27.0843
  17   2.0000      -0.792669       -21.5696
  18   2.0000      -0.780356       -21.2346
  19   2.0000      -0.772553       -21.0222
  20   2.0000      -0.739337       -20.1184
  21   2.0000      -0.686205       -18.6726
  22   2.0000      -0.617627       -16.8065
  23   2.0000      -0.608097       -16.5472
  24   2.0000      -0.603462       -16.4210
  25   2.0000      -0.566784       -15.4230
  26   2.0000      -0.529848       -14.4179
  27   2.0000      -0.514623       -14.0036
  28   2.0000      -0.506201       -13.7744
  29   2.0000      -0.497004       -13.5242
  30   2.0000      -0.470890       -12.8136
  31   2.0000      -0.460663       -12.5353
  32   2.0000      -0.443162       -12.0591
  33   2.0000      -0.440324       -11.9818
  34   2.0000      -0.434157       -11.8140
  35   2.0000      -0.418568       -11.3898
  36   2.0000      -0.412801       -11.2329
  37   2.0000      -0.403938       -10.9917
  38   2.0000      -0.385643       -10.4939
  39   2.0000      -0.370852       -10.0914
  40   2.0000      -0.363688        -9.8965
  41   2.0000      -0.362438        -9.8624
  42   2.0000      -0.352603        -9.5948
  43   2.0000      -0.329214        -8.9584
  44   2.0000      -0.317925        -8.6512
  45   2.0000      -0.317635        -8.6433
  46   2.0000      -0.303455        -8.2574
  47   2.0000      -0.271691        -7.3931
  48   2.0000      -0.267921        -7.2905
  49   2.0000      -0.262224        -7.1355
  50   2.0000      -0.236618        -6.4387
  51   0.0000       0.044784         1.2186
  52   0.0000       0.071109         1.9350
  53   0.0000       0.081336         2.2133
  54   0.0000       0.088035         2.3955
  55   0.0000       0.106031         2.8853

MULLIKEN ATOMIC CHARGES
-----------------------
   0 C :    0.296843
   1 C :   -0.295013
   2 C :   -0.294325
   3 C :   -0.002412
   4 O :   -0.501411
   5 H :    0.116497
   6 H :    0.147283
   7 H :    0.151055
   8 H :    0.145024
   9 H :    0.162523
  10 H :    0.158403
  11 H :    0.143775
  12 C :   -0.029509
  13 H :    0.174204
  14 H :    0.125601
  15 O :   -0.503612
  16 C :    0.092612
  17 C :    0.080647
  18 C :   -0.341353
  19 C :   -0.003146
  20 O :   -0.516625
  21 H :    0.149961
  22 H :    0.170331
  23 O :   -0.611155
  24 H :    0.155079
  25 H :    0.163038
  26 H :    0.158820
  27 H :    0.145666
  28 H :    0.361197
Sum of atomic charges:    0.0000000

LOEWDIN ATOMIC CHARGES
----------------------
   0 C :    0.170417
   1 C :   -0.240385
   2 C :   -0.213723
   3 C :   -0.024613
   4 O :   -0.302645
   5 H :    0.082494
   6 H :    0.114657
   7 H :    0.115796
   8 H :    0.116056
   9 H :    0.119015
  10 H :    0.111702
  11 H :    0.103417
  12 C :   -0.048982
  13 H :    0.129023
  14 H :    0.093837
  15 O :   -0.326631
  16 C :    0.004612
  17 C :    0.034775
  18 C :   -0.245152
  19 C :   -0.024380
  20 O :   -0.320157
  21 H :    0.116111
  22 H :    0.120855
  23 O :   -0.409314
  24 H :    0.120845
  25 H :    0.112328
  26 H :    0.110738
  27 H :    0.103376
  28 H :    0.275930

  Mayer bond orders larger than 0.100000
B(  0-C ,  1-C ) :   0.9213 B(  0-C ,  4-O ) :   0.9417 B(  0-C ,  5-H ) :   0.8881
B(  0-C , 15-O ) :   0.8550 B(  1-C ,  2-C ) :   0.9510 B(  1-C ,  6-H ) :   0.9330
B(  1-C ,  7-H ) :   0.9272 B(  2-C ,  3-C ) :   0.9544 B(  2-C ,  8-H ) :   0.9446
B(  2-C ,  9-H ) :   0.9449 B(  3-C ,  4-O ) :   0.8315 B(  3-C , 10-H ) :   0.9341
B(  3-C , 11-H ) :   0.9393 B( 12-C , 13-H ) :   0.9326 B( 12-C , 14-H ) :   0.9003
B( 12-C , 15-O ) :   0.8756 B( 12-C , 16-C ) :   0.8932 B( 16-C , 17-C ) :   0.8836
B( 16-C , 20-O ) :   0.8659 B( 16-C , 21-H ) :   0.9156 B( 17-C , 18-C ) :   0.9324
B( 17-C , 22-H ) :   0.9313 B( 17-C , 23-O ) :   0.8968 B( 18-C , 19-C ) :   0.9415
B( 18-C , 24-H ) :   0.9409 B( 18-C , 25-H ) :   0.9178 B( 19-C , 20-O ) :   0.8426
B( 19-C , 26-H ) :   0.9297 B( 19-C , 27-H ) :   0.9373 B( 23-O , 28-H ) :   0.7856

FINAL SINGLE POINT ENERGY      -652.844384618063

DIPOLE MOMENT
-------------
                                X             Y             Z
Electronic contribution:     -3.08564      -2.25067      -0.20394
Nuclear contribution   :      3.98746       2.71517       0.00371
                        -----------------------------------------
Total Dipole Moment    :      0.90181       0.46451      -0.20022
                        -----------------------------------------
Magnitude (a.u.)       :      1.03398
Magnitude (Debye)      :      2.62818

Rotational constants in cm-1:     0.048498     0.015748     0.014820
Rotational constants in MHz :  1453.923353   472.110409   444.300987

                             ****ORCA TERMINATED NORMALLY****
TOTAL RUN TIME: 0 days 1 hours 26 minutes 12 seconds 744 msec
