                         Program Version 4.2.1 -  RELEASE  -
|  1> # Test redundant internal optimization
|  2> #
|  3> ! RKS B3LYP  Opt TightSCF SmallPrint
|  4>
|  5> %basis
|  6>         Basis "6-31G"
|  7> end
|  8>
|  9> %geom
| 10> Constraints
| 11> { D 4  0  19  14  300.0   C } # D for Dihedral angle
| 12> { D 0  19  14  12  225.0   C } # D for Dihedral angle
| 13> { D 0  4  3  2   C } # D for Dihedral angle
| 14> { D 4  3  2  1   C } # D for Dihedral angle
| 15> { D 3  2  1  0   C } # D for Dihedral angle
| 16> { D 2  1  0  4   C } # D for Dihedral angle
| 17> { D 1  0  4  3   C } # D for Dihedral angle
| 18> { D 14  15  16  17   C } # D for Dihedral angle
| 19> { D 15  16  17  12   C } # D for Dihedral angle
| 20> { D 16  17  12  14   C } # D for Dihedral angle
| 21> { D 17  12  14  15   C } # D for Dihedral angle
| 22> { D 12  14  15  16   C } # D for Dihedral angle
| 23> end
| 24> end
| 25>
| 26>
| 27> #%pal
| 28> #nprocs 8
| 29> #end
| 30>
| 31> * xyz 0 1
| 32> C  -21.048   26.222   46.251
| 33> C  -20.361   27.558   45.944
| 34> C  -20.329   28.222   47.341
| 35> C  -20.110   27.022   48.296
| 36> O  -20.473   25.807   47.535
| 37> H  -20.833   25.428   45.533
| 38> H  -19.344   27.382   45.576
| 39> H  -20.898   28.157   45.201
| 40> H  -19.543   28.978   47.434
| 41> H  -21.289   28.710   47.548
| 42> H  -20.733   27.082   49.195
| 43> H  -19.064   26.913   48.597
| 44> C  -24.418   25.000   45.886
| 45> H  -25.118   24.280   46.337
| 46> C  -23.171   25.189   46.758
| 47> C  -22.346   23.930   46.403
| 48> C  -22.663   23.712   44.902
| 49> O  -23.896   24.480   44.617
| 50> H  -24.953   25.923   45.656
| 51> O  -22.472   26.381   46.366
| 52> H  -23.401   25.259   47.827
| 53> H  -21.275   24.057   46.589
| 54> H  -22.690   23.074   46.998
| 55> H  -22.832   22.659   44.656
| 56> H  -21.880   24.108   44.248
| 57> *
| 58>
| 59>                          ****END OF INPUT****
 Total Charge           Charge          ....    0
 Multiplicity           Mult            ....    1
 Number of Electrons    NEL             ....   86
FINAL SINGLE POINT ENERGY      -538.424086488347
FINAL SINGLE POINT ENERGY      -538.433292031776
FINAL SINGLE POINT ENERGY      -538.434792090274
FINAL SINGLE POINT ENERGY      -538.435155853624
FINAL SINGLE POINT ENERGY      -538.435174518159
FINAL SINGLE POINT ENERGY      -538.435178728231
                    ***********************HURRAY********************

CARTESIAN COORDINATES (ANGSTROEM)
---------------------------------
  C    -20.922088   26.257560   46.214094
  C    -20.419724   27.682159   45.971738
  C    -20.411046   28.261369   47.405053
  C    -20.006737   27.047463   48.273179
  O    -20.254541   25.845612   47.435606
  H    -20.638399   25.525631   45.453958
  H    -19.407267   27.640345   45.554478
  H    -21.067535   28.232430   45.286749
  H    -19.716509   29.099525   47.516810
  H    -21.415652   28.605124   47.666596
  H    -20.591535   26.965287   49.193229
  H    -18.941444   27.040139   48.522879
  C    -24.339050   25.089641   45.810211
  H    -25.139699   24.483457   46.258555
  C    -23.118682   25.141254   46.729068
  C    -22.454840   23.783521   46.438478
  C    -22.732652   23.561195   44.932713
  O    -23.842251   24.472702   44.575914
  H    -24.717265   26.079906   45.555771
  O    -22.348662   26.335268   46.356315
  H    -23.386306   25.243692   47.786039
  H    -21.397024   23.759873   46.705865
  H    -22.964541   23.024242   47.042215
  H    -23.027077   22.529388   44.709148
  H    -21.879472   23.826215   44.299339

 Multiplicity           Mult            ....    1
 Number of Electrons    NEL             ....   86
 Basis Dimension        Dim             ....  127

ORBITAL ENERGIES
----------------

  NO   OCC          E(Eh)            E(eV)
   0   2.0000     -19.140722      -520.8455
   1   2.0000     -19.140316      -520.8345
   2   2.0000     -19.127254      -520.4791
   3   2.0000     -10.277514      -279.6654
   4   2.0000     -10.237423      -278.5745
   5   2.0000     -10.225830      -278.2590
   6   2.0000     -10.221664      -278.1456
   7   2.0000     -10.218187      -278.0510
   8   2.0000     -10.184301      -277.1289
   9   2.0000     -10.184240      -277.1273
  10   2.0000     -10.183519      -277.1076
  11   2.0000      -1.052886       -28.6505
  12   2.0000      -1.012245       -27.5446
  13   2.0000      -0.987273       -26.8651
  14   2.0000      -0.792334       -21.5605
  15   2.0000      -0.773933       -21.0598
  16   2.0000      -0.744672       -20.2636
  17   2.0000      -0.717830       -19.5331
  18   2.0000      -0.613545       -16.6954
  19   2.0000      -0.601729       -16.3739
  20   2.0000      -0.593476       -16.1493
  21   2.0000      -0.563012       -15.3203
  22   2.0000      -0.526032       -14.3141
  23   2.0000      -0.495584       -13.4855
  24   2.0000      -0.486997       -13.2519
  25   2.0000      -0.477129       -12.9833
  26   2.0000      -0.454691       -12.3728
  27   2.0000      -0.441412       -12.0114
  28   2.0000      -0.418643       -11.3919
  29   2.0000      -0.415331       -11.3017
  30   2.0000      -0.404817       -11.0156
  31   2.0000      -0.391461       -10.6522
  32   2.0000      -0.368376       -10.0240
  33   2.0000      -0.362486        -9.8638
  34   2.0000      -0.358204        -9.7472
  35   2.0000      -0.355342        -9.6693
  36   2.0000      -0.343810        -9.3555
  37   2.0000      -0.326563        -8.8862
  38   2.0000      -0.303872        -8.2688
  39   2.0000      -0.293244        -7.9796
  40   2.0000      -0.264699        -7.2028
  41   2.0000      -0.251306        -6.8384
  42   2.0000      -0.234753        -6.3880
  43   0.0000       0.076690         2.0868
  44   0.0000       0.100552         2.7362
  45   0.0000       0.103934         2.8282
  46   0.0000       0.107640         2.9290
  47   0.0000       0.117816         3.2059

MULLIKEN ATOMIC CHARGES
-----------------------
   0 C :    0.291753
   1 C :   -0.259262
   2 C :   -0.297138
   3 C :   -0.004458
   4 O :   -0.522101
   5 H :    0.145701
   6 H :    0.143936
   7 H :    0.162676
   8 H :    0.140227
   9 H :    0.161218
  10 H :    0.144195
  11 H :    0.143441
  12 C :    0.003455
  13 H :    0.121095
  14 C :    0.098823
  15 C :   -0.337113
  16 C :   -0.003582
  17 O :   -0.522055
  18 H :    0.166030
  19 O :   -0.530766
  20 H :    0.137670
  21 H :    0.185926
  22 H :    0.148862
  23 H :    0.136321
  24 H :    0.145147
Sum of atomic charges:    0.0000000

LOEWDIN ATOMIC CHARGES
----------------------
   0 C :    0.172212
   1 C :   -0.211627
   2 C :   -0.215543
   3 C :   -0.028341
   4 O :   -0.337597
   5 H :    0.096181
   6 H :    0.113339
   7 H :    0.127179
   8 H :    0.113138
   9 H :    0.118751
  10 H :    0.103524
  11 H :    0.102830
  12 C :   -0.035761
  13 H :    0.089512
  14 C :    0.044905
  15 C :   -0.242469
  16 C :   -0.032856
  17 O :   -0.332191
  18 H :    0.121978
  19 O :   -0.324082
  20 H :    0.102912
  21 H :    0.135422
  22 H :    0.119533
  23 H :    0.099017
  24 H :    0.100036

  Mayer bond orders larger than 0.100000
B(  0-C ,  1-C ) :   0.9488 B(  0-C ,  4-O ) :   0.8836 B(  0-C ,  5-H ) :   0.9141
B(  0-C , 19-O ) :   0.8673 B(  1-C ,  2-C ) :   0.9558 B(  1-C ,  6-H ) :   0.9406
B(  1-C ,  7-H ) :   0.9356 B(  2-C ,  3-C ) :   0.9552 B(  2-C ,  8-H ) :   0.9452
B(  2-C ,  9-H ) :   0.9443 B(  3-C ,  4-O ) :   0.8352 B(  3-C , 10-H ) :   0.9362
B(  3-C , 11-H ) :   0.9405 B( 12-C , 13-H ) :   0.9144 B( 12-C , 14-C ) :   0.9254
B( 12-C , 17-O ) :   0.8674 B( 12-C , 18-H ) :   0.9310 B( 14-C , 15-C ) :   0.9430
B( 14-C , 19-O ) :   0.8258 B( 14-C , 20-H ) :   0.9287 B( 15-C , 16-C ) :   0.9386
B( 15-C , 21-H ) :   0.9184 B( 15-C , 22-H ) :   0.9363 B( 16-C , 17-O ) :   0.8597
B( 16-C , 23-H ) :   0.9326 B( 16-C , 24-H ) :   0.9326

FINAL SINGLE POINT ENERGY      -538.435178808046

DIPOLE MOMENT
-------------
                                X             Y             Z
Electronic contribution:     -1.70454      -1.09941      -1.45122
Nuclear contribution   :      2.16032       1.28995       2.18903
                        -----------------------------------------
Total Dipole Moment    :      0.45578       0.19054       0.73781
                        -----------------------------------------
Magnitude (a.u.)       :      0.88792
Magnitude (Debye)      :      2.25692

Rotational constants in cm-1:     0.084334     0.021595     0.020568
Rotational constants in MHz :  2528.265270   647.404027   616.624274

                             ****ORCA TERMINATED NORMALLY****
TOTAL RUN TIME: 0 days 0 hours 7 minutes 15 seconds 558 msec
