                         Program Version 4.2.0 -  RELEASE  -
|  1> # Test redundant internal optimization
|  2> #
|  3> ! RKS B3LYP  Opt TightSCF SmallPrint
|  4>
|  5> %basis
|  6>         Basis "6-31G"
|  7> end
|  8>
|  9> %geom
| 10> Constraints
| 11> { D 4  0  15  12  330.0   C } # D for Dihedral angle
| 12> { D 0  15  12  16  315.0   C } # D for Dihedral angle
| 13> { D 0  4  3  2   C } # D for Dihedral angle
| 14> { D 4  3  2  1   C } # D for Dihedral angle
| 15> { D 3  2  1  0   C } # D for Dihedral angle
| 16> { D 2  1  0  4   C } # D for Dihedral angle
| 17> { D 1  0  4  3   C } # D for Dihedral angle
| 18> { D 16  20  19  18   C } # D for Dihedral angle
| 19> { D 20  19  18  17   C } # D for Dihedral angle
| 20> { D 19  18  17  16   C } # D for Dihedral angle
| 21> { D 18  17  16  20   C } # D for Dihedral angle
| 22> { D 17  16  20  19   C } # D for Dihedral angle
| 23> { D 15  12  16  20   C } # D for Dihedral angle
| 24> end
| 25> end
| 26>
| 27>
| 28> #%pal
| 29> #nprocs 8
| 30> #end
| 31>
| 32> * xyz 0 1
| 33> C  -21.048   26.222   46.251
| 34> C  -20.361   27.558   45.944
| 35> C  -20.329   28.222   47.341
| 36> C  -20.110   27.022   48.296
| 37> O  -20.473   25.807   47.535
| 38> H  -20.833   25.428   45.533
| 39> H  -19.344   27.382   45.576
| 40> H  -20.898   28.157   45.201
| 41> H  -19.543   28.978   47.434
| 42> H  -21.289   28.710   47.548
| 43> H  -20.733   27.082   49.195
| 44> H  -19.064   26.913   48.597
| 45> C  -23.271   25.476   47.424
| 46> H  -23.065   25.860   48.431
| 47> H  -24.358   25.468   47.276
| 48> O  -22.586   26.394   46.375
| 49> C  -22.773   24.005   47.351
| 50> C  -23.551   23.106   48.318
| 51> C  -24.862   22.863   47.535
| 52> C  -24.386   22.807   46.062
| 53> O  -23.049   23.436   46.028
| 54> H  -21.690   23.987   47.489
| 55> H  -23.012   22.164   48.473
| 56> O  -23.791   23.765   49.705
| 57> H  -25.377   21.947   47.842
| 58> H  -25.552   23.702   47.686
| 59> H  -25.055   23.350   45.384
| 60> H  -24.271   21.782   45.699
| 61> H  -24.330   24.710   49.576
| 62> *
| 63>
| 64>                          ****END OF INPUT****
 Total Charge           Charge          ....    0
 Multiplicity           Mult            ....    1
 Number of Electrons    NEL             ....  102
FINAL SINGLE POINT ENERGY      -652.829326465779
FINAL SINGLE POINT ENERGY      -652.852805773813
FINAL SINGLE POINT ENERGY      -652.857608666455
FINAL SINGLE POINT ENERGY      -652.858453483513
FINAL SINGLE POINT ENERGY      -652.858619770728
FINAL SINGLE POINT ENERGY      -652.858649666760
FINAL SINGLE POINT ENERGY      -652.858654093566
                    ***********************HURRAY********************

CARTESIAN COORDINATES (ANGSTROEM)
---------------------------------
  C    -21.027985   26.205847   46.266320
  C    -20.449676   27.588900   45.964361
  C    -20.373001   28.212296   47.375861
  C    -20.019572   27.008191   48.278085
  O    -20.358522   25.794133   47.484252
  H    -20.813716   25.426816   45.530703
  H    -19.452639   27.474204   45.524110
  H    -21.082214   28.154197   45.276962
  H    -19.629011   29.011996   47.444363
  H    -21.348937   28.625847   47.647446
  H    -20.585701   26.986670   49.213140
  H    -18.951092   26.943764   48.503218
  C    -23.171021   25.502116   47.363743
  H    -23.012329   25.893924   48.378432
  H    -24.222517   25.636318   47.090985
  O    -22.464599   26.340247   46.405191
  C    -22.777545   24.020300   47.363841
  C    -23.610643   23.177585   48.347275
  C    -24.907589   22.909937   47.522920
  C    -24.368155   22.775299   46.080630
  O    -23.016235   23.386513   46.068703
  H    -21.708422   23.934472   47.559019
  H    -23.087921   22.240041   48.549100
  O    -23.827583   23.758976   49.655963
  H    -25.438088   22.017372   47.864864
  H    -25.587365   23.766928   47.621103
  H    -24.995954   23.282421   45.341334
  H    -24.249044   21.729439   45.782039
  H    -24.466924   24.498250   49.601037

 Multiplicity           Mult            ....    1
 Number of Electrons    NEL             ....  102
 Basis Dimension        Dim             ....  149

ORBITAL ENERGIES
----------------

  NO   OCC          E(Eh)            E(eV)
   0   2.0000     -19.146891      -521.0134
   1   2.0000     -19.144095      -520.9373
   2   2.0000     -19.134554      -520.6777
   3   2.0000     -19.133439      -520.6473
   4   2.0000     -10.272258      -279.5224
   5   2.0000     -10.241159      -278.6761
   6   2.0000     -10.227121      -278.2941
   7   2.0000     -10.226875      -278.2874
   8   2.0000     -10.226273      -278.2710
   9   2.0000     -10.220850      -278.1235
  10   2.0000     -10.192435      -277.3503
  11   2.0000     -10.185317      -277.1566
  12   2.0000     -10.181931      -277.0644
  13   2.0000      -1.050470       -28.5847
  14   2.0000      -1.029800       -28.0223
  15   2.0000      -1.011623       -27.5277
  16   2.0000      -0.987350       -26.8672
  17   2.0000      -0.787946       -21.4411
  18   2.0000      -0.778271       -21.1778
  19   2.0000      -0.760391       -20.6913
  20   2.0000      -0.731359       -19.9013
  21   2.0000      -0.675799       -18.3894
  22   2.0000      -0.608130       -16.5480
  23   2.0000      -0.598834       -16.2951
  24   2.0000      -0.597996       -16.2723
  25   2.0000      -0.559348       -15.2206
  26   2.0000      -0.524045       -14.2600
  27   2.0000      -0.508516       -13.8374
  28   2.0000      -0.497498       -13.5376
  29   2.0000      -0.486604       -13.2412
  30   2.0000      -0.464966       -12.6524
  31   2.0000      -0.455879       -12.4051
  32   2.0000      -0.437892       -11.9156
  33   2.0000      -0.429305       -11.6820
  34   2.0000      -0.423914       -11.5353
  35   2.0000      -0.411989       -11.2108
  36   2.0000      -0.404442       -11.0054
  37   2.0000      -0.397804       -10.8248
  38   2.0000      -0.378426       -10.2975
  39   2.0000      -0.366974        -9.9859
  40   2.0000      -0.356646        -9.7048
  41   2.0000      -0.355302        -9.6683
  42   2.0000      -0.345910        -9.4127
  43   2.0000      -0.329258        -8.9596
  44   2.0000      -0.323374        -8.7995
  45   2.0000      -0.311532        -8.4772
  46   2.0000      -0.298708        -8.1282
  47   2.0000      -0.267984        -7.2922
  48   2.0000      -0.261915        -7.1271
  49   2.0000      -0.252085        -6.8596
  50   2.0000      -0.230856        -6.2819
  51   0.0000       0.053989         1.4691
  52   0.0000       0.077237         2.1017
  53   0.0000       0.088814         2.4168
  54   0.0000       0.095028         2.5858
  55   0.0000       0.108369         2.9489

MULLIKEN ATOMIC CHARGES
-----------------------
   0 C :    0.294402
   1 C :   -0.259482
   2 C :   -0.302021
   3 C :   -0.010916
   4 O :   -0.520143
   5 H :    0.168226
   6 H :    0.144487
   7 H :    0.161657
   8 H :    0.143166
   9 H :    0.156717
  10 H :    0.146480
  11 H :    0.147729
  12 C :    0.002767
  13 H :    0.127122
  14 H :    0.138351
  15 O :   -0.535046
  16 C :    0.056204
  17 C :    0.083833
  18 C :   -0.324834
  19 C :   -0.007990
  20 O :   -0.517505
  21 H :    0.201314
  22 H :    0.167307
  23 O :   -0.598025
  24 H :    0.155784
  25 H :    0.133222
  26 H :    0.145414
  27 H :    0.147841
  28 H :    0.353937
Sum of atomic charges:   -0.0000000

LOEWDIN ATOMIC CHARGES
----------------------
   0 C :    0.177188
   1 C :   -0.213658
   2 C :   -0.217432
   3 C :   -0.030622
   4 O :   -0.327179
   5 H :    0.108093
   6 H :    0.113690
   7 H :    0.126696
   8 H :    0.114792
   9 H :    0.116292
  10 H :    0.103638
  11 H :    0.105298
  12 C :   -0.046207
  13 H :    0.095043
  14 H :    0.105881
  15 O :   -0.328462
  16 C :   -0.001027
  17 C :    0.037359
  18 C :   -0.242015
  19 C :   -0.029869
  20 O :   -0.323155
  21 H :    0.133158
  22 H :    0.119306
  23 O :   -0.406491
  24 H :    0.121682
  25 H :    0.103294
  26 H :    0.103289
  27 H :    0.105171
  28 H :    0.276246

  Mayer bond orders larger than 0.100000
B(  0-C ,  1-C ) :   0.9432 B(  0-C ,  4-O ) :   0.8841 B(  0-C ,  5-H ) :   0.9193
B(  0-C , 15-O ) :   0.8491 B(  1-C ,  2-C ) :   0.9527 B(  1-C ,  6-H ) :   0.9383
B(  1-C ,  7-H ) :   0.9360 B(  2-C ,  3-C ) :   0.9550 B(  2-C ,  8-H ) :   0.9450
B(  2-C ,  9-H ) :   0.9454 B(  3-C ,  4-O ) :   0.8304 B(  3-C , 10-H ) :   0.9342
B(  3-C , 11-H ) :   0.9406 B( 12-C , 13-H ) :   0.9051 B( 12-C , 14-H ) :   0.9384
B( 12-C , 15-O ) :   0.8497 B( 12-C , 16-C ) :   0.8928 B( 16-C , 17-C ) :   0.8697
B( 16-C , 20-O ) :   0.8482 B( 16-C , 21-H ) :   0.9045 B( 17-C , 18-C ) :   0.9193
B( 17-C , 22-H ) :   0.9338 B( 17-C , 23-O ) :   0.8992 B( 18-C , 19-C ) :   0.9393
B( 18-C , 24-H ) :   0.9428 B( 18-C , 25-H ) :   0.9415 B( 19-C , 20-O ) :   0.8501
B( 19-C , 26-H ) :   0.9313 B( 19-C , 27-H ) :   0.9381 B( 23-O , 28-H ) :   0.7986

FINAL SINGLE POINT ENERGY      -652.858655084228

DIPOLE MOMENT
-------------
                                X             Y             Z
Electronic contribution:      0.43516      -2.81786      -0.51357
Nuclear contribution   :     -0.97457       3.42465       0.67867
                        -----------------------------------------
Total Dipole Moment    :     -0.53941       0.60679       0.16510
                        -----------------------------------------
Magnitude (a.u.)       :      0.82851
Magnitude (Debye)      :      2.10589

Rotational constants in cm-1:     0.054790     0.014666     0.013006
Rotational constants in MHz :  1642.550158   439.680557   389.908081

                             ****ORCA TERMINATED NORMALLY****
TOTAL RUN TIME: 0 days 0 hours 28 minutes 57 seconds 621 msec
