                         Program Version 4.2.0 -  RELEASE  -
|  1> # Test redundant internal optimization
|  2> #
|  3> ! RKS B3LYP  Opt TightSCF SmallPrint
|  4>
|  5> %basis
|  6>         Basis "6-31G"
|  7> end
|  8>
|  9> %geom
| 10> Constraints
| 11> { D 4  0  15  12  240.0   C } # D for Dihedral angle
| 12> { D 0  15  12  16  270.0   C } # D for Dihedral angle
| 13> { D 0  4  3  2   C } # D for Dihedral angle
| 14> { D 4  3  2  1   C } # D for Dihedral angle
| 15> { D 3  2  1  0   C } # D for Dihedral angle
| 16> { D 2  1  0  4   C } # D for Dihedral angle
| 17> { D 1  0  4  3   C } # D for Dihedral angle
| 18> { D 16  20  19  18   C } # D for Dihedral angle
| 19> { D 20  19  18  17   C } # D for Dihedral angle
| 20> { D 19  18  17  16   C } # D for Dihedral angle
| 21> { D 18  17  16  20   C } # D for Dihedral angle
| 22> { D 17  16  20  19   C } # D for Dihedral angle
| 23> { D 15  12  16  20   C } # D for Dihedral angle
| 24> end
| 25> end
| 26>
| 27>
| 28> #%pal
| 29> #nprocs 8
| 30> #end
| 31>
| 32> * xyz 0 1
| 33> C  -21.048   26.222   46.251
| 34> C  -20.361   27.558   45.944
| 35> C  -20.329   28.222   47.341
| 36> C  -20.110   27.022   48.296
| 37> O  -20.473   25.807   47.535
| 38> H  -20.833   25.428   45.533
| 39> H  -19.344   27.382   45.576
| 40> H  -20.898   28.157   45.201
| 41> H  -19.543   28.978   47.434
| 42> H  -21.289   28.710   47.548
| 43> H  -20.733   27.082   49.195
| 44> H  -19.064   26.913   48.597
| 45> C  -23.430   25.483   45.442
| 46> H  -22.889   24.544   45.267
| 47> H  -24.393   25.241   45.910
| 48> O  -22.586   26.394   46.375
| 49> C  -23.725   26.141   44.066
| 50> C  -24.403   27.506   44.235
| 51> C  -23.198   28.413   44.584
| 52> C  -22.048   27.809   43.740
| 53> O  -22.474   26.444   43.364
| 54> H  -24.279   25.436   43.444
| 55> H  -24.860   27.818   43.290
| 56> O  -25.498   27.511   45.336
| 57> H  -23.378   29.467   44.350
| 58> H  -22.970   28.341   45.654
| 59> H  -21.105   27.751   44.296
| 60> H  -21.877   28.361   42.811
| 61> H  -25.062   27.201   46.292
| 62> *
| 63>
| 64>                          ****END OF INPUT****
 Total Charge           Charge          ....    0
 Multiplicity           Mult            ....    1
 Number of Electrons    NEL             ....  102
FINAL SINGLE POINT ENERGY      -652.770426629224
FINAL SINGLE POINT ENERGY      -652.829523903488
FINAL SINGLE POINT ENERGY      -652.851311680777
FINAL SINGLE POINT ENERGY      -652.856684313138
FINAL SINGLE POINT ENERGY      -652.857515836208
FINAL SINGLE POINT ENERGY      -652.857642063273
FINAL SINGLE POINT ENERGY      -652.857656436135
FINAL SINGLE POINT ENERGY      -652.857657157385
                    ***********************HURRAY********************

CARTESIAN COORDINATES (ANGSTROEM)
---------------------------------
  C    -20.926156   26.165548   46.337895
  C    -20.240289   27.522674   46.168880
  C    -20.286069   28.093172   47.612500
  C    -20.103729   26.824134   48.475767
  O    -20.419851   25.681174   47.593087
  H    -20.699402   25.418536   45.573428
  H    -19.204076   27.364963   45.846926
  H    -20.737400   28.169275   45.449784
  H    -19.508628   28.840273   47.795859
  H    -21.262278   28.551459   47.798541
  H    -20.770834   26.794227   49.341031
  H    -19.071303   26.687621   48.812014
  C    -23.229831   25.586481   45.544981
  H    -22.767425   24.603938   45.370977
  H    -24.157575   25.418518   46.102476
  O    -22.369269   26.345601   46.444121
  C    -23.629314   26.164779   44.184137
  C    -24.482503   27.445154   44.226557
  C    -23.391683   28.560158   44.197973
  C    -22.306330   27.944737   43.287641
  O    -22.568614   26.484118   43.240137
  H    -24.201483   25.353685   43.713250
  H    -25.118753   27.498250   43.340739
  O    -25.394662   27.528874   45.344625
  H    -23.773272   29.511988   43.820902
  H    -23.018831   28.706290   45.218330
  H    -21.285467   28.117300   43.631879
  H    -22.386247   28.306923   42.257275
  H    -24.888724   27.652148   46.175284

 Multiplicity           Mult            ....    1
 Number of Electrons    NEL             ....  102
 Basis Dimension        Dim             ....  149

ORBITAL ENERGIES
----------------

  NO   OCC          E(Eh)            E(eV)
   0   2.0000     -19.147075      -521.0184
   1   2.0000     -19.145378      -520.9722
   2   2.0000     -19.144664      -520.9528
   3   2.0000     -19.139690      -520.8175
   4   2.0000     -10.281943      -279.7859
   5   2.0000     -10.242117      -278.7022
   6   2.0000     -10.234549      -278.4962
   7   2.0000     -10.233050      -278.4555
   8   2.0000     -10.232752      -278.4473
   9   2.0000     -10.225837      -278.2592
  10   2.0000     -10.190858      -277.3073
  11   2.0000     -10.189025      -277.2575
  12   2.0000     -10.188379      -277.2399
  13   2.0000      -1.054499       -28.6944
  14   2.0000      -1.034282       -28.1442
  15   2.0000      -1.016857       -27.6701
  16   2.0000      -0.995598       -27.0916
  17   2.0000      -0.789548       -21.4847
  18   2.0000      -0.779477       -21.2106
  19   2.0000      -0.771356       -20.9897
  20   2.0000      -0.734522       -19.9874
  21   2.0000      -0.683951       -18.6113
  22   2.0000      -0.611173       -16.6309
  23   2.0000      -0.601686       -16.3727
  24   2.0000      -0.599397       -16.3104
  25   2.0000      -0.574950       -15.6452
  26   2.0000      -0.528382       -14.3780
  27   2.0000      -0.510990       -13.9048
  28   2.0000      -0.505978       -13.7684
  29   2.0000      -0.487996       -13.2791
  30   2.0000      -0.466750       -12.7009
  31   2.0000      -0.462726       -12.5914
  32   2.0000      -0.450702       -12.2642
  33   2.0000      -0.436893       -11.8885
  34   2.0000      -0.426375       -11.6023
  35   2.0000      -0.420612       -11.4454
  36   2.0000      -0.410551       -11.1717
  37   2.0000      -0.395828       -10.7710
  38   2.0000      -0.386784       -10.5249
  39   2.0000      -0.366866        -9.9829
  40   2.0000      -0.360167        -9.8007
  41   2.0000      -0.356788        -9.7087
  42   2.0000      -0.351262        -9.5583
  43   2.0000      -0.334129        -9.0921
  44   2.0000      -0.318416        -8.6645
  45   2.0000      -0.313597        -8.5334
  46   2.0000      -0.308747        -8.4014
  47   2.0000      -0.276468        -7.5231
  48   2.0000      -0.267443        -7.2775
  49   2.0000      -0.255768        -6.9598
  50   2.0000      -0.239576        -6.5192
  51   0.0000       0.061209         1.6656
  52   0.0000       0.075101         2.0436
  53   0.0000       0.082602         2.2477
  54   0.0000       0.093432         2.5424
  55   0.0000       0.099344         2.7033

MULLIKEN ATOMIC CHARGES
-----------------------
   0 C :    0.287224
   1 C :   -0.262887
   2 C :   -0.305393
   3 C :    0.002465
   4 O :   -0.499998
   5 H :    0.158844
   6 H :    0.147234
   7 H :    0.144904
   8 H :    0.142923
   9 H :    0.155970
  10 H :    0.151078
  11 H :    0.141483
  12 C :   -0.047630
  13 H :    0.147904
  14 H :    0.160691
  15 O :   -0.530373
  16 C :    0.098848
  17 C :    0.091947
  18 C :   -0.318311
  19 C :   -0.016342
  20 O :   -0.525858
  21 H :    0.151327
  22 H :    0.164145
  23 O :   -0.606038
  24 H :    0.150169
  25 H :    0.154180
  26 H :    0.145688
  27 H :    0.147564
  28 H :    0.368240
Sum of atomic charges:   -0.0000000

LOEWDIN ATOMIC CHARGES
----------------------
   0 C :    0.178896
   1 C :   -0.222959
   2 C :   -0.217669
   3 C :   -0.026174
   4 O :   -0.312447
   5 H :    0.108000
   6 H :    0.115832
   7 H :    0.115072
   8 H :    0.114512
   9 H :    0.114855
  10 H :    0.107325
  11 H :    0.102098
  12 C :   -0.051214
  13 H :    0.105987
  14 H :    0.119702
  15 O :   -0.344446
  16 C :    0.004806
  17 C :    0.036598
  18 C :   -0.240922
  19 C :   -0.030403
  20 O :   -0.324263
  21 H :    0.116970
  22 H :    0.116958
  23 O :   -0.408527
  24 H :    0.119652
  25 H :    0.112935
  26 H :    0.099653
  27 H :    0.104124
  28 H :    0.285049

  Mayer bond orders larger than 0.100000
B(  0-C ,  1-C ) :   0.9433 B(  0-C ,  4-O ) :   0.9280 B(  0-C ,  5-H ) :   0.9152
B(  0-C , 15-O ) :   0.8295 B(  1-C ,  2-C ) :   0.9519 B(  1-C ,  6-H ) :   0.9371
B(  1-C ,  7-H ) :   0.9206 B(  2-C ,  3-C ) :   0.9533 B(  2-C ,  8-H ) :   0.9450
B(  2-C ,  9-H ) :   0.9444 B(  3-C ,  4-O ) :   0.8382 B(  3-C , 10-H ) :   0.9349
B(  3-C , 11-H ) :   0.9397 B( 12-C , 13-H ) :   0.9247 B( 12-C , 14-H ) :   0.9174
B( 12-C , 15-O ) :   0.8638 B( 12-C , 16-C ) :   0.8901 B( 16-C , 17-C ) :   0.8823
B( 16-C , 20-O ) :   0.8681 B( 16-C , 21-H ) :   0.9190 B( 17-C , 18-C ) :   0.9256
B( 17-C , 22-H ) :   0.9362 B( 17-C , 23-O ) :   0.9064 B( 18-C , 19-C ) :   0.9439
B( 18-C , 24-H ) :   0.9412 B( 18-C , 25-H ) :   0.9289 B( 19-C , 20-O ) :   0.8402
B( 19-C , 26-H ) :   0.9148 B( 19-C , 27-H ) :   0.9360 B( 23-O , 28-H ) :   0.7902

FINAL SINGLE POINT ENERGY      -652.857655912959

DIPOLE MOMENT
-------------
                                X             Y             Z
Electronic contribution:     -2.74179      -4.50160      -0.66006
Nuclear contribution   :      3.32773       5.50865       0.62491
                        -----------------------------------------
Total Dipole Moment    :      0.58595       1.00706      -0.03515
                        -----------------------------------------
Magnitude (a.u.)       :      1.16565
Magnitude (Debye)      :      2.96284

Rotational constants in cm-1:     0.046324     0.016070     0.015368
Rotational constants in MHz :  1388.764411   481.776714   460.733586

                             ****ORCA TERMINATED NORMALLY****
TOTAL RUN TIME: 0 days 1 hours 4 minutes 15 seconds 591 msec
