                         Program Version 4.2.0 -  RELEASE  -
|  1> # Test redundant internal optimization
|  2> #
|  3> ! RKS B3LYP  Opt TightSCF SmallPrint
|  4>
|  5> %basis
|  6>         Basis "6-31G"
|  7> end
|  8>
|  9> %geom
| 10> Constraints
| 11> { D 4  0  15  12  300.0   C } # D for Dihedral angle
| 12> { D 0  15  12  16  240.0   C } # D for Dihedral angle
| 13> { D 0  4  3  2   C } # D for Dihedral angle
| 14> { D 4  3  2  1   C } # D for Dihedral angle
| 15> { D 3  2  1  0   C } # D for Dihedral angle
| 16> { D 2  1  0  4   C } # D for Dihedral angle
| 17> { D 1  0  4  3   C } # D for Dihedral angle
| 18> { D 16  20  19  18   C } # D for Dihedral angle
| 19> { D 20  19  18  17   C } # D for Dihedral angle
| 20> { D 19  18  17  16   C } # D for Dihedral angle
| 21> { D 18  17  16  20   C } # D for Dihedral angle
| 22> { D 17  16  20  19   C } # D for Dihedral angle
| 23> { D 15  12  16  20   C } # D for Dihedral angle
| 24> end
| 25> end
| 26>
| 27>
| 28> #%pal
| 29> #nprocs 8
| 30> #end
| 31>
| 32> * xyz 0 1
| 33> C  -21.048   26.222   46.251
| 34> C  -20.361   27.558   45.944
| 35> C  -20.329   28.222   47.341
| 36> C  -20.110   27.022   48.296
| 37> O  -20.473   25.807   47.535
| 38> H  -20.833   25.428   45.533
| 39> H  -19.344   27.382   45.576
| 40> H  -20.898   28.157   45.201
| 41> H  -19.543   28.978   47.434
| 42> H  -21.289   28.710   47.548
| 43> H  -20.733   27.082   49.195
| 44> H  -19.064   26.913   48.597
| 45> C  -23.362   25.116   46.798
| 46> H  -22.651   24.294   46.946
| 47> H  -23.893   25.285   47.743
| 48> O  -22.586   26.394   46.375
| 49> C  -24.409   24.672   45.740
| 50> C  -25.233   23.480   46.239
| 51> C  -26.249   24.173   47.179
| 52> C  -26.516   25.525   46.472
| 53> O  -25.400   25.731   45.523
| 54> H  -23.905   24.505   44.785
| 55> O  -25.963   22.800   45.048
| 56> H  -24.629   22.723   46.751
| 57> H  -27.164   23.588   47.320
| 58> H  -25.799   24.335   48.165
| 59> H  -26.549   26.366   47.174
| 60> H  -27.439   25.516   45.887
| 61> H  -26.576   23.541   44.521
| 62> *
| 63>
| 64>                          ****END OF INPUT****
 Total Charge           Charge          ....    0
 Multiplicity           Mult            ....    1
 Number of Electrons    NEL             ....  102
FINAL SINGLE POINT ENERGY      -652.835821073923
FINAL SINGLE POINT ENERGY      -652.859763007329
FINAL SINGLE POINT ENERGY      -652.863760614908
FINAL SINGLE POINT ENERGY      -652.864503562022
FINAL SINGLE POINT ENERGY      -652.864604834749
FINAL SINGLE POINT ENERGY      -652.864616222712
                    ***********************HURRAY********************

CARTESIAN COORDINATES (ANGSTROEM)
---------------------------------
  C    -21.124863   26.128895   46.252462
  C    -20.529309   27.496704   45.919597
  C    -20.462215   28.157666   47.313577
  C    -20.131471   26.975341   48.251460
  O    -20.473069   25.744626   47.489097
  H    -20.913200   25.323105   45.541961
  H    -19.527864   27.360075   45.496108
  H    -21.147088   28.049552   45.209167
  H    -19.710624   28.951553   47.367403
  H    -21.437652   28.585343   47.561720
  H    -20.709302   26.988439   49.179206
  H    -19.066280   26.906331   48.491454
  C    -23.283262   25.134153   46.866813
  H    -22.595695   24.297945   47.045179
  H    -23.752223   25.394934   47.821925
  O    -22.546759   26.309121   46.412402
  C    -24.334683   24.743133   45.830440
  C    -25.196985   23.542706   46.246315
  C    -26.259361   24.217050   47.155035
  C    -26.474209   25.593989   46.476984
  O    -25.303933   25.817582   45.595557
  H    -23.841112   24.561026   44.870133
  O    -25.804698   22.913230   45.084336
  H    -24.642132   22.747722   46.746636
  H    -27.169456   23.613871   47.197967
  H    -25.871086   24.329088   48.173681
  H    -26.539868   26.414930   47.197702
  H    -27.366023   25.614720   45.842740
  H    -26.133577   23.612168   44.479942

 Multiplicity           Mult            ....    1
 Number of Electrons    NEL             ....  102
 Basis Dimension        Dim             ....  149

ORBITAL ENERGIES
----------------

  NO   OCC          E(Eh)            E(eV)
   0   2.0000     -19.140934      -520.8513
   1   2.0000     -19.140144      -520.8298
   2   2.0000     -19.139263      -520.8058
   3   2.0000     -19.138345      -520.7808
   4   2.0000     -10.276658      -279.6421
   5   2.0000     -10.242592      -278.7151
   6   2.0000     -10.232552      -278.4419
   7   2.0000     -10.229514      -278.3592
   8   2.0000     -10.228239      -278.3245
   9   2.0000     -10.224784      -278.2305
  10   2.0000     -10.189623      -277.2737
  11   2.0000     -10.183098      -277.0962
  12   2.0000     -10.182640      -277.0837
  13   2.0000      -1.053278       -28.6612
  14   2.0000      -1.034992       -28.1636
  15   2.0000      -1.005279       -27.3550
  16   2.0000      -0.990607       -26.9558
  17   2.0000      -0.789676       -21.4882
  18   2.0000      -0.780659       -21.2428
  19   2.0000      -0.765275       -20.8242
  20   2.0000      -0.729887       -19.8612
  21   2.0000      -0.672019       -18.2866
  22   2.0000      -0.604312       -16.4442
  23   2.0000      -0.599384       -16.3101
  24   2.0000      -0.593186       -16.1414
  25   2.0000      -0.576317       -15.6824
  26   2.0000      -0.527005       -14.3405
  27   2.0000      -0.508238       -13.8298
  28   2.0000      -0.494088       -13.4448
  29   2.0000      -0.490431       -13.3453
  30   2.0000      -0.472668       -12.8619
  31   2.0000      -0.455593       -12.3973
  32   2.0000      -0.452079       -12.3017
  33   2.0000      -0.438003       -11.9187
  34   2.0000      -0.421926       -11.4812
  35   2.0000      -0.409462       -11.1420
  36   2.0000      -0.400300       -10.8927
  37   2.0000      -0.392980       -10.6935
  38   2.0000      -0.371858       -10.1188
  39   2.0000      -0.367841       -10.0095
  40   2.0000      -0.356765        -9.7081
  41   2.0000      -0.355142        -9.6639
  42   2.0000      -0.345489        -9.4012
  43   2.0000      -0.336290        -9.1509
  44   2.0000      -0.325379        -8.8540
  45   2.0000      -0.307123        -8.3572
  46   2.0000      -0.295390        -8.0380
  47   2.0000      -0.271202        -7.3798
  48   2.0000      -0.270135        -7.3508
  49   2.0000      -0.254436        -6.9236
  50   2.0000      -0.237959        -6.4752
  51   0.0000       0.067123         1.8265
  52   0.0000       0.087153         2.3715
  53   0.0000       0.090481         2.4621
  54   0.0000       0.102432         2.7873
  55   0.0000       0.103001         2.8028

MULLIKEN ATOMIC CHARGES
-----------------------
   0 C :    0.277116
   1 C :   -0.260469
   2 C :   -0.299430
   3 C :   -0.004913
   4 O :   -0.515560
   5 H :    0.142570
   6 H :    0.143868
   7 H :    0.164300
   8 H :    0.140743
   9 H :    0.164829
  10 H :    0.144181
  11 H :    0.143458
  12 C :   -0.006335
  13 H :    0.149326
  14 H :    0.140453
  15 O :   -0.508171
  16 C :    0.070220
  17 C :    0.077810
  18 C :   -0.303902
  19 C :   -0.028683
  20 O :   -0.509796
  21 H :    0.158218
  22 O :   -0.602068
  23 H :    0.151803
  24 H :    0.164585
  25 H :    0.146636
  26 H :    0.149098
  27 H :    0.144677
  28 H :    0.365438
Sum of atomic charges:   -0.0000000

LOEWDIN ATOMIC CHARGES
----------------------
   0 C :    0.170384
   1 C :   -0.213825
   2 C :   -0.216203
   3 C :   -0.028402
   4 O :   -0.334328
   5 H :    0.094727
   6 H :    0.113610
   7 H :    0.127901
   8 H :    0.113287
   9 H :    0.120453
  10 H :    0.103889
  11 H :    0.103003
  12 C :   -0.042396
  13 H :    0.111063
  14 H :    0.104989
  15 O :   -0.318502
  16 C :    0.011536
  17 C :    0.034429
  18 C :   -0.242990
  19 C :   -0.038448
  20 O :   -0.322158
  21 H :    0.115449
  22 O :   -0.414577
  23 H :    0.115331
  24 H :    0.127113
  25 H :    0.113574
  26 H :    0.105608
  27 H :    0.101867
  28 H :    0.283616

  Mayer bond orders larger than 0.100000
B(  0-C ,  1-C ) :   0.9507 B(  0-C ,  4-O ) :   0.8952 B(  0-C ,  5-H ) :   0.9191
B(  0-C , 15-O ) :   0.8732 B(  1-C ,  2-C ) :   0.9555 B(  1-C ,  6-H ) :   0.9402
B(  1-C ,  7-H ) :   0.9348 B(  2-C ,  3-C ) :   0.9561 B(  2-C ,  8-H ) :   0.9451
B(  2-C ,  9-H ) :   0.9439 B(  3-C ,  4-O ) :   0.8358 B(  3-C , 10-H ) :   0.9364
B(  3-C , 11-H ) :   0.9405 B( 12-C , 13-H ) :   0.9107 B( 12-C , 14-H ) :   0.9337
B( 12-C , 15-O ) :   0.8323 B( 12-C , 16-C ) :   0.8936 B( 16-C , 17-C ) :   0.8978
B( 16-C , 20-O ) :   0.8614 B( 16-C , 21-H ) :   0.9264 B( 17-C , 18-C ) :   0.9111
B( 17-C , 22-O ) :   0.8914 B( 17-C , 23-H ) :   0.9331 B( 18-C , 19-C ) :   0.9413
B( 18-C , 24-H ) :   0.9372 B( 18-C , 25-H ) :   0.9328 B( 19-C , 20-O ) :   0.8522
B( 19-C , 26-H ) :   0.9338 B( 19-C , 27-H ) :   0.9379 B( 22-O , 28-H ) :   0.7938

FINAL SINGLE POINT ENERGY      -652.864618341483

DIPOLE MOMENT
-------------
                                X             Y             Z
Electronic contribution:     -1.27938      -2.73399      -3.08167
Nuclear contribution   :      1.38299       3.21846       3.67405
                        -----------------------------------------
Total Dipole Moment    :      0.10361       0.48447       0.59238
                        -----------------------------------------
Magnitude (a.u.)       :      0.77224
Magnitude (Debye)      :      1.96288

Rotational constants in cm-1:     0.065079     0.011290     0.011019
Rotational constants in MHz :  1951.032913   338.471240   330.326375

                             ****ORCA TERMINATED NORMALLY****
TOTAL RUN TIME: 0 days 1 hours 13 minutes 34 seconds 267 msec
