                         Program Version 4.2.1 -  RELEASE  -
|  1> # Test redundant internal optimization
|  2> #
|  3> ! RKS B3LYP  Opt TightSCF SmallPrint
|  4>
|  5> %basis
|  6>         Basis "6-31G"
|  7> end
|  8>
|  9> %geom
| 10> Constraints
| 11> { D 4  0  19  14  255.0   C } # D for Dihedral angle
| 12> { D 0  19  14  12  150.0   C } # D for Dihedral angle
| 13> { D 0  4  3  2   C } # D for Dihedral angle
| 14> { D 4  3  2  1   C } # D for Dihedral angle
| 15> { D 3  2  1  0   C } # D for Dihedral angle
| 16> { D 2  1  0  4   C } # D for Dihedral angle
| 17> { D 1  0  4  3   C } # D for Dihedral angle
| 18> { D 14  15  16  17   C } # D for Dihedral angle
| 19> { D 15  16  17  12   C } # D for Dihedral angle
| 20> { D 16  17  12  14   C } # D for Dihedral angle
| 21> { D 17  12  14  15   C } # D for Dihedral angle
| 22> { D 12  14  15  16   C } # D for Dihedral angle
| 23> end
| 24> end
| 25>
| 26>
| 27> #%pal
| 28> #nprocs 8
| 29> #end
| 30>
| 31> * xyz 0 1
| 32> C  -21.048   26.222   46.251
| 33> C  -20.361   27.558   45.944
| 34> C  -20.329   28.222   47.341
| 35> C  -20.110   27.022   48.296
| 36> O  -20.473   25.807   47.535
| 37> H  -20.833   25.428   45.533
| 38> H  -19.344   27.382   45.576
| 39> H  -20.898   28.157   45.201
| 40> H  -19.543   28.978   47.434
| 41> H  -21.289   28.710   47.548
| 42> H  -20.733   27.082   49.195
| 43> H  -19.064   26.913   48.597
| 44> C  -24.562   25.142   46.516
| 45> H  -25.029   24.174   46.277
| 46> C  -23.236   25.322   45.767
| 47> C  -23.725   25.731   44.358
| 48> C  -24.989   26.577   44.655
| 49> O  -25.400   26.247   46.037
| 50> H  -24.487   25.245   47.600
| 51> O  -22.472   26.381   46.366
| 52> H  -22.622   24.415   45.757
| 53> H  -22.973   26.289   43.792
| 54> H  -23.986   24.838   43.776
| 55> H  -25.815   26.353   43.972
| 56> H  -24.788   27.652   44.626
| 57> *
| 58>
| 59>                          ****END OF INPUT****
 Total Charge           Charge          ....    0
 Multiplicity           Mult            ....    1
 Number of Electrons    NEL             ....   86
FINAL SINGLE POINT ENERGY      -538.431828033180
FINAL SINGLE POINT ENERGY      -538.433703070188
FINAL SINGLE POINT ENERGY      -538.433944869809
FINAL SINGLE POINT ENERGY      -538.433966753197
FINAL SINGLE POINT ENERGY      -538.433973062718
                    ***********************HURRAY********************

CARTESIAN COORDINATES (ANGSTROEM)
---------------------------------
  C    -20.976650   26.192575   46.223696
  C    -20.372934   27.571063   45.952870
  C    -20.406286   28.215697   47.359463
  C    -20.127950   27.017872   48.295168
  O    -20.406235   25.801478   47.491976
  H    -20.715409   25.409827   45.505324
  H    -19.340788   27.454127   45.601605
  H    -20.942269   28.130755   45.208027
  H    -19.668792   29.015578   47.474887
  H    -21.401590   28.628268   47.548696
  H    -20.768757   27.008915   49.180323
  H    -19.080562   26.955420   48.605815
  C    -24.537459   25.197186   46.535122
  H    -25.052972   24.245652   46.335855
  C    -23.236094   25.286322   45.736745
  C    -23.752950   25.691845   44.342137
  C    -24.954550   26.612710   44.662585
  O    -25.329113   26.333832   46.064439
  H    -24.380111   25.321427   47.606959
  O    -22.412213   26.337681   46.321797
  H    -22.682040   24.338994   45.729544
  H    -22.981202   26.191581   43.749763
  H    -24.075453   24.795637   43.798065
  H    -25.815731   26.420049   44.012738
  H    -24.690889   27.672508   44.606401

 Multiplicity           Mult            ....    1
 Number of Electrons    NEL             ....   86
 Basis Dimension        Dim             ....  127

ORBITAL ENERGIES
----------------

  NO   OCC          E(Eh)            E(eV)
   0   2.0000     -19.140670      -520.8441
   1   2.0000     -19.136128      -520.7205
   2   2.0000     -19.126789      -520.4664
   3   2.0000     -10.279139      -279.7096
   4   2.0000     -10.241692      -278.6906
   5   2.0000     -10.221994      -278.1546
   6   2.0000     -10.220601      -278.1167
   7   2.0000     -10.219873      -278.0969
   8   2.0000     -10.187556      -277.2175
   9   2.0000     -10.183973      -277.1200
  10   2.0000     -10.182611      -277.0829
  11   2.0000      -1.052138       -28.6301
  12   2.0000      -1.013353       -27.5747
  13   2.0000      -0.989346       -26.9215
  14   2.0000      -0.790156       -21.5012
  15   2.0000      -0.776010       -21.1163
  16   2.0000      -0.740774       -20.1575
  17   2.0000      -0.719167       -19.5695
  18   2.0000      -0.605980       -16.4896
  19   2.0000      -0.599124       -16.3030
  20   2.0000      -0.595483       -16.2039
  21   2.0000      -0.578937       -15.7537
  22   2.0000      -0.521272       -14.1845
  23   2.0000      -0.502937       -13.6856
  24   2.0000      -0.481008       -13.0889
  25   2.0000      -0.476492       -12.9660
  26   2.0000      -0.453875       -12.3506
  27   2.0000      -0.442406       -12.0385
  28   2.0000      -0.424988       -11.5645
  29   2.0000      -0.417186       -11.3522
  30   2.0000      -0.403678       -10.9846
  31   2.0000      -0.384869       -10.4728
  32   2.0000      -0.374795       -10.1987
  33   2.0000      -0.366875        -9.9832
  34   2.0000      -0.355784        -9.6814
  35   2.0000      -0.352877        -9.6023
  36   2.0000      -0.343583        -9.3494
  37   2.0000      -0.318295        -8.6612
  38   2.0000      -0.306249        -8.3334
  39   2.0000      -0.296976        -8.0811
  40   2.0000      -0.266865        -7.2618
  41   2.0000      -0.248135        -6.7521
  42   2.0000      -0.231094        -6.2884
  43   0.0000       0.076057         2.0696
  44   0.0000       0.092413         2.5147
  45   0.0000       0.098885         2.6908
  46   0.0000       0.113801         3.0967
  47   0.0000       0.119158         3.2424

MULLIKEN ATOMIC CHARGES
-----------------------
   0 C :    0.282225
   1 C :   -0.253656
   2 C :   -0.300706
   3 C :   -0.000616
   4 O :   -0.506513
   5 H :    0.137023
   6 H :    0.141919
   7 H :    0.147958
   8 H :    0.139942
   9 H :    0.168431
  10 H :    0.150671
  11 H :    0.139716
  12 C :    0.007086
  13 H :    0.122471
  14 C :    0.058291
  15 C :   -0.295486
  16 C :    0.005583
  17 O :   -0.518965
  18 H :    0.170979
  19 O :   -0.509928
  20 H :    0.136917
  21 H :    0.148410
  22 H :    0.142132
  23 H :    0.135507
  24 H :    0.150611
Sum of atomic charges:   -0.0000000

LOEWDIN ATOMIC CHARGES
----------------------
   0 C :    0.173572
   1 C :   -0.218582
   2 C :   -0.216305
   3 C :   -0.026597
   4 O :   -0.323946
   5 H :    0.096467
   6 H :    0.111923
   7 H :    0.118928
   8 H :    0.113091
   9 H :    0.122197
  10 H :    0.107326
  11 H :    0.101237
  12 C :   -0.035001
  13 H :    0.090857
  14 C :    0.039279
  15 C :   -0.237131
  16 C :   -0.028006
  17 O :   -0.328828
  18 H :    0.124787
  19 O :   -0.323432
  20 H :    0.102058
  21 H :    0.118646
  22 H :    0.112541
  23 H :    0.098303
  24 H :    0.106617

  Mayer bond orders larger than 0.100000
B(  0-C ,  1-C ) :   0.9455 B(  0-C ,  4-O ) :   0.9231 B(  0-C ,  5-H ) :   0.9181
B(  0-C , 19-O ) :   0.8547 B(  1-C ,  2-C ) :   0.9576 B(  1-C ,  6-H ) :   0.9386
B(  1-C ,  7-H ) :   0.9378 B(  2-C ,  3-C ) :   0.9545 B(  2-C ,  8-H ) :   0.9453
B(  2-C ,  9-H ) :   0.9427 B(  3-C ,  4-O ) :   0.8377 B(  3-C , 10-H ) :   0.9350
B(  3-C , 11-H ) :   0.9401 B( 12-C , 13-H ) :   0.9146 B( 12-C , 14-C ) :   0.9365
B( 12-C , 17-O ) :   0.8713 B( 12-C , 18-H ) :   0.9298 B( 14-C , 15-C ) :   0.9366
B( 14-C , 19-O ) :   0.8319 B( 14-C , 20-H ) :   0.9189 B( 15-C , 16-C ) :   0.9450
B( 15-C , 21-H ) :   0.9412 B( 15-C , 22-H ) :   0.9365 B( 16-C , 17-O ) :   0.8600
B( 16-C , 23-H ) :   0.9329 B( 16-C , 24-H ) :   0.9363

FINAL SINGLE POINT ENERGY      -538.433973659927

DIPOLE MOMENT
-------------
                                X             Y             Z
Electronic contribution:     -1.41798      -2.06685       1.91182
Nuclear contribution   :      2.12463       2.07139      -2.76053
                        -----------------------------------------
Total Dipole Moment    :      0.70665       0.00454      -0.84872
                        -----------------------------------------
Magnitude (a.u.)       :      1.10440
Magnitude (Debye)      :      2.80716

Rotational constants in cm-1:     0.079777     0.019944     0.019295
Rotational constants in MHz :  2391.655095   597.914139   578.449311

                             ****ORCA TERMINATED NORMALLY****
TOTAL RUN TIME: 0 days 0 hours 5 minutes 44 seconds 243 msec
