                         Program Version 4.2.0 -  RELEASE  -
|  1> # Test redundant internal optimization
|  2> #
|  3> ! RKS B3LYP  Opt TightSCF SmallPrint
|  4>
|  5> %basis
|  6>         Basis "6-31G"
|  7> end
|  8>
|  9> %geom
| 10> Constraints
| 11> { D 4  0  15  12  105.0   C } # D for Dihedral angle
| 12> { D 0  15  12  16  150.0   C } # D for Dihedral angle
| 13> { D 0  4  3  2   C } # D for Dihedral angle
| 14> { D 4  3  2  1   C } # D for Dihedral angle
| 15> { D 3  2  1  0   C } # D for Dihedral angle
| 16> { D 2  1  0  4   C } # D for Dihedral angle
| 17> { D 1  0  4  3   C } # D for Dihedral angle
| 18> { D 16  20  19  18   C } # D for Dihedral angle
| 19> { D 20  19  18  17   C } # D for Dihedral angle
| 20> { D 19  18  17  16   C } # D for Dihedral angle
| 21> { D 18  17  16  20   C } # D for Dihedral angle
| 22> { D 17  16  20  19   C } # D for Dihedral angle
| 23> { D 15  12  16  20   C } # D for Dihedral angle
| 24> end
| 25> end
| 26>
| 27>
| 28> #%pal
| 29> #nprocs 8
| 30> #end
| 31>
| 32> * xyz 0 1
| 33> C  -21.048   26.222   46.251
| 34> C  -20.361   27.558   45.944
| 35> C  -20.329   28.222   47.341
| 36> C  -20.110   27.022   48.296
| 37> O  -20.473   25.807   47.535
| 38> H  -20.833   25.428   45.533
| 39> H  -19.344   27.382   45.576
| 40> H  -20.898   28.157   45.201
| 41> H  -19.543   28.978   47.434
| 42> H  -21.289   28.710   47.548
| 43> H  -20.733   27.082   49.195
| 44> H  -19.064   26.913   48.597
| 45> C  -23.085   27.864   46.420
| 46> H  -23.109   28.206   47.462
| 47> H  -22.403   28.518   45.861
| 48> O  -22.586   26.394   46.375
| 49> C  -24.506   28.036   45.816
| 50> C  -25.556   27.286   46.644
| 51> C  -25.775   28.258   47.827
| 52> C  -25.626   29.653   47.169
| 53> O  -24.926   29.439   45.884
| 54> H  -24.481   27.760   44.760
| 55> H  -26.479   27.170   46.064
| 56> O  -25.084   25.878   47.099
| 57> H  -26.748   28.127   48.311
| 58> H  -24.999   28.105   48.588
| 59> H  -25.043   30.347   47.784
| 60> H  -26.592   30.110   46.938
| 61> H  -24.161   25.971   47.682
| 62> *
| 63>
| 64>                          ****END OF INPUT****
 Total Charge           Charge          ....    0
 Multiplicity           Mult            ....    1
 Number of Electrons    NEL             ....  102
FINAL SINGLE POINT ENERGY      -652.815034070274
FINAL SINGLE POINT ENERGY      -652.841305167788
FINAL SINGLE POINT ENERGY      -652.853598806551
FINAL SINGLE POINT ENERGY      -652.857130068463
FINAL SINGLE POINT ENERGY      -652.858911976202
FINAL SINGLE POINT ENERGY      -652.859935912002
FINAL SINGLE POINT ENERGY      -652.860413713500
FINAL SINGLE POINT ENERGY      -652.860530241827
FINAL SINGLE POINT ENERGY      -652.860547703508
                    ***********************HURRAY********************

CARTESIAN COORDINATES (ANGSTROEM)
---------------------------------
  C    -21.201835   26.360310   46.374571
  C    -20.237533   27.466878   45.937733
  C    -19.942765   28.188844   47.280965
  C    -19.953457   27.024057   48.299812
  O    -20.659622   25.904178   47.627677
  H    -21.216203   25.486546   45.722889
  H    -19.331179   26.989779   45.551228
  H    -20.630672   28.125262   45.158968
  H    -18.982743   28.713250   47.265906
  H    -20.719217   28.924903   47.510268
  H    -20.477254   27.266959   49.228417
  H    -18.948858   26.664581   48.538508
  C    -23.115859   28.091255   46.523991
  H    -23.143689   28.454755   47.558352
  H    -22.492513   28.765882   45.931588
  O    -22.607917   26.718604   46.491990
  C    -24.519704   28.061035   45.908163
  C    -25.555380   27.225598   46.681148
  C    -25.946010   28.195660   47.833961
  C    -25.880266   29.582597   47.162703
  O    -25.067872   29.415169   45.919168
  H    -24.441256   27.753840   44.861933
  H    -26.425029   27.069703   46.032123
  O    -25.122456   25.932451   47.136912
  H    -26.935128   27.965412   48.237732
  H    -25.220095   28.091842   48.648217
  H    -25.408389   30.347666   47.787371
  H    -26.862042   29.944090   46.844337
  H    -24.139058   25.871894   47.078370

 Multiplicity           Mult            ....    1
 Number of Electrons    NEL             ....  102
 Basis Dimension        Dim             ....  149

ORBITAL ENERGIES
----------------

  NO   OCC          E(Eh)            E(eV)
   0   2.0000     -19.163615      -521.4685
   1   2.0000     -19.150020      -521.0985
   2   2.0000     -19.140880      -520.8498
   3   2.0000     -19.108534      -519.9696
   4   2.0000     -10.293910      -280.1115
   5   2.0000     -10.242065      -278.7007
   6   2.0000     -10.236880      -278.5597
   7   2.0000     -10.233908      -278.4788
   8   2.0000     -10.228212      -278.3238
   9   2.0000     -10.226692      -278.2824
  10   2.0000     -10.204943      -277.6906
  11   2.0000     -10.202970      -277.6369
  12   2.0000     -10.177779      -276.9515
  13   2.0000      -1.064214       -28.9587
  14   2.0000      -1.025839       -27.9145
  15   2.0000      -1.008633       -27.4463
  16   2.0000      -0.989032       -26.9129
  17   2.0000      -0.800844       -21.7921
  18   2.0000      -0.778951       -21.1963
  19   2.0000      -0.767749       -20.8915
  20   2.0000      -0.739162       -20.1136
  21   2.0000      -0.685226       -18.6460
  22   2.0000      -0.614879       -16.7317
  23   2.0000      -0.601362       -16.3639
  24   2.0000      -0.596087       -16.2204
  25   2.0000      -0.577420       -15.7124
  26   2.0000      -0.532049       -14.4778
  27   2.0000      -0.516724       -14.0608
  28   2.0000      -0.513125       -13.9628
  29   2.0000      -0.487167       -13.2565
  30   2.0000      -0.476809       -12.9746
  31   2.0000      -0.464195       -12.6314
  32   2.0000      -0.440431       -11.9847
  33   2.0000      -0.436520       -11.8783
  34   2.0000      -0.429481       -11.6868
  35   2.0000      -0.424319       -11.5463
  36   2.0000      -0.411363       -11.1938
  37   2.0000      -0.392844       -10.6898
  38   2.0000      -0.387091       -10.5333
  39   2.0000      -0.373299       -10.1580
  40   2.0000      -0.366455        -9.9718
  41   2.0000      -0.363957        -9.9038
  42   2.0000      -0.347420        -9.4538
  43   2.0000      -0.341344        -9.2884
  44   2.0000      -0.322839        -8.7849
  45   2.0000      -0.312712        -8.5093
  46   2.0000      -0.291687        -7.9372
  47   2.0000      -0.275442        -7.4952
  48   2.0000      -0.268957        -7.3187
  49   2.0000      -0.248092        -6.7509
  50   2.0000      -0.238623        -6.4933
  51   0.0000       0.055777         1.5178
  52   0.0000       0.069106         1.8805
  53   0.0000       0.089154         2.4260
  54   0.0000       0.096712         2.6317
  55   0.0000       0.102172         2.7802

MULLIKEN ATOMIC CHARGES
-----------------------
   0 C :    0.323946
   1 C :   -0.305846
   2 C :   -0.311026
   3 C :   -0.008758
   4 O :   -0.494404
   5 H :    0.171465
   6 H :    0.164680
   7 H :    0.155869
   8 H :    0.151327
   9 H :    0.152871
  10 H :    0.151295
  11 H :    0.151524
  12 C :   -0.013086
  13 H :    0.141804
  14 H :    0.156384
  15 O :   -0.569831
  16 C :    0.055551
  17 C :    0.122048
  18 C :   -0.299806
  19 C :   -0.023447
  20 O :   -0.523437
  21 H :    0.157532
  22 H :    0.146517
  23 O :   -0.638519
  24 H :    0.150602
  25 H :    0.145977
  26 H :    0.140230
  27 H :    0.149981
  28 H :    0.398557
Sum of atomic charges:    0.0000000

LOEWDIN ATOMIC CHARGES
----------------------
   0 C :    0.181307
   1 C :   -0.230184
   2 C :   -0.221512
   3 C :   -0.030218
   4 O :   -0.313092
   5 H :    0.115001
   6 H :    0.127316
   7 H :    0.119645
   8 H :    0.119358
   9 H :    0.111697
  10 H :    0.107049
  11 H :    0.107285
  12 C :   -0.043582
  13 H :    0.098196
  14 H :    0.109246
  15 O :   -0.336761
  16 C :    0.017294
  17 C :    0.042611
  18 C :   -0.237137
  19 C :   -0.033054
  20 O :   -0.326393
  21 H :    0.114684
  22 H :    0.104781
  23 O :   -0.433162
  24 H :    0.121471
  25 H :    0.111139
  26 H :    0.100518
  27 H :    0.106324
  28 H :    0.290175

  Mayer bond orders larger than 0.100000
B(  0-C ,  1-C ) :   0.9368 B(  0-C ,  4-O ) :   0.9270 B(  0-C ,  5-H ) :   0.9323
B(  0-C , 15-O ) :   0.8305 B(  1-C ,  2-C ) :   0.9497 B(  1-C ,  6-H ) :   0.9326
B(  1-C ,  7-H ) :   0.9284 B(  2-C ,  3-C ) :   0.9480 B(  2-C ,  8-H ) :   0.9447
B(  2-C ,  9-H ) :   0.9403 B(  3-C ,  4-O ) :   0.8402 B(  3-C , 10-H ) :   0.9344
B(  3-C , 11-H ) :   0.9389 B( 12-C , 13-H ) :   0.9207 B( 12-C , 14-H ) :   0.9133
B( 12-C , 15-O ) :   0.7892 B( 12-C , 16-C ) :   0.8974 B( 16-C , 17-C ) :   0.9132
B( 16-C , 20-O ) :   0.8560 B( 16-C , 21-H ) :   0.9288 B( 17-C , 18-C ) :   0.8998
B( 17-C , 22-H ) :   0.9297 B( 17-C , 23-O ) :   0.9409 B( 18-C , 19-C ) :   0.9380
B( 18-C , 24-H ) :   0.9454 B( 18-C , 25-H ) :   0.9429 B( 19-C , 20-O ) :   0.8303
B( 19-C , 26-H ) :   0.9345 B( 19-C , 27-H ) :   0.9386 B( 23-O , 28-H ) :   0.7213

FINAL SINGLE POINT ENERGY      -652.860550584705

DIPOLE MOMENT
-------------
                                X             Y             Z
Electronic contribution:     -2.20405      -4.26215      -1.94816
Nuclear contribution   :      3.47582       5.49595       1.96481
                        -----------------------------------------
Total Dipole Moment    :      1.27177       1.23380       0.01666
                        -----------------------------------------
Magnitude (a.u.)       :      1.77199
Magnitude (Debye)      :      4.50404

Rotational constants in cm-1:     0.051017     0.014212     0.013019
Rotational constants in MHz :  1529.445875   426.053964   390.310884

                             ****ORCA TERMINATED NORMALLY****
TOTAL RUN TIME: 0 days 1 hours 15 minutes 14 seconds 511 msec
