                         Program Version 4.2.1 -  RELEASE  -
|  1> # Test redundant internal optimization
|  2> #
|  3> ! RKS B3LYP  Opt TightSCF SmallPrint
|  4>
|  5> %basis
|  6>         Basis "6-31G"
|  7> end
|  8>
|  9> %geom
| 10> Constraints
| 11> { D 4  0  19  14  0.0   C } # D for Dihedral angle
| 12> { D 0  19  14  12  150.0   C } # D for Dihedral angle
| 13> { D 0  4  3  2   C } # D for Dihedral angle
| 14> { D 4  3  2  1   C } # D for Dihedral angle
| 15> { D 3  2  1  0   C } # D for Dihedral angle
| 16> { D 2  1  0  4   C } # D for Dihedral angle
| 17> { D 1  0  4  3   C } # D for Dihedral angle
| 18> { D 14  15  16  17   C } # D for Dihedral angle
| 19> { D 15  16  17  12   C } # D for Dihedral angle
| 20> { D 16  17  12  14   C } # D for Dihedral angle
| 21> { D 17  12  14  15   C } # D for Dihedral angle
| 22> { D 12  14  15  16   C } # D for Dihedral angle
| 23> end
| 24> end
| 25>
| 26>
| 27> #%pal
| 28> #nprocs 8
| 29> #end
| 30>
| 31> * xyz 0 1
| 32> C  -21.048   26.222   46.251
| 33> C  -20.361   27.558   45.944
| 34> C  -20.329   28.222   47.341
| 35> C  -20.110   27.022   48.296
| 36> O  -20.473   25.807   47.535
| 37> H  -20.833   25.428   45.533
| 38> H  -19.344   27.382   45.576
| 39> H  -20.898   28.157   45.201
| 40> H  -19.543   28.978   47.434
| 41> H  -21.289   28.710   47.548
| 42> H  -20.733   27.082   49.195
| 43> H  -19.064   26.913   48.597
| 44> C  -24.245   26.955   47.932
| 45> H  -24.495   26.987   49.004
| 46> C  -22.995   26.105   47.675
| 47> C  -23.570   24.671   47.743
| 48> C  -24.984   24.829   47.130
| 49> O  -25.305   26.273   47.180
| 50> H  -24.186   27.974   47.547
| 51> O  -22.472   26.381   46.366
| 52> H  -22.200   26.279   48.409
| 53> H  -22.959   23.942   47.202
| 54> H  -23.637   24.341   48.788
| 55> H  -25.747   24.273   47.684
| 56> H  -25.019   24.528   46.078
| 57> *
| 58>
| 59>                          ****END OF INPUT****
 Total Charge           Charge          ....    0
 Multiplicity           Mult            ....    1
 Number of Electrons    NEL             ....   86
FINAL SINGLE POINT ENERGY      -538.421381553102
FINAL SINGLE POINT ENERGY      -538.428444702720
FINAL SINGLE POINT ENERGY      -538.429842769768
FINAL SINGLE POINT ENERGY      -538.430186572488
FINAL SINGLE POINT ENERGY      -538.430206126947
FINAL SINGLE POINT ENERGY      -538.430213763838
                    ***********************HURRAY********************

CARTESIAN COORDINATES (ANGSTROEM)
---------------------------------
  C    -21.018309   26.238590   46.326764
  C    -20.413195   27.594298   45.957067
  C    -20.239483   28.252984   47.346644
  C    -19.876253   27.059913   48.258720
  O    -20.298027   25.839011   47.514634
  H    -20.844817   25.451596   45.588800
  H    -19.443301   27.436272   45.471567
  H    -21.062455   28.161585   45.287240
  H    -19.465854   29.026939   47.352397
  H    -21.180963   28.714962   47.661506
  H    -20.386997   27.080096   49.225868
  H    -18.799573   26.963751   48.425174
  C    -24.341918   26.929882   47.888082
  H    -24.688990   26.979078   48.931518
  C    -23.085146   26.065778   47.780174
  C    -23.679928   24.644203   47.805251
  C    -25.015864   24.803534   47.042356
  O    -25.321184   26.251694   47.038386
  H    -24.202651   27.936839   47.492583
  O    -22.461439   26.348538   46.491775
  H    -22.377543   26.225901   48.595832
  H    -23.004077   23.920028   47.344329
  H    -23.851885   24.338017   48.844210
  H    -25.841119   24.264004   47.520464
  H    -24.938030   24.491506   45.997660

 Multiplicity           Mult            ....    1
 Number of Electrons    NEL             ....   86
 Basis Dimension        Dim             ....  127

ORBITAL ENERGIES
----------------

  NO   OCC          E(Eh)            E(eV)
   0   2.0000     -19.153178      -521.1845
   1   2.0000     -19.135518      -520.7039
   2   2.0000     -19.121719      -520.3284
   3   2.0000     -10.280412      -279.7442
   4   2.0000     -10.236091      -278.5382
   5   2.0000     -10.235749      -278.5289
   6   2.0000     -10.217611      -278.0353
   7   2.0000     -10.214238      -277.9435
   8   2.0000     -10.193565      -277.3810
   9   2.0000     -10.186908      -277.1998
  10   2.0000     -10.178241      -276.9640
  11   2.0000      -1.055975       -28.7345
  12   2.0000      -1.010745       -27.5038
  13   2.0000      -0.986614       -26.8471
  14   2.0000      -0.794170       -21.6105
  15   2.0000      -0.777546       -21.1581
  16   2.0000      -0.740086       -20.1388
  17   2.0000      -0.720499       -19.6058
  18   2.0000      -0.614867       -16.7314
  19   2.0000      -0.603567       -16.4239
  20   2.0000      -0.593087       -16.1387
  21   2.0000      -0.563493       -15.3334
  22   2.0000      -0.526484       -14.3263
  23   2.0000      -0.501095       -13.6355
  24   2.0000      -0.487942       -13.2776
  25   2.0000      -0.480260       -13.0686
  26   2.0000      -0.452364       -12.3094
  27   2.0000      -0.438388       -11.9291
  28   2.0000      -0.425767       -11.5857
  29   2.0000      -0.414333       -11.2746
  30   2.0000      -0.410445       -11.1688
  31   2.0000      -0.382565       -10.4101
  32   2.0000      -0.370799       -10.0900
  33   2.0000      -0.363215        -9.8836
  34   2.0000      -0.361716        -9.8428
  35   2.0000      -0.357063        -9.7162
  36   2.0000      -0.345337        -9.3971
  37   2.0000      -0.331501        -9.0206
  38   2.0000      -0.307840        -8.3767
  39   2.0000      -0.292783        -7.9670
  40   2.0000      -0.267315        -7.2740
  41   2.0000      -0.250513        -6.8168
  42   2.0000      -0.226068        -6.1516
  43   0.0000       0.069431         1.8893
  44   0.0000       0.095101         2.5878
  45   0.0000       0.099508         2.7077
  46   0.0000       0.104532         2.8445
  47   0.0000       0.113405         3.0859

MULLIKEN ATOMIC CHARGES
-----------------------
   0 C :    0.303562
   1 C :   -0.256954
   2 C :   -0.306925
   3 C :   -0.022555
   4 O :   -0.513450
   5 H :    0.155207
   6 H :    0.144503
   7 H :    0.164124
   8 H :    0.149016
   9 H :    0.153901
  10 H :    0.143788
  11 H :    0.153040
  12 C :    0.008821
  13 H :    0.119383
  14 C :    0.065330
  15 C :   -0.288451
  16 C :    0.003604
  17 O :   -0.520460
  18 H :    0.156677
  19 O :   -0.533842
  20 H :    0.142747
  21 H :    0.159042
  22 H :    0.136703
  23 H :    0.132120
  24 H :    0.151071
Sum of atomic charges:   -0.0000000

LOEWDIN ATOMIC CHARGES
----------------------
   0 C :    0.183751
   1 C :   -0.220068
   2 C :   -0.219920
   3 C :   -0.034510
   4 O :   -0.321458
   5 H :    0.103376
   6 H :    0.113903
   7 H :    0.127508
   8 H :    0.118236
   9 H :    0.113697
  10 H :    0.100274
  11 H :    0.107916
  12 C :   -0.037185
  13 H :    0.088667
  14 C :    0.039376
  15 C :   -0.232377
  16 C :   -0.028394
  17 O :   -0.330520
  18 H :    0.117105
  19 O :   -0.334194
  20 H :    0.105399
  21 H :    0.124932
  22 H :    0.110569
  23 H :    0.096783
  24 H :    0.107134

  Mayer bond orders larger than 0.100000
B(  0-C ,  1-C ) :   0.9311 B(  0-C ,  4-O ) :   0.9048 B(  0-C ,  5-H ) :   0.9295
B(  0-C , 19-O ) :   0.8500 B(  1-C ,  2-C ) :   0.9534 B(  1-C ,  6-H ) :   0.9351
B(  1-C ,  7-H ) :   0.9354 B(  2-C ,  3-C ) :   0.9520 B(  2-C ,  8-H ) :   0.9445
B(  2-C ,  9-H ) :   0.9451 B(  3-C ,  4-O ) :   0.8315 B(  3-C , 10-H ) :   0.9301
B(  3-C , 11-H ) :   0.9402 B( 12-C , 13-H ) :   0.9149 B( 12-C , 14-C ) :   0.9329
B( 12-C , 17-O ) :   0.8732 B( 12-C , 18-H ) :   0.9313 B( 14-C , 15-C ) :   0.9363
B( 14-C , 19-O ) :   0.8241 B( 14-C , 20-H ) :   0.9118 B( 15-C , 16-C ) :   0.9484
B( 15-C , 21-H ) :   0.9411 B( 15-C , 22-H ) :   0.9380 B( 16-C , 17-O ) :   0.8539
B( 16-C , 23-H ) :   0.9337 B( 16-C , 24-H ) :   0.9366

FINAL SINGLE POINT ENERGY      -538.430214270684

DIPOLE MOMENT
-------------
                                X             Y             Z
Electronic contribution:     -1.59593      -1.48739      -1.79135
Nuclear contribution   :      2.62965       1.80112       2.43687
                        -----------------------------------------
Total Dipole Moment    :      1.03373       0.31373       0.64552
                        -----------------------------------------
Magnitude (a.u.)       :      1.25846
Magnitude (Debye)      :      3.19875

Rotational constants in cm-1:     0.081328     0.021490     0.020648
Rotational constants in MHz :  2438.166472   644.250475   619.025134

                             ****ORCA TERMINATED NORMALLY****
TOTAL RUN TIME: 0 days 0 hours 7 minutes 12 seconds 947 msec
