                         Program Version 4.2.0 -  RELEASE  -
|  1> # Test redundant internal optimization
|  2> #
|  3> ! RKS B3LYP  Opt TightSCF SmallPrint
|  4>
|  5> %basis
|  6>         Basis "6-31G"
|  7> end
|  8>
|  9> %geom
| 10> Constraints
| 11> { D 4  0  15  12  15.0   C } # D for Dihedral angle
| 12> { D 0  15  12  16  120.0   C } # D for Dihedral angle
| 13> { D 0  4  3  2   C } # D for Dihedral angle
| 14> { D 4  3  2  1   C } # D for Dihedral angle
| 15> { D 3  2  1  0   C } # D for Dihedral angle
| 16> { D 2  1  0  4   C } # D for Dihedral angle
| 17> { D 1  0  4  3   C } # D for Dihedral angle
| 18> { D 16  20  19  18   C } # D for Dihedral angle
| 19> { D 20  19  18  17   C } # D for Dihedral angle
| 20> { D 19  18  17  16   C } # D for Dihedral angle
| 21> { D 18  17  16  20   C } # D for Dihedral angle
| 22> { D 17  16  20  19   C } # D for Dihedral angle
| 23> { D 15  12  16  20   C } # D for Dihedral angle
| 24> end
| 25> end
| 26>
| 27>
| 28> #%pal
| 29> #nprocs 8
| 30> #end
| 31>
| 32> * xyz 0 1
| 33> C  -21.048   26.222   46.251
| 34> C  -20.361   27.558   45.944
| 35> C  -20.329   28.222   47.341
| 36> C  -20.110   27.022   48.296
| 37> O  -20.473   25.807   47.535
| 38> H  -20.833   25.428   45.533
| 39> H  -19.344   27.382   45.576
| 40> H  -20.898   28.157   45.201
| 41> H  -19.543   28.978   47.434
| 42> H  -21.289   28.710   47.548
| 43> H  -20.733   27.082   49.195
| 44> H  -19.064   26.913   48.597
| 45> C  -23.128   26.462   47.829
| 46> H  -23.829   25.634   47.994
| 47> H  -22.306   26.364   48.550
| 48> O  -22.586   26.394   46.375
| 49> C  -23.867   27.795   48.133
| 50> C  -25.134   27.935   47.282
| 51> C  -26.128   27.030   48.049
| 52> C  -25.721   27.237   49.530
| 53> O  -24.356   27.806   49.515
| 54> H  -23.163   28.624   48.036
| 55> O  -25.619   29.410   47.288
| 56> H  -24.992   27.624   46.242
| 57> H  -27.173   27.294   47.863
| 58> H  -25.989   25.983   47.753
| 59> H  -25.714   26.301   50.098
| 60> H  -26.365   27.957   50.043
| 61> H  -25.770   29.745   48.321
| 62> *
| 63>
| 64>                          ****END OF INPUT****
 Total Charge           Charge          ....    0
 Multiplicity           Mult            ....    1
 Number of Electrons    NEL             ....  102
FINAL SINGLE POINT ENERGY      -652.830921847072
FINAL SINGLE POINT ENERGY      -652.853892289462
FINAL SINGLE POINT ENERGY      -652.857525090511
FINAL SINGLE POINT ENERGY      -652.860486583550
FINAL SINGLE POINT ENERGY      -652.860686237667
FINAL SINGLE POINT ENERGY      -652.860728798930
FINAL SINGLE POINT ENERGY      -652.860733886565
                    ***********************HURRAY********************

CARTESIAN COORDINATES (ANGSTROEM)
---------------------------------
  C    -21.150426   26.284790   46.388227
  C    -20.507294   27.610619   45.972578
  C    -20.216858   28.269450   47.345967
  C    -19.853202   27.062516   48.240110
  O    -20.377906   25.860896   47.528912
  H    -21.050680   25.496054   45.639446
  H    -19.576329   27.401277   45.433552
  H    -21.164340   28.206515   45.335408
  H    -19.405725   29.002364   47.296059
  H    -21.106946   28.784577   47.719337
  H    -20.299077   27.107513   49.237418
  H    -18.773523   26.916065   48.335674
  C    -23.145298   26.403230   47.960596
  H    -23.819698   25.542467   48.045177
  H    -22.365928   26.285327   48.716141
  O    -22.587812   26.390540   46.615490
  C    -23.909127   27.708157   48.188328
  C    -25.121305   27.919714   47.270589
  C    -26.197020   27.049971   47.969107
  C    -25.865431   27.214781   49.473944
  O    -24.471020   27.722137   49.544388
  H    -23.227139   28.560406   48.118976
  O    -25.501103   29.324178   47.230793
  H    -24.925774   27.635575   46.237889
  H    -27.200583   27.399376   47.714203
  H    -26.107173   26.005715   47.652484
  H    -25.929042   26.274875   50.030058
  H    -26.502777   27.956175   49.966712
  H    -25.506465   29.680741   48.144439

 Multiplicity           Mult            ....    1
 Number of Electrons    NEL             ....  102
 Basis Dimension        Dim             ....  149

ORBITAL ENERGIES
----------------

  NO   OCC          E(Eh)            E(eV)
   0   2.0000     -19.153014      -521.1800
   1   2.0000     -19.144787      -520.9561
   2   2.0000     -19.140479      -520.8389
   3   2.0000     -19.135108      -520.6928
   4   2.0000     -10.281276      -279.7677
   5   2.0000     -10.234605      -278.4978
   6   2.0000     -10.234546      -278.4962
   7   2.0000     -10.231614      -278.4164
   8   2.0000     -10.231335      -278.4088
   9   2.0000     -10.227620      -278.3077
  10   2.0000     -10.193806      -277.3876
  11   2.0000     -10.187857      -277.2257
  12   2.0000     -10.186674      -277.1935
  13   2.0000      -1.055919       -28.7330
  14   2.0000      -1.035375       -28.1740
  15   2.0000      -1.003861       -27.3164
  16   2.0000      -0.994788       -27.0696
  17   2.0000      -0.792123       -21.5548
  18   2.0000      -0.779927       -21.2229
  19   2.0000      -0.769107       -20.9285
  20   2.0000      -0.734398       -19.9840
  21   2.0000      -0.674125       -18.3439
  22   2.0000      -0.606109       -16.4931
  23   2.0000      -0.603404       -16.4194
  24   2.0000      -0.597455       -16.2576
  25   2.0000      -0.575026       -15.6472
  26   2.0000      -0.526832       -14.3358
  27   2.0000      -0.508536       -13.8380
  28   2.0000      -0.501487       -13.6462
  29   2.0000      -0.494210       -13.4481
  30   2.0000      -0.473964       -12.8972
  31   2.0000      -0.457969       -12.4620
  32   2.0000      -0.450769       -12.2660
  33   2.0000      -0.436091       -11.8666
  34   2.0000      -0.424408       -11.5487
  35   2.0000      -0.417932       -11.3725
  36   2.0000      -0.402116       -10.9421
  37   2.0000      -0.391379       -10.6500
  38   2.0000      -0.378553       -10.3009
  39   2.0000      -0.366434        -9.9712
  40   2.0000      -0.362535        -9.8651
  41   2.0000      -0.356351        -9.6968
  42   2.0000      -0.350907        -9.5487
  43   2.0000      -0.339275        -9.2322
  44   2.0000      -0.324675        -8.8349
  45   2.0000      -0.312969        -8.5163
  46   2.0000      -0.301670        -8.2089
  47   2.0000      -0.273254        -7.4356
  48   2.0000      -0.268241        -7.2992
  49   2.0000      -0.258140        -7.0244
  50   2.0000      -0.237995        -6.4762
  51   0.0000       0.065350         1.7783
  52   0.0000       0.068342         1.8597
  53   0.0000       0.088427         2.4062
  54   0.0000       0.096684         2.6309
  55   0.0000       0.100562         2.7364

MULLIKEN ATOMIC CHARGES
-----------------------
   0 C :    0.305344
   1 C :   -0.261347
   2 C :   -0.316660
   3 C :   -0.027208
   4 O :   -0.508945
   5 H :    0.160951
   6 H :    0.148190
   7 H :    0.161210
   8 H :    0.150917
   9 H :    0.157975
  10 H :    0.152729
  11 H :    0.154408
  12 C :   -0.017475
  13 H :    0.138246
  14 H :    0.167769
  15 O :   -0.542533
  16 C :    0.050423
  17 C :    0.089631
  18 C :   -0.293376
  19 C :   -0.035973
  20 O :   -0.527467
  21 H :    0.158970
  22 O :   -0.605730
  23 H :    0.175203
  24 H :    0.159512
  25 H :    0.148378
  26 H :    0.149109
  27 H :    0.146507
  28 H :    0.361241
Sum of atomic charges:   -0.0000000

LOEWDIN ATOMIC CHARGES
----------------------
   0 C :    0.184284
   1 C :   -0.223996
   2 C :   -0.221755
   3 C :   -0.034783
   4 O :   -0.316206
   5 H :    0.107732
   6 H :    0.116267
   7 H :    0.125770
   8 H :    0.119326
   9 H :    0.112330
  10 H :    0.105208
  11 H :    0.108358
  12 C :   -0.039266
  13 H :    0.101242
  14 H :    0.117270
  15 O :   -0.343224
  16 C :    0.007951
  17 C :    0.037459
  18 C :   -0.239735
  19 C :   -0.039495
  20 O :   -0.333287
  21 H :    0.108395
  22 O :   -0.416853
  23 H :    0.127695
  24 H :    0.125753
  25 H :    0.115745
  26 H :    0.105149
  27 H :    0.102082
  28 H :    0.280584

  Mayer bond orders larger than 0.100000
B(  0-C ,  1-C ) :   0.9227 B(  0-C ,  4-O ) :   0.9169 B(  0-C ,  5-H ) :   0.9328
B(  0-C , 15-O ) :   0.8480 B(  1-C ,  2-C ) :   0.9539 B(  1-C ,  6-H ) :   0.9342
B(  1-C ,  7-H ) :   0.9356 B(  2-C ,  3-C ) :   0.9508 B(  2-C ,  8-H ) :   0.9439
B(  2-C ,  9-H ) :   0.9343 B(  3-C ,  4-O ) :   0.8286 B(  3-C , 10-H ) :   0.9302
B(  3-C , 11-H ) :   0.9401 B( 12-C , 13-H ) :   0.9339 B( 12-C , 14-H ) :   0.9084
B( 12-C , 15-O ) :   0.8264 B( 12-C , 16-C ) :   0.8884 B( 16-C , 17-C ) :   0.9114
B( 16-C , 20-O ) :   0.8399 B( 16-C , 21-H ) :   0.9165 B( 17-C , 18-C ) :   0.9140
B( 17-C , 22-O ) :   0.8865 B( 17-C , 23-H ) :   0.9245 B( 18-C , 19-C ) :   0.9412
B( 18-C , 24-H ) :   0.9381 B( 18-C , 25-H ) :   0.9343 B( 19-C , 20-O ) :   0.8443
B( 19-C , 26-H ) :   0.9350 B( 19-C , 27-H ) :   0.9373 B( 22-O , 28-H ) :   0.7969

FINAL SINGLE POINT ENERGY      -652.860734118308

DIPOLE MOMENT
-------------
                                X             Y             Z
Electronic contribution:     -0.84172      -1.16557      -0.40454
Nuclear contribution   :      1.08381       1.29387       0.68302
                        -----------------------------------------
Total Dipole Moment    :      0.24209       0.12829       0.27847
                        -----------------------------------------
Magnitude (a.u.)       :      0.39066
Magnitude (Debye)      :      0.99298

Rotational constants in cm-1:     0.052290     0.014113     0.013589
Rotational constants in MHz :  1567.618402   423.087394   407.379268

                             ****ORCA TERMINATED NORMALLY****
TOTAL RUN TIME: 0 days 1 hours 7 minutes 39 seconds 62 msec
