                         Program Version 4.2.0 -  RELEASE  -
|  1> # Test redundant internal optimization
|  2> #
|  3> ! RKS B3LYP  Opt TightSCF SmallPrint
|  4>
|  5> %basis
|  6>         Basis "6-31G"
|  7> end
|  8>
|  9> %geom
| 10> Constraints
| 11> { D 4  0  15  12  0.0   C } # D for Dihedral angle
| 12> { D 0  15  12  16  255.0   C } # D for Dihedral angle
| 13> { D 0  4  3  2   C } # D for Dihedral angle
| 14> { D 4  3  2  1   C } # D for Dihedral angle
| 15> { D 3  2  1  0   C } # D for Dihedral angle
| 16> { D 2  1  0  4   C } # D for Dihedral angle
| 17> { D 1  0  4  3   C } # D for Dihedral angle
| 18> { D 16  20  19  18   C } # D for Dihedral angle
| 19> { D 20  19  18  17   C } # D for Dihedral angle
| 20> { D 19  18  17  16   C } # D for Dihedral angle
| 21> { D 18  17  16  20   C } # D for Dihedral angle
| 22> { D 17  16  20  19   C } # D for Dihedral angle
| 23> { D 15  12  16  20   C } # D for Dihedral angle
| 24> end
| 25> end
| 26>
| 27>
| 28> #%pal
| 29> #nprocs 8
| 30> #end
| 31>
| 32> * xyz 0 1
| 33> C  -21.048   26.222   46.251
| 34> C  -20.361   27.558   45.944
| 35> C  -20.329   28.222   47.341
| 36> C  -20.110   27.022   48.296
| 37> O  -20.473   25.807   47.535
| 38> H  -20.833   25.428   45.533
| 39> H  -19.344   27.382   45.576
| 40> H  -20.898   28.157   45.201
| 41> H  -19.543   28.978   47.434
| 42> H  -21.289   28.710   47.548
| 43> H  -20.733   27.082   49.195
| 44> H  -19.064   26.913   48.597
| 45> C  -23.172   26.101   47.783
| 46> H  -22.358   26.087   48.518
| 47> H  -23.883   26.884   48.074
| 48> O  -22.586   26.394   46.375
| 49> C  -23.915   24.738   47.853
| 50> C  -24.578   24.535   49.219
| 51> C  -25.854   25.399   49.081
| 52> C  -26.240   25.221   47.592
| 53> O  -25.033   24.715   46.903
| 54> H  -23.229   23.941   47.560
| 55> H  -24.839   23.479   49.359
| 56> O  -23.678   24.976   50.406
| 57> H  -26.654   25.086   49.760
| 58> H  -25.623   26.449   49.298
| 59> H  -26.552   26.161   47.124
| 60> H  -27.028   24.476   47.450
| 61> H  -23.404   26.030   50.289
| 62> *
| 63>
| 64>                          ****END OF INPUT****
 Total Charge           Charge          ....    0
 Multiplicity           Mult            ....    1
 Number of Electrons    NEL             ....  102
FINAL SINGLE POINT ENERGY      -652.824165677701
FINAL SINGLE POINT ENERGY      -652.847375933352
FINAL SINGLE POINT ENERGY      -652.852098451079
FINAL SINGLE POINT ENERGY      -652.853079887230
FINAL SINGLE POINT ENERGY      -652.853248480549
FINAL SINGLE POINT ENERGY      -652.853300956788
FINAL SINGLE POINT ENERGY      -652.853307044536
FINAL SINGLE POINT ENERGY      -652.853309127255
                    ***********************HURRAY********************

CARTESIAN COORDINATES (ANGSTROEM)
---------------------------------
  C    -21.094637   26.219081   46.355111
  C    -20.452129   27.542938   45.938248
  C    -20.237548   28.235251   47.305237
  C    -19.899589   27.057882   48.246590
  O    -20.371285   25.831048   47.543085
  H    -20.964498   25.405576   45.638066
  H    -19.494789   27.340388   45.444188
  H    -21.092514   28.111371   45.260846
  H    -19.440501   28.984635   47.278754
  H    -21.160804   28.734175   47.618621
  H    -20.395690   27.120586   49.219356
  H    -18.824484   26.930454   48.401202
  C    -23.138419   26.167154   47.840311
  H    -22.377739   26.148539   48.626555
  H    -23.819079   27.011902   47.999796
  O    -22.532468   26.386810   46.538715
  C    -23.894855   24.837068   47.876763
  C    -24.603259   24.565222   49.214740
  C    -25.932728   25.362960   49.043764
  C    -26.237747   25.190736   47.539393
  O    -24.971017   24.770089   46.891306
  H    -23.195114   24.038726   47.613982
  H    -24.809656   23.496757   49.306335
  O    -23.845092   24.891034   50.406255
  H    -26.729172   24.982885   49.689158
  H    -25.763084   26.417514   49.300602
  H    -26.591516   26.112852   47.067650
  H    -26.970362   24.398577   47.354665
  H    -23.811223   25.860790   50.535707

 Multiplicity           Mult            ....    1
 Number of Electrons    NEL             ....  102
 Basis Dimension        Dim             ....  149

ORBITAL ENERGIES
----------------

  NO   OCC          E(Eh)            E(eV)
   0   2.0000     -19.150913      -521.1228
   1   2.0000     -19.147382      -521.0268
   2   2.0000     -19.133009      -520.6356
   3   2.0000     -19.131210      -520.5867
   4   2.0000     -10.276624      -279.6412
   5   2.0000     -10.241365      -278.6817
   6   2.0000     -10.233485      -278.4673
   7   2.0000     -10.226346      -278.2730
   8   2.0000     -10.225408      -278.2475
   9   2.0000     -10.223164      -278.1864
  10   2.0000     -10.193019      -277.3661
  11   2.0000     -10.191680      -277.3297
  12   2.0000     -10.184365      -277.1306
  13   2.0000      -1.053306       -28.6619
  14   2.0000      -1.030040       -28.0288
  15   2.0000      -1.011176       -27.5155
  16   2.0000      -0.988792       -26.9064
  17   2.0000      -0.790669       -21.5152
  18   2.0000      -0.778658       -21.1884
  19   2.0000      -0.765251       -20.8236
  20   2.0000      -0.732971       -19.9452
  21   2.0000      -0.676689       -18.4136
  22   2.0000      -0.607899       -16.5418
  23   2.0000      -0.604020       -16.4362
  24   2.0000      -0.596573       -16.2336
  25   2.0000      -0.563979       -15.3466
  26   2.0000      -0.524361       -14.2686
  27   2.0000      -0.510831       -13.9004
  28   2.0000      -0.499338       -13.5877
  29   2.0000      -0.495317       -13.4783
  30   2.0000      -0.468232       -12.7412
  31   2.0000      -0.458361       -12.4726
  32   2.0000      -0.440033       -11.9739
  33   2.0000      -0.429207       -11.6793
  34   2.0000      -0.422098       -11.4859
  35   2.0000      -0.416694       -11.3388
  36   2.0000      -0.411685       -11.2025
  37   2.0000      -0.395803       -10.7704
  38   2.0000      -0.374634       -10.1943
  39   2.0000      -0.372063       -10.1244
  40   2.0000      -0.360639        -9.8135
  41   2.0000      -0.351679        -9.5697
  42   2.0000      -0.348805        -9.4915
  43   2.0000      -0.331722        -9.0266
  44   2.0000      -0.325940        -8.8693
  45   2.0000      -0.311549        -8.4777
  46   2.0000      -0.300195        -8.1687
  47   2.0000      -0.268131        -7.2962
  48   2.0000      -0.264110        -7.1868
  49   2.0000      -0.255969        -6.9653
  50   2.0000      -0.227212        -6.1828
  51   0.0000       0.050579         1.3763
  52   0.0000       0.076214         2.0739
  53   0.0000       0.087029         2.3682
  54   0.0000       0.092859         2.5268
  55   0.0000       0.104775         2.8511

MULLIKEN ATOMIC CHARGES
-----------------------
   0 C :    0.297625
   1 C :   -0.255800
   2 C :   -0.306588
   3 C :   -0.019859
   4 O :   -0.511271
   5 H :    0.161143
   6 H :    0.143995
   7 H :    0.162320
   8 H :    0.147695
   9 H :    0.151956
  10 H :    0.141343
  11 H :    0.153687
  12 C :   -0.025490
  13 H :    0.151727
  14 H :    0.126622
  15 O :   -0.525082
  16 C :    0.096584
  17 C :    0.078196
  18 C :   -0.322455
  19 C :   -0.011141
  20 O :   -0.505273
  21 H :    0.165072
  22 H :    0.169280
  23 O :   -0.596818
  24 H :    0.157111
  25 H :    0.129732
  26 H :    0.144623
  27 H :    0.148897
  28 H :    0.352167
Sum of atomic charges:    0.0000000

LOEWDIN ATOMIC CHARGES
----------------------
   0 C :    0.182706
   1 C :   -0.220294
   2 C :   -0.220176
   3 C :   -0.033526
   4 O :   -0.318901
   5 H :    0.106688
   6 H :    0.113550
   7 H :    0.126559
   8 H :    0.117510
   9 H :    0.113079
  10 H :    0.099775
  11 H :    0.108234
  12 C :   -0.053489
  13 H :    0.110063
  14 H :    0.096751
  15 O :   -0.328667
  16 C :    0.014435
  17 C :    0.032718
  18 C :   -0.241695
  19 C :   -0.030973
  20 O :   -0.314969
  21 H :    0.119706
  22 H :    0.120161
  23 O :   -0.407019
  24 H :    0.122109
  25 H :    0.102098
  26 H :    0.103118
  27 H :    0.105237
  28 H :    0.275210

  Mayer bond orders larger than 0.100000
B(  0-C ,  1-C ) :   0.9291 B(  0-C ,  4-O ) :   0.9062 B(  0-C ,  5-H ) :   0.9281
B(  0-C , 15-O ) :   0.8510 B(  1-C ,  2-C ) :   0.9534 B(  1-C ,  6-H ) :   0.9354
B(  1-C ,  7-H ) :   0.9359 B(  2-C ,  3-C ) :   0.9519 B(  2-C ,  8-H ) :   0.9449
B(  2-C ,  9-H ) :   0.9459 B(  3-C ,  4-O ) :   0.8315 B(  3-C , 10-H ) :   0.9316
B(  3-C , 11-H ) :   0.9406 B( 12-C , 13-H ) :   0.8918 B( 12-C , 14-H ) :   0.9344
B( 12-C , 15-O ) :   0.8557 B( 12-C , 16-C ) :   0.8940 B( 16-C , 17-C ) :   0.8699
B( 16-C , 20-O ) :   0.8682 B( 16-C , 21-H ) :   0.9313 B( 17-C , 18-C ) :   0.9246
B( 17-C , 22-H ) :   0.9322 B( 17-C , 23-O ) :   0.8953 B( 18-C , 19-C ) :   0.9385
B( 18-C , 24-H ) :   0.9416 B( 18-C , 25-H ) :   0.9417 B( 19-C , 20-O ) :   0.8532
B( 19-C , 26-H ) :   0.9313 B( 19-C , 27-H ) :   0.9374 B( 23-O , 28-H ) :   0.7995

FINAL SINGLE POINT ENERGY      -652.853309431938

DIPOLE MOMENT
-------------
                                X             Y             Z
Electronic contribution:     -0.40989      -4.58678      -1.34403
Nuclear contribution   :      0.38901       5.92188       1.91432
                        -----------------------------------------
Total Dipole Moment    :     -0.02088       1.33511       0.57029
                        -----------------------------------------
Magnitude (a.u.)       :      1.45196
Magnitude (Debye)      :      3.69058

Rotational constants in cm-1:     0.052587     0.014015     0.012380
Rotational constants in MHz :  1576.524296   420.146254   371.150515

                             ****ORCA TERMINATED NORMALLY****
TOTAL RUN TIME: 0 days 1 hours 58 minutes 2 seconds 210 msec
