                         Program Version 4.2.1 -  RELEASE  -
|  1> # Test redundant internal optimization
|  2> #
|  3> ! RKS B3LYP  Opt TightSCF SmallPrint
|  4>
|  5> %basis
|  6>         Basis "6-31G"
|  7> end
|  8>
|  9> %geom
| 10> Constraints
| 11> { D 4  0  19  14  240.0   C } # D for Dihedral angle
| 12> { D 0  19  14  12  270.0   C } # D for Dihedral angle
| 13> { D 0  4  3  2   C } # D for Dihedral angle
| 14> { D 4  3  2  1   C } # D for Dihedral angle
| 15> { D 3  2  1  0   C } # D for Dihedral angle
| 16> { D 2  1  0  4   C } # D for Dihedral angle
| 17> { D 1  0  4  3   C } # D for Dihedral angle
| 18> { D 14  15  16  17   C } # D for Dihedral angle
| 19> { D 15  16  17  12   C } # D for Dihedral angle
| 20> { D 16  17  12  14   C } # D for Dihedral angle
| 21> { D 17  12  14  15   C } # D for Dihedral angle
| 22> { D 12  14  15  16   C } # D for Dihedral angle
| 23> end
| 24> end
| 25>
| 26>
| 27> #%pal
| 28> #nprocs 8
| 29> #end
| 30>
| 31> * xyz 0 1
| 32> C  -21.048   26.222   46.251
| 33> C  -20.361   27.558   45.944
| 34> C  -20.329   28.222   47.341
| 35> C  -20.110   27.022   48.296
| 36> O  -20.473   25.807   47.535
| 37> H  -20.833   25.428   45.533
| 38> H  -19.344   27.382   45.576
| 39> H  -20.898   28.157   45.201
| 40> H  -19.543   28.978   47.434
| 41> H  -21.289   28.710   47.548
| 42> H  -20.733   27.082   49.195
| 43> H  -19.064   26.913   48.597
| 44> C  -23.483   26.234   44.157
| 45> H  -24.292   25.746   43.591
| 46> C  -23.235   25.530   45.496
| 47> C  -22.398   24.306   45.056
| 48> C  -21.546   24.863   43.888
| 49> O  -22.209   26.108   43.441
| 50> H  -23.698   27.301   44.240
| 51> O  -22.472   26.381   46.366
| 52> H  -24.160   25.249   46.011
| 53> H  -21.783   23.900   45.865
| 54> H  -23.059   23.504   44.704
| 55> H  -21.483   24.167   43.045
| 56> H  -20.533   25.132   44.202
| 57> *
| 58>
| 59>                          ****END OF INPUT****
 Total Charge           Charge          ....    0
 Multiplicity           Mult            ....    1
 Number of Electrons    NEL             ....   86
FINAL SINGLE POINT ENERGY      -538.401297512251
FINAL SINGLE POINT ENERGY      -538.426715494698
FINAL SINGLE POINT ENERGY      -538.428809063076
FINAL SINGLE POINT ENERGY      -538.429153882752
FINAL SINGLE POINT ENERGY      -538.429194876621
FINAL SINGLE POINT ENERGY      -538.429205908117
FINAL SINGLE POINT ENERGY      -538.429207251517
                    ***********************HURRAY********************

CARTESIAN COORDINATES (ANGSTROEM)
---------------------------------
  C    -20.787238   26.306526   46.264390
  C    -20.257430   27.727544   46.071763
  C    -20.419515   28.323354   47.490526
  C    -20.123887   27.115690   48.408191
  O    -20.273198   25.911269   47.554914
  H    -20.424179   25.574373   45.547161
  H    -19.199603   27.685639   45.785982
  H    -20.809777   28.269446   45.301915
  H    -19.743453   29.163234   47.675103
  H    -21.448762   28.667655   47.628584
  H    -20.816208   27.037784   49.250634
  H    -19.095860   27.109636   48.783653
  C    -23.415374   26.227832   44.129462
  H    -24.363188   25.851530   43.718352
  C    -23.080332   25.528180   45.449399
  C    -22.514525   24.184924   44.949969
  C    -21.769216   24.564561   43.644733
  O    -22.295859   25.890863   43.236727
  H    -23.454289   27.313861   44.221169
  O    -22.234201   26.347623   46.306600
  H    -23.978731   25.376723   46.055744
  H    -21.872752   23.700050   45.691746
  H    -23.352322   23.512509   44.737995
  H    -21.958677   23.848409   42.836545
  H    -20.687423   24.662786   43.771741

 Multiplicity           Mult            ....    1
 Number of Electrons    NEL             ....   86
 Basis Dimension        Dim             ....  127

ORBITAL ENERGIES
----------------

  NO   OCC          E(Eh)            E(eV)
   0   2.0000     -19.137515      -520.7583
   1   2.0000     -19.136761      -520.7377
   2   2.0000     -19.132656      -520.6260
   3   2.0000     -10.274709      -279.5890
   4   2.0000     -10.242957      -278.7250
   5   2.0000     -10.229669      -278.3634
   6   2.0000     -10.223134      -278.1856
   7   2.0000     -10.219379      -278.0834
   8   2.0000     -10.193523      -277.3799
   9   2.0000     -10.179696      -277.0036
  10   2.0000     -10.178163      -276.9619
  11   2.0000      -1.047799       -28.5121
  12   2.0000      -1.016790       -27.6683
  13   2.0000      -0.986625       -26.8474
  14   2.0000      -0.790090       -21.4994
  15   2.0000      -0.775068       -21.0907
  16   2.0000      -0.747541       -20.3416
  17   2.0000      -0.718596       -19.5540
  18   2.0000      -0.616396       -16.7730
  19   2.0000      -0.606121       -16.4934
  20   2.0000      -0.592186       -16.1142
  21   2.0000      -0.566731       -15.4215
  22   2.0000      -0.525213       -14.2918
  23   2.0000      -0.503589       -13.7034
  24   2.0000      -0.481077       -13.0908
  25   2.0000      -0.477047       -12.9811
  26   2.0000      -0.453220       -12.3328
  27   2.0000      -0.438760       -11.9393
  28   2.0000      -0.428768       -11.6674
  29   2.0000      -0.416142       -11.3238
  30   2.0000      -0.402927       -10.9642
  31   2.0000      -0.395028       -10.7493
  32   2.0000      -0.373005       -10.1500
  33   2.0000      -0.368320       -10.0225
  34   2.0000      -0.358217        -9.7476
  35   2.0000      -0.350780        -9.5452
  36   2.0000      -0.343597        -9.3498
  37   2.0000      -0.315866        -8.5952
  38   2.0000      -0.308837        -8.4039
  39   2.0000      -0.294696        -8.0191
  40   2.0000      -0.262081        -7.1316
  41   2.0000      -0.251379        -6.8404
  42   2.0000      -0.234548        -6.3824
  43   0.0000       0.073851         2.0096
  44   0.0000       0.094906         2.5825
  45   0.0000       0.100958         2.7472
  46   0.0000       0.107348         2.9211
  47   0.0000       0.109142         2.9699

MULLIKEN ATOMIC CHARGES
-----------------------
   0 C :    0.286049
   1 C :   -0.249173
   2 C :   -0.298339
   3 C :   -0.000913
   4 O :   -0.509022
   5 H :    0.143783
   6 H :    0.139927
   7 H :    0.154954
   8 H :    0.137873
   9 H :    0.160150
  10 H :    0.148657
  11 H :    0.138452
  12 C :   -0.007601
  13 H :    0.124431
  14 C :    0.094033
  15 C :   -0.334242
  16 C :   -0.020327
  17 O :   -0.524480
  18 H :    0.164221
  19 O :   -0.526658
  20 H :    0.150543
  21 H :    0.174602
  22 H :    0.156054
  23 H :    0.142315
  24 H :    0.154713
Sum of atomic charges:    0.0000000

LOEWDIN ATOMIC CHARGES
----------------------
   0 C :    0.175072
   1 C :   -0.216949
   2 C :   -0.216709
   3 C :   -0.027053
   4 O :   -0.322002
   5 H :    0.102308
   6 H :    0.111341
   7 H :    0.121959
   8 H :    0.112302
   9 H :    0.118179
  10 H :    0.105909
  11 H :    0.100401
  12 C :   -0.047641
  13 H :    0.092546
  14 C :    0.045724
  15 C :   -0.242800
  16 C :   -0.038914
  17 O :   -0.337225
  18 H :    0.119543
  19 O :   -0.325560
  20 H :    0.112602
  21 H :    0.130953
  22 H :    0.123057
  23 H :    0.101297
  24 H :    0.101657

  Mayer bond orders larger than 0.100000
B(  0-C ,  1-C ) :   0.9425 B(  0-C ,  4-O ) :   0.9191 B(  0-C ,  5-H ) :   0.9084
B(  0-C , 19-O ) :   0.8369 B(  1-C ,  2-C ) :   0.9565 B(  1-C ,  6-H ) :   0.9385
B(  1-C ,  7-H ) :   0.9367 B(  2-C ,  3-C ) :   0.9537 B(  2-C ,  8-H ) :   0.9458
B(  2-C ,  9-H ) :   0.9440 B(  3-C ,  4-O ) :   0.8398 B(  3-C , 10-H ) :   0.9353
B(  3-C , 11-H ) :   0.9400 B( 12-C , 13-H ) :   0.9131 B( 12-C , 14-C ) :   0.9098
B( 12-C , 17-O ) :   0.8622 B( 12-C , 18-H ) :   0.9320 B( 14-C , 15-C ) :   0.9372
B( 14-C , 19-O ) :   0.8739 B( 14-C , 20-H ) :   0.9342 B( 15-C , 16-C ) :   0.9424
B( 15-C , 21-H ) :   0.9301 B( 15-C , 22-H ) :   0.9361 B( 16-C , 17-O ) :   0.8566
B( 16-C , 23-H ) :   0.9321 B( 16-C , 24-H ) :   0.9245

FINAL SINGLE POINT ENERGY      -538.429207537960

DIPOLE MOMENT
-------------
                                X             Y             Z
Electronic contribution:     -0.78044      -1.10965      -0.16034
Nuclear contribution   :      0.59213       1.04628       0.22385
                        -----------------------------------------
Total Dipole Moment    :     -0.18830      -0.06336       0.06351
                        -----------------------------------------
Magnitude (a.u.)       :      0.20858
Magnitude (Debye)      :      0.53017

Rotational constants in cm-1:     0.078900     0.022213     0.021101
Rotational constants in MHz :  2365.373369   665.934676   632.578854

                             ****ORCA TERMINATED NORMALLY****
TOTAL RUN TIME: 0 days 0 hours 8 minutes 17 seconds 459 msec
