                         Program Version 4.2.0 -  RELEASE  -
|  1> # Test redundant internal optimization
|  2> #
|  3> ! RKS B3LYP  Opt TightSCF SmallPrint
|  4>
|  5> %basis
|  6>         Basis "6-31G"
|  7> end
|  8>
|  9> %geom
| 10> Constraints
| 11> { D 4  0  15  12  345.0   C } # D for Dihedral angle
| 12> { D 0  15  12  16  300.0   C } # D for Dihedral angle
| 13> { D 0  4  3  2   C } # D for Dihedral angle
| 14> { D 4  3  2  1   C } # D for Dihedral angle
| 15> { D 3  2  1  0   C } # D for Dihedral angle
| 16> { D 2  1  0  4   C } # D for Dihedral angle
| 17> { D 1  0  4  3   C } # D for Dihedral angle
| 18> { D 16  20  19  18   C } # D for Dihedral angle
| 19> { D 20  19  18  17   C } # D for Dihedral angle
| 20> { D 19  18  17  16   C } # D for Dihedral angle
| 21> { D 18  17  16  20   C } # D for Dihedral angle
| 22> { D 17  16  20  19   C } # D for Dihedral angle
| 23> { D 15  12  16  20   C } # D for Dihedral angle
| 24> end
| 25> end
| 26>
| 27>
| 28> #%pal
| 29> #nprocs 8
| 30> #end
| 31>
| 32> * xyz 0 1
| 33> C  -21.048   26.222   46.251
| 34> C  -20.361   27.558   45.944
| 35> C  -20.329   28.222   47.341
| 36> C  -20.110   27.022   48.296
| 37> O  -20.473   25.807   47.535
| 38> H  -20.833   25.428   45.533
| 39> H  -19.344   27.382   45.576
| 40> H  -20.898   28.157   45.201
| 41> H  -19.543   28.978   47.434
| 42> H  -21.289   28.710   47.548
| 43> H  -20.733   27.082   49.195
| 44> H  -19.064   26.913   48.597
| 45> C  -23.221   25.764   47.645
| 46> H  -22.786   26.232   48.537
| 47> H  -24.304   25.939   47.660
| 48> O  -22.586   26.394   46.375
| 49> C  -22.988   24.231   47.735
| 50> C  -23.492   23.516   46.476
| 51> C  -22.339   23.787   45.480
| 52> C  -21.080   23.755   46.381
| 53> O  -21.553   23.931   47.772
| 54> H  -23.416   23.858   48.668
| 55> H  -23.591   22.442   46.668
| 56> O  -24.860   24.053   45.975
| 57> H  -22.293   23.050   44.672
| 58> H  -22.461   24.777   45.023
| 59> H  -20.370   24.553   46.140
| 60> H  -20.560   22.793   46.338
| 61> H  -24.783   25.128   45.776
| 62> *
| 63>
| 64>                          ****END OF INPUT****
 Total Charge           Charge          ....    0
 Multiplicity           Mult            ....    1
 Number of Electrons    NEL             ....  102
FINAL SINGLE POINT ENERGY      -652.733981764698
FINAL SINGLE POINT ENERGY      -652.824431688470
FINAL SINGLE POINT ENERGY      -652.845973329506
FINAL SINGLE POINT ENERGY      -652.850935539916
FINAL SINGLE POINT ENERGY      -652.851769572939
FINAL SINGLE POINT ENERGY      -652.852062413426
FINAL SINGLE POINT ENERGY      -652.852181063538
FINAL SINGLE POINT ENERGY      -652.852240562545
FINAL SINGLE POINT ENERGY      -652.852256386163
                    ***********************HURRAY********************

CARTESIAN COORDINATES (ANGSTROEM)
---------------------------------
  C    -20.986678   26.527442   46.217826
  C    -20.543467   27.980470   46.054052
  C    -20.361438   28.425661   47.524181
  C    -19.830114   27.149074   48.212745
  O    -20.169351   26.027937   47.291079
  H    -20.788981   25.882375   45.358454
  H    -19.590456   28.007900   45.512715
  H    -21.280125   28.576458   45.511508
  H    -19.673281   29.270006   47.626139
  H    -21.328673   28.720106   47.942893
  H    -20.289455   26.950628   49.184316
  H    -18.741469   27.142445   48.320351
  C    -23.094865   25.794493   47.539884
  H    -22.766629   26.213801   48.500621
  H    -24.148462   26.051046   47.399685
  O    -22.420069   26.523740   46.467560
  C    -23.008570   24.260225   47.655919
  C    -23.610963   23.518023   46.450892
  C    -22.377694   23.380773   45.503147
  C    -21.213746   23.180748   46.501058
  O    -21.705989   23.647952   47.821185
  H    -23.568095   24.028124   48.571359
  H    -23.975250   22.535513   46.757843
  O    -24.754768   24.167743   45.845839
  H    -22.485542   22.550087   44.800340
  H    -22.268057   24.308607   44.930569
  H    -20.314888   23.749095   46.252932
  H    -20.950808   22.125446   46.620606
  H    -24.460117   24.988082   45.396303

 Multiplicity           Mult            ....    1
 Number of Electrons    NEL             ....  102
 Basis Dimension        Dim             ....  149

ORBITAL ENERGIES
----------------

  NO   OCC          E(Eh)            E(eV)
   0   2.0000     -19.147189      -521.0215
   1   2.0000     -19.142591      -520.8964
   2   2.0000     -19.137872      -520.7680
   3   2.0000     -19.129852      -520.5497
   4   2.0000     -10.282803      -279.8093
   5   2.0000     -10.233851      -278.4772
   6   2.0000     -10.230151      -278.3766
   7   2.0000     -10.230107      -278.3754
   8   2.0000     -10.227197      -278.2962
   9   2.0000     -10.218242      -278.0525
  10   2.0000     -10.189890      -277.2810
  11   2.0000     -10.186834      -277.1978
  12   2.0000     -10.183758      -277.1141
  13   2.0000      -1.054217       -28.6867
  14   2.0000      -1.024629       -27.8816
  15   2.0000      -1.006909       -27.3994
  16   2.0000      -0.992645       -27.0112
  17   2.0000      -0.790977       -21.5236
  18   2.0000      -0.770899       -20.9772
  19   2.0000      -0.766844       -20.8669
  20   2.0000      -0.733402       -19.9569
  21   2.0000      -0.677139       -18.4259
  22   2.0000      -0.605874       -16.4867
  23   2.0000      -0.602249       -16.3880
  24   2.0000      -0.599893       -16.3239
  25   2.0000      -0.556254       -15.1364
  26   2.0000      -0.527468       -14.3531
  27   2.0000      -0.507181       -13.8011
  28   2.0000      -0.498503       -13.5650
  29   2.0000      -0.482124       -13.1193
  30   2.0000      -0.469365       -12.7721
  31   2.0000      -0.460377       -12.5275
  32   2.0000      -0.438596       -11.9348
  33   2.0000      -0.428288       -11.6543
  34   2.0000      -0.418167       -11.3789
  35   2.0000      -0.411494       -11.1973
  36   2.0000      -0.406722       -11.0675
  37   2.0000      -0.391702       -10.6588
  38   2.0000      -0.377402       -10.2696
  39   2.0000      -0.372473       -10.1355
  40   2.0000      -0.359819        -9.7912
  41   2.0000      -0.355768        -9.6809
  42   2.0000      -0.345148        -9.3920
  43   2.0000      -0.331914        -9.0319
  44   2.0000      -0.320360        -8.7174
  45   2.0000      -0.307310        -8.3623
  46   2.0000      -0.297270        -8.0891
  47   2.0000      -0.268758        -7.3133
  48   2.0000      -0.260333        -7.0840
  49   2.0000      -0.256675        -6.9845
  50   2.0000      -0.227328        -6.1859
  51   0.0000       0.064296         1.7496
  52   0.0000       0.086177         2.3450
  53   0.0000       0.090547         2.4639
  54   0.0000       0.095445         2.5972
  55   0.0000       0.103332         2.8118

MULLIKEN ATOMIC CHARGES
-----------------------
   0 C :    0.313844
   1 C :   -0.255390
   2 C :   -0.305776
   3 C :   -0.015032
   4 O :   -0.500597
   5 H :    0.138794
   6 H :    0.143303
   7 H :    0.157531
   8 H :    0.145543
   9 H :    0.156964
  10 H :    0.153192
  11 H :    0.150872
  12 C :   -0.021645
  13 H :    0.135921
  14 H :    0.160040
  15 O :   -0.563438
  16 C :    0.099942
  17 C :    0.085192
  18 C :   -0.322476
  19 C :   -0.009319
  20 O :   -0.507443
  21 H :    0.144358
  22 H :    0.161216
  23 O :   -0.606905
  24 H :    0.151692
  25 H :    0.143442
  26 H :    0.159709
  27 H :    0.140545
  28 H :    0.365918
Sum of atomic charges:   -0.0000000

LOEWDIN ATOMIC CHARGES
----------------------
   0 C :    0.180027
   1 C :   -0.216413
   2 C :   -0.218176
   3 C :   -0.029980
   4 O :   -0.307684
   5 H :    0.093387
   6 H :    0.112504
   7 H :    0.124431
   8 H :    0.116403
   9 H :    0.116075
  10 H :    0.107132
  11 H :    0.106783
  12 C :   -0.046103
  13 H :    0.098594
  14 H :    0.120356
  15 O :   -0.356891
  16 C :    0.007806
  17 C :    0.033134
  18 C :   -0.242002
  19 C :   -0.030143
  20 O :   -0.310426
  21 H :    0.114616
  22 H :    0.115754
  23 O :   -0.411566
  24 H :    0.119341
  25 H :    0.108870
  26 H :    0.109543
  27 H :    0.102019
  28 H :    0.282609

  Mayer bond orders larger than 0.100000
B(  0-C ,  1-C ) :   0.9384 B(  0-C ,  4-O ) :   0.9199 B(  0-C ,  5-H ) :   0.9176
B(  0-C , 15-O ) :   0.8265 B(  1-C ,  2-C ) :   0.9551 B(  1-C ,  6-H ) :   0.9369
B(  1-C ,  7-H ) :   0.9363 B(  2-C ,  3-C ) :   0.9535 B(  2-C ,  8-H ) :   0.9448
B(  2-C ,  9-H ) :   0.9449 B(  3-C ,  4-O ) :   0.8285 B(  3-C , 10-H ) :   0.9321
B(  3-C , 11-H ) :   0.9396 B( 12-C , 13-H ) :   0.9288 B( 12-C , 14-H ) :   0.9188
B( 12-C , 15-O ) :   0.8371 B( 12-C , 16-C ) :   0.8852 B( 16-C , 17-C ) :   0.8813
B( 16-C , 20-O ) :   0.8901 B( 16-C , 21-H ) :   0.9195 B( 17-C , 18-C ) :   0.9279
B( 17-C , 22-H ) :   0.9369 B( 17-C , 23-O ) :   0.9003 B( 18-C , 19-C ) :   0.9436
B( 18-C , 24-H ) :   0.9417 B( 18-C , 25-H ) :   0.9324 B( 19-C , 20-O ) :   0.8366
B( 19-C , 26-H ) :   0.9174 B( 19-C , 27-H ) :   0.9391 B( 23-O , 28-H ) :   0.7892

FINAL SINGLE POINT ENERGY      -652.852259186798

DIPOLE MOMENT
-------------
                                X             Y             Z
Electronic contribution:     -2.42799      -3.18800       0.56725
Nuclear contribution   :      3.07558       4.03567      -0.82501
                        -----------------------------------------
Total Dipole Moment    :      0.64759       0.84767      -0.25777
                        -----------------------------------------
Magnitude (a.u.)       :      1.09744
Magnitude (Debye)      :      2.78946

Rotational constants in cm-1:     0.049740     0.017908     0.016222
Rotational constants in MHz :  1491.170554   536.875042   486.316983

                             ****ORCA TERMINATED NORMALLY****
TOTAL RUN TIME: 0 days 0 hours 37 minutes 42 seconds 530 msec
