                         Program Version 4.2.0 -  RELEASE  -
|  1> # Test redundant internal optimization
|  2> #
|  3> ! RKS B3LYP  Opt TightSCF SmallPrint
|  4>
|  5> %basis
|  6>         Basis "6-31G"
|  7> end
|  8>
|  9> %geom
| 10> Constraints
| 11> { D 4  0  15  12  315.0   C } # D for Dihedral angle
| 12> { D 0  15  12  16  105.0   C } # D for Dihedral angle
| 13> { D 0  4  3  2   C } # D for Dihedral angle
| 14> { D 4  3  2  1   C } # D for Dihedral angle
| 15> { D 3  2  1  0   C } # D for Dihedral angle
| 16> { D 2  1  0  4   C } # D for Dihedral angle
| 17> { D 1  0  4  3   C } # D for Dihedral angle
| 18> { D 16  20  19  18   C } # D for Dihedral angle
| 19> { D 20  19  18  17   C } # D for Dihedral angle
| 20> { D 19  18  17  16   C } # D for Dihedral angle
| 21> { D 18  17  16  20   C } # D for Dihedral angle
| 22> { D 17  16  20  19   C } # D for Dihedral angle
| 23> { D 15  12  16  20   C } # D for Dihedral angle
| 24> end
| 25> end
| 26>
| 27>
| 28> #%pal
| 29> #nprocs 8
| 30> #end
| 31>
| 32> * xyz 0 1
| 33> C  -21.048   26.222   46.251
| 34> C  -20.361   27.558   45.944
| 35> C  -20.329   28.222   47.341
| 36> C  -20.110   27.022   48.296
| 37> O  -20.473   25.807   47.535
| 38> H  -20.833   25.428   45.533
| 39> H  -19.344   27.382   45.576
| 40> H  -20.898   28.157   45.201
| 41> H  -19.543   28.978   47.434
| 42> H  -21.289   28.710   47.548
| 43> H  -20.733   27.082   49.195
| 44> H  -19.064   26.913   48.597
| 45> C  -23.319   25.255   47.135
| 46> H  -24.215   24.963   46.574
| 47> H  -22.670   24.374   47.226
| 48> O  -22.586   26.394   46.375
| 49> C  -23.753   25.671   48.568
| 50> C  -24.368   24.491   49.328
| 51> C  -23.107   23.711   49.770
| 52> C  -22.080   24.836   50.052
| 53> O  -22.584   26.047   49.369
| 54> H  -24.395   26.552   48.505
| 55> O  -25.157   25.004   50.563
| 56> H  -25.045   23.888   48.712
| 57> H  -23.284   23.079   50.646
| 58> H  -22.758   23.066   48.956
| 59> H  -21.081   24.598   49.669
| 60> H  -22.003   25.075   51.117
| 61> H  -24.497   25.611   51.195
| 62> *
| 63>
| 64>                          ****END OF INPUT****
 Total Charge           Charge          ....    0
 Multiplicity           Mult            ....    1
 Number of Electrons    NEL             ....  102
FINAL SINGLE POINT ENERGY      -652.837134537210
FINAL SINGLE POINT ENERGY      -652.860458319359
FINAL SINGLE POINT ENERGY      -652.863827172563
FINAL SINGLE POINT ENERGY      -652.865957419696
FINAL SINGLE POINT ENERGY      -652.866441927733
FINAL SINGLE POINT ENERGY      -652.866525765111
FINAL SINGLE POINT ENERGY      -652.866535144227
                    ***********************HURRAY********************

CARTESIAN COORDINATES (ANGSTROEM)
---------------------------------
  C    -21.071992   26.211450   46.281486
  C    -20.515219   27.594352   45.949546
  C    -20.356703   28.214148   47.354481
  C    -19.949580   27.013273   48.233252
  O    -20.336644   25.798202   47.450698
  H    -20.876403   25.435379   45.532302
  H    -19.544959   27.479141   45.452983
  H    -21.184863   28.161340   45.299185
  H    -19.614625   29.018593   47.378378
  H    -21.317814   28.616353   47.687350
  H    -20.478400   26.987924   49.183205
  H    -18.867865   26.942530   48.384505
  C    -23.216257   25.283614   47.151161
  H    -24.124468   25.087377   46.568389
  H    -22.605242   24.371287   47.163355
  O    -22.508414   26.338526   46.447239
  C    -23.638114   25.664173   48.575752
  C    -24.344146   24.507543   49.296626
  C    -23.140938   23.693369   49.843555
  C    -22.108461   24.792798   50.194716
  O    -22.529027   26.012949   49.459314
  H    -24.275926   26.552464   48.526563
  O    -25.195871   24.997364   50.368880
  H    -25.003593   23.921863   48.654221
  H    -23.442485   23.095882   50.707498
  H    -22.754693   23.018085   49.072676
  H    -21.094544   24.534976   49.879387
  H    -22.105509   25.043949   51.260164
  H    -24.724247   25.707096   50.854130

 Multiplicity           Mult            ....    1
 Number of Electrons    NEL             ....  102
 Basis Dimension        Dim             ....  149

ORBITAL ENERGIES
----------------

  NO   OCC          E(Eh)            E(eV)
   0   2.0000     -19.143659      -520.9255
   1   2.0000     -19.138828      -520.7940
   2   2.0000     -19.138669      -520.7897
   3   2.0000     -19.138010      -520.7717
   4   2.0000     -10.273194      -279.5478
   5   2.0000     -10.242682      -278.7175
   6   2.0000     -10.232915      -278.4518
   7   2.0000     -10.230067      -278.3743
   8   2.0000     -10.228368      -278.3281
   9   2.0000     -10.212462      -277.8952
  10   2.0000     -10.188989      -277.2565
  11   2.0000     -10.178731      -276.9773
  12   2.0000     -10.176622      -276.9200
  13   2.0000      -1.047936       -28.5158
  14   2.0000      -1.035325       -28.1726
  15   2.0000      -1.006093       -27.3772
  16   2.0000      -0.988994       -26.9119
  17   2.0000      -0.788134       -21.4462
  18   2.0000      -0.778610       -21.1871
  19   2.0000      -0.763951       -20.7882
  20   2.0000      -0.726920       -19.7805
  21   2.0000      -0.670123       -18.2350
  22   2.0000      -0.604135       -16.4394
  23   2.0000      -0.593600       -16.1527
  24   2.0000      -0.589279       -16.0351
  25   2.0000      -0.575402       -15.6575
  26   2.0000      -0.522333       -14.2134
  27   2.0000      -0.512549       -13.9472
  28   2.0000      -0.490477       -13.3465
  29   2.0000      -0.479010       -13.0345
  30   2.0000      -0.476806       -12.9745
  31   2.0000      -0.453833       -12.3494
  32   2.0000      -0.449680       -12.2364
  33   2.0000      -0.435544       -11.8518
  34   2.0000      -0.420759       -11.4494
  35   2.0000      -0.402915       -10.9639
  36   2.0000      -0.396553       -10.7908
  37   2.0000      -0.391059       -10.6413
  38   2.0000      -0.373154       -10.1540
  39   2.0000      -0.370973       -10.0947
  40   2.0000      -0.353930        -9.6309
  41   2.0000      -0.347875        -9.4662
  42   2.0000      -0.341698        -9.2981
  43   2.0000      -0.331663        -9.0250
  44   2.0000      -0.324633        -8.8337
  45   2.0000      -0.309061        -8.4100
  46   2.0000      -0.292681        -7.9643
  47   2.0000      -0.272509        -7.4153
  48   2.0000      -0.267087        -7.2678
  49   2.0000      -0.252806        -6.8792
  50   2.0000      -0.236853        -6.4451
  51   0.0000       0.067196         1.8285
  52   0.0000       0.090427         2.4606
  53   0.0000       0.092335         2.5126
  54   0.0000       0.100071         2.7231
  55   0.0000       0.107666         2.9297

MULLIKEN ATOMIC CHARGES
-----------------------
   0 C :    0.302998
   1 C :   -0.266870
   2 C :   -0.303134
   3 C :   -0.009626
   4 O :   -0.521570
   5 H :    0.140779
   6 H :    0.142483
   7 H :    0.157680
   8 H :    0.137408
   9 H :    0.164292
  10 H :    0.176356
  11 H :    0.133094
  12 C :   -0.009035
  13 H :    0.143878
  14 H :    0.137767
  15 O :   -0.526064
  16 C :    0.079827
  17 C :    0.073292
  18 C :   -0.298152
  19 C :   -0.028074
  20 O :   -0.522954
  21 H :    0.163937
  22 O :   -0.602881
  23 H :    0.152111
  24 H :    0.163100
  25 H :    0.148851
  26 H :    0.164569
  27 H :    0.141956
  28 H :    0.363984
Sum of atomic charges:   -0.0000000

LOEWDIN ATOMIC CHARGES
----------------------
   0 C :    0.176900
   1 C :   -0.215372
   2 C :   -0.215410
   3 C :   -0.034104
   4 O :   -0.329104
   5 H :    0.092155
   6 H :    0.112669
   7 H :    0.124354
   8 H :    0.111915
   9 H :    0.120053
  10 H :    0.119355
  11 H :    0.097216
  12 C :   -0.042375
  13 H :    0.109652
  14 H :    0.101610
  15 O :   -0.330614
  16 C :    0.011580
  17 C :    0.034222
  18 C :   -0.239531
  19 C :   -0.038822
  20 O :   -0.322161
  21 H :    0.116732
  22 O :   -0.414729
  23 H :    0.115166
  24 H :    0.126803
  25 H :    0.114951
  26 H :    0.113989
  27 H :    0.100115
  28 H :    0.282786

  Mayer bond orders larger than 0.100000
B(  0-C ,  1-C ) :   0.9473 B(  0-C ,  4-O ) :   0.9136 B(  0-C ,  5-H ) :   0.9244
B(  0-C , 15-O ) :   0.8504 B(  1-C ,  2-C ) :   0.9580 B(  1-C ,  6-H ) :   0.9396
B(  1-C ,  7-H ) :   0.9364 B(  2-C ,  3-C ) :   0.9636 B(  2-C ,  8-H ) :   0.9451
B(  2-C ,  9-H ) :   0.9427 B(  3-C ,  4-O ) :   0.8186 B(  3-C , 10-H ) :   0.9148
B(  3-C , 11-H ) :   0.9401 B( 12-C , 13-H ) :   0.9254 B( 12-C , 14-H ) :   0.9212
B( 12-C , 15-O ) :   0.8509 B( 12-C , 16-C ) :   0.8870 B( 16-C , 17-C ) :   0.8944
B( 16-C , 20-O ) :   0.8606 B( 16-C , 21-H ) :   0.9271 B( 17-C , 18-C ) :   0.9107
B( 17-C , 22-O ) :   0.8904 B( 17-C , 23-H ) :   0.9330 B( 18-C , 19-C ) :   0.9461
B( 18-C , 24-H ) :   0.9370 B( 18-C , 25-H ) :   0.9330 B( 19-C , 20-O ) :   0.8322
B( 19-C , 26-H ) :   0.9261 B( 19-C , 27-H ) :   0.9376 B( 22-O , 28-H ) :   0.7952

FINAL SINGLE POINT ENERGY      -652.866537203029

DIPOLE MOMENT
-------------
                                X             Y             Z
Electronic contribution:     -2.99031      -0.46781      -0.05706
Nuclear contribution   :      3.56889       0.32892       0.05820
                        -----------------------------------------
Total Dipole Moment    :      0.57858      -0.13889       0.00114
                        -----------------------------------------
Magnitude (a.u.)       :      0.59502
Magnitude (Debye)      :      1.51242

Rotational constants in cm-1:     0.055265     0.016254     0.014876
Rotational constants in MHz :  1656.799513   487.290268   445.972046

                             ****ORCA TERMINATED NORMALLY****
TOTAL RUN TIME: 0 days 0 hours 26 minutes 33 seconds 974 msec
