                         Program Version 4.2.0 -  RELEASE  -
|  1> # Test redundant internal optimization
|  2> #
|  3> ! RKS B3LYP  Opt TightSCF SmallPrint
|  4>
|  5> %basis
|  6>         Basis "6-31G"
|  7> end
|  8>
|  9> %geom
| 10> Constraints
| 11> { D 4  0  15  12  15.0   C } # D for Dihedral angle
| 12> { D 0  15  12  16  240.0   C } # D for Dihedral angle
| 13> { D 0  4  3  2   C } # D for Dihedral angle
| 14> { D 4  3  2  1   C } # D for Dihedral angle
| 15> { D 3  2  1  0   C } # D for Dihedral angle
| 16> { D 2  1  0  4   C } # D for Dihedral angle
| 17> { D 1  0  4  3   C } # D for Dihedral angle
| 18> { D 16  20  19  18   C } # D for Dihedral angle
| 19> { D 20  19  18  17   C } # D for Dihedral angle
| 20> { D 19  18  17  16   C } # D for Dihedral angle
| 21> { D 18  17  16  20   C } # D for Dihedral angle
| 22> { D 17  16  20  19   C } # D for Dihedral angle
| 23> { D 15  12  16  20   C } # D for Dihedral angle
| 24> end
| 25> end
| 26>
| 27>
| 28> #%pal
| 29> #nprocs 8
| 30> #end
| 31>
| 32> * xyz 0 1
| 33> C  -21.048   26.222   46.251
| 34> C  -20.361   27.558   45.944
| 35> C  -20.329   28.222   47.341
| 36> C  -20.110   27.022   48.296
| 37> O  -20.473   25.807   47.535
| 38> H  -20.833   25.428   45.533
| 39> H  -19.344   27.382   45.576
| 40> H  -20.898   28.157   45.201
| 41> H  -19.543   28.978   47.434
| 42> H  -21.289   28.710   47.548
| 43> H  -20.733   27.082   49.195
| 44> H  -19.064   26.913   48.597
| 45> C  -23.128   26.462   47.829
| 46> H  -22.289   26.382   48.532
| 47> H  -23.633   27.421   48.006
| 48> O  -22.586   26.394   46.375
| 49> C  -24.142   25.328   48.146
| 50> C  -24.742   25.493   49.547
| 51> C  -25.807   26.588   49.304
| 52> C  -26.319   26.271   47.877
| 53> O  -25.297   25.408   47.247
| 54> H  -23.664   24.362   47.970
| 55> H  -25.214   24.558   49.867
| 56> O  -23.691   25.902   50.616
| 57> H  -26.610   26.572   50.049
| 58> H  -25.341   27.581   49.336
| 59> H  -26.451   27.173   47.269
| 60> H  -27.257   25.709   47.885
| 61> H  -23.205   26.837   50.318
| 62> *
| 63>
| 64>                          ****END OF INPUT****
 Total Charge           Charge          ....    0
 Multiplicity           Mult            ....    1
 Number of Electrons    NEL             ....  102
FINAL SINGLE POINT ENERGY      -652.820541393654
FINAL SINGLE POINT ENERGY      -652.844465638987
FINAL SINGLE POINT ENERGY      -652.849014756127
FINAL SINGLE POINT ENERGY      -652.851543063909
FINAL SINGLE POINT ENERGY      -652.851762493636
FINAL SINGLE POINT ENERGY      -652.851840010778
FINAL SINGLE POINT ENERGY      -652.851847518161
FINAL SINGLE POINT ENERGY      -652.851849538777
                    ***********************HURRAY********************

CARTESIAN COORDINATES (ANGSTROEM)
---------------------------------
  C    -21.120646   26.250987   46.379951
  C    -20.425739   27.535171   45.920092
  C    -20.135417   28.240944   47.268798
  C    -19.827994   27.061459   48.219593
  O    -20.380402   25.849322   47.553283
  H    -21.046114   25.426255   45.668917
  H    -19.493428   27.276366   45.404930
  H    -21.055338   28.122509   45.248666
  H    -19.302423   28.947633   47.206019
  H    -21.021151   28.793789   47.601384
  H    -20.286389   27.165418   49.207403
  H    -18.755461   26.885221   48.342188
  C    -23.104171   26.555231   47.920024
  H    -22.319687   26.454181   48.675659
  H    -23.574828   27.544014   48.002023
  O    -22.550015   26.442740   46.582935
  C    -24.120275   25.435612   48.151441
  C    -24.801048   25.491682   49.530500
  C    -25.943303   26.522932   49.281939
  C    -26.352646   26.228460   47.821670
  O    -25.233719   25.471920   47.208761
  H    -23.612275   24.482300   47.980534
  H    -25.217369   24.511169   49.770150
  O    -23.931022   25.799929   50.648277
  H    -26.768874   26.405317   49.989001
  H    -25.547687   27.541725   49.390128
  H    -26.532479   27.136635   47.237881
  H    -27.240829   25.591759   47.762564
  H    -23.700274   26.751321   50.649291

 Multiplicity           Mult            ....    1
 Number of Electrons    NEL             ....  102
 Basis Dimension        Dim             ....  149

ORBITAL ENERGIES
----------------

  NO   OCC          E(Eh)            E(eV)
   0   2.0000     -19.151021      -521.1258
   1   2.0000     -19.148343      -521.0529
   2   2.0000     -19.133647      -520.6530
   3   2.0000     -19.131677      -520.5994
   4   2.0000     -10.277126      -279.6548
   5   2.0000     -10.241780      -278.6930
   6   2.0000     -10.234519      -278.4954
   7   2.0000     -10.226733      -278.2836
   8   2.0000     -10.226519      -278.2777
   9   2.0000     -10.223805      -278.2039
  10   2.0000     -10.193819      -277.3879
  11   2.0000     -10.193441      -277.3776
  12   2.0000     -10.185214      -277.1538
  13   2.0000      -1.053623       -28.6705
  14   2.0000      -1.030988       -28.0546
  15   2.0000      -1.012167       -27.5425
  16   2.0000      -0.990146       -26.9432
  17   2.0000      -0.790944       -21.5227
  18   2.0000      -0.779546       -21.2125
  19   2.0000      -0.767278       -20.8787
  20   2.0000      -0.733189       -19.9511
  21   2.0000      -0.677884       -18.4462
  22   2.0000      -0.608657       -16.5624
  23   2.0000      -0.605150       -16.4670
  24   2.0000      -0.596790       -16.2395
  25   2.0000      -0.565865       -15.3980
  26   2.0000      -0.524540       -14.2735
  27   2.0000      -0.511450       -13.9173
  28   2.0000      -0.500519       -13.6198
  29   2.0000      -0.495657       -13.4875
  30   2.0000      -0.468939       -12.7605
  31   2.0000      -0.460476       -12.5302
  32   2.0000      -0.441582       -12.0160
  33   2.0000      -0.429499       -11.6873
  34   2.0000      -0.422332       -11.4922
  35   2.0000      -0.416757       -11.3405
  36   2.0000      -0.413964       -11.2645
  37   2.0000      -0.396519       -10.7898
  38   2.0000      -0.376581       -10.2473
  39   2.0000      -0.372513       -10.1366
  40   2.0000      -0.361568        -9.8388
  41   2.0000      -0.352531        -9.5929
  42   2.0000      -0.349075        -9.4988
  43   2.0000      -0.331388        -9.0175
  44   2.0000      -0.325606        -8.8602
  45   2.0000      -0.312757        -8.5106
  46   2.0000      -0.301899        -8.2151
  47   2.0000      -0.268741        -7.3128
  48   2.0000      -0.264682        -7.2024
  49   2.0000      -0.254278        -6.9193
  50   2.0000      -0.228941        -6.2298
  51   0.0000       0.048351         1.3157
  52   0.0000       0.074879         2.0376
  53   0.0000       0.086756         2.3608
  54   0.0000       0.092188         2.5086
  55   0.0000       0.104118         2.8332

MULLIKEN ATOMIC CHARGES
-----------------------
   0 C :    0.294759
   1 C :   -0.256041
   2 C :   -0.309145
   3 C :   -0.022661
   4 O :   -0.508477
   5 H :    0.164483
   6 H :    0.145162
   7 H :    0.160432
   8 H :    0.148712
   9 H :    0.148902
  10 H :    0.141586
  11 H :    0.154237
  12 C :   -0.025087
  13 H :    0.153991
  14 H :    0.119917
  15 O :   -0.521783
  16 C :    0.105459
  17 C :    0.082395
  18 C :   -0.321911
  19 C :   -0.011779
  20 O :   -0.505341
  21 H :    0.162794
  22 H :    0.166487
  23 O :   -0.598233
  24 H :    0.157829
  25 H :    0.128162
  26 H :    0.145447
  27 H :    0.147761
  28 H :    0.351942
Sum of atomic charges:   -0.0000000

LOEWDIN ATOMIC CHARGES
----------------------
   0 C :    0.181982
   1 C :   -0.223553
   2 C :   -0.221516
   3 C :   -0.035151
   4 O :   -0.317613
   5 H :    0.110204
   6 H :    0.114455
   7 H :    0.125360
   8 H :    0.118085
   9 H :    0.110947
  10 H :    0.099379
  11 H :    0.108256
  12 C :   -0.053802
  13 H :    0.111487
  14 H :    0.090913
  15 O :   -0.324962
  16 C :    0.018269
  17 C :    0.033843
  18 C :   -0.241414
  19 C :   -0.030655
  20 O :   -0.313652
  21 H :    0.119971
  22 H :    0.119560
  23 O :   -0.407312
  24 H :    0.122117
  25 H :    0.101453
  26 H :    0.103224
  27 H :    0.105015
  28 H :    0.275112

  Mayer bond orders larger than 0.100000
B(  0-C ,  1-C ) :   0.9206 B(  0-C ,  4-O ) :   0.9065 B(  0-C ,  5-H ) :   0.9309
B(  0-C , 15-O ) :   0.8645 B(  1-C ,  2-C ) :   0.9540 B(  1-C ,  6-H ) :   0.9348
B(  1-C ,  7-H ) :   0.9366 B(  2-C ,  3-C ) :   0.9503 B(  2-C ,  8-H ) :   0.9448
B(  2-C ,  9-H ) :   0.9457 B(  3-C ,  4-O ) :   0.8336 B(  3-C , 10-H ) :   0.9305
B(  3-C , 11-H ) :   0.9402 B( 12-C , 13-H ) :   0.8899 B( 12-C , 14-H ) :   0.9291
B( 12-C , 15-O ) :   0.8498 B( 12-C , 16-C ) :   0.8983 B( 16-C , 17-C ) :   0.8691
B( 16-C , 20-O ) :   0.8678 B( 16-C , 21-H ) :   0.9315 B( 17-C , 18-C ) :   0.9226
B( 17-C , 22-H ) :   0.9337 B( 17-C , 23-O ) :   0.8931 B( 18-C , 19-C ) :   0.9402
B( 18-C , 24-H ) :   0.9418 B( 18-C , 25-H ) :   0.9420 B( 19-C , 20-O ) :   0.8541
B( 19-C , 26-H ) :   0.9310 B( 19-C , 27-H ) :   0.9375 B( 23-O , 28-H ) :   0.7999

FINAL SINGLE POINT ENERGY      -652.851849873139

DIPOLE MOMENT
-------------
                                X             Y             Z
Electronic contribution:     -0.98093      -5.07353      -1.10491
Nuclear contribution   :      1.16199       6.61144       1.57403
                        -----------------------------------------
Total Dipole Moment    :      0.18107       1.53791       0.46912
                        -----------------------------------------
Magnitude (a.u.)       :      1.61803
Magnitude (Debye)      :      4.11271

Rotational constants in cm-1:     0.051078     0.014134     0.012546
Rotational constants in MHz :  1531.266493   423.719971   376.121369

                             ****ORCA TERMINATED NORMALLY****
TOTAL RUN TIME: 0 days 0 hours 27 minutes 44 seconds 898 msec
