                         Program Version 4.2.0 -  RELEASE  -
|  1> # Test redundant internal optimization
|  2> #
|  3> ! RKS B3LYP  Opt TightSCF SmallPrint
|  4>
|  5> %basis
|  6>         Basis "6-31G"
|  7> end
|  8>
|  9> %geom
| 10> Constraints
| 11> { D 4  0  15  12  195.0   C } # D for Dihedral angle
| 12> { D 0  15  12  16  120.0   C } # D for Dihedral angle
| 13> { D 0  4  3  2   C } # D for Dihedral angle
| 14> { D 4  3  2  1   C } # D for Dihedral angle
| 15> { D 3  2  1  0   C } # D for Dihedral angle
| 16> { D 2  1  0  4   C } # D for Dihedral angle
| 17> { D 1  0  4  3   C } # D for Dihedral angle
| 18> { D 16  20  19  18   C } # D for Dihedral angle
| 19> { D 20  19  18  17   C } # D for Dihedral angle
| 20> { D 19  18  17  16   C } # D for Dihedral angle
| 21> { D 18  17  16  20   C } # D for Dihedral angle
| 22> { D 17  16  20  19   C } # D for Dihedral angle
| 23> { D 15  12  16  20   C } # D for Dihedral angle
| 24> end
| 25> end
| 26>
| 27>
| 28> #%pal
| 29> #nprocs 8
| 30> #end
| 31>
| 32> * xyz 0 1
| 33> C  -21.048   26.222   46.251
| 34> C  -20.361   27.558   45.944
| 35> C  -20.329   28.222   47.341
| 36> C  -20.110   27.022   48.296
| 37> O  -20.473   25.807   47.535
| 38> H  -20.833   25.428   45.533
| 39> H  -19.344   27.382   45.576
| 40> H  -20.898   28.157   45.201
| 41> H  -19.543   28.978   47.434
| 42> H  -21.289   28.710   47.548
| 43> H  -20.733   27.082   49.195
| 44> H  -19.064   26.913   48.597
| 45> C  -23.353   26.472   45.026
| 46> H  -23.872   27.437   44.960
| 47> H  -22.654   26.400   44.183
| 48> O  -22.586   26.394   46.375
| 49> C  -24.405   25.340   44.867
| 50> C  -23.765   23.957   45.038
| 51> C  -23.657   23.850   46.578
| 52> C  -24.927   24.587   47.072
| 53> O  -25.402   25.412   45.940
| 54> H  -24.938   25.477   43.925
| 55> H  -24.431   23.183   44.643
| 56> O  -22.389   23.828   44.329
| 57> H  -23.611   22.815   46.931
| 58> H  -22.753   24.363   46.929
| 59> H  -24.729   25.236   47.931
| 60> H  -25.737   23.897   47.329
| 61> H  -21.705   24.595   44.709
| 62> *
| 63>
| 64>                          ****END OF INPUT****
 Total Charge           Charge          ....    0
 Multiplicity           Mult            ....    1
 Number of Electrons    NEL             ....  102
FINAL SINGLE POINT ENERGY      -652.822190663305
FINAL SINGLE POINT ENERGY      -652.847577593950
FINAL SINGLE POINT ENERGY      -652.854432325249
FINAL SINGLE POINT ENERGY      -652.857150871687
FINAL SINGLE POINT ENERGY      -652.857927095549
FINAL SINGLE POINT ENERGY      -652.858374860437
FINAL SINGLE POINT ENERGY      -652.858751444300
FINAL SINGLE POINT ENERGY      -652.859102634110
FINAL SINGLE POINT ENERGY      -652.859444906842
FINAL SINGLE POINT ENERGY      -652.859830348497
FINAL SINGLE POINT ENERGY      -652.861327961773
FINAL SINGLE POINT ENERGY      -652.861384141525
FINAL SINGLE POINT ENERGY      -652.861431330807
FINAL SINGLE POINT ENERGY      -652.861544774930
FINAL SINGLE POINT ENERGY      -652.861692943569
FINAL SINGLE POINT ENERGY      -652.861866843965
FINAL SINGLE POINT ENERGY      -652.861954869413
FINAL SINGLE POINT ENERGY      -652.861975550005
FINAL SINGLE POINT ENERGY      -652.861975887712
                    ***********************HURRAY********************

CARTESIAN COORDINATES (ANGSTROEM)
---------------------------------
  C    -21.043229   26.311994   46.210481
  C    -20.347179   27.644165   45.938087
  C    -20.382364   28.315818   47.332416
  C    -20.208244   27.120757   48.293373
  O    -20.539926   25.911957   47.494273
  H    -20.841968   25.506982   45.500059
  H    -19.314928   27.455411   45.618913
  H    -20.843767   28.236619   45.164730
  H    -19.599252   29.069777   47.457022
  H    -21.354185   28.793814   47.485908
  H    -20.875669   27.161681   49.157594
  H    -19.176588   26.995771   48.635753
  C    -23.231740   26.560317   45.094805
  H    -23.753698   27.523714   45.077309
  H    -22.557358   26.503665   44.231288
  O    -22.487236   26.488301   46.347920
  C    -24.275552   25.450665   44.978622
  C    -23.732071   24.014285   45.038686
  C    -23.642651   23.766724   46.573645
  C    -24.863670   24.546564   47.111623
  O    -25.264967   25.493217   46.044008
  H    -24.825720   25.626711   44.045428
  H    -24.457754   23.331626   44.576887
  O    -22.463743   23.945477   44.329760
  H    -23.693036   22.701269   46.825632
  H    -22.713088   24.188912   46.955564
  H    -24.624070   25.115634   48.013259
  H    -25.727236   23.901831   47.305248
  H    -22.098110   23.040343   44.377707

 Multiplicity           Mult            ....    1
 Number of Electrons    NEL             ....  102
 Basis Dimension        Dim             ....  149

ORBITAL ENERGIES
----------------

  NO   OCC          E(Eh)            E(eV)
   0   2.0000     -19.148126      -521.0470
   1   2.0000     -19.136895      -520.7414
   2   2.0000     -19.131341      -520.5903
   3   2.0000     -19.126694      -520.4638
   4   2.0000     -10.269097      -279.4363
   5   2.0000     -10.238472      -278.6030
   6   2.0000     -10.226339      -278.2728
   7   2.0000     -10.221212      -278.1333
   8   2.0000     -10.219584      -278.0890
   9   2.0000     -10.214427      -277.9487
  10   2.0000     -10.181546      -277.0539
  11   2.0000     -10.181008      -277.0393
  12   2.0000     -10.171628      -276.7841
  13   2.0000      -1.046653       -28.4809
  14   2.0000      -1.027593       -27.9622
  15   2.0000      -1.008630       -27.4462
  16   2.0000      -0.984545       -26.7908
  17   2.0000      -0.781125       -21.2555
  18   2.0000      -0.768989       -20.9253
  19   2.0000      -0.757952       -20.6249
  20   2.0000      -0.725466       -19.7409
  21   2.0000      -0.669558       -18.2196
  22   2.0000      -0.596670       -16.2362
  23   2.0000      -0.595107       -16.1937
  24   2.0000      -0.586074       -15.9479
  25   2.0000      -0.556406       -15.1406
  26   2.0000      -0.523252       -14.2384
  27   2.0000      -0.508807       -13.8453
  28   2.0000      -0.490363       -13.3435
  29   2.0000      -0.486713       -13.2441
  30   2.0000      -0.462032       -12.5725
  31   2.0000      -0.450488       -12.2584
  32   2.0000      -0.436701       -11.8832
  33   2.0000      -0.429416       -11.6850
  34   2.0000      -0.418179       -11.3792
  35   2.0000      -0.406043       -11.0490
  36   2.0000      -0.398589       -10.8461
  37   2.0000      -0.388807       -10.5800
  38   2.0000      -0.369739       -10.0611
  39   2.0000      -0.357733        -9.7344
  40   2.0000      -0.353065        -9.6074
  41   2.0000      -0.350622        -9.5409
  42   2.0000      -0.345631        -9.4051
  43   2.0000      -0.330252        -8.9866
  44   2.0000      -0.309083        -8.4106
  45   2.0000      -0.298629        -8.1261
  46   2.0000      -0.291823        -7.9409
  47   2.0000      -0.271323        -7.3831
  48   2.0000      -0.256214        -6.9719
  49   2.0000      -0.248788        -6.7699
  50   2.0000      -0.227720        -6.1966
  51   0.0000       0.056479         1.5369
  52   0.0000       0.086237         2.3466
  53   0.0000       0.098443         2.6788
  54   0.0000       0.114439         3.1140
  55   0.0000       0.116510         3.1704

MULLIKEN ATOMIC CHARGES
-----------------------
   0 C :    0.287935
   1 C :   -0.266345
   2 C :   -0.298447
   3 C :    0.000145
   4 O :   -0.516866
   5 H :    0.163998
   6 H :    0.141865
   7 H :    0.144648
   8 H :    0.139410
   9 H :    0.161938
  10 H :    0.151393
  11 H :    0.138989
  12 C :   -0.002037
  13 H :    0.148024
  14 H :    0.142656
  15 O :   -0.520231
  16 C :    0.097297
  17 C :    0.083533
  18 C :   -0.318414
  19 C :    0.000302
  20 O :   -0.523281
  21 H :    0.140079
  22 H :    0.138116
  23 O :   -0.615153
  24 H :    0.123314
  25 H :    0.203493
  26 H :    0.156341
  27 H :    0.132804
  28 H :    0.364492
Sum of atomic charges:   -0.0000000

LOEWDIN ATOMIC CHARGES
----------------------
   0 C :    0.172106
   1 C :   -0.228044
   2 C :   -0.217098
   3 C :   -0.025063
   4 O :   -0.311434
   5 H :    0.106971
   6 H :    0.112254
   7 H :    0.115057
   8 H :    0.113001
   9 H :    0.119228
  10 H :    0.107945
  11 H :    0.100804
  12 C :   -0.040826
  13 H :    0.108797
  14 H :    0.108096
  15 O :   -0.336786
  16 C :    0.030346
  17 C :    0.033861
  18 C :   -0.246836
  19 C :   -0.021586
  20 O :   -0.323074
  21 H :    0.109657
  22 H :    0.097185
  23 O :   -0.421019
  24 H :    0.103943
  25 H :    0.139463
  26 H :    0.110492
  27 H :    0.096418
  28 H :    0.286140

  Mayer bond orders larger than 0.100000
B(  0-C ,  1-C ) :   0.9327 B(  0-C ,  4-O ) :   0.9072 B(  0-C ,  5-H ) :   0.9021
B(  0-C , 15-O ) :   0.8219 B(  1-C ,  2-C ) :   0.9508 B(  1-C ,  6-H ) :   0.9352
B(  1-C ,  7-H ) :   0.9367 B(  2-C ,  3-C ) :   0.9570 B(  2-C ,  8-H ) :   0.9454
B(  2-C ,  9-H ) :   0.9437 B(  3-C ,  4-O ) :   0.8356 B(  3-C , 10-H ) :   0.9351
B(  3-C , 11-H ) :   0.9402 B( 12-C , 13-H ) :   0.9293 B( 12-C , 14-H ) :   0.9063
B( 12-C , 15-O ) :   0.8529 B( 12-C , 16-C ) :   0.9081 B( 16-C , 17-C ) :   0.9259
B( 16-C , 20-O ) :   0.8868 B( 16-C , 21-H ) :   0.9258 B( 17-C , 18-C ) :   0.9260
B( 17-C , 22-H ) :   0.9246 B( 17-C , 23-O ) :   0.8661 B( 18-C , 19-C ) :   0.9477
B( 18-C , 24-H ) :   0.9424 B( 18-C , 25-H ) :   0.9137 B( 19-C , 20-O ) :   0.8381
B( 19-C , 26-H ) :   0.9318 B( 19-C , 27-H ) :   0.9378 B( 23-O , 28-H ) :   0.8010

FINAL SINGLE POINT ENERGY      -652.861973982922

DIPOLE MOMENT
-------------
                                X             Y             Z
Electronic contribution:     -2.56799      -2.53175      -1.42048
Nuclear contribution   :      3.25192       2.26902       1.05057
                        -----------------------------------------
Total Dipole Moment    :      0.68393      -0.26273      -0.36990
                        -----------------------------------------
Magnitude (a.u.)       :      0.82074
Magnitude (Debye)      :      2.08616

Rotational constants in cm-1:     0.047795     0.016147     0.015721
Rotational constants in MHz :  1432.851555   484.060511   471.300647

                             ****ORCA TERMINATED NORMALLY****
TOTAL RUN TIME: 0 days 2 hours 10 minutes 52 seconds 871 msec
