                         Program Version 4.2.0 -  RELEASE  -
|  1> # Test redundant internal optimization
|  2> #
|  3> ! RKS B3LYP  Opt TightSCF SmallPrint
|  4>
|  5> %basis
|  6>         Basis "6-31G"
|  7> end
|  8>
|  9> %geom
| 10> Constraints
| 11> { D 4  0  15  12  15.0   C } # D for Dihedral angle
| 12> { D 0  15  12  16  240.0   C } # D for Dihedral angle
| 13> { D 0  4  3  2   C } # D for Dihedral angle
| 14> { D 4  3  2  1   C } # D for Dihedral angle
| 15> { D 3  2  1  0   C } # D for Dihedral angle
| 16> { D 2  1  0  4   C } # D for Dihedral angle
| 17> { D 1  0  4  3   C } # D for Dihedral angle
| 18> { D 16  20  19  18   C } # D for Dihedral angle
| 19> { D 20  19  18  17   C } # D for Dihedral angle
| 20> { D 19  18  17  16   C } # D for Dihedral angle
| 21> { D 18  17  16  20   C } # D for Dihedral angle
| 22> { D 17  16  20  19   C } # D for Dihedral angle
| 23> { D 15  12  16  20   C } # D for Dihedral angle
| 24> end
| 25> end
| 26>
| 27>
| 28> #%pal
| 29> #nprocs 8
| 30> #end
| 31>
| 32> * xyz 0 1
| 33> C  -21.048   26.222   46.251
| 34> C  -20.361   27.558   45.944
| 35> C  -20.329   28.222   47.341
| 36> C  -20.110   27.022   48.296
| 37> O  -20.473   25.807   47.535
| 38> H  -20.833   25.428   45.533
| 39> H  -19.344   27.382   45.576
| 40> H  -20.898   28.157   45.201
| 41> H  -19.543   28.978   47.434
| 42> H  -21.289   28.710   47.548
| 43> H  -20.733   27.082   49.195
| 44> H  -19.064   26.913   48.597
| 45> C  -23.128   26.462   47.829
| 46> H  -22.289   26.382   48.532
| 47> H  -23.633   27.421   48.006
| 48> O  -22.586   26.394   46.375
| 49> C  -24.142   25.328   48.146
| 50> C  -24.742   25.493   49.547
| 51> C  -25.807   26.588   49.304
| 52> C  -26.319   26.271   47.877
| 53> O  -25.297   25.408   47.247
| 54> H  -23.664   24.362   47.970
| 55> O  -25.411   24.167   50.000
| 56> H  -24.001   25.781   50.301
| 57> H  -26.610   26.572   50.049
| 58> H  -25.341   27.581   49.336
| 59> H  -26.451   27.173   47.269
| 60> H  -27.257   25.709   47.885
| 61> H  -26.158   23.860   49.259
| 62> *
| 63>
| 64>                          ****END OF INPUT****
 Total Charge           Charge          ....    0
 Multiplicity           Mult            ....    1
 Number of Electrons    NEL             ....  102
FINAL SINGLE POINT ENERGY      -652.825998616417
FINAL SINGLE POINT ENERGY      -652.849385723720
FINAL SINGLE POINT ENERGY      -652.853314886089
FINAL SINGLE POINT ENERGY      -652.855837937290
FINAL SINGLE POINT ENERGY      -652.856030882206
FINAL SINGLE POINT ENERGY      -652.856064846899
                    ***********************HURRAY********************

CARTESIAN COORDINATES (ANGSTROEM)
---------------------------------
  C    -21.151865   26.236554   46.409972
  C    -20.449036   27.517081   45.951983
  C    -20.164542   28.224106   47.301081
  C    -19.867708   27.045747   48.256431
  O    -20.420792   25.833933   47.588844
  H    -21.076312   25.410099   45.700936
  H    -19.514440   27.252756   45.443857
  H    -21.071205   28.105502   45.274663
  H    -19.328270   28.927167   47.241858
  H    -21.049645   28.781267   47.627919
  H    -20.332380   27.154975   49.240716
  H    -18.796801   26.865038   48.386225
  C    -23.144414   26.547442   47.937895
  H    -22.363002   26.453963   48.698500
  H    -23.617139   27.534290   48.018333
  O    -22.582380   26.432323   46.604279
  C    -24.164732   25.430741   48.163813
  C    -24.855563   25.488910   49.534564
  C    -25.978297   26.528647   49.278040
  C    -26.383489   26.248142   47.808927
  O    -25.270015   25.482304   47.203524
  H    -23.665418   24.469463   48.009378
  O    -25.401741   24.190528   49.897175
  H    -24.191904   25.761715   50.356677
  H    -26.801480   26.390434   49.983411
  H    -25.588717   27.545955   49.397271
  H    -26.542833   27.163823   47.231604
  H    -27.282657   25.628280   47.733453
  H    -25.804224   23.781814   49.101672

 Multiplicity           Mult            ....    1
 Number of Electrons    NEL             ....  102
 Basis Dimension        Dim             ....  149

ORBITAL ENERGIES
----------------

  NO   OCC          E(Eh)            E(eV)
   0   2.0000     -19.153004      -521.1797
   1   2.0000     -19.136469      -520.7298
   2   2.0000     -19.135958      -520.7159
   3   2.0000     -19.135551      -520.7048
   4   2.0000     -10.278982      -279.7053
   5   2.0000     -10.240091      -278.6470
   6   2.0000     -10.236006      -278.5359
   7   2.0000     -10.229813      -278.3674
   8   2.0000     -10.228505      -278.3318
   9   2.0000     -10.226918      -278.2886
  10   2.0000     -10.194650      -277.4105
  11   2.0000     -10.187466      -277.2150
  12   2.0000     -10.186472      -277.1880
  13   2.0000      -1.055496       -28.7215
  14   2.0000      -1.032952       -28.1081
  15   2.0000      -1.003451       -27.3053
  16   2.0000      -0.991448       -26.9787
  17   2.0000      -0.792667       -21.5696
  18   2.0000      -0.781663       -21.2701
  19   2.0000      -0.767210       -20.8769
  20   2.0000      -0.735000       -20.0004
  21   2.0000      -0.673172       -18.3180
  22   2.0000      -0.606372       -16.5002
  23   2.0000      -0.602688       -16.4000
  24   2.0000      -0.597387       -16.2557
  25   2.0000      -0.573071       -15.5940
  26   2.0000      -0.523174       -14.2363
  27   2.0000      -0.511653       -13.9228
  28   2.0000      -0.501370       -13.6430
  29   2.0000      -0.490844       -13.3565
  30   2.0000      -0.474684       -12.9168
  31   2.0000      -0.462217       -12.5776
  32   2.0000      -0.450478       -12.2581
  33   2.0000      -0.436863       -11.8876
  34   2.0000      -0.422692       -11.5020
  35   2.0000      -0.417174       -11.3519
  36   2.0000      -0.397016       -10.8033
  37   2.0000      -0.390476       -10.6254
  38   2.0000      -0.377678       -10.2771
  39   2.0000      -0.369581       -10.0568
  40   2.0000      -0.363013        -9.8781
  41   2.0000      -0.356268        -9.6945
  42   2.0000      -0.352018        -9.5789
  43   2.0000      -0.331470        -9.0197
  44   2.0000      -0.328061        -8.9270
  45   2.0000      -0.310726        -8.4553
  46   2.0000      -0.299197        -8.1416
  47   2.0000      -0.268822        -7.3150
  48   2.0000      -0.266368        -7.2482
  49   2.0000      -0.257472        -7.0062
  50   2.0000      -0.231955        -6.3118
  51   0.0000       0.067793         1.8447
  52   0.0000       0.076511         2.0820
  53   0.0000       0.086576         2.3559
  54   0.0000       0.096632         2.6295
  55   0.0000       0.104042         2.8311

MULLIKEN ATOMIC CHARGES
-----------------------
   0 C :    0.294708
   1 C :   -0.255720
   2 C :   -0.309524
   3 C :   -0.024002
   4 O :   -0.510636
   5 H :    0.164455
   6 H :    0.145400
   7 H :    0.161091
   8 H :    0.149249
   9 H :    0.151738
  10 H :    0.142614
  11 H :    0.154433
  12 C :   -0.010996
  13 H :    0.147983
  14 H :    0.130022
  15 O :   -0.521037
  16 C :    0.073983
  17 C :    0.077232
  18 C :   -0.294163
  19 C :   -0.027756
  20 O :   -0.510938
  21 H :    0.168370
  22 O :   -0.603642
  23 H :    0.147736
  24 H :    0.163301
  25 H :    0.137522
  26 H :    0.148463
  27 H :    0.143791
  28 H :    0.366323
Sum of atomic charges:   -0.0000000

LOEWDIN ATOMIC CHARGES
----------------------
   0 C :    0.182112
   1 C :   -0.223284
   2 C :   -0.221305
   3 C :   -0.035474
   4 O :   -0.319396
   5 H :    0.110095
   6 H :    0.114634
   7 H :    0.125760
   8 H :    0.118438
   9 H :    0.112372
  10 H :    0.099679
  11 H :    0.108351
  12 C :   -0.044479
  13 H :    0.109338
  14 H :    0.096875
  15 O :   -0.326481
  16 C :    0.013466
  17 C :    0.034476
  18 C :   -0.241115
  19 C :   -0.038212
  20 O :   -0.321354
  21 H :    0.120740
  22 O :   -0.415297
  23 H :    0.113222
  24 H :    0.126573
  25 H :    0.109718
  26 H :    0.105027
  27 H :    0.101488
  28 H :    0.284037

  Mayer bond orders larger than 0.100000
B(  0-C ,  1-C ) :   0.9210 B(  0-C ,  4-O ) :   0.9057 B(  0-C ,  5-H ) :   0.9309
B(  0-C , 15-O ) :   0.8636 B(  1-C ,  2-C ) :   0.9539 B(  1-C ,  6-H ) :   0.9346
B(  1-C ,  7-H ) :   0.9364 B(  2-C ,  3-C ) :   0.9507 B(  2-C ,  8-H ) :   0.9447
B(  2-C ,  9-H ) :   0.9452 B(  3-C ,  4-O ) :   0.8324 B(  3-C , 10-H ) :   0.9303
B(  3-C , 11-H ) :   0.9402 B( 12-C , 13-H ) :   0.8997 B( 12-C , 14-H ) :   0.9289
B( 12-C , 15-O ) :   0.8469 B( 12-C , 16-C ) :   0.8912 B( 16-C , 17-C ) :   0.8982
B( 16-C , 20-O ) :   0.8629 B( 16-C , 21-H ) :   0.9256 B( 17-C , 18-C ) :   0.9100
B( 17-C , 22-O ) :   0.8916 B( 17-C , 23-H ) :   0.9334 B( 18-C , 19-C ) :   0.9417
B( 18-C , 24-H ) :   0.9370 B( 18-C , 25-H ) :   0.9352 B( 19-C , 20-O ) :   0.8539
B( 19-C , 26-H ) :   0.9338 B( 19-C , 27-H ) :   0.9377 B( 22-O , 28-H ) :   0.7933

FINAL SINGLE POINT ENERGY      -652.856069348623

DIPOLE MOMENT
-------------
                                X             Y             Z
Electronic contribution:     -1.71088      -5.75653      -1.47199
Nuclear contribution   :      2.14741       7.17050       1.72475
                        -----------------------------------------
Total Dipole Moment    :      0.43652       1.41397       0.25276
                        -----------------------------------------
Magnitude (a.u.)       :      1.50125
Magnitude (Debye)      :      3.81587

Rotational constants in cm-1:     0.057788     0.012641     0.011949
Rotational constants in MHz :  1732.437630   378.963945   358.214953

                             ****ORCA TERMINATED NORMALLY****
TOTAL RUN TIME: 0 days 0 hours 20 minutes 28 seconds 308 msec
