                         Program Version 4.2.0 -  RELEASE  -
|  1> # Test redundant internal optimization
|  2> #
|  3> ! RKS B3LYP  Opt TightSCF SmallPrint
|  4>
|  5> %basis
|  6>         Basis "6-31G"
|  7> end
|  8>
|  9> %geom
| 10> Constraints
| 11> { D 4  0  15  12  0.0   C } # D for Dihedral angle
| 12> { D 0  15  12  16  330.0   C } # D for Dihedral angle
| 13> { D 0  4  3  2   C } # D for Dihedral angle
| 14> { D 4  3  2  1   C } # D for Dihedral angle
| 15> { D 3  2  1  0   C } # D for Dihedral angle
| 16> { D 2  1  0  4   C } # D for Dihedral angle
| 17> { D 1  0  4  3   C } # D for Dihedral angle
| 18> { D 16  20  19  18   C } # D for Dihedral angle
| 19> { D 20  19  18  17   C } # D for Dihedral angle
| 20> { D 19  18  17  16   C } # D for Dihedral angle
| 21> { D 18  17  16  20   C } # D for Dihedral angle
| 22> { D 17  16  20  19   C } # D for Dihedral angle
| 23> { D 15  12  16  20   C } # D for Dihedral angle
| 24> end
| 25> end
| 26>
| 27>
| 28> #%pal
| 29> #nprocs 8
| 30> #end
| 31>
| 32> * xyz 0 1
| 33> C  -21.048   26.222   46.251
| 34> C  -20.361   27.558   45.944
| 35> C  -20.329   28.222   47.341
| 36> C  -20.110   27.022   48.296
| 37> O  -20.473   25.807   47.535
| 38> H  -20.833   25.428   45.533
| 39> H  -19.344   27.382   45.576
| 40> H  -20.898   28.157   45.201
| 41> H  -19.543   28.978   47.434
| 42> H  -21.289   28.710   47.548
| 43> H  -20.733   27.082   49.195
| 44> H  -19.064   26.913   48.597
| 45> C  -23.172   26.101   47.783
| 46> H  -23.185   27.028   48.370
| 47> H  -24.203   25.733   47.701
| 48> O  -22.586   26.394   46.375
| 49> C  -22.351   25.038   48.566
| 50> C  -23.021   24.689   49.899
| 51> C  -24.137   23.718   49.446
| 52> C  -23.481   22.956   48.267
| 53> O  -22.326   23.768   47.832
| 54> H  -21.318   25.378   48.654
| 55> H  -22.308   24.179   50.557
| 56> O  -23.574   25.933   50.648
| 57> H  -24.467   23.047   50.245
| 58> H  -25.011   24.284   49.101
| 59> H  -24.165   22.823   47.421
| 60> H  -23.094   21.978   48.567
| 61> H  -24.291   26.460   50.010
| 62> *
| 63>
| 64>                          ****END OF INPUT****
 Total Charge           Charge          ....    0
 Multiplicity           Mult            ....    1
 Number of Electrons    NEL             ....  102
FINAL SINGLE POINT ENERGY      -652.776635089704
FINAL SINGLE POINT ENERGY      -652.819067314009
FINAL SINGLE POINT ENERGY      -652.840415465798
FINAL SINGLE POINT ENERGY      -652.844658329470
FINAL SINGLE POINT ENERGY      -652.845351798800
FINAL SINGLE POINT ENERGY      -652.845519860576
FINAL SINGLE POINT ENERGY      -652.845538613083
FINAL SINGLE POINT ENERGY      -652.845543266426
                    ***********************HURRAY********************

CARTESIAN COORDINATES (ANGSTROEM)
---------------------------------
  C    -20.966373   26.307795   46.274003
  C    -20.485237   27.712748   45.905202
  C    -20.181956   28.320010   47.297039
  C    -19.647332   27.112127   48.096871
  O    -20.088081   25.902094   47.346300
  H    -20.837941   25.558731   45.490344
  H    -19.571537   27.634386   45.304044
  H    -21.238662   28.268289   45.343659
  H    -19.458014   29.139456   47.251791
  H    -21.103468   28.707047   47.744202
  H    -20.041819   27.060006   49.116848
  H    -18.554819   27.071955   48.133977
  C    -23.063733   26.014211   47.805466
  H    -23.187765   26.940107   48.389782
  H    -24.055194   25.682288   47.479095
  O    -22.393552   26.341849   46.558149
  C    -22.438281   24.969942   48.738739
  C    -23.319256   24.682181   49.968157
  C    -24.362401   23.675015   49.389377
  C    -23.521111   22.866646   48.375871
  O    -22.304941   23.666315   48.090792
  H    -21.430560   25.262510   49.017806
  H    -22.710892   24.197266   50.735122
  O    -23.882558   25.842974   50.627822
  H    -24.810156   23.051238   50.167456
  H    -25.170203   24.227897   48.892195
  H    -24.052526   22.677013   47.437813
  H    -23.186313   21.910456   48.788655
  H    -24.650320   26.185446   50.126422

 Multiplicity           Mult            ....    1
 Number of Electrons    NEL             ....  102
 Basis Dimension        Dim             ....  149

ORBITAL ENERGIES
----------------

  NO   OCC          E(Eh)            E(eV)
   0   2.0000     -19.149173      -521.0755
   1   2.0000     -19.144809      -520.9567
   2   2.0000     -19.131065      -520.5828
   3   2.0000     -19.128490      -520.5127
   4   2.0000     -10.274627      -279.5868
   5   2.0000     -10.242585      -278.7149
   6   2.0000     -10.229275      -278.3527
   7   2.0000     -10.228785      -278.3394
   8   2.0000     -10.225999      -278.2636
   9   2.0000     -10.222126      -278.1582
  10   2.0000     -10.193250      -277.3724
  11   2.0000     -10.187660      -277.2203
  12   2.0000     -10.180755      -277.0324
  13   2.0000      -1.046220       -28.4691
  14   2.0000      -1.030795       -28.0494
  15   2.0000      -1.010879       -27.5074
  16   2.0000      -0.985324       -26.8120
  17   2.0000      -0.787224       -21.4214
  18   2.0000      -0.779365       -21.2076
  19   2.0000      -0.764051       -20.7909
  20   2.0000      -0.731425       -19.9031
  21   2.0000      -0.677635       -18.4394
  22   2.0000      -0.608901       -16.5690
  23   2.0000      -0.601776       -16.3752
  24   2.0000      -0.597506       -16.2590
  25   2.0000      -0.562146       -15.2968
  26   2.0000      -0.519360       -14.1325
  27   2.0000      -0.508891       -13.8476
  28   2.0000      -0.499752       -13.5989
  29   2.0000      -0.485951       -13.2234
  30   2.0000      -0.464273       -12.6335
  31   2.0000      -0.454310       -12.3624
  32   2.0000      -0.442384       -12.0379
  33   2.0000      -0.427027       -11.6200
  34   2.0000      -0.425906       -11.5895
  35   2.0000      -0.411665       -11.2020
  36   2.0000      -0.408573       -11.1178
  37   2.0000      -0.396807       -10.7977
  38   2.0000      -0.378398       -10.2967
  39   2.0000      -0.369002       -10.0410
  40   2.0000      -0.357362        -9.7243
  41   2.0000      -0.356256        -9.6942
  42   2.0000      -0.342790        -9.3278
  43   2.0000      -0.331059        -9.0086
  44   2.0000      -0.319325        -8.6893
  45   2.0000      -0.311905        -8.4874
  46   2.0000      -0.299384        -8.1467
  47   2.0000      -0.270047        -7.3484
  48   2.0000      -0.257537        -7.0079
  49   2.0000      -0.243559        -6.6276
  50   2.0000      -0.228808        -6.2262
  51   0.0000       0.052118         1.4182
  52   0.0000       0.075852         2.0640
  53   0.0000       0.085121         2.3163
  54   0.0000       0.092588         2.5195
  55   0.0000       0.106721         2.9040

MULLIKEN ATOMIC CHARGES
-----------------------
   0 C :    0.319873
   1 C :   -0.258821
   2 C :   -0.310104
   3 C :   -0.025641
   4 O :   -0.503067
   5 H :    0.162967
   6 H :    0.143785
   7 H :    0.157910
   8 H :    0.146228
   9 H :    0.155253
  10 H :    0.142263
  11 H :    0.154935
  12 C :    0.013503
  13 H :    0.121301
  14 H :    0.137847
  15 O :   -0.556754
  16 C :    0.074798
  17 C :    0.080227
  18 C :   -0.320668
  19 C :   -0.009306
  20 O :   -0.508128
  21 H :    0.182500
  22 H :    0.166562
  23 O :   -0.602348
  24 H :    0.155664
  25 H :    0.130258
  26 H :    0.144692
  27 H :    0.147754
  28 H :    0.356517
Sum of atomic charges:   -0.0000000

LOEWDIN ATOMIC CHARGES
----------------------
   0 C :    0.191700
   1 C :   -0.221084
   2 C :   -0.219885
   3 C :   -0.036840
   4 O :   -0.311151
   5 H :    0.108866
   6 H :    0.113014
   7 H :    0.124428
   8 H :    0.116688
   9 H :    0.114278
  10 H :    0.100153
  11 H :    0.108297
  12 C :   -0.036868
  13 H :    0.090282
  14 H :    0.104002
  15 O :   -0.344576
  16 C :    0.005231
  17 C :    0.034473
  18 C :   -0.241065
  19 C :   -0.030547
  20 O :   -0.314913
  21 H :    0.126953
  22 H :    0.118383
  23 O :   -0.409760
  24 H :    0.121327
  25 H :    0.102359
  26 H :    0.102836
  27 H :    0.105318
  28 H :    0.278101

  Mayer bond orders larger than 0.100000
B(  0-C ,  1-C ) :   0.9275 B(  0-C ,  4-O ) :   0.9042 B(  0-C ,  5-H ) :   0.9301
B(  0-C , 15-O ) :   0.8419 B(  1-C ,  2-C ) :   0.9553 B(  1-C ,  6-H ) :   0.9356
B(  1-C ,  7-H ) :   0.9372 B(  2-C ,  3-C ) :   0.9533 B(  2-C ,  8-H ) :   0.9447
B(  2-C ,  9-H ) :   0.9454 B(  3-C ,  4-O ) :   0.8348 B(  3-C , 10-H ) :   0.9279
B(  3-C , 11-H ) :   0.9395 B( 12-C , 13-H ) :   0.9037 B( 12-C , 14-H ) :   0.9358
B( 12-C , 15-O ) :   0.8495 B( 12-C , 16-C ) :   0.8957 B( 16-C , 17-C ) :   0.8631
B( 16-C , 20-O ) :   0.8540 B( 16-C , 21-H ) :   0.9115 B( 17-C , 18-C ) :   0.9222
B( 17-C , 22-H ) :   0.9339 B( 17-C , 23-O ) :   0.8948 B( 18-C , 19-C ) :   0.9380
B( 18-C , 24-H ) :   0.9426 B( 18-C , 25-H ) :   0.9407 B( 19-C , 20-O ) :   0.8530
B( 19-C , 26-H ) :   0.9311 B( 19-C , 27-H ) :   0.9376 B( 23-O , 28-H ) :   0.7980

FINAL SINGLE POINT ENERGY      -652.845543434450

DIPOLE MOMENT
-------------
                                X             Y             Z
Electronic contribution:      0.39136      -2.51179      -0.44457
Nuclear contribution   :     -0.93309       3.01425       0.57159
                        -----------------------------------------
Total Dipole Moment    :     -0.54173       0.50246       0.12702
                        -----------------------------------------
Magnitude (a.u.)       :      0.74972
Magnitude (Debye)      :      1.90564

Rotational constants in cm-1:     0.050729     0.015489     0.014254
Rotational constants in MHz :  1520.826089   464.344552   427.323522

                             ****ORCA TERMINATED NORMALLY****
TOTAL RUN TIME: 0 days 2 hours 18 minutes 16 seconds 677 msec
