                         Program Version 4.2.0 -  RELEASE  -
|  1> # Test redundant internal optimization
|  2> #
|  3> ! RKS B3LYP  Opt TightSCF SmallPrint
|  4>
|  5> %basis
|  6>         Basis "6-31G"
|  7> end
|  8>
|  9> %geom
| 10> Constraints
| 11> { D 4  0  15  12  300.0   C } # D for Dihedral angle
| 12> { D 0  15  12  16  135.0   C } # D for Dihedral angle
| 13> { D 0  4  3  2   C } # D for Dihedral angle
| 14> { D 4  3  2  1   C } # D for Dihedral angle
| 15> { D 3  2  1  0   C } # D for Dihedral angle
| 16> { D 2  1  0  4   C } # D for Dihedral angle
| 17> { D 1  0  4  3   C } # D for Dihedral angle
| 18> { D 16  20  19  18   C } # D for Dihedral angle
| 19> { D 20  19  18  17   C } # D for Dihedral angle
| 20> { D 19  18  17  16   C } # D for Dihedral angle
| 21> { D 18  17  16  20   C } # D for Dihedral angle
| 22> { D 17  16  20  19   C } # D for Dihedral angle
| 23> { D 15  12  16  20   C } # D for Dihedral angle
| 24> end
| 25> end
| 26>
| 27>
| 28> #%pal
| 29> #nprocs 8
| 30> #end
| 31>
| 32> * xyz 0 1
| 33> C  -21.048   26.222   46.251
| 34> C  -20.361   27.558   45.944
| 35> C  -20.329   28.222   47.341
| 36> C  -20.110   27.022   48.296
| 37> O  -20.473   25.807   47.535
| 38> H  -20.833   25.428   45.533
| 39> H  -19.344   27.382   45.576
| 40> H  -20.898   28.157   45.201
| 41> H  -19.543   28.978   47.434
| 42> H  -21.289   28.710   47.548
| 43> H  -20.733   27.082   49.195
| 44> H  -19.064   26.913   48.597
| 45> C  -23.362   25.116   46.798
| 46> H  -23.871   24.696   45.922
| 47> H  -22.670   24.359   47.188
| 48> O  -22.586   26.394   46.375
| 49> C  -24.425   25.395   47.895
| 50> C  -25.089   24.097   48.370
| 51> C  -24.018   23.532   49.334
| 52> C  -23.419   24.806   49.979
| 53> O  -23.789   25.937   49.101
| 54> H  -25.123   26.153   47.533
| 55> O  -26.401   24.419   49.136
| 56> H  -25.327   23.411   47.550
| 57> H  -24.436   22.845   50.076
| 58> H  -23.252   22.989   48.768
| 59> H  -22.327   24.760   50.063
| 60> H  -23.842   25.013   50.966
| 61> H  -26.187   25.105   49.962
| 62> *
| 63>
| 64>                          ****END OF INPUT****
 Total Charge           Charge          ....    0
 Multiplicity           Mult            ....    1
 Number of Electrons    NEL             ....  102
FINAL SINGLE POINT ENERGY      -652.838533116965
FINAL SINGLE POINT ENERGY      -652.863116951183
FINAL SINGLE POINT ENERGY      -652.867327030005
FINAL SINGLE POINT ENERGY      -652.868116176223
FINAL SINGLE POINT ENERGY      -652.868218735124
FINAL SINGLE POINT ENERGY      -652.868229479694
FINAL SINGLE POINT ENERGY      -652.868231657709
                    ***********************HURRAY********************

CARTESIAN COORDINATES (ANGSTROEM)
---------------------------------
  C    -21.093919   26.152088   46.230016
  C    -20.549450   27.563421   46.013045
  C    -20.557217   28.126960   47.450533
  C    -20.205266   26.898774   48.316303
  O    -20.467169   25.709669   47.458409
  H    -20.843587   25.405709   45.469769
  H    -19.530322   27.501393   45.614298
  H    -21.169202   28.137972   45.321469
  H    -19.845482   28.947586   47.583667
  H    -21.559873   28.485746   47.696452
  H    -20.829798   26.823127   49.207971
  H    -19.147402   26.854743   48.591681
  C    -23.232564   25.069528   46.747697
  H    -23.768877   24.682528   45.869791
  H    -22.517309   24.316829   47.096071
  O    -22.523913   26.284608   46.378837
  C    -24.227652   25.416499   47.854026
  C    -25.012984   24.208466   48.386054
  C    -24.001603   23.593409   49.388079
  C    -23.288998   24.836390   49.976855
  O    -23.549514   25.956013   49.037751
  H    -24.896016   26.206115   47.497851
  O    -26.237771   24.631931   49.045659
  H    -25.329686   23.510045   47.610146
  H    -24.522959   23.001032   50.144376
  H    -23.294788   22.939732   48.865476
  H    -22.207813   24.697920   50.065543
  H    -23.692141   25.130874   50.950677
  H    -26.045722   25.418893   49.598497

 Multiplicity           Mult            ....    1
 Number of Electrons    NEL             ....  102
 Basis Dimension        Dim             ....  149

ORBITAL ENERGIES
----------------

  NO   OCC          E(Eh)            E(eV)
   0   2.0000     -19.141237      -520.8596
   1   2.0000     -19.139095      -520.8013
   2   2.0000     -19.137799      -520.7660
   3   2.0000     -19.136864      -520.7406
   4   2.0000     -10.274863      -279.5932
   5   2.0000     -10.242039      -278.7001
   6   2.0000     -10.232113      -278.4300
   7   2.0000     -10.228379      -278.3284
   8   2.0000     -10.227269      -278.2981
   9   2.0000     -10.217665      -278.0368
  10   2.0000     -10.188492      -277.2430
  11   2.0000     -10.180034      -277.0128
  12   2.0000     -10.176993      -276.9300
  13   2.0000      -1.051824       -28.6216
  14   2.0000      -1.034042       -28.1377
  15   2.0000      -1.004786       -27.3416
  16   2.0000      -0.987882       -26.8816
  17   2.0000      -0.788007       -21.4428
  18   2.0000      -0.778708       -21.1897
  19   2.0000      -0.763640       -20.7797
  20   2.0000      -0.726160       -19.7598
  21   2.0000      -0.670055       -18.2331
  22   2.0000      -0.603025       -16.4091
  23   2.0000      -0.593725       -16.1561
  24   2.0000      -0.587511       -15.9870
  25   2.0000      -0.580126       -15.7860
  26   2.0000      -0.524471       -14.2716
  27   2.0000      -0.510217       -13.8837
  28   2.0000      -0.487789       -13.2734
  29   2.0000      -0.483154       -13.1473
  30   2.0000      -0.478108       -13.0100
  31   2.0000      -0.455456       -12.3936
  32   2.0000      -0.449215       -12.2238
  33   2.0000      -0.436577       -11.8799
  34   2.0000      -0.420006       -11.4289
  35   2.0000      -0.400419       -10.8960
  36   2.0000      -0.397648       -10.8205
  37   2.0000      -0.392387       -10.6774
  38   2.0000      -0.373408       -10.1609
  39   2.0000      -0.370702       -10.0873
  40   2.0000      -0.355252        -9.6669
  41   2.0000      -0.349378        -9.5071
  42   2.0000      -0.342093        -9.3088
  43   2.0000      -0.329795        -8.9742
  44   2.0000      -0.326556        -8.8860
  45   2.0000      -0.306924        -8.3518
  46   2.0000      -0.293631        -7.9901
  47   2.0000      -0.270491        -7.3604
  48   2.0000      -0.266260        -7.2453
  49   2.0000      -0.249835        -6.7983
  50   2.0000      -0.241760        -6.5786
  51   0.0000       0.066838         1.8188
  52   0.0000       0.090176         2.4538
  53   0.0000       0.092348         2.5129
  54   0.0000       0.101790         2.7699
  55   0.0000       0.108360         2.9486

MULLIKEN ATOMIC CHARGES
-----------------------
   0 C :    0.283055
   1 C :   -0.261147
   2 C :   -0.297281
   3 C :   -0.006911
   4 O :   -0.518466
   5 H :    0.140593
   6 H :    0.141108
   7 H :    0.157059
   8 H :    0.135802
   9 H :    0.173934
  10 H :    0.162223
  11 H :    0.135850
  12 C :   -0.004412
  13 H :    0.130114
  14 H :    0.153494
  15 O :   -0.515093
  16 C :    0.067286
  17 C :    0.075198
  18 C :   -0.296993
  19 C :   -0.033837
  20 O :   -0.515038
  21 H :    0.167350
  22 O :   -0.602044
  23 H :    0.151572
  24 H :    0.162433
  25 H :    0.147558
  26 H :    0.159212
  27 H :    0.142400
  28 H :    0.364983
Sum of atomic charges:   -0.0000000

LOEWDIN ATOMIC CHARGES
----------------------
   0 C :    0.173228
   1 C :   -0.214454
   2 C :   -0.214817
   3 C :   -0.028327
   4 O :   -0.334072
   5 H :    0.094876
   6 H :    0.111943
   7 H :    0.124262
   8 H :    0.111078
   9 H :    0.125224
  10 H :    0.112359
  11 H :    0.099312
  12 C :   -0.045857
  13 H :    0.098873
  14 H :    0.109249
  15 O :   -0.322364
  16 C :    0.016147
  17 C :    0.034490
  18 C :   -0.240467
  19 C :   -0.040226
  20 O :   -0.325009
  21 H :    0.119324
  22 O :   -0.414732
  23 H :    0.115220
  24 H :    0.126341
  25 H :    0.114564
  26 H :    0.109578
  27 H :    0.100896
  28 H :    0.283360

  Mayer bond orders larger than 0.100000
B(  0-C ,  1-C ) :   0.9529 B(  0-C ,  4-O ) :   0.9013 B(  0-C ,  5-H ) :   0.9206
B(  0-C , 15-O ) :   0.8638 B(  1-C ,  2-C ) :   0.9560 B(  1-C ,  6-H ) :   0.9407
B(  1-C ,  7-H ) :   0.9362 B(  2-C ,  3-C ) :   0.9592 B(  2-C ,  8-H ) :   0.9452
B(  2-C ,  9-H ) :   0.9404 B(  3-C ,  4-O ) :   0.8290 B(  3-C , 10-H ) :   0.9275
B(  3-C , 11-H ) :   0.9400 B( 12-C , 13-H ) :   0.9190 B( 12-C , 14-H ) :   0.9124
B( 12-C , 15-O ) :   0.8358 B( 12-C , 16-C ) :   0.9014 B( 16-C , 17-C ) :   0.9001
B( 16-C , 20-O ) :   0.8615 B( 16-C , 21-H ) :   0.9251 B( 17-C , 18-C ) :   0.9084
B( 17-C , 22-O ) :   0.8924 B( 17-C , 23-H ) :   0.9332 B( 18-C , 19-C ) :   0.9452
B( 18-C , 24-H ) :   0.9375 B( 18-C , 25-H ) :   0.9337 B( 19-C , 20-O ) :   0.8472
B( 19-C , 26-H ) :   0.9287 B( 19-C , 27-H ) :   0.9378 B( 22-O , 28-H ) :   0.7944

FINAL SINGLE POINT ENERGY      -652.868231727135

DIPOLE MOMENT
-------------
                                X             Y             Z
Electronic contribution:     -3.23485      -0.58303      -0.93359
Nuclear contribution   :      3.88532       0.46953       0.97515
                        -----------------------------------------
Total Dipole Moment    :      0.65047      -0.11350       0.04156
                        -----------------------------------------
Magnitude (a.u.)       :      0.66161
Magnitude (Debye)      :      1.68168

Rotational constants in cm-1:     0.057592     0.015004     0.013905
Rotational constants in MHz :  1726.565105   449.809891   416.870435

                             ****ORCA TERMINATED NORMALLY****
TOTAL RUN TIME: 0 days 0 hours 24 minutes 56 seconds 526 msec
