                         Program Version 4.2.0 -  RELEASE  -
|  1> # Test redundant internal optimization
|  2> #
|  3> ! RKS B3LYP  Opt TightSCF SmallPrint
|  4>
|  5> %basis
|  6>         Basis "6-31G"
|  7> end
|  8>
|  9> %geom
| 10> Constraints
| 11> { D 4  0  15  12  75.0   C } # D for Dihedral angle
| 12> { D 0  15  12  16  225.0   C } # D for Dihedral angle
| 13> { D 0  4  3  2   C } # D for Dihedral angle
| 14> { D 4  3  2  1   C } # D for Dihedral angle
| 15> { D 3  2  1  0   C } # D for Dihedral angle
| 16> { D 2  1  0  4   C } # D for Dihedral angle
| 17> { D 1  0  4  3   C } # D for Dihedral angle
| 18> { D 16  20  19  18   C } # D for Dihedral angle
| 19> { D 20  19  18  17   C } # D for Dihedral angle
| 20> { D 19  18  17  16   C } # D for Dihedral angle
| 21> { D 18  17  16  20   C } # D for Dihedral angle
| 22> { D 17  16  20  19   C } # D for Dihedral angle
| 23> { D 15  12  16  20   C } # D for Dihedral angle
| 24> end
| 25> end
| 26>
| 27>
| 28> #%pal
| 29> #nprocs 8
| 30> #end
| 31>
| 32> * xyz 0 1
| 33> C  -21.048   26.222   46.251
| 34> C  -20.361   27.558   45.944
| 35> C  -20.329   28.222   47.341
| 36> C  -20.110   27.022   48.296
| 37> O  -20.473   25.807   47.535
| 38> H  -20.833   25.428   45.533
| 39> H  -19.344   27.382   45.576
| 40> H  -20.898   28.157   45.201
| 41> H  -19.543   28.978   47.434
| 42> H  -21.289   28.710   47.548
| 43> H  -20.733   27.082   49.195
| 44> H  -19.064   26.913   48.597
| 45> C  -23.049   27.675   47.122
| 46> H  -22.197   28.109   47.659
| 47> H  -23.422   28.421   46.409
| 48> O  -22.586   26.394   46.375
| 49> C  -24.181   27.395   48.149
| 50> C  -23.692   26.488   49.283
| 51> C  -22.920   27.490   50.175
| 52> C  -23.746   28.794   50.034
| 53> O  -24.579   28.635   48.823
| 54> H  -25.060   27.022   47.619
| 55> H  -24.547   26.068   49.825
| 56> O  -22.803   25.315   48.787
| 57> H  -22.839   27.158   51.215
| 58> H  -21.904   27.632   49.788
| 59> H  -23.113   29.680   49.921
| 60> H  -24.426   28.950   50.876
| 61> H  -21.940   25.712   48.242
| 62> *
| 63>
| 64>                          ****END OF INPUT****
 Total Charge           Charge          ....    0
 Multiplicity           Mult            ....    1
 Number of Electrons    NEL             ....  102
FINAL SINGLE POINT ENERGY      -652.768703379560
FINAL SINGLE POINT ENERGY      -652.825585638386
FINAL SINGLE POINT ENERGY      -652.848844835722
FINAL SINGLE POINT ENERGY      -652.855776682547
FINAL SINGLE POINT ENERGY      -652.857881814797
FINAL SINGLE POINT ENERGY      -652.858416160498
FINAL SINGLE POINT ENERGY      -652.858641946821
FINAL SINGLE POINT ENERGY      -652.858660417224
FINAL SINGLE POINT ENERGY      -652.858666209123
FINAL SINGLE POINT ENERGY      -652.858665121765
                    ***********************HURRAY********************

CARTESIAN COORDINATES (ANGSTROEM)
---------------------------------
  C    -21.153105   26.408491   46.339793
  C    -20.231536   27.508470   45.781944
  C    -19.807574   28.261560   47.078755
  C    -19.718181   27.118047   48.124357
  O    -20.483756   25.974597   47.559401
  H    -21.170105   25.525546   45.698861
  H    -19.368787   27.029873   45.308964
  H    -20.732004   28.145726   45.048652
  H    -18.846148   28.772019   46.965051
  H    -20.547086   29.015717   47.357024
  H    -20.138471   27.384614   49.098078
  H    -18.692908   26.766838   48.266463
  C    -23.112454   27.816983   47.205378
  H    -22.356914   28.364343   47.777099
  H    -23.540725   28.493716   46.459319
  O    -22.545987   26.650559   46.528520
  C    -24.214834   27.334811   48.158408
  C    -23.785064   26.418878   49.323994
  C    -23.178205   27.449901   50.335554
  C    -24.076033   28.688179   50.132128
  O    -24.766509   28.515698   48.822881
  H    -25.022651   26.882760   47.577672
  H    -24.701396   26.008785   49.759755
  O    -22.968504   25.275783   49.059596
  H    -23.201532   27.067059   51.358918
  H    -22.133015   27.652689   50.075486
  H    -23.519095   29.630857   50.112116
  H    -24.860175   28.762363   50.891301
  H    -22.156246   25.494140   48.547531

 Multiplicity           Mult            ....    1
 Number of Electrons    NEL             ....  102
 Basis Dimension        Dim             ....  149

ORBITAL ENERGIES
----------------

  NO   OCC          E(Eh)            E(eV)
   0   2.0000     -19.165071      -521.5081
   1   2.0000     -19.154910      -521.2316
   2   2.0000     -19.138369      -520.7815
   3   2.0000     -19.110462      -520.0221
   4   2.0000     -10.293328      -280.0957
   5   2.0000     -10.245582      -278.7965
   6   2.0000     -10.236549      -278.5507
   7   2.0000     -10.228941      -278.3436
   8   2.0000     -10.227562      -278.3061
   9   2.0000     -10.227215      -278.2967
  10   2.0000     -10.206957      -277.7454
  11   2.0000     -10.204970      -277.6913
  12   2.0000     -10.182641      -277.0837
  13   2.0000      -1.069278       -29.0965
  14   2.0000      -1.023356       -27.8469
  15   2.0000      -1.009482       -27.4694
  16   2.0000      -0.991208       -26.9722
  17   2.0000      -0.803052       -21.8522
  18   2.0000      -0.778740       -21.1906
  19   2.0000      -0.768119       -20.9016
  20   2.0000      -0.738277       -20.0895
  21   2.0000      -0.684803       -18.6344
  22   2.0000      -0.619500       -16.8575
  23   2.0000      -0.605729       -16.4827
  24   2.0000      -0.596335       -16.2271
  25   2.0000      -0.574385       -15.6298
  26   2.0000      -0.530689       -14.4408
  27   2.0000      -0.516269       -14.0484
  28   2.0000      -0.513267       -13.9667
  29   2.0000      -0.488024       -13.2798
  30   2.0000      -0.482011       -13.1162
  31   2.0000      -0.461839       -12.5673
  32   2.0000      -0.441722       -12.0199
  33   2.0000      -0.436812       -11.8862
  34   2.0000      -0.429033       -11.6746
  35   2.0000      -0.423799       -11.5322
  36   2.0000      -0.407100       -11.0778
  37   2.0000      -0.397160       -10.8073
  38   2.0000      -0.392869       -10.6905
  39   2.0000      -0.375784       -10.2256
  40   2.0000      -0.367591       -10.0027
  41   2.0000      -0.360174        -9.8008
  42   2.0000      -0.346627        -9.4322
  43   2.0000      -0.338702        -9.2165
  44   2.0000      -0.329507        -8.9663
  45   2.0000      -0.308466        -8.3938
  46   2.0000      -0.296955        -8.0806
  47   2.0000      -0.277441        -7.5496
  48   2.0000      -0.270374        -7.3573
  49   2.0000      -0.249942        -6.8013
  50   2.0000      -0.232860        -6.3364
  51   0.0000       0.047517         1.2930
  52   0.0000       0.070531         1.9193
  53   0.0000       0.086009         2.3404
  54   0.0000       0.094927         2.5831
  55   0.0000       0.097537         2.6541

MULLIKEN ATOMIC CHARGES
-----------------------
   0 C :    0.294286
   1 C :   -0.275466
   2 C :   -0.317509
   3 C :   -0.023432
   4 O :   -0.518732
   5 H :    0.179444
   6 H :    0.162382
   7 H :    0.158226
   8 H :    0.152356
   9 H :    0.156112
  10 H :    0.150229
  11 H :    0.159953
  12 C :   -0.032498
  13 H :    0.126650
  14 H :    0.160807
  15 O :   -0.524187
  16 C :    0.084682
  17 C :    0.112624
  18 C :   -0.329998
  19 C :   -0.014236
  20 O :   -0.524288
  21 H :    0.163503
  22 H :    0.155668
  23 O :   -0.628664
  24 H :    0.155064
  25 H :    0.137902
  26 H :    0.133420
  27 H :    0.151293
  28 H :    0.394410
Sum of atomic charges:   -0.0000000

LOEWDIN ATOMIC CHARGES
----------------------
   0 C :    0.172075
   1 C :   -0.225131
   2 C :   -0.223064
   3 C :   -0.036002
   4 O :   -0.324360
   5 H :    0.118735
   6 H :    0.125871
   7 H :    0.124052
   8 H :    0.119464
   9 H :    0.111568
  10 H :    0.101699
  11 H :    0.111357
  12 C :   -0.046420
  13 H :    0.093078
  14 H :    0.113800
  15 O :   -0.316420
  16 C :    0.020722
  17 C :    0.043512
  18 C :   -0.246075
  19 C :   -0.033350
  20 O :   -0.325898
  21 H :    0.117577
  22 H :    0.112488
  23 O :   -0.419081
  24 H :    0.122449
  25 H :    0.100844
  26 H :    0.097191
  27 H :    0.107086
  28 H :    0.282232

  Mayer bond orders larger than 0.100000
B(  0-C ,  1-C ) :   0.9200 B(  0-C ,  4-O ) :   0.8486 B(  0-C ,  5-H ) :   0.9320
B(  0-C , 15-O ) :   0.9268 B(  1-C ,  2-C ) :   0.9526 B(  1-C ,  6-H ) :   0.9336
B(  1-C ,  7-H ) :   0.9372 B(  2-C ,  3-C ) :   0.9459 B(  2-C ,  8-H ) :   0.9437
B(  2-C ,  9-H ) :   0.9378 B(  3-C ,  4-O ) :   0.8306 B(  3-C , 10-H ) :   0.9220
B(  3-C , 11-H ) :   0.9382 B( 12-C , 13-H ) :   0.9113 B( 12-C , 14-H ) :   0.9308
B( 12-C , 15-O ) :   0.8022 B( 12-C , 16-C ) :   0.9041 B( 16-C , 17-C ) :   0.8859
B( 16-C , 20-O ) :   0.8404 B( 16-C , 21-H ) :   0.9305 B( 17-C , 18-C ) :   0.9019
B( 17-C , 22-H ) :   0.9332 B( 17-C , 23-O ) :   0.9650 B( 18-C , 19-C ) :   0.9374
B( 18-C , 24-H ) :   0.9437 B( 18-C , 25-H ) :   0.9353 B( 19-C , 20-O ) :   0.8373
B( 19-C , 26-H ) :   0.9348 B( 19-C , 27-H ) :   0.9384 B( 23-O , 28-H ) :   0.7165

FINAL SINGLE POINT ENERGY      -652.858664060057

DIPOLE MOMENT
-------------
                                X             Y             Z
Electronic contribution:     -4.13693      -4.47073      -1.75957
Nuclear contribution   :      5.59705       5.86777       1.54974
                        -----------------------------------------
Total Dipole Moment    :      1.46012       1.39704      -0.20983
                        -----------------------------------------
Magnitude (a.u.)       :      2.03167
Magnitude (Debye)      :      5.16410

Rotational constants in cm-1:     0.044402     0.017684     0.017256
Rotational constants in MHz :  1331.125217   530.146481   517.316662

                             ****ORCA TERMINATED NORMALLY****
TOTAL RUN TIME: 0 days 3 hours 51 minutes 24 seconds 721 msec
