                         Program Version 4.2.0 -  RELEASE  -
|  1> # Test redundant internal optimization
|  2> #
|  3> ! RKS B3LYP  Opt TightSCF SmallPrint
|  4>
|  5> %basis
|  6>         Basis "6-31G"
|  7> end
|  8>
|  9> %geom
| 10> Constraints
| 11> { D 4  0  15  12  225.0   C } # D for Dihedral angle
| 12> { D 0  15  12  16  0.0   C } # D for Dihedral angle
| 13> { D 0  4  3  2   C } # D for Dihedral angle
| 14> { D 4  3  2  1   C } # D for Dihedral angle
| 15> { D 3  2  1  0   C } # D for Dihedral angle
| 16> { D 2  1  0  4   C } # D for Dihedral angle
| 17> { D 1  0  4  3   C } # D for Dihedral angle
| 18> { D 16  20  19  18   C } # D for Dihedral angle
| 19> { D 20  19  18  17   C } # D for Dihedral angle
| 20> { D 19  18  17  16   C } # D for Dihedral angle
| 21> { D 18  17  16  20   C } # D for Dihedral angle
| 22> { D 17  16  20  19   C } # D for Dihedral angle
| 23> { D 15  12  16  20   C } # D for Dihedral angle
| 24> end
| 25> end
| 26>
| 27>
| 28> #%pal
| 29> #nprocs 8
| 30> #end
| 31>
| 32> * xyz 0 1
| 33> C  -21.048   26.222   46.251
| 34> C  -20.361   27.558   45.944
| 35> C  -20.329   28.222   47.341
| 36> C  -20.110   27.022   48.296
| 37> O  -20.473   25.807   47.535
| 38> H  -20.833   25.428   45.533
| 39> H  -19.344   27.382   45.576
| 40> H  -20.898   28.157   45.201
| 41> H  -19.543   28.978   47.434
| 42> H  -21.289   28.710   47.548
| 43> H  -20.733   27.082   49.195
| 44> H  -19.064   26.913   48.597
| 45> C  -23.415   25.773   45.218
| 46> H  -24.102   25.021   45.627
| 47> H  -24.012   26.545   44.716
| 48> O  -22.586   26.394   46.375
| 49> C  -22.527   25.088   44.142
| 50> C  -21.781   23.881   44.723
| 51> C  -22.887   22.799   44.721
| 52> C  -23.700   23.129   43.444
| 53> O  -23.359   24.520   43.077
| 54> H  -21.883   25.838   43.680
| 55> H  -20.958   23.594   44.059
| 56> O  -21.200   24.146   46.139
| 57> H  -22.485   21.781   44.708
| 58> H  -23.514   22.900   45.615
| 59> H  -24.780   23.054   43.603
| 60> H  -23.423   22.495   42.597
| 61> H  -22.008   24.436   46.820
| 62> *
| 63>
| 64>                          ****END OF INPUT****
 Total Charge           Charge          ....    0
 Multiplicity           Mult            ....    1
 Number of Electrons    NEL             ....  102
FINAL SINGLE POINT ENERGY      -652.747379459818
FINAL SINGLE POINT ENERGY      -652.822313944984
FINAL SINGLE POINT ENERGY      -652.843079020991
FINAL SINGLE POINT ENERGY      -652.847305065296
FINAL SINGLE POINT ENERGY      -652.847963549440
FINAL SINGLE POINT ENERGY      -652.848169634010
FINAL SINGLE POINT ENERGY      -652.848228737428
FINAL SINGLE POINT ENERGY      -652.848253973432
FINAL SINGLE POINT ENERGY      -652.848256772633
                    ***********************HURRAY********************

CARTESIAN COORDINATES (ANGSTROEM)
---------------------------------
  C    -20.781953   26.302788   46.343015
  C    -20.182966   27.690745   46.110895
  C    -20.532556   28.417922   47.434525
  C    -20.414141   27.289639   48.483190
  O    -20.476469   26.018869   47.721442
  H    -20.361369   25.504306   45.739278
  H    -19.096184   27.604128   45.988420
  H    -20.599854   28.181765   45.228053
  H    -19.862596   29.256477   47.646044
  H    -21.558883   28.791985   47.386780
  H    -21.225493   27.298842   49.216608
  H    -19.452821   27.295050   49.006765
  C    -23.050983   25.784629   45.173776
  H    -23.792912   25.168206   45.697552
  H    -23.597391   26.602020   44.691262
  O    -22.228464   26.388363   46.217039
  C    -22.461729   24.938487   44.016830
  C    -21.792736   23.590039   44.369286
  C    -23.035054   22.678357   44.679381
  C    -24.080284   23.207949   43.672569
  O    -23.626013   24.545474   43.228878
  H    -21.826606   25.548649   43.368621
  H    -21.284852   23.222785   43.473488
  O    -20.779997   23.542942   45.393855
  H    -22.802939   21.619705   44.541036
  H    -23.352087   22.831521   45.717972
  H    -25.081658   23.301744   44.103688
  H    -24.142753   22.582836   42.776517
  H    -21.163257   23.668780   46.288234

 Multiplicity           Mult            ....    1
 Number of Electrons    NEL             ....  102
 Basis Dimension        Dim             ....  149

ORBITAL ENERGIES
----------------

  NO   OCC          E(Eh)            E(eV)
   0   2.0000     -19.154786      -521.2282
   1   2.0000     -19.149670      -521.0890
   2   2.0000     -19.133735      -520.6554
   3   2.0000     -19.131355      -520.5906
   4   2.0000     -10.266911      -279.3768
   5   2.0000     -10.251016      -278.9443
   6   2.0000     -10.242709      -278.7183
   7   2.0000     -10.236683      -278.5543
   8   2.0000     -10.230608      -278.3890
   9   2.0000     -10.219554      -278.0882
  10   2.0000     -10.198146      -277.5057
  11   2.0000     -10.178545      -276.9723
  12   2.0000     -10.176947      -276.9288
  13   2.0000      -1.046435       -28.4750
  14   2.0000      -1.038575       -28.2611
  15   2.0000      -1.026421       -27.9303
  16   2.0000      -0.983152       -26.7529
  17   2.0000      -0.783900       -21.3310
  18   2.0000      -0.778843       -21.1934
  19   2.0000      -0.767187       -20.8762
  20   2.0000      -0.730478       -19.8773
  21   2.0000      -0.679962       -18.5027
  22   2.0000      -0.616556       -16.7773
  23   2.0000      -0.606104       -16.4929
  24   2.0000      -0.591776       -16.1031
  25   2.0000      -0.561540       -15.2803
  26   2.0000      -0.533186       -14.5087
  27   2.0000      -0.519492       -14.1361
  28   2.0000      -0.497256       -13.5310
  29   2.0000      -0.478916       -13.0320
  30   2.0000      -0.463148       -12.6029
  31   2.0000      -0.456291       -12.4163
  32   2.0000      -0.445731       -12.1290
  33   2.0000      -0.437895       -11.9157
  34   2.0000      -0.426945       -11.6178
  35   2.0000      -0.415935       -11.3182
  36   2.0000      -0.412872       -11.2348
  37   2.0000      -0.395033       -10.7494
  38   2.0000      -0.380508       -10.3541
  39   2.0000      -0.368402       -10.0247
  40   2.0000      -0.362668        -9.8687
  41   2.0000      -0.350705        -9.5432
  42   2.0000      -0.345827        -9.4104
  43   2.0000      -0.334404        -9.0996
  44   2.0000      -0.322618        -8.7789
  45   2.0000      -0.309233        -8.4147
  46   2.0000      -0.304759        -8.2929
  47   2.0000      -0.267986        -7.2923
  48   2.0000      -0.257665        -7.0114
  49   2.0000      -0.250936        -6.8283
  50   2.0000      -0.237480        -6.4622
  51   0.0000       0.052847         1.4380
  52   0.0000       0.072401         1.9701
  53   0.0000       0.090205         2.4546
  54   0.0000       0.095883         2.6091
  55   0.0000       0.101432         2.7601

MULLIKEN ATOMIC CHARGES
-----------------------
   0 C :    0.237415
   1 C :   -0.250191
   2 C :   -0.297171
   3 C :    0.000454
   4 O :   -0.515675
   5 H :    0.190844
   6 H :    0.142382
   7 H :    0.138078
   8 H :    0.136540
   9 H :    0.162207
  10 H :    0.148417
  11 H :    0.139955
  12 C :    0.013368
  13 H :    0.134584
  14 H :    0.159444
  15 O :   -0.546202
  16 C :    0.036352
  17 C :    0.105356
  18 C :   -0.326378
  19 C :   -0.015867
  20 O :   -0.514968
  21 H :    0.155745
  22 H :    0.167370
  23 O :   -0.597237
  24 H :    0.162317
  25 H :    0.146696
  26 H :    0.149080
  27 H :    0.154055
  28 H :    0.383027
Sum of atomic charges:   -0.0000000

LOEWDIN ATOMIC CHARGES
----------------------
   0 C :    0.156205
   1 C :   -0.222975
   2 C :   -0.216588
   3 C :   -0.026241
   4 O :   -0.320925
   5 H :    0.117713
   6 H :    0.111207
   7 H :    0.113873
   8 H :    0.111570
   9 H :    0.119220
  10 H :    0.105906
  11 H :    0.100860
  12 C :   -0.043063
  13 H :    0.098573
  14 H :    0.113877
  15 O :   -0.349476
  16 C :    0.006109
  17 C :    0.033328
  18 C :   -0.240570
  19 C :   -0.031783
  20 O :   -0.314225
  21 H :    0.112293
  22 H :    0.118282
  23 O :   -0.395223
  24 H :    0.125360
  25 H :    0.110101
  26 H :    0.104882
  27 H :    0.108001
  28 H :    0.293709

  Mayer bond orders larger than 0.100000
B(  0-C ,  1-C ) :   0.9356 B(  0-C ,  4-O ) :   0.9157 B(  0-C ,  5-H ) :   0.8754
B(  0-C , 15-O ) :   0.8233 B(  1-C ,  2-C ) :   0.9554 B(  1-C ,  6-H ) :   0.9366
B(  1-C ,  7-H ) :   0.9414 B(  2-C ,  3-C ) :   0.9553 B(  2-C ,  8-H ) :   0.9459
B(  2-C ,  9-H ) :   0.9434 B(  3-C ,  4-O ) :   0.8351 B(  3-C , 10-H ) :   0.9358
B(  3-C , 11-H ) :   0.9401 B( 12-C , 13-H ) :   0.9290 B( 12-C , 14-H ) :   0.9240
B( 12-C , 15-O ) :   0.8451 B( 12-C , 16-C ) :   0.8912 B( 16-C , 17-C ) :   0.8757
B( 16-C , 20-O ) :   0.8306 B( 16-C , 21-H ) :   0.9287 B( 17-C , 18-C ) :   0.9214
B( 17-C , 22-H ) :   0.9308 B( 17-C , 23-O ) :   0.8996 B( 18-C , 19-C ) :   0.9395
B( 18-C , 24-H ) :   0.9407 B( 18-C , 25-H ) :   0.9403 B( 19-C , 20-O ) :   0.8325
B( 19-C , 26-H ) :   0.9325 B( 19-C , 27-H ) :   0.9375 B( 23-O , 28-H ) :   0.7774

FINAL SINGLE POINT ENERGY      -652.848254791006

DIPOLE MOMENT
-------------
                                X             Y             Z
Electronic contribution:      0.08505      -2.02460      -1.08127
Nuclear contribution   :     -0.32984       1.93011       0.99720
                        -----------------------------------------
Total Dipole Moment    :     -0.24479      -0.09449      -0.08407
                        -----------------------------------------
Magnitude (a.u.)       :      0.27553
Magnitude (Debye)      :      0.70035

Rotational constants in cm-1:     0.061191     0.013820     0.012671
Rotational constants in MHz :  1834.448497   414.316183   379.876117

                             ****ORCA TERMINATED NORMALLY****
TOTAL RUN TIME: 0 days 0 hours 40 minutes 15 seconds 359 msec
