                         Program Version 4.2.0 -  RELEASE  -
|  1> # Test redundant internal optimization
|  2> #
|  3> ! RKS B3LYP  Opt TightSCF SmallPrint
|  4>
|  5> %basis
|  6>         Basis "6-31G"
|  7> end
|  8>
|  9> %geom
| 10> Constraints
| 11> { D 4  0  15  12  330.0   C } # D for Dihedral angle
| 12> { D 0  15  12  16  165.0   C } # D for Dihedral angle
| 13> { D 0  4  3  2   C } # D for Dihedral angle
| 14> { D 4  3  2  1   C } # D for Dihedral angle
| 15> { D 3  2  1  0   C } # D for Dihedral angle
| 16> { D 2  1  0  4   C } # D for Dihedral angle
| 17> { D 1  0  4  3   C } # D for Dihedral angle
| 18> { D 16  20  19  18   C } # D for Dihedral angle
| 19> { D 20  19  18  17   C } # D for Dihedral angle
| 20> { D 19  18  17  16   C } # D for Dihedral angle
| 21> { D 18  17  16  20   C } # D for Dihedral angle
| 22> { D 17  16  20  19   C } # D for Dihedral angle
| 23> { D 15  12  16  20   C } # D for Dihedral angle
| 24> end
| 25> end
| 26>
| 27>
| 28> #%pal
| 29> #nprocs 8
| 30> #end
| 31>
| 32> * xyz 0 1
| 33> C  -21.048   26.222   46.251
| 34> C  -20.361   27.558   45.944
| 35> C  -20.329   28.222   47.341
| 36> C  -20.110   27.022   48.296
| 37> O  -20.473   25.807   47.535
| 38> H  -20.833   25.428   45.533
| 39> H  -19.344   27.382   45.576
| 40> H  -20.898   28.157   45.201
| 41> H  -19.543   28.978   47.434
| 42> H  -21.289   28.710   47.548
| 43> H  -20.733   27.082   49.195
| 44> H  -19.064   26.913   48.597
| 45> C  -23.271   25.476   47.424
| 46> H  -23.319   24.452   47.032
| 47> H  -22.691   25.459   48.356
| 48> O  -22.586   26.394   46.375
| 49> C  -24.714   25.934   47.773
| 50> C  -25.641   25.826   46.557
| 51> C  -25.961   24.312   46.541
| 52> C  -26.008   23.946   48.046
| 53> O  -25.312   25.034   48.765
| 54> H  -24.674   26.927   48.224
| 55> O  -26.932   26.656   46.796
| 56> H  -25.176   26.172   45.628
| 57> H  -26.899   24.082   46.025
| 58> H  -25.157   23.763   46.034
| 59> H  -25.509   22.996   48.262
| 60> H  -27.030   23.905   48.433
| 61> H  -27.416   26.326   47.723
| 62> *
| 63>
| 64>                          ****END OF INPUT****
 Total Charge           Charge          ....    0
 Multiplicity           Mult            ....    1
 Number of Electrons    NEL             ....  102
FINAL SINGLE POINT ENERGY      -652.839510742272
FINAL SINGLE POINT ENERGY      -652.862852213952
FINAL SINGLE POINT ENERGY      -652.866713472247
FINAL SINGLE POINT ENERGY      -652.867353562458
FINAL SINGLE POINT ENERGY      -652.867444346259
FINAL SINGLE POINT ENERGY      -652.867458119859
                    ***********************HURRAY********************

CARTESIAN COORDINATES (ANGSTROEM)
---------------------------------
  C    -21.121462   26.156072   46.315263
  C    -20.614975   27.557540   45.977146
  C    -20.531602   28.207457   47.375711
  C    -20.101671   27.038179   48.287411
  O    -20.406373   25.796141   47.518066
  H    -20.886640   25.375160   45.584758
  H    -19.625089   27.480835   45.513126
  H    -21.288202   28.084704   45.297672
  H    -19.823279   29.040831   47.410162
  H    -21.517539   28.582596   47.665215
  H    -20.643589   27.005909   49.236206
  H    -19.026214   27.021307   48.485077
  C    -23.163824   25.348309   47.491852
  H    -23.186520   24.310059   47.130294
  H    -22.591447   25.365337   48.422467
  O    -22.561876   26.222518   46.492222
  C    -24.574379   25.878219   47.734881
  C    -25.505228   25.832924   46.515024
  C    -25.949573   24.348048   46.516031
  C    -26.031159   24.003291   48.024061
  O    -25.246745   25.042300   48.736537
  H    -24.518583   26.891528   48.141599
  O    -26.634812   26.733038   46.694160
  H    -25.016454   26.148301   45.594902
  H    -26.905382   24.230519   45.999620
  H    -25.204790   23.728201   46.004954
  H    -25.614368   23.019335   48.259940
  H    -27.053872   24.050114   48.411289
  H    -26.975353   26.642227   47.609357

 Multiplicity           Mult            ....    1
 Number of Electrons    NEL             ....  102
 Basis Dimension        Dim             ....  149

ORBITAL ENERGIES
----------------

  NO   OCC          E(Eh)            E(eV)
   0   2.0000     -19.149562      -521.0861
   1   2.0000     -19.144353      -520.9443
   2   2.0000     -19.142050      -520.8817
   3   2.0000     -19.132297      -520.6163
   4   2.0000     -10.281328      -279.7691
   5   2.0000     -10.232283      -278.4346
   6   2.0000     -10.231412      -278.4109
   7   2.0000     -10.229795      -278.3669
   8   2.0000     -10.229173      -278.3500
   9   2.0000     -10.225420      -278.2478
  10   2.0000     -10.189300      -277.2650
  11   2.0000     -10.187582      -277.2182
  12   2.0000     -10.184657      -277.1386
  13   2.0000      -1.057376       -28.7727
  14   2.0000      -1.033262       -28.1165
  15   2.0000      -1.001477       -27.2516
  16   2.0000      -0.995247       -27.0821
  17   2.0000      -0.793220       -21.5846
  18   2.0000      -0.776911       -21.1408
  19   2.0000      -0.766352       -20.8535
  20   2.0000      -0.731342       -19.9008
  21   2.0000      -0.671147       -18.2628
  22   2.0000      -0.603418       -16.4198
  23   2.0000      -0.601143       -16.3579
  24   2.0000      -0.589991       -16.0545
  25   2.0000      -0.577492       -15.7144
  26   2.0000      -0.522650       -14.2220
  27   2.0000      -0.513407       -13.9705
  28   2.0000      -0.497974       -13.5506
  29   2.0000      -0.491830       -13.3834
  30   2.0000      -0.472640       -12.8612
  31   2.0000      -0.455215       -12.3870
  32   2.0000      -0.448430       -12.2024
  33   2.0000      -0.436473       -11.8770
  34   2.0000      -0.421228       -11.4622
  35   2.0000      -0.412775       -11.2322
  36   2.0000      -0.400348       -10.8940
  37   2.0000      -0.389337       -10.5944
  38   2.0000      -0.376046       -10.2327
  39   2.0000      -0.364642        -9.9224
  40   2.0000      -0.361217        -9.8292
  41   2.0000      -0.353881        -9.6296
  42   2.0000      -0.351757        -9.5718
  43   2.0000      -0.342980        -9.3330
  44   2.0000      -0.323062        -8.7910
  45   2.0000      -0.307957        -8.3799
  46   2.0000      -0.298409        -8.1201
  47   2.0000      -0.270210        -7.3528
  48   2.0000      -0.263069        -7.1585
  49   2.0000      -0.257525        -7.0076
  50   2.0000      -0.245209        -6.6725
  51   0.0000       0.067906         1.8478
  52   0.0000       0.074805         2.0355
  53   0.0000       0.094489         2.5712
  54   0.0000       0.101733         2.7683
  55   0.0000       0.103328         2.8117

MULLIKEN ATOMIC CHARGES
-----------------------
   0 C :    0.304374
   1 C :   -0.262426
   2 C :   -0.299725
   3 C :   -0.016882
   4 O :   -0.512750
   5 H :    0.148453
   6 H :    0.145784
   7 H :    0.162772
   8 H :    0.145509
   9 H :    0.159360
  10 H :    0.148505
  11 H :    0.150648
  12 C :    0.001418
  13 H :    0.124516
  14 H :    0.168717
  15 O :   -0.545499
  16 C :    0.055005
  17 C :    0.094682
  18 C :   -0.301256
  19 C :   -0.026092
  20 O :   -0.529309
  21 H :    0.159019
  22 O :   -0.606144
  23 H :    0.172596
  24 H :    0.160069
  25 H :    0.148447
  26 H :    0.144687
  27 H :    0.143959
  28 H :    0.361561
Sum of atomic charges:    0.0000000

LOEWDIN ATOMIC CHARGES
----------------------
   0 C :    0.179843
   1 C :   -0.215916
   2 C :   -0.216844
   3 C :   -0.031017
   4 O :   -0.322293
   5 H :    0.098151
   6 H :    0.114417
   7 H :    0.126943
   8 H :    0.116285
   9 H :    0.117540
  10 H :    0.104984
  11 H :    0.106825
  12 C :   -0.038772
  13 H :    0.091406
  14 H :    0.115202
  15 O :   -0.343061
  16 C :    0.017415
  17 C :    0.038656
  18 C :   -0.242111
  19 C :   -0.037087
  20 O :   -0.331646
  21 H :    0.115089
  22 O :   -0.416641
  23 H :    0.126368
  24 H :    0.125827
  25 H :    0.114864
  26 H :    0.103444
  27 H :    0.101393
  28 H :    0.280734

  Mayer bond orders larger than 0.100000
B(  0-C ,  1-C ) :   0.9454 B(  0-C ,  4-O ) :   0.9073 B(  0-C ,  5-H ) :   0.9235
B(  0-C , 15-O ) :   0.8371 B(  1-C ,  2-C ) :   0.9543 B(  1-C ,  6-H ) :   0.9375
B(  1-C ,  7-H ) :   0.9351 B(  2-C ,  3-C ) :   0.9549 B(  2-C ,  8-H ) :   0.9445
B(  2-C ,  9-H ) :   0.9445 B(  3-C ,  4-O ) :   0.8298 B(  3-C , 10-H ) :   0.9339
B(  3-C , 11-H ) :   0.9403 B( 12-C , 13-H ) :   0.9226 B( 12-C , 14-H ) :   0.9105
B( 12-C , 15-O ) :   0.8130 B( 12-C , 16-C ) :   0.9048 B( 16-C , 17-C ) :   0.9116
B( 16-C , 20-O ) :   0.8446 B( 16-C , 21-H ) :   0.9261 B( 17-C , 18-C ) :   0.9129
B( 17-C , 22-O ) :   0.8867 B( 17-C , 23-H ) :   0.9254 B( 18-C , 19-C ) :   0.9400
B( 18-C , 24-H ) :   0.9382 B( 18-C , 25-H ) :   0.9342 B( 19-C , 20-O ) :   0.8428
B( 19-C , 26-H ) :   0.9360 B( 19-C , 27-H ) :   0.9386 B( 22-O , 28-H ) :   0.7964

FINAL SINGLE POINT ENERGY      -652.867460824895

DIPOLE MOMENT
-------------
                                X             Y             Z
Electronic contribution:     -2.01623      -0.80026       0.58357
Nuclear contribution   :      2.56967       0.74270      -0.64214
                        -----------------------------------------
Total Dipole Moment    :      0.55344      -0.05756      -0.05857
                        -----------------------------------------
Magnitude (a.u.)       :      0.55950
Magnitude (Debye)      :      1.42214

Rotational constants in cm-1:     0.057425     0.012650     0.011973
Rotational constants in MHz :  1721.565730   379.230955   358.954247

                             ****ORCA TERMINATED NORMALLY****
TOTAL RUN TIME: 0 days 0 hours 24 minutes 44 seconds 660 msec
