                         Program Version 4.2.0 -  RELEASE  -
|  1> # Test redundant internal optimization
|  2> #
|  3> ! RKS B3LYP  Opt TightSCF SmallPrint
|  4>
|  5> %basis
|  6>         Basis "6-31G"
|  7> end
|  8>
|  9> %geom
| 10> Constraints
| 11> { D 4  0  15  12  285.0   C } # D for Dihedral angle
| 12> { D 0  15  12  16  180.0   C } # D for Dihedral angle
| 13> { D 0  4  3  2   C } # D for Dihedral angle
| 14> { D 4  3  2  1   C } # D for Dihedral angle
| 15> { D 3  2  1  0   C } # D for Dihedral angle
| 16> { D 2  1  0  4   C } # D for Dihedral angle
| 17> { D 1  0  4  3   C } # D for Dihedral angle
| 18> { D 16  20  19  18   C } # D for Dihedral angle
| 19> { D 20  19  18  17   C } # D for Dihedral angle
| 20> { D 19  18  17  16   C } # D for Dihedral angle
| 21> { D 18  17  16  20   C } # D for Dihedral angle
| 22> { D 17  16  20  19   C } # D for Dihedral angle
| 23> { D 15  12  16  20   C } # D for Dihedral angle
| 24> end
| 25> end
| 26>
| 27>
| 28> #%pal
| 29> #nprocs 8
| 30> #end
| 31>
| 32> * xyz 0 1
| 33> C  -21.048   26.222   46.251
| 34> C  -20.361   27.558   45.944
| 35> C  -20.329   28.222   47.341
| 36> C  -20.110   27.022   48.296
| 37> O  -20.473   25.807   47.535
| 38> H  -20.833   25.428   45.533
| 39> H  -19.344   27.382   45.576
| 40> H  -20.898   28.157   45.201
| 41> H  -19.543   28.978   47.434
| 42> H  -21.289   28.710   47.548
| 43> H  -20.733   27.082   49.195
| 44> H  -19.064   26.913   48.597
| 45> C  -23.396   25.070   46.435
| 46> H  -23.209   24.490   45.523
| 47> H  -23.081   24.466   47.296
| 48> O  -22.586   26.394   46.375
| 49> C  -24.927   25.307   46.559
| 50> C  -25.682   23.985   46.732
| 51> C  -25.452   23.686   48.233
| 52> C  -25.460   25.095   48.877
| 53> O  -25.231   26.060   47.780
| 54> H  -25.264   25.914   45.716
| 55> O  -27.194   24.193   46.441
| 56> H  -25.311   23.189   46.078
| 57> H  -26.217   23.029   48.657
| 58> H  -24.478   23.202   48.375
| 59> H  -24.673   25.216   49.630
| 60> H  -26.425   25.342   49.329
| 61> H  -27.587   24.987   47.085
| 62> *
| 63>
| 64>                          ****END OF INPUT****
 Total Charge           Charge          ....    0
 Multiplicity           Mult            ....    1
 Number of Electrons    NEL             ....  102
FINAL SINGLE POINT ENERGY      -652.835980402086
FINAL SINGLE POINT ENERGY      -652.861007695978
FINAL SINGLE POINT ENERGY      -652.865383290272
FINAL SINGLE POINT ENERGY      -652.866190313608
FINAL SINGLE POINT ENERGY      -652.866291978319
FINAL SINGLE POINT ENERGY      -652.866302204365
                    ***********************HURRAY********************

CARTESIAN COORDINATES (ANGSTROEM)
---------------------------------
  C    -21.111396   26.142012   46.227781
  C    -20.566913   27.543656   45.950920
  C    -20.551399   28.161587   47.367479
  C    -20.188512   26.961788   48.270240
  O    -20.465427   25.745761   47.463020
  H    -20.864766   25.371877   45.488953
  H    -19.552922   27.463757   45.542496
  H    -21.193974   28.094112   45.246784
  H    -19.834487   28.983099   47.461049
  H    -21.548491   28.537981   47.612023
  H    -20.784473   26.920715   49.185228
  H    -19.125626   26.928582   48.528354
  C    -23.253257   25.004259   46.454934
  H    -23.094854   24.424905   45.530655
  H    -22.871702   24.417383   47.300806
  O    -22.537840   26.265292   46.381298
  C    -24.736847   25.314877   46.615065
  C    -25.618992   24.066667   46.755920
  C    -25.470142   23.743368   48.266276
  C    -25.369158   25.146705   48.915342
  O    -25.012124   26.089491   47.828414
  H    -25.058449   25.939554   45.776125
  O    -26.997876   24.365522   46.402942
  H    -25.328266   23.240434   46.105815
  H    -26.326483   23.166218   48.623920
  H    -24.560957   23.156802   48.440356
  H    -24.604135   25.197014   49.696277
  H    -26.321388   25.484098   49.336755
  H    -27.247141   25.228481   46.796774

 Multiplicity           Mult            ....    1
 Number of Electrons    NEL             ....  102
 Basis Dimension        Dim             ....  149

ORBITAL ENERGIES
----------------

  NO   OCC          E(Eh)            E(eV)
   0   2.0000     -19.142369      -520.8903
   1   2.0000     -19.139924      -520.8238
   2   2.0000     -19.138939      -520.7970
   3   2.0000     -19.136881      -520.7410
   4   2.0000     -10.275995      -279.6240
   5   2.0000     -10.243158      -278.7305
   6   2.0000     -10.233781      -278.4753
   7   2.0000     -10.230338      -278.3817
   8   2.0000     -10.229349      -278.3547
   9   2.0000     -10.221611      -278.1442
  10   2.0000     -10.189421      -277.2682
  11   2.0000     -10.181762      -277.0598
  12   2.0000     -10.180269      -277.0192
  13   2.0000      -1.053749       -28.6740
  14   2.0000      -1.035225       -28.1699
  15   2.0000      -1.005638       -27.3648
  16   2.0000      -0.991748       -26.9868
  17   2.0000      -0.789300       -21.4779
  18   2.0000      -0.780000       -21.2249
  19   2.0000      -0.765995       -20.8438
  20   2.0000      -0.727610       -19.7993
  21   2.0000      -0.671912       -18.2837
  22   2.0000      -0.604356       -16.4454
  23   2.0000      -0.596002       -16.2180
  24   2.0000      -0.588259       -16.0073
  25   2.0000      -0.582815       -15.8592
  26   2.0000      -0.527573       -14.3560
  27   2.0000      -0.509692       -13.8694
  28   2.0000      -0.490982       -13.3603
  29   2.0000      -0.486289       -13.2326
  30   2.0000      -0.476617       -12.9694
  31   2.0000      -0.458168       -12.4674
  32   2.0000      -0.449404       -12.2289
  33   2.0000      -0.440489       -11.9863
  34   2.0000      -0.421412       -11.4672
  35   2.0000      -0.403861       -10.9896
  36   2.0000      -0.398258       -10.8372
  37   2.0000      -0.393463       -10.7067
  38   2.0000      -0.373449       -10.1621
  39   2.0000      -0.371113       -10.0985
  40   2.0000      -0.359627        -9.7860
  41   2.0000      -0.352530        -9.5928
  42   2.0000      -0.344417        -9.3721
  43   2.0000      -0.331286        -9.0147
  44   2.0000      -0.323714        -8.8087
  45   2.0000      -0.307145        -8.3578
  46   2.0000      -0.297644        -8.0993
  47   2.0000      -0.271147        -7.3783
  48   2.0000      -0.265174        -7.2157
  49   2.0000      -0.251122        -6.8334
  50   2.0000      -0.243440        -6.6243
  51   0.0000       0.066499         1.8095
  52   0.0000       0.086749         2.3606
  53   0.0000       0.091286         2.4840
  54   0.0000       0.099151         2.6980
  55   0.0000       0.106230         2.8907

MULLIKEN ATOMIC CHARGES
-----------------------
   0 C :    0.288057
   1 C :   -0.260961
   2 C :   -0.299369
   3 C :   -0.001783
   4 O :   -0.515242
   5 H :    0.136613
   6 H :    0.142867
   7 H :    0.157008
   8 H :    0.138438
   9 H :    0.172281
  10 H :    0.148008
  11 H :    0.140330
  12 C :    0.005598
  13 H :    0.121697
  14 H :    0.149849
  15 O :   -0.511059
  16 C :    0.062159
  17 C :    0.073555
  18 C :   -0.298589
  19 C :   -0.029492
  20 O :   -0.509501
  21 H :    0.167572
  22 O :   -0.602486
  23 H :    0.152471
  24 H :    0.163569
  25 H :    0.147321
  26 H :    0.151631
  27 H :    0.143265
  28 H :    0.366192
Sum of atomic charges:   -0.0000000

LOEWDIN ATOMIC CHARGES
----------------------
   0 C :    0.171529
   1 C :   -0.214913
   2 C :   -0.215963
   3 C :   -0.026968
   4 O :   -0.332725
   5 H :    0.094088
   6 H :    0.112849
   7 H :    0.124276
   8 H :    0.112269
   9 H :    0.124137
  10 H :    0.106003
  11 H :    0.101308
  12 C :   -0.043482
  13 H :    0.092851
  14 H :    0.103679
  15 O :   -0.315437
  16 C :    0.018313
  17 C :    0.035501
  18 C :   -0.241899
  19 C :   -0.038319
  20 O :   -0.320755
  21 H :    0.120137
  22 O :   -0.414880
  23 H :    0.115528
  24 H :    0.126711
  25 H :    0.114250
  26 H :    0.106495
  27 H :    0.101343
  28 H :    0.284074

  Mayer bond orders larger than 0.100000
B(  0-C ,  1-C ) :   0.9498 B(  0-C ,  4-O ) :   0.9056 B(  0-C ,  5-H ) :   0.9186
B(  0-C , 15-O ) :   0.8656 B(  1-C ,  2-C ) :   0.9571 B(  1-C ,  6-H ) :   0.9407
B(  1-C ,  7-H ) :   0.9360 B(  2-C ,  3-C ) :   0.9561 B(  2-C ,  8-H ) :   0.9452
B(  2-C ,  9-H ) :   0.9420 B(  3-C ,  4-O ) :   0.8359 B(  3-C , 10-H ) :   0.9359
B(  3-C , 11-H ) :   0.9405 B( 12-C , 13-H ) :   0.9110 B( 12-C , 14-H ) :   0.9129
B( 12-C , 15-O ) :   0.8348 B( 12-C , 16-C ) :   0.9025 B( 16-C , 17-C ) :   0.9018
B( 16-C , 20-O ) :   0.8687 B( 16-C , 21-H ) :   0.9235 B( 17-C , 18-C ) :   0.9110
B( 17-C , 22-O ) :   0.8939 B( 17-C , 23-H ) :   0.9326 B( 18-C , 19-C ) :   0.9406
B( 18-C , 24-H ) :   0.9374 B( 18-C , 25-H ) :   0.9332 B( 19-C , 20-O ) :   0.8511
B( 19-C , 26-H ) :   0.9334 B( 19-C , 27-H ) :   0.9381 B( 22-O , 28-H ) :   0.7932

FINAL SINGLE POINT ENERGY      -652.866304066852

DIPOLE MOMENT
-------------
                                X             Y             Z
Electronic contribution:     -2.90323      -0.84167      -1.89531
Nuclear contribution   :      3.41424       0.82988       2.15659
                        -----------------------------------------
Total Dipole Moment    :      0.51101      -0.01179       0.26128
                        -----------------------------------------
Magnitude (a.u.)       :      0.57406
Magnitude (Debye)      :      1.45914

Rotational constants in cm-1:     0.061759     0.012214     0.011683
Rotational constants in MHz :  1851.491829   366.153015   350.236667

                             ****ORCA TERMINATED NORMALLY****
TOTAL RUN TIME: 0 days 0 hours 37 minutes 1 seconds 524 msec
