                         Program Version 4.2.0 -  RELEASE  -
|  1> # Test redundant internal optimization
|  2> #
|  3> ! RKS B3LYP  Opt TightSCF SmallPrint
|  4>
|  5> %basis
|  6>         Basis "6-31G"
|  7> end
|  8>
|  9> %geom
| 10> Constraints
| 11> { D 4  0  15  12  165.0   C } # D for Dihedral angle
| 12> { D 0  15  12  16  75.0   C } # D for Dihedral angle
| 13> { D 0  4  3  2   C } # D for Dihedral angle
| 14> { D 4  3  2  1   C } # D for Dihedral angle
| 15> { D 3  2  1  0   C } # D for Dihedral angle
| 16> { D 2  1  0  4   C } # D for Dihedral angle
| 17> { D 1  0  4  3   C } # D for Dihedral angle
| 18> { D 16  20  19  18   C } # D for Dihedral angle
| 19> { D 20  19  18  17   C } # D for Dihedral angle
| 20> { D 19  18  17  16   C } # D for Dihedral angle
| 21> { D 18  17  16  20   C } # D for Dihedral angle
| 22> { D 17  16  20  19   C } # D for Dihedral angle
| 23> { D 15  12  16  20   C } # D for Dihedral angle
| 24> end
| 25> end
| 26>
| 27>
| 28> #%pal
| 29> #nprocs 8
| 30> #end
| 31>
| 32> * xyz 0 1
| 33> C  -21.048   26.222   46.251
| 34> C  -20.361   27.558   45.944
| 35> C  -20.329   28.222   47.341
| 36> C  -20.110   27.022   48.296
| 37> O  -20.473   25.807   47.535
| 38> H  -20.833   25.428   45.533
| 39> H  -19.344   27.382   45.576
| 40> H  -20.898   28.157   45.201
| 41> H  -19.543   28.978   47.434
| 42> H  -21.289   28.710   47.548
| 43> H  -20.733   27.082   49.195
| 44> H  -19.064   26.913   48.597
| 45> C  -23.260   27.170   45.210
| 46> H  -24.268   27.477   45.515
| 47> H  -22.685   28.074   44.968
| 48> O  -22.586   26.394   46.375
| 49> C  -23.378   26.323   43.913
| 50> C  -22.012   25.782   43.475
| 51> C  -21.831   24.577   44.429
| 52> C  -23.274   24.035   44.588
| 53> O  -24.181   25.121   44.157
| 54> H  -23.898   26.906   43.151
| 55> H  -22.058   25.446   42.433
| 56> O  -20.871   26.828   43.604
| 57> H  -21.143   23.823   44.035
| 58> H  -21.439   24.917   45.395
| 59> H  -23.508   23.759   45.622
| 60> H  -23.471   23.175   43.940
| 61> H  -20.808   27.178   44.640
| 62> *
| 63>
| 64>                          ****END OF INPUT****
 Total Charge           Charge          ....    0
 Multiplicity           Mult            ....    1
 Number of Electrons    NEL             ....  102
FINAL SINGLE POINT ENERGY      -652.653791661186
FINAL SINGLE POINT ENERGY      -652.726204837202
FINAL SINGLE POINT ENERGY      -652.767732042697
FINAL SINGLE POINT ENERGY      -652.794146910972
FINAL SINGLE POINT ENERGY      -652.810272973935
FINAL SINGLE POINT ENERGY      -652.819840869346
FINAL SINGLE POINT ENERGY      -652.825379055196
FINAL SINGLE POINT ENERGY      -652.828683010542
FINAL SINGLE POINT ENERGY      -652.830815510277
FINAL SINGLE POINT ENERGY      -652.832479156217
FINAL SINGLE POINT ENERGY      -652.846436939984
FINAL SINGLE POINT ENERGY      -652.846507100840
FINAL SINGLE POINT ENERGY      -652.846552194326
FINAL SINGLE POINT ENERGY      -652.846608252020
FINAL SINGLE POINT ENERGY      -652.846653625926
FINAL SINGLE POINT ENERGY      -652.846694583675
FINAL SINGLE POINT ENERGY      -652.846722528752
FINAL SINGLE POINT ENERGY      -652.846736939405
FINAL SINGLE POINT ENERGY      -652.846741853452
                    ***********************HURRAY********************

CARTESIAN COORDINATES (ANGSTROEM)
---------------------------------
  C    -20.953651   26.318877   46.646548
  C    -20.140023   27.547173   46.241344
  C    -20.287071   28.455624   47.487117
  C    -20.306790   27.439697   48.649068
  O    -20.627632   26.128174   48.033897
  H    -20.682466   25.395006   46.140962
  H    -19.094722   27.241074   46.110467
  H    -20.471022   28.004342   45.309221
  H    -19.468899   29.177182   47.577120
  H    -21.229780   29.009459   47.440726
  H    -21.061964   27.665266   49.406513
  H    -19.330740   27.328888   49.132289
  C    -23.091880   27.077202   45.446250
  H    -24.077605   27.310802   45.857763
  H    -22.625742   28.018778   45.123926
  O    -22.395759   26.536502   46.603277
  C    -23.365310   26.258145   44.170351
  C    -22.225388   25.759197   43.268468
  C    -21.903807   24.366558   43.890912
  C    -23.301488   23.877052   44.344304
  O    -24.171458   25.069523   44.396927
  H    -24.006769   26.935691   43.587838
  H    -22.613804   25.636364   42.248886
  O    -21.127113   26.704937   43.282433
  H    -21.440673   23.680985   43.172390
  H    -21.223977   24.490324   44.731301
  H    -23.279608   23.408242   45.332793
  H    -23.750964   23.180641   43.629291
  H    -20.439896   26.444297   42.638619

 Multiplicity           Mult            ....    1
 Number of Electrons    NEL             ....  102
 Basis Dimension        Dim             ....  149

ORBITAL ENERGIES
----------------

  NO   OCC          E(Eh)            E(eV)
   0   2.0000     -19.159392      -521.3536
   1   2.0000     -19.135734      -520.7098
   2   2.0000     -19.129745      -520.5468
   3   2.0000     -19.129020      -520.5271
   4   2.0000     -10.268358      -279.4162
   5   2.0000     -10.251904      -278.9685
   6   2.0000     -10.234485      -278.4945
   7   2.0000     -10.227280      -278.2984
   8   2.0000     -10.222812      -278.1768
   9   2.0000     -10.215946      -277.9900
  10   2.0000     -10.191085      -277.3135
  11   2.0000     -10.178227      -276.9636
  12   2.0000     -10.173403      -276.8324
  13   2.0000      -1.042649       -28.3719
  14   2.0000      -1.037662       -28.2362
  15   2.0000      -1.019009       -27.7286
  16   2.0000      -0.979536       -26.6545
  17   2.0000      -0.781968       -21.2784
  18   2.0000      -0.775634       -21.1061
  19   2.0000      -0.766893       -20.8682
  20   2.0000      -0.726862       -19.7789
  21   2.0000      -0.677515       -18.4361
  22   2.0000      -0.610716       -16.6184
  23   2.0000      -0.596413       -16.2292
  24   2.0000      -0.589423       -16.0390
  25   2.0000      -0.555291       -15.1102
  26   2.0000      -0.532142       -14.4803
  27   2.0000      -0.509918       -13.8756
  28   2.0000      -0.498267       -13.5585
  29   2.0000      -0.483271       -13.1505
  30   2.0000      -0.459716       -12.5095
  31   2.0000      -0.455316       -12.3898
  32   2.0000      -0.445939       -12.1346
  33   2.0000      -0.436049       -11.8655
  34   2.0000      -0.424024       -11.5383
  35   2.0000      -0.412134       -11.2147
  36   2.0000      -0.402260       -10.9460
  37   2.0000      -0.391983       -10.6664
  38   2.0000      -0.371029       -10.0962
  39   2.0000      -0.367724       -10.0063
  40   2.0000      -0.359440        -9.7809
  41   2.0000      -0.349783        -9.5181
  42   2.0000      -0.341000        -9.2791
  43   2.0000      -0.334921        -9.1137
  44   2.0000      -0.303544        -8.2598
  45   2.0000      -0.302116        -8.2210
  46   2.0000      -0.286813        -7.8046
  47   2.0000      -0.279930        -7.6173
  48   2.0000      -0.260043        -7.0761
  49   2.0000      -0.247291        -6.7291
  50   2.0000      -0.230649        -6.2763
  51   0.0000       0.044779         1.2185
  52   0.0000       0.074947         2.0394
  53   0.0000       0.092523         2.5177
  54   0.0000       0.098724         2.6864
  55   0.0000       0.116078         3.1587

MULLIKEN ATOMIC CHARGES
-----------------------
   0 C :    0.311484
   1 C :   -0.289575
   2 C :   -0.299111
   3 C :   -0.000263
   4 O :   -0.506967
   5 H :    0.141946
   6 H :    0.135601
   7 H :    0.175613
   8 H :    0.136932
   9 H :    0.153519
  10 H :    0.150577
  11 H :    0.137625
  12 C :    0.003875
  13 H :    0.164914
  14 H :    0.126516
  15 O :   -0.517507
  16 C :    0.093165
  17 C :    0.082443
  18 C :   -0.327519
  19 C :   -0.005656
  20 O :   -0.516621
  21 H :    0.145739
  22 H :    0.143876
  23 O :   -0.613197
  24 H :    0.137853
  25 H :    0.165747
  26 H :    0.159595
  27 H :    0.143238
  28 H :    0.366156
Sum of atomic charges:    0.0000000

LOEWDIN ATOMIC CHARGES
----------------------
   0 C :    0.184353
   1 C :   -0.233926
   2 C :   -0.218699
   3 C :   -0.026765
   4 O :   -0.308181
   5 H :    0.090935
   6 H :    0.111776
   7 H :    0.126931
   8 H :    0.111787
   9 H :    0.113405
  10 H :    0.107128
  11 H :    0.099905
  12 C :   -0.037978
  13 H :    0.123858
  14 H :    0.097391
  15 O :   -0.331976
  16 C :    0.020355
  17 C :    0.032754
  18 C :   -0.246865
  19 C :   -0.024574
  20 O :   -0.319056
  21 H :    0.113696
  22 H :    0.100584
  23 O :   -0.417205
  24 H :    0.111604
  25 H :    0.118468
  26 H :    0.111162
  27 H :    0.101363
  28 H :    0.287771

  Mayer bond orders larger than 0.100000
B(  0-C ,  1-C ) :   0.9346 B(  0-C ,  4-O ) :   0.9189 B(  0-C ,  5-H ) :   0.8972
B(  0-C , 15-O ) :   0.8423 B(  1-C ,  2-C ) :   0.9458 B(  1-C ,  6-H ) :   0.9374
B(  1-C ,  7-H ) :   0.9173 B(  2-C ,  3-C ) :   0.9528 B(  2-C ,  8-H ) :   0.9461
B(  2-C ,  9-H ) :   0.9465 B(  3-C ,  4-O ) :   0.8390 B(  3-C , 10-H ) :   0.9352
B(  3-C , 11-H ) :   0.9400 B( 12-C , 13-H ) :   0.9318 B( 12-C , 14-H ) :   0.9013
B( 12-C , 15-O ) :   0.8910 B( 12-C , 16-C ) :   0.8939 B( 16-C , 17-C ) :   0.9194
B( 16-C , 20-O ) :   0.8719 B( 16-C , 21-H ) :   0.9184 B( 17-C , 18-C ) :   0.9263
B( 17-C , 22-H ) :   0.9214 B( 17-C , 23-O ) :   0.8733 B( 18-C , 19-C ) :   0.9445
B( 18-C , 24-H ) :   0.9427 B( 18-C , 25-H ) :   0.9147 B( 19-C , 20-O ) :   0.8456
B( 19-C , 26-H ) :   0.9299 B( 19-C , 27-H ) :   0.9363 B( 23-O , 28-H ) :   0.7999

FINAL SINGLE POINT ENERGY      -652.846742968173

DIPOLE MOMENT
-------------
                                X             Y             Z
Electronic contribution:     -3.15771      -2.09829      -0.00872
Nuclear contribution   :      4.25100       2.40330      -1.50053
                        -----------------------------------------
Total Dipole Moment    :      1.09330       0.30501      -1.50925
                        -----------------------------------------
Magnitude (a.u.)       :      1.88843
Magnitude (Debye)      :      4.80000

Rotational constants in cm-1:     0.049457     0.016172     0.015091
Rotational constants in MHz :  1482.673472   484.824297   452.429056

                             ****ORCA TERMINATED NORMALLY****
TOTAL RUN TIME: 0 days 2 hours 35 minutes 38 seconds 352 msec
