                         Program Version 4.2.0 -  RELEASE  -
|  1> # Test redundant internal optimization
|  2> #
|  3> ! RKS B3LYP  Opt TightSCF SmallPrint
|  4>
|  5> %basis
|  6>         Basis "6-31G"
|  7> end
|  8>
|  9> %geom
| 10> Constraints
| 11> { D 4  0  15  12  105.0   C } # D for Dihedral angle
| 12> { D 0  15  12  16  165.0   C } # D for Dihedral angle
| 13> { D 0  4  3  2   C } # D for Dihedral angle
| 14> { D 4  3  2  1   C } # D for Dihedral angle
| 15> { D 3  2  1  0   C } # D for Dihedral angle
| 16> { D 2  1  0  4   C } # D for Dihedral angle
| 17> { D 1  0  4  3   C } # D for Dihedral angle
| 18> { D 16  20  19  18   C } # D for Dihedral angle
| 19> { D 20  19  18  17   C } # D for Dihedral angle
| 20> { D 19  18  17  16   C } # D for Dihedral angle
| 21> { D 18  17  16  20   C } # D for Dihedral angle
| 22> { D 17  16  20  19   C } # D for Dihedral angle
| 23> { D 15  12  16  20   C } # D for Dihedral angle
| 24> end
| 25> end
| 26>
| 27>
| 28> #%pal
| 29> #nprocs 8
| 30> #end
| 31>
| 32> * xyz 0 1
| 33> C  -21.048   26.222   46.251
| 34> C  -20.361   27.558   45.944
| 35> C  -20.329   28.222   47.341
| 36> C  -20.110   27.022   48.296
| 37> O  -20.473   25.807   47.535
| 38> H  -20.833   25.428   45.533
| 39> H  -19.344   27.382   45.576
| 40> H  -20.898   28.157   45.201
| 41> H  -19.543   28.978   47.434
| 42> H  -21.289   28.710   47.548
| 43> H  -20.733   27.082   49.195
| 44> H  -19.064   26.913   48.597
| 45> C  -23.085   27.864   46.420
| 46> H  -22.860   28.293   47.405
| 47> H  -22.573   28.467   45.659
| 48> O  -22.586   26.394   46.375
| 49> C  -24.613   27.988   46.171
| 50> C  -25.416   27.314   47.290
| 51> C  -25.355   28.383   48.407
| 52> C  -25.397   29.717   47.620
| 53> O  -25.029   29.394   46.225
| 54> H  -24.843   27.625   45.168
| 55> O  -26.881   27.084   46.830
| 56> H  -24.997   26.350   47.600
| 57> H  -26.178   28.295   49.124
| 58> H  -24.415   28.292   48.964
| 59> H  -24.694   30.458   48.014
| 60> H  -26.398   30.156   47.596
| 61> H  -27.322   28.037   46.514
| 62> *
| 63>
| 64>                          ****END OF INPUT****
 Total Charge           Charge          ....    0
 Multiplicity           Mult            ....    1
 Number of Electrons    NEL             ....  102
FINAL SINGLE POINT ENERGY      -652.819114667867
FINAL SINGLE POINT ENERGY      -652.844589219253
FINAL SINGLE POINT ENERGY      -652.855596780919
FINAL SINGLE POINT ENERGY      -652.857495008253
FINAL SINGLE POINT ENERGY      -652.857819775261
FINAL SINGLE POINT ENERGY      -652.857862855641
FINAL SINGLE POINT ENERGY      -652.857860764273
                    ***********************HURRAY********************

CARTESIAN COORDINATES (ANGSTROEM)
---------------------------------
  C    -21.247243   26.375081   46.346757
  C    -20.254233   27.457838   45.908830
  C    -19.931584   28.164744   47.254805
  C    -19.968924   26.993653   48.267623
  O    -20.707973   25.896600   47.598520
  H    -21.269321   25.501899   45.693414
  H    -19.362759   26.960170   45.513357
  H    -20.635939   28.132482   45.138379
  H    -18.957004   28.662065   47.237983
  H    -20.685292   28.921764   47.489662
  H    -20.477246   27.249256   49.202087
  H    -18.971177   26.609706   48.498757
  C    -23.108827   28.117016   46.504733
  H    -22.904810   28.574101   47.482941
  H    -22.640924   28.736050   45.730884
  O    -22.643561   26.742002   46.460983
  C    -24.613349   28.062795   46.244551
  C    -25.431216   27.299145   47.295891
  C    -25.557507   28.356323   48.421407
  C    -25.667977   29.691675   47.645059
  O    -25.163797   29.422672   46.273031
  H    -24.793139   27.658567   45.244847
  O    -26.731845   26.926076   46.761159
  H    -24.958342   26.370649   47.609548
  H    -26.431954   28.153017   49.044616
  H    -24.669176   28.338264   49.062442
  H    -25.074337   30.496125   48.089768
  H    -26.701814   30.036328   47.544522
  H    -27.105731   27.685938   46.266444

 Multiplicity           Mult            ....    1
 Number of Electrons    NEL             ....  102
 Basis Dimension        Dim             ....  149

ORBITAL ENERGIES
----------------

  NO   OCC          E(Eh)            E(eV)
   0   2.0000     -19.146913      -521.0140
   1   2.0000     -19.145459      -520.9744
   2   2.0000     -19.141004      -520.8532
   3   2.0000     -19.132535      -520.6227
   4   2.0000     -10.282505      -279.8012
   5   2.0000     -10.236035      -278.5367
   6   2.0000     -10.232833      -278.4495
   7   2.0000     -10.232663      -278.4449
   8   2.0000     -10.232027      -278.4276
   9   2.0000     -10.230701      -278.3915
  10   2.0000     -10.197602      -277.4909
  11   2.0000     -10.197167      -277.4790
  12   2.0000     -10.186392      -277.1858
  13   2.0000      -1.053687       -28.6723
  14   2.0000      -1.035305       -28.1721
  15   2.0000      -1.002788       -27.2872
  16   2.0000      -0.998486       -27.1702
  17   2.0000      -0.793683       -21.5972
  18   2.0000      -0.781777       -21.2732
  19   2.0000      -0.770807       -20.9747
  20   2.0000      -0.733852       -19.9691
  21   2.0000      -0.681115       -18.5341
  22   2.0000      -0.608115       -16.5476
  23   2.0000      -0.603257       -16.4155
  24   2.0000      -0.597689       -16.2639
  25   2.0000      -0.575991       -15.6735
  26   2.0000      -0.521396       -14.1879
  27   2.0000      -0.517980       -14.0949
  28   2.0000      -0.506342       -13.7783
  29   2.0000      -0.491628       -13.3779
  30   2.0000      -0.473497       -12.8845
  31   2.0000      -0.459501       -12.5036
  32   2.0000      -0.451353       -12.2819
  33   2.0000      -0.438457       -11.9310
  34   2.0000      -0.431198       -11.7335
  35   2.0000      -0.414745       -11.2858
  36   2.0000      -0.409246       -11.1361
  37   2.0000      -0.391285       -10.6474
  38   2.0000      -0.386855       -10.5269
  39   2.0000      -0.367677       -10.0050
  40   2.0000      -0.365186        -9.9372
  41   2.0000      -0.360890        -9.8203
  42   2.0000      -0.352766        -9.5993
  43   2.0000      -0.331179        -9.0118
  44   2.0000      -0.317569        -8.6415
  45   2.0000      -0.306348        -8.3362
  46   2.0000      -0.297469        -8.0945
  47   2.0000      -0.271677        -7.3927
  48   2.0000      -0.269723        -7.3395
  49   2.0000      -0.256132        -6.9697
  50   2.0000      -0.245847        -6.6898
  51   0.0000       0.062842         1.7100
  52   0.0000       0.064834         1.7642
  53   0.0000       0.089784         2.4431
  54   0.0000       0.096652         2.6300
  55   0.0000       0.101979         2.7750

MULLIKEN ATOMIC CHARGES
-----------------------
   0 C :    0.313199
   1 C :   -0.299259
   2 C :   -0.310291
   3 C :   -0.006637
   4 O :   -0.496363
   5 H :    0.165937
   6 H :    0.160090
   7 H :    0.150800
   8 H :    0.147383
   9 H :    0.149128
  10 H :    0.144646
  11 H :    0.147611
  12 C :   -0.000360
  13 H :    0.126291
  14 H :    0.145923
  15 O :   -0.533029
  16 C :    0.056793
  17 C :    0.091067
  18 C :   -0.296439
  19 C :   -0.034874
  20 O :   -0.530121
  21 H :    0.165841
  22 O :   -0.602651
  23 H :    0.184229
  24 H :    0.162899
  25 H :    0.145282
  26 H :    0.144795
  27 H :    0.147232
  28 H :    0.360877
Sum of atomic charges:   -0.0000000

LOEWDIN ATOMIC CHARGES
----------------------
   0 C :    0.178209
   1 C :   -0.231036
   2 C :   -0.221769
   3 C :   -0.031601
   4 O :   -0.316844
   5 H :    0.111895
   6 H :    0.124742
   7 H :    0.117616
   8 H :    0.117154
   9 H :    0.109551
  10 H :    0.103418
  11 H :    0.104965
  12 C :   -0.038317
  13 H :    0.088813
  14 H :    0.102699
  15 O :   -0.327356
  16 C :    0.018577
  17 C :    0.039533
  18 C :   -0.241113
  19 C :   -0.039607
  20 O :   -0.332966
  21 H :    0.118766
  22 O :   -0.414118
  23 H :    0.132032
  24 H :    0.127199
  25 H :    0.113471
  26 H :    0.102821
  27 H :    0.102983
  28 H :    0.280281

  Mayer bond orders larger than 0.100000
B(  0-C ,  1-C ) :   0.9313 B(  0-C ,  4-O ) :   0.9109 B(  0-C ,  5-H ) :   0.9336
B(  0-C , 15-O ) :   0.8767 B(  1-C ,  2-C ) :   0.9501 B(  1-C ,  6-H ) :   0.9340
B(  1-C ,  7-H ) :   0.9305 B(  2-C ,  3-C ) :   0.9485 B(  2-C ,  8-H ) :   0.9452
B(  2-C ,  9-H ) :   0.9407 B(  3-C ,  4-O ) :   0.8479 B(  3-C , 10-H ) :   0.9347
B(  3-C , 11-H ) :   0.9389 B( 12-C , 13-H ) :   0.9127 B( 12-C , 14-H ) :   0.9099
B( 12-C , 15-O ) :   0.8291 B( 12-C , 16-C ) :   0.8990 B( 16-C , 17-C ) :   0.9149
B( 16-C , 20-O ) :   0.8442 B( 16-C , 21-H ) :   0.9251 B( 17-C , 18-C ) :   0.9124
B( 17-C , 22-O ) :   0.8869 B( 17-C , 23-H ) :   0.9215 B( 18-C , 19-C ) :   0.9402
B( 18-C , 24-H ) :   0.9373 B( 18-C , 25-H ) :   0.9349 B( 19-C , 20-O ) :   0.8433
B( 19-C , 26-H ) :   0.9357 B( 19-C , 27-H ) :   0.9381 B( 22-O , 28-H ) :   0.7968

FINAL SINGLE POINT ENERGY      -652.857859711197

DIPOLE MOMENT
-------------
                                X             Y             Z
Electronic contribution:     -3.94380      -3.97531      -2.49576
Nuclear contribution   :      4.96358       5.31349       2.73548
                        -----------------------------------------
Total Dipole Moment    :      1.01978       1.33818       0.23972
                        -----------------------------------------
Magnitude (a.u.)       :      1.69945
Magnitude (Debye)      :      4.31966

Rotational constants in cm-1:     0.053849     0.012922     0.012416
Rotational constants in MHz :  1614.350251   387.389258   372.213151

                             ****ORCA TERMINATED NORMALLY****
TOTAL RUN TIME: 0 days 0 hours 51 minutes 25 seconds 834 msec
