                         Program Version 4.2.0 -  RELEASE  -
|  1> # Test redundant internal optimization
|  2> #
|  3> ! RKS B3LYP  Opt TightSCF SmallPrint
|  4>
|  5> %basis
|  6>         Basis "6-31G"
|  7> end
|  8>
|  9> %geom
| 10> Constraints
| 11> { D 4  0  15  12  165.0   C } # D for Dihedral angle
| 12> { D 0  15  12  16  90.0   C } # D for Dihedral angle
| 13> { D 0  4  3  2   C } # D for Dihedral angle
| 14> { D 4  3  2  1   C } # D for Dihedral angle
| 15> { D 3  2  1  0   C } # D for Dihedral angle
| 16> { D 2  1  0  4   C } # D for Dihedral angle
| 17> { D 1  0  4  3   C } # D for Dihedral angle
| 18> { D 16  20  19  18   C } # D for Dihedral angle
| 19> { D 20  19  18  17   C } # D for Dihedral angle
| 20> { D 19  18  17  16   C } # D for Dihedral angle
| 21> { D 18  17  16  20   C } # D for Dihedral angle
| 22> { D 17  16  20  19   C } # D for Dihedral angle
| 23> { D 15  12  16  20   C } # D for Dihedral angle
| 24> end
| 25> end
| 26>
| 27>
| 28> #%pal
| 29> #nprocs 8
| 30> #end
| 31>
| 32> * xyz 0 1
| 33> C  -21.048   26.222   46.251
| 34> C  -20.361   27.558   45.944
| 35> C  -20.329   28.222   47.341
| 36> C  -20.110   27.022   48.296
| 37> O  -20.473   25.807   47.535
| 38> H  -20.833   25.428   45.533
| 39> H  -19.344   27.382   45.576
| 40> H  -20.898   28.157   45.201
| 41> H  -19.543   28.978   47.434
| 42> H  -21.289   28.710   47.548
| 43> H  -20.733   27.082   49.195
| 44> H  -19.064   26.913   48.597
| 45> C  -23.260   27.170   45.210
| 46> H  -24.140   27.702   45.592
| 47> H  -22.567   27.911   44.791
| 48> O  -22.586   26.394   46.375
| 49> C  -23.715   26.239   44.052
| 50> C  -22.549   25.393   43.527
| 51> C  -22.465   24.278   44.596
| 52> C  -23.946   24.056   44.991
| 53> O  -24.686   25.254   44.538
| 54> H  -24.219   26.836   43.291
| 55> H  -22.803   24.972   42.548
| 56> O  -21.227   26.195   43.388
| 57> H  -21.991   23.365   44.221
| 58> H  -21.884   24.626   45.459
| 59> H  -24.080   23.937   46.071
| 60> H  -24.389   23.194   44.483
| 61> H  -20.954   26.627   44.358
| 62> *
| 63>
| 64>                          ****END OF INPUT****
 Total Charge           Charge          ....    0
 Multiplicity           Mult            ....    1
 Number of Electrons    NEL             ....  102
FINAL SINGLE POINT ENERGY      -652.783387312561
FINAL SINGLE POINT ENERGY      -652.826995593021
FINAL SINGLE POINT ENERGY      -652.843432202447
FINAL SINGLE POINT ENERGY      -652.846770362300
FINAL SINGLE POINT ENERGY      -652.847448880264
FINAL SINGLE POINT ENERGY      -652.847650711318
FINAL SINGLE POINT ENERGY      -652.847695186061
FINAL SINGLE POINT ENERGY      -652.847731472340
FINAL SINGLE POINT ENERGY      -652.847733660513
FINAL SINGLE POINT ENERGY      -652.847741924933
FINAL SINGLE POINT ENERGY      -652.847751553094
FINAL SINGLE POINT ENERGY      -652.847762012182
FINAL SINGLE POINT ENERGY      -652.847871434917
FINAL SINGLE POINT ENERGY      -652.847877350773
                    ***********************HURRAY********************

CARTESIAN COORDINATES (ANGSTROEM)
---------------------------------
  C    -20.971459   26.325171   46.453710
  C    -20.195327   27.587227   46.078335
  C    -20.275946   28.416226   47.385611
  C    -20.216052   27.330628   48.480200
  O    -20.561322   26.054664   47.802448
  H    -20.710805   25.439874   45.871249
  H    -19.156245   27.303689   45.869839
  H    -20.577588   28.111206   45.200649
  H    -19.460029   29.140576   47.469518
  H    -21.224469   28.959757   47.428417
  H    -20.928192   27.496864   49.292052
  H    -19.212658   27.200890   48.896499
  C    -23.145978   27.117362   45.389989
  H    -24.012729   27.572800   45.877180
  H    -22.558421   27.914624   44.919130
  O    -22.418121   26.512970   46.501064
  C    -23.696725   26.222970   44.273282
  C    -22.717960   25.415311   43.404110
  C    -22.557851   24.101711   44.229955
  C    -23.971577   23.916828   44.833685
  O    -24.649549   25.225650   44.737385
  H    -24.274440   26.910679   43.640358
  H    -23.193595   25.201232   42.442254
  O    -21.485863   26.128491   43.108950
  H    -22.256328   23.254253   43.606240
  H    -21.816467   24.229171   45.020665
  H    -23.938216   23.609891   45.882573
  H    -24.572932   23.199734   44.266742
  H    -20.729154   25.729551   43.579912

 Multiplicity           Mult            ....    1
 Number of Electrons    NEL             ....  102
 Basis Dimension        Dim             ....  149

ORBITAL ENERGIES
----------------

  NO   OCC          E(Eh)            E(eV)
   0   2.0000     -19.151672      -521.1435
   1   2.0000     -19.141610      -520.8697
   2   2.0000     -19.141350      -520.8626
   3   2.0000     -19.135631      -520.7070
   4   2.0000     -10.283830      -279.8372
   5   2.0000     -10.246406      -278.8189
   6   2.0000     -10.231099      -278.4024
   7   2.0000     -10.226994      -278.2907
   8   2.0000     -10.226808      -278.2856
   9   2.0000     -10.226330      -278.2726
  10   2.0000     -10.195440      -277.4320
  11   2.0000     -10.190963      -277.3102
  12   2.0000     -10.189870      -277.2804
  13   2.0000      -1.053368       -28.6636
  14   2.0000      -1.033832       -28.1320
  15   2.0000      -1.016642       -27.6642
  16   2.0000      -0.990632       -26.9565
  17   2.0000      -0.789119       -21.4730
  18   2.0000      -0.780514       -21.2389
  19   2.0000      -0.770084       -20.9550
  20   2.0000      -0.736094       -20.0301
  21   2.0000      -0.682472       -18.5710
  22   2.0000      -0.615838       -16.7578
  23   2.0000      -0.604997       -16.4628
  24   2.0000      -0.599907       -16.3243
  25   2.0000      -0.560272       -15.2458
  26   2.0000      -0.524159       -14.2631
  27   2.0000      -0.511332       -13.9141
  28   2.0000      -0.508731       -13.8433
  29   2.0000      -0.497579       -13.5398
  30   2.0000      -0.467538       -12.7224
  31   2.0000      -0.457401       -12.4465
  32   2.0000      -0.442314       -12.0360
  33   2.0000      -0.440467       -11.9857
  34   2.0000      -0.434465       -11.8224
  35   2.0000      -0.415222       -11.2988
  36   2.0000      -0.411576       -11.1996
  37   2.0000      -0.400613       -10.9012
  38   2.0000      -0.382693       -10.4136
  39   2.0000      -0.367665       -10.0047
  40   2.0000      -0.362188        -9.8556
  41   2.0000      -0.359011        -9.7692
  42   2.0000      -0.349884        -9.5208
  43   2.0000      -0.325807        -8.8657
  44   2.0000      -0.316259        -8.6058
  45   2.0000      -0.313450        -8.5294
  46   2.0000      -0.296383        -8.0650
  47   2.0000      -0.271614        -7.3910
  48   2.0000      -0.269146        -7.3238
  49   2.0000      -0.259171        -7.0524
  50   2.0000      -0.234333        -6.3765
  51   0.0000       0.045203         1.2300
  52   0.0000       0.073919         2.0114
  53   0.0000       0.085359         2.3227
  54   0.0000       0.091422         2.4877
  55   0.0000       0.110050         2.9946

MULLIKEN ATOMIC CHARGES
-----------------------
   0 C :    0.313487
   1 C :   -0.300791
   2 C :   -0.295521
   3 C :   -0.000534
   4 O :   -0.501425
   5 H :    0.112547
   6 H :    0.146131
   7 H :    0.161883
   8 H :    0.143869
   9 H :    0.159064
  10 H :    0.155945
  11 H :    0.142148
  12 C :   -0.018917
  13 H :    0.166250
  14 H :    0.133123
  15 O :   -0.513557
  16 C :    0.099654
  17 C :    0.091503
  18 C :   -0.350413
  19 C :    0.000654
  20 O :   -0.517317
  21 H :    0.146540
  22 H :    0.162536
  23 O :   -0.622838
  24 H :    0.150137
  25 H :    0.165604
  26 H :    0.159921
  27 H :    0.144553
  28 H :    0.365762
Sum of atomic charges:   -0.0000000

LOEWDIN ATOMIC CHARGES
----------------------
   0 C :    0.176588
   1 C :   -0.237413
   2 C :   -0.215396
   3 C :   -0.025029
   4 O :   -0.305085
   5 H :    0.078729
   6 H :    0.115495
   7 H :    0.120943
   8 H :    0.115304
   9 H :    0.116531
  10 H :    0.110377
  11 H :    0.102641
  12 C :   -0.044981
  13 H :    0.122527
  14 H :    0.100402
  15 O :   -0.330230
  16 C :    0.013425
  17 C :    0.035212
  18 C :   -0.245750
  19 C :   -0.022099
  20 O :   -0.319442
  21 H :    0.114071
  22 H :    0.113488
  23 O :   -0.418765
  24 H :    0.117397
  25 H :    0.116439
  26 H :    0.111669
  27 H :    0.102132
  28 H :    0.280819

  Mayer bond orders larger than 0.100000
B(  0-C ,  1-C ) :   0.9271 B(  0-C ,  4-O ) :   0.9353 B(  0-C ,  5-H ) :   0.8970
B(  0-C , 15-O ) :   0.8516 B(  1-C ,  2-C ) :   0.9495 B(  1-C ,  6-H ) :   0.9342
B(  1-C ,  7-H ) :   0.9223 B(  2-C ,  3-C ) :   0.9539 B(  2-C ,  8-H ) :   0.9450
B(  2-C ,  9-H ) :   0.9457 B(  3-C ,  4-O ) :   0.8338 B(  3-C , 10-H ) :   0.9344
B(  3-C , 11-H ) :   0.9397 B( 12-C , 13-H ) :   0.9335 B( 12-C , 14-H ) :   0.8993
B( 12-C , 15-O ) :   0.8731 B( 12-C , 16-C ) :   0.8922 B( 16-C , 17-C ) :   0.8927
B( 16-C , 20-O ) :   0.8721 B( 16-C , 21-H ) :   0.9208 B( 17-C , 18-C ) :   0.9437
B( 17-C , 22-H ) :   0.9291 B( 17-C , 23-O ) :   0.8763 B( 18-C , 19-C ) :   0.9433
B( 18-C , 24-H ) :   0.9403 B( 18-C , 25-H ) :   0.9180 B( 19-C , 20-O ) :   0.8463
B( 19-C , 26-H ) :   0.9296 B( 19-C , 27-H ) :   0.9366 B( 23-O , 28-H ) :   0.7910

FINAL SINGLE POINT ENERGY      -652.847878089094

DIPOLE MOMENT
-------------
                                X             Y             Z
Electronic contribution:     -3.08717      -2.03076      -0.30685
Nuclear contribution   :      4.06640       2.28190      -0.09593
                        -----------------------------------------
Total Dipole Moment    :      0.97923       0.25115      -0.40278
                        -----------------------------------------
Magnitude (a.u.)       :      1.08821
Magnitude (Debye)      :      2.76600

Rotational constants in cm-1:     0.049841     0.015922     0.015007
Rotational constants in MHz :  1494.197281   477.344134   449.884767

                             ****ORCA TERMINATED NORMALLY****
TOTAL RUN TIME: 0 days 0 hours 45 minutes 54 seconds 665 msec
