                         Program Version 4.2.1 -  RELEASE  -
|  1> # Test redundant internal optimization
|  2> #
|  3> ! RKS B3LYP  Opt TightSCF SmallPrint
|  4>
|  5> %basis
|  6>         Basis "6-31G"
|  7> end
|  8>
|  9> %geom
| 10> Constraints
| 11> { D 4  0  19  14  315.0   C } # D for Dihedral angle
| 12> { D 0  19  14  12  165.0   C } # D for Dihedral angle
| 13> { D 0  4  3  2   C } # D for Dihedral angle
| 14> { D 4  3  2  1   C } # D for Dihedral angle
| 15> { D 3  2  1  0   C } # D for Dihedral angle
| 16> { D 2  1  0  4   C } # D for Dihedral angle
| 17> { D 1  0  4  3   C } # D for Dihedral angle
| 18> { D 14  15  16  17   C } # D for Dihedral angle
| 19> { D 15  16  17  12   C } # D for Dihedral angle
| 20> { D 16  17  12  14   C } # D for Dihedral angle
| 21> { D 17  12  14  15   C } # D for Dihedral angle
| 22> { D 12  14  15  16   C } # D for Dihedral angle
| 23> end
| 24> end
| 25>
| 26>
| 27> #%pal
| 28> #nprocs 8
| 29> #end
| 30>
| 31> * xyz 0 1
| 32> C  -21.048   26.222   46.251
| 33> C  -20.361   27.558   45.944
| 34> C  -20.329   28.222   47.341
| 35> C  -20.110   27.022   48.296
| 36> O  -20.473   25.807   47.535
| 37> H  -20.833   25.428   45.533
| 38> H  -19.344   27.382   45.576
| 39> H  -20.898   28.157   45.201
| 40> H  -19.543   28.978   47.434
| 41> H  -21.289   28.710   47.548
| 42> H  -20.733   27.082   49.195
| 43> H  -19.064   26.913   48.597
| 44> C  -24.550   25.747   47.464
| 45> H  -24.969   25.088   48.240
| 46> C  -23.132   25.318   47.072
| 47> C  -23.414   24.127   46.126
| 48> C  -24.715   24.554   45.401
| 49> O  -25.320   25.627   46.220
| 50> H  -24.634   26.784   47.792
| 51> O  -22.472   26.381   46.366
| 52> H  -22.514   25.039   47.933
| 53> H  -22.592   23.933   45.430
| 54> H  -23.580   23.213   46.710
| 55> H  -25.431   23.731   45.303
| 56> H  -24.522   24.975   44.410
| 57> *
| 58>
| 59>                          ****END OF INPUT****
 Total Charge           Charge          ....    0
 Multiplicity           Mult            ....    1
 Number of Electrons    NEL             ....   86
FINAL SINGLE POINT ENERGY      -538.435375902865
FINAL SINGLE POINT ENERGY      -538.437716352647
FINAL SINGLE POINT ENERGY      -538.438031934620
FINAL SINGLE POINT ENERGY      -538.438061998839
FINAL SINGLE POINT ENERGY      -538.438071138487
                    ***********************HURRAY********************

CARTESIAN COORDINATES (ANGSTROEM)
---------------------------------
  C    -20.996032   26.199173   46.251763
  C    -20.417330   27.583747   45.959433
  C    -20.387209   28.214853   47.368686
  C    -20.054225   27.019142   48.287917
  O    -20.361389   25.797896   47.491754
  H    -20.747633   25.416397   45.527707
  H    -19.406763   27.473656   45.550328
  H    -21.032979   28.141828   45.251086
  H    -19.650250   29.019333   47.453961
  H    -21.373825   28.622267   47.606964
  H    -20.648059   27.002049   49.205490
  H    -18.992681   26.961057   48.545053
  C    -24.528177   25.796715   47.419695
  H    -24.993243   25.181031   48.203436
  C    -23.131763   25.275258   47.085449
  C    -23.455928   24.085461   46.162080
  C    -24.703636   24.567279   45.384119
  O    -25.265442   25.694015   46.159057
  H    -24.528027   26.845850   47.717628
  O    -22.429784   26.342356   46.370462
  H    -22.546426   24.986375   47.962587
  H    -22.620191   23.829159   45.504523
  H    -23.683160   23.204348   46.773468
  H    -25.464083   23.784517   45.282424
  H    -24.451764   24.954238   44.392931

 Multiplicity           Mult            ....    1
 Number of Electrons    NEL             ....   86
 Basis Dimension        Dim             ....  127

ORBITAL ENERGIES
----------------

  NO   OCC          E(Eh)            E(eV)
   0   2.0000     -19.146131      -520.9927
   1   2.0000     -19.141305      -520.8614
   2   2.0000     -19.123357      -520.3730
   3   2.0000     -10.278827      -279.7011
   4   2.0000     -10.232792      -278.4484
   5   2.0000     -10.229151      -278.3493
   6   2.0000     -10.217895      -278.0431
   7   2.0000     -10.217039      -278.0198
   8   2.0000     -10.186834      -277.1978
   9   2.0000     -10.185749      -277.1683
  10   2.0000     -10.182872      -277.0900
  11   2.0000      -1.056026       -28.7359
  12   2.0000      -1.011043       -27.5119
  13   2.0000      -0.988114       -26.8880
  14   2.0000      -0.793063       -21.5803
  15   2.0000      -0.774233       -21.0680
  16   2.0000      -0.740580       -20.1522
  17   2.0000      -0.719071       -19.5669
  18   2.0000      -0.610997       -16.6261
  19   2.0000      -0.600210       -16.3325
  20   2.0000      -0.593442       -16.1484
  21   2.0000      -0.565341       -15.3837
  22   2.0000      -0.524408       -14.2699
  23   2.0000      -0.498381       -13.5616
  24   2.0000      -0.487667       -13.2701
  25   2.0000      -0.477760       -13.0005
  26   2.0000      -0.454951       -12.3799
  27   2.0000      -0.434038       -11.8108
  28   2.0000      -0.427186       -11.6243
  29   2.0000      -0.415085       -11.2951
  30   2.0000      -0.405533       -11.0351
  31   2.0000      -0.381836       -10.3903
  32   2.0000      -0.371862       -10.1189
  33   2.0000      -0.363336        -9.8869
  34   2.0000      -0.359213        -9.7747
  35   2.0000      -0.356214        -9.6931
  36   2.0000      -0.343289        -9.3414
  37   2.0000      -0.333346        -9.0708
  38   2.0000      -0.301367        -8.2006
  39   2.0000      -0.291581        -7.9343
  40   2.0000      -0.263667        -7.1747
  41   2.0000      -0.259671        -7.0660
  42   2.0000      -0.229663        -6.2494
  43   0.0000       0.079850         2.1728
  44   0.0000       0.097661         2.6575
  45   0.0000       0.103831         2.8254
  46   0.0000       0.109057         2.9676
  47   0.0000       0.113713         3.0943

MULLIKEN ATOMIC CHARGES
-----------------------
   0 C :    0.294443
   1 C :   -0.262499
   2 C :   -0.298595
   3 C :   -0.009965
   4 O :   -0.516254
   5 H :    0.143494
   6 H :    0.144142
   7 H :    0.164185
   8 H :    0.143079
   9 H :    0.161903
  10 H :    0.144645
  11 H :    0.146553
  12 C :    0.004111
  13 H :    0.124365
  14 C :    0.056560
  15 C :   -0.293328
  16 C :   -0.001137
  17 O :   -0.519726
  18 H :    0.159056
  19 O :   -0.519932
  20 H :    0.158734
  21 H :    0.148625
  22 H :    0.141374
  23 H :    0.136159
  24 H :    0.150009
Sum of atomic charges:   -0.0000000

LOEWDIN ATOMIC CHARGES
----------------------
   0 C :    0.174394
   1 C :   -0.213763
   2 C :   -0.216253
   3 C :   -0.029777
   4 O :   -0.329264
   5 H :    0.093898
   6 H :    0.113637
   7 H :    0.128023
   8 H :    0.114722
   9 H :    0.118931
  10 H :    0.103567
  11 H :    0.104717
  12 C :   -0.034278
  13 H :    0.091446
  14 C :    0.031330
  15 C :   -0.234114
  16 C :   -0.030069
  17 O :   -0.330328
  18 H :    0.119142
  19 O :   -0.324061
  20 H :    0.112142
  21 H :    0.118475
  22 H :    0.113092
  23 H :    0.098151
  24 H :    0.106242

  Mayer bond orders larger than 0.100000
B(  0-C ,  1-C ) :   0.9484 B(  0-C ,  4-O ) :   0.8931 B(  0-C ,  5-H ) :   0.9182
B(  0-C , 19-O ) :   0.8607 B(  1-C ,  2-C ) :   0.9550 B(  1-C ,  6-H ) :   0.9392
B(  1-C ,  7-H ) :   0.9345 B(  2-C ,  3-C ) :   0.9557 B(  2-C ,  8-H ) :   0.9448
B(  2-C ,  9-H ) :   0.9440 B(  3-C ,  4-O ) :   0.8328 B(  3-C , 10-H ) :   0.9358
B(  3-C , 11-H ) :   0.9406 B( 12-C , 13-H ) :   0.9162 B( 12-C , 14-C ) :   0.9378
B( 12-C , 17-O ) :   0.8697 B( 12-C , 18-H ) :   0.9315 B( 14-C , 15-C ) :   0.9327
B( 14-C , 19-O ) :   0.8263 B( 14-C , 20-H ) :   0.9097 B( 15-C , 16-C ) :   0.9462
B( 15-C , 21-H ) :   0.9395 B( 15-C , 22-H ) :   0.9382 B( 16-C , 17-O ) :   0.8585
B( 16-C , 23-H ) :   0.9329 B( 16-C , 24-H ) :   0.9365

FINAL SINGLE POINT ENERGY      -538.438071757438

DIPOLE MOMENT
-------------
                                X             Y             Z
Electronic contribution:     -1.66968      -0.75149      -0.48182
Nuclear contribution   :      2.55877       0.69114       0.79033
                        -----------------------------------------
Total Dipole Moment    :      0.88909      -0.06035       0.30851
                        -----------------------------------------
Magnitude (a.u.)       :      0.94302
Magnitude (Debye)      :      2.39697

Rotational constants in cm-1:     0.084286     0.020318     0.020037
Rotational constants in MHz :  2526.828933   609.105215   600.706537

                             ****ORCA TERMINATED NORMALLY****
TOTAL RUN TIME: 0 days 0 hours 5 minutes 59 seconds 933 msec
