                         Program Version 4.2.0 -  RELEASE  -
|  1> # Test redundant internal optimization
|  2> #
|  3> ! RKS B3LYP  Opt TightSCF SmallPrint
|  4>
|  5> %basis
|  6>         Basis "6-31G"
|  7> end
|  8>
|  9> %geom
| 10> Constraints
| 11> { D 4  0  15  12  0.0   C } # D for Dihedral angle
| 12> { D 0  15  12  16  180.0   C } # D for Dihedral angle
| 13> { D 0  4  3  2   C } # D for Dihedral angle
| 14> { D 4  3  2  1   C } # D for Dihedral angle
| 15> { D 3  2  1  0   C } # D for Dihedral angle
| 16> { D 2  1  0  4   C } # D for Dihedral angle
| 17> { D 1  0  4  3   C } # D for Dihedral angle
| 18> { D 16  20  19  18   C } # D for Dihedral angle
| 19> { D 20  19  18  17   C } # D for Dihedral angle
| 20> { D 19  18  17  16   C } # D for Dihedral angle
| 21> { D 18  17  16  20   C } # D for Dihedral angle
| 22> { D 17  16  20  19   C } # D for Dihedral angle
| 23> { D 15  12  16  20   C } # D for Dihedral angle
| 24> end
| 25> end
| 26>
| 27>
| 28> #%pal
| 29> #nprocs 8
| 30> #end
| 31>
| 32> * xyz 0 1
| 33> C  -21.048   26.222   46.251
| 34> C  -20.361   27.558   45.944
| 35> C  -20.329   28.222   47.341
| 36> C  -20.110   27.022   48.296
| 37> O  -20.473   25.807   47.535
| 38> H  -20.833   25.428   45.533
| 39> H  -19.344   27.382   45.576
| 40> H  -20.898   28.157   45.201
| 41> H  -19.543   28.978   47.434
| 42> H  -21.289   28.710   47.548
| 43> H  -20.733   27.082   49.195
| 44> H  -19.064   26.913   48.597
| 45> C  -23.172   26.101   47.783
| 46> H  -22.940   25.066   48.063
| 47> H  -22.724   26.767   48.532
| 48> O  -22.586   26.394   46.375
| 49> C  -24.713   26.290   47.844
| 50> C  -25.121   27.692   47.377
| 51> C  -25.045   27.544   45.839
| 52> C  -25.509   26.085   45.602
| 53> O  -25.378   25.387   46.899
| 54> H  -25.067   26.026   48.842
| 55> O  -26.575   28.001   47.826
| 56> H  -24.465   28.482   47.761
| 57> H  -25.670   28.272   45.311
| 58> H  -24.011   27.681   45.498
| 59> H  -24.901   25.568   44.852
| 60> H  -26.561   26.024   45.308
| 61> H  -27.249   27.223   47.453
| 62> *
| 63>
| 64>                          ****END OF INPUT****
 Total Charge           Charge          ....    0
 Multiplicity           Mult            ....    1
 Number of Electrons    NEL             ....  102
FINAL SINGLE POINT ENERGY      -652.834285702637
FINAL SINGLE POINT ENERGY      -652.856172103680
FINAL SINGLE POINT ENERGY      -652.860585401224
FINAL SINGLE POINT ENERGY      -652.861594278561
FINAL SINGLE POINT ENERGY      -652.861713238390
FINAL SINGLE POINT ENERGY      -652.861730943106
                    ***********************HURRAY********************

CARTESIAN COORDINATES (ANGSTROEM)
---------------------------------
  C    -21.108156   26.189169   46.378880
  C    -20.468660   27.521112   45.984494
  C    -20.314321   28.218081   47.357323
  C    -19.995629   27.045552   48.311890
  O    -20.424445   25.813009   47.592593
  H    -20.946451   25.374225   45.669865
  H    -19.490281   27.328790   45.529280
  H    -21.084231   28.083762   45.279503
  H    -19.527145   28.978050   47.358788
  H    -21.254294   28.706087   47.636913
  H    -20.528366   27.100570   49.265199
  H    -18.925147   26.934121   48.505796
  C    -23.158457   26.094728   47.824632
  H    -22.956937   25.067976   48.146679
  H    -22.753660   26.778126   48.584649
  O    -22.554439   26.333401   46.521580
  C    -24.668947   26.301599   47.739708
  C    -25.159102   27.694730   47.317938
  C    -25.101987   27.596326   45.769992
  C    -25.493119   26.121326   45.502182
  O    -25.301282   25.397339   46.780099
  H    -25.079312   26.049118   48.725104
  O    -26.509647   27.932398   47.807853
  H    -24.561827   28.512774   47.722800
  H    -25.790366   28.310935   45.310359
  H    -24.084450   27.789795   45.430259
  H    -24.862414   25.657207   44.739966
  H    -26.544750   26.003392   45.219961
  H    -27.064178   27.150301   47.601714

 Multiplicity           Mult            ....    1
 Number of Electrons    NEL             ....  102
 Basis Dimension        Dim             ....  149

ORBITAL ENERGIES
----------------

  NO   OCC          E(Eh)            E(eV)
   0   2.0000     -19.154944      -521.2325
   1   2.0000     -19.143583      -520.9234
   2   2.0000     -19.133973      -520.6619
   3   2.0000     -19.132603      -520.6246
   4   2.0000     -10.284166      -279.8464
   5   2.0000     -10.237213      -278.5687
   6   2.0000     -10.234459      -278.4938
   7   2.0000     -10.231182      -278.4046
   8   2.0000     -10.230424      -278.3840
   9   2.0000     -10.219264      -278.0803
  10   2.0000     -10.197043      -277.4757
  11   2.0000     -10.191776      -277.3323
  12   2.0000     -10.173355      -276.8311
  13   2.0000      -1.060006       -28.8442
  14   2.0000      -1.030066       -28.0295
  15   2.0000      -1.002118       -27.2690
  16   2.0000      -0.993076       -27.0230
  17   2.0000      -0.796515       -21.6743
  18   2.0000      -0.777127       -21.1467
  19   2.0000      -0.762523       -20.7493
  20   2.0000      -0.736368       -20.0376
  21   2.0000      -0.672031       -18.2869
  22   2.0000      -0.609702       -16.5908
  23   2.0000      -0.600332       -16.3359
  24   2.0000      -0.594202       -16.1690
  25   2.0000      -0.569379       -15.4936
  26   2.0000      -0.525062       -14.2877
  27   2.0000      -0.513202       -13.9649
  28   2.0000      -0.499515       -13.5925
  29   2.0000      -0.489575       -13.3220
  30   2.0000      -0.471039       -12.8176
  31   2.0000      -0.457990       -12.4625
  32   2.0000      -0.447774       -12.1846
  33   2.0000      -0.435224       -11.8431
  34   2.0000      -0.422961       -11.5093
  35   2.0000      -0.411110       -11.1869
  36   2.0000      -0.404956       -11.0194
  37   2.0000      -0.384255       -10.4561
  38   2.0000      -0.377805       -10.2806
  39   2.0000      -0.369049       -10.0423
  40   2.0000      -0.366200        -9.9648
  41   2.0000      -0.359216        -9.7748
  42   2.0000      -0.349978        -9.5234
  43   2.0000      -0.339534        -9.2392
  44   2.0000      -0.322255        -8.7690
  45   2.0000      -0.310853        -8.4588
  46   2.0000      -0.299041        -8.1373
  47   2.0000      -0.269113        -7.3229
  48   2.0000      -0.264168        -7.1884
  49   2.0000      -0.251631        -6.8472
  50   2.0000      -0.239582        -6.5194
  51   0.0000       0.058135         1.5819
  52   0.0000       0.077716         2.1148
  53   0.0000       0.093136         2.5344
  54   0.0000       0.099058         2.6955
  55   0.0000       0.103931         2.8281

MULLIKEN ATOMIC CHARGES
-----------------------
   0 C :    0.306618
   1 C :   -0.257850
   2 C :   -0.310572
   3 C :   -0.017616
   4 O :   -0.509572
   5 H :    0.160793
   6 H :    0.147214
   7 H :    0.157656
   8 H :    0.151002
   9 H :    0.153069
  10 H :    0.147279
  11 H :    0.153472
  12 C :    0.022962
  13 H :    0.159663
  14 H :    0.117897
  15 O :   -0.549698
  16 C :    0.066987
  17 C :    0.074086
  18 C :   -0.281266
  19 C :   -0.015929
  20 O :   -0.527665
  21 H :    0.152721
  22 O :   -0.604725
  23 H :    0.143747
  24 H :    0.146235
  25 H :    0.166788
  26 H :    0.151477
  27 H :    0.132359
  28 H :    0.362865
Sum of atomic charges:    0.0000000

LOEWDIN ATOMIC CHARGES
----------------------
   0 C :    0.183822
   1 C :   -0.220319
   2 C :   -0.220066
   3 C :   -0.032998
   4 O :   -0.316074
   5 H :    0.107460
   6 H :    0.115362
   7 H :    0.123132
   8 H :    0.119225
   9 H :    0.112755
  10 H :    0.102808
  11 H :    0.108447
  12 C :   -0.030698
  13 H :    0.112555
  14 H :    0.090123
  15 O :   -0.343886
  16 C :    0.016184
  17 C :    0.038238
  18 C :   -0.240969
  19 C :   -0.032334
  20 O :   -0.329390
  21 H :    0.114651
  22 O :   -0.418464
  23 H :    0.111744
  24 H :    0.117216
  25 H :    0.126303
  26 H :    0.108365
  27 H :    0.094880
  28 H :    0.281928

  Mayer bond orders larger than 0.100000
B(  0-C ,  1-C ) :   0.9319 B(  0-C ,  4-O ) :   0.9136 B(  0-C ,  5-H ) :   0.9293
B(  0-C , 15-O ) :   0.8330 B(  1-C ,  2-C ) :   0.9515 B(  1-C ,  6-H ) :   0.9347
B(  1-C ,  7-H ) :   0.9361 B(  2-C ,  3-C ) :   0.9528 B(  2-C ,  8-H ) :   0.9444
B(  2-C ,  9-H ) :   0.9450 B(  3-C ,  4-O ) :   0.8296 B(  3-C , 10-H ) :   0.9307
B(  3-C , 11-H ) :   0.9396 B( 12-C , 13-H ) :   0.9184 B( 12-C , 14-H ) :   0.9060
B( 12-C , 15-O ) :   0.8269 B( 12-C , 16-C ) :   0.9091 B( 16-C , 17-C ) :   0.9070
B( 16-C , 20-O ) :   0.8706 B( 16-C , 21-H ) :   0.9240 B( 17-C , 18-C ) :   0.9234
B( 17-C , 22-O ) :   0.8897 B( 17-C , 23-H ) :   0.9366 B( 18-C , 19-C ) :   0.9477
B( 18-C , 24-H ) :   0.9371 B( 18-C , 25-H ) :   0.9197 B( 19-C , 20-O ) :   0.8401
B( 19-C , 26-H ) :   0.9341 B( 19-C , 27-H ) :   0.9377 B( 22-O , 28-H ) :   0.7957

FINAL SINGLE POINT ENERGY      -652.861731269767

DIPOLE MOMENT
-------------
                                X             Y             Z
Electronic contribution:     -3.25294      -4.22950       0.95344
Nuclear contribution   :      4.24275       4.96973      -1.19892
                        -----------------------------------------
Total Dipole Moment    :      0.98981       0.74023      -0.24547
                        -----------------------------------------
Magnitude (a.u.)       :      1.26013
Magnitude (Debye)      :      3.20299

Rotational constants in cm-1:     0.053428     0.014315     0.014020
Rotational constants in MHz :  1601.730870   429.151047   420.296042

                             ****ORCA TERMINATED NORMALLY****
TOTAL RUN TIME: 0 days 0 hours 38 minutes 51 seconds 315 msec
