                         Program Version 4.2.0 -  RELEASE  -
|  1> # Test redundant internal optimization
|  2> #
|  3> ! RKS B3LYP  Opt TightSCF SmallPrint
|  4>
|  5> %basis
|  6>         Basis "6-31G"
|  7> end
|  8>
|  9> %geom
| 10> Constraints
| 11> { D 4  0  15  12  345.0   C } # D for Dihedral angle
| 12> { D 0  15  12  16  225.0   C } # D for Dihedral angle
| 13> { D 0  4  3  2   C } # D for Dihedral angle
| 14> { D 4  3  2  1   C } # D for Dihedral angle
| 15> { D 3  2  1  0   C } # D for Dihedral angle
| 16> { D 2  1  0  4   C } # D for Dihedral angle
| 17> { D 1  0  4  3   C } # D for Dihedral angle
| 18> { D 16  20  19  18   C } # D for Dihedral angle
| 19> { D 20  19  18  17   C } # D for Dihedral angle
| 20> { D 19  18  17  16   C } # D for Dihedral angle
| 21> { D 18  17  16  20   C } # D for Dihedral angle
| 22> { D 17  16  20  19   C } # D for Dihedral angle
| 23> { D 15  12  16  20   C } # D for Dihedral angle
| 24> end
| 25> end
| 26>
| 27>
| 28> #%pal
| 29> #nprocs 8
| 30> #end
| 31>
| 32> * xyz 0 1
| 33> C  -21.048   26.222   46.251
| 34> C  -20.361   27.558   45.944
| 35> C  -20.329   28.222   47.341
| 36> C  -20.110   27.022   48.296
| 37> O  -20.473   25.807   47.535
| 38> H  -20.833   25.428   45.533
| 39> H  -19.344   27.382   45.576
| 40> H  -20.898   28.157   45.201
| 41> H  -19.543   28.978   47.434
| 42> H  -21.289   28.710   47.548
| 43> H  -20.733   27.082   49.195
| 44> H  -19.064   26.913   48.597
| 45> C  -23.221   25.764   47.645
| 46> H  -22.499   25.081   48.110
| 47> H  -23.474   26.544   48.375
| 48> O  -22.586   26.394   46.375
| 49> C  -24.518   24.967   47.336
| 50> C  -25.179   24.459   48.622
| 51> C  -25.897   25.732   49.130
| 52> C  -26.343   26.430   47.821
| 53> O  -25.528   25.845   46.735
| 54> H  -24.294   24.188   46.604
| 55> O  -26.208   23.345   48.289
| 56> H  -24.460   24.060   49.346
| 57> H  -26.741   25.508   49.791
| 58> H  -25.195   26.364   49.686
| 59> H  -26.181   27.513   47.847
| 60> H  -27.391   26.234   47.579
| 61> H  -26.939   23.723   47.565
| 62> *
| 63>
| 64>                          ****END OF INPUT****
 Total Charge           Charge          ....    0
 Multiplicity           Mult            ....    1
 Number of Electrons    NEL             ....  102
FINAL SINGLE POINT ENERGY      -652.832565689038
FINAL SINGLE POINT ENERGY      -652.854943662081
FINAL SINGLE POINT ENERGY      -652.858746915317
FINAL SINGLE POINT ENERGY      -652.859416134173
FINAL SINGLE POINT ENERGY      -652.859509575658
FINAL SINGLE POINT ENERGY      -652.859523592851
                    ***********************HURRAY********************

CARTESIAN COORDINATES (ANGSTROEM)
---------------------------------
  C    -21.127017   26.164639   46.342158
  C    -20.528004   27.516161   45.954805
  C    -20.351569   28.188861   47.334022
  C    -19.981479   27.010227   48.260282
  O    -20.402401   25.778618   47.531642
  H    -20.973554   25.358615   45.620025
  H    -19.560829   27.357275   45.463661
  H    -21.184322   28.074037   45.283889
  H    -19.582426   28.967351   47.328121
  H    -21.296992   28.644658   47.644495
  H    -20.493605   27.038915   49.225871
  H    -18.904586   26.916814   48.426339
  C    -23.167005   25.794609   47.756521
  H    -22.474264   25.106095   48.252786
  H    -23.375126   26.629565   48.439648
  O    -22.563211   26.330753   46.545233
  C    -24.455769   25.064582   47.389779
  C    -25.209521   24.493175   48.599609
  C    -25.997040   25.734693   49.097063
  C    -26.349027   26.473010   47.781270
  O    -25.433969   25.945668   46.743334
  H    -24.222183   24.282054   46.661588
  O    -26.104220   23.420654   48.192633
  H    -24.562895   24.055810   49.361873
  H    -26.878371   25.430186   49.666906
  H    -25.362200   26.351453   49.743666
  H    -26.218239   27.557450   47.855568
  H    -27.371406   26.267862   47.447681
  H    -26.547772   23.678210   47.356534

 Multiplicity           Mult            ....    1
 Number of Electrons    NEL             ....  102
 Basis Dimension        Dim             ....  149

ORBITAL ENERGIES
----------------

  NO   OCC          E(Eh)            E(eV)
   0   2.0000     -19.151466      -521.1379
   1   2.0000     -19.136536      -520.7316
   2   2.0000     -19.136499      -520.7306
   3   2.0000     -19.135002      -520.6899
   4   2.0000     -10.278321      -279.6873
   5   2.0000     -10.240392      -278.6552
   6   2.0000     -10.233213      -278.4599
   7   2.0000     -10.229489      -278.3586
   8   2.0000     -10.227650      -278.3085
   9   2.0000     -10.225991      -278.2634
  10   2.0000     -10.190137      -277.2877
  11   2.0000     -10.187888      -277.2265
  12   2.0000     -10.184672      -277.1390
  13   2.0000      -1.054718       -28.7003
  14   2.0000      -1.033171       -28.1140
  15   2.0000      -1.003350       -27.3026
  16   2.0000      -0.989250       -26.9189
  17   2.0000      -0.792265       -21.5586
  18   2.0000      -0.780590       -21.2409
  19   2.0000      -0.765749       -20.8371
  20   2.0000      -0.733443       -19.9580
  21   2.0000      -0.670833       -18.2543
  22   2.0000      -0.604096       -16.4383
  23   2.0000      -0.602052       -16.3827
  24   2.0000      -0.594358       -16.1733
  25   2.0000      -0.573478       -15.6051
  26   2.0000      -0.524851       -14.2819
  27   2.0000      -0.506398       -13.7798
  28   2.0000      -0.498656       -13.5691
  29   2.0000      -0.491929       -13.3861
  30   2.0000      -0.474258       -12.9052
  31   2.0000      -0.458909       -12.4876
  32   2.0000      -0.452642       -12.3170
  33   2.0000      -0.435333       -11.8460
  34   2.0000      -0.420430       -11.4405
  35   2.0000      -0.413399       -11.2491
  36   2.0000      -0.398900       -10.8546
  37   2.0000      -0.391137       -10.6434
  38   2.0000      -0.372488       -10.1359
  39   2.0000      -0.369617       -10.0578
  40   2.0000      -0.360644        -9.8136
  41   2.0000      -0.354747        -9.6532
  42   2.0000      -0.350462        -9.5366
  43   2.0000      -0.338748        -9.2178
  44   2.0000      -0.325834        -8.8664
  45   2.0000      -0.306902        -8.3512
  46   2.0000      -0.298323        -8.1178
  47   2.0000      -0.269300        -7.3280
  48   2.0000      -0.265363        -7.2209
  49   2.0000      -0.255627        -6.9560
  50   2.0000      -0.234389        -6.3781
  51   0.0000       0.068214         1.8562
  52   0.0000       0.078356         2.1322
  53   0.0000       0.091144         2.4802
  54   0.0000       0.099849         2.7170
  55   0.0000       0.105085         2.8595

MULLIKEN ATOMIC CHARGES
-----------------------
   0 C :    0.295059
   1 C :   -0.255739
   2 C :   -0.306839
   3 C :   -0.014718
   4 O :   -0.514227
   5 H :    0.154051
   6 H :    0.142749
   7 H :    0.166463
   8 H :    0.146493
   9 H :    0.158759
  10 H :    0.142812
  11 H :    0.151561
  12 C :   -0.011164
  13 H :    0.163526
  14 H :    0.123454
  15 O :   -0.524847
  16 C :    0.070197
  17 C :    0.076174
  18 C :   -0.300337
  19 C :   -0.027495
  20 O :   -0.510415
  21 H :    0.162605
  22 O :   -0.602926
  23 H :    0.151502
  24 H :    0.163442
  25 H :    0.141906
  26 H :    0.148916
  27 H :    0.143052
  28 H :    0.365985
Sum of atomic charges:   -0.0000000

LOEWDIN ATOMIC CHARGES
----------------------
   0 C :    0.181448
   1 C :   -0.217569
   2 C :   -0.218518
   3 C :   -0.031595
   4 O :   -0.321655
   5 H :    0.102505
   6 H :    0.112747
   7 H :    0.128876
   8 H :    0.116831
   9 H :    0.116826
  10 H :    0.102266
  11 H :    0.107409
  12 C :   -0.046337
  13 H :    0.115845
  14 H :    0.092014
  15 O :   -0.332932
  16 C :    0.014802
  17 C :    0.034603
  18 C :   -0.242620
  19 C :   -0.038457
  20 O :   -0.322025
  21 H :    0.118331
  22 O :   -0.415202
  23 H :    0.115037
  24 H :    0.126488
  25 H :    0.111261
  26 H :    0.104795
  27 H :    0.101065
  28 H :    0.283761

  Mayer bond orders larger than 0.100000
B(  0-C ,  1-C ) :   0.9373 B(  0-C ,  4-O ) :   0.9032 B(  0-C ,  5-H ) :   0.9258
B(  0-C , 15-O ) :   0.8503 B(  1-C ,  2-C ) :   0.9524 B(  1-C ,  6-H ) :   0.9362
B(  1-C ,  7-H ) :   0.9346 B(  2-C ,  3-C ) :   0.9552 B(  2-C ,  8-H ) :   0.9447
B(  2-C ,  9-H ) :   0.9450 B(  3-C ,  4-O ) :   0.8284 B(  3-C , 10-H ) :   0.9351
B(  3-C , 11-H ) :   0.9404 B( 12-C , 13-H ) :   0.9010 B( 12-C , 14-H ) :   0.9264
B( 12-C , 15-O ) :   0.8365 B( 12-C , 16-C ) :   0.8974 B( 16-C , 17-C ) :   0.8989
B( 16-C , 20-O ) :   0.8617 B( 16-C , 21-H ) :   0.9257 B( 17-C , 18-C ) :   0.9109
B( 17-C , 22-O ) :   0.8927 B( 17-C , 23-H ) :   0.9333 B( 18-C , 19-C ) :   0.9399
B( 18-C , 24-H ) :   0.9369 B( 18-C , 25-H ) :   0.9345 B( 19-C , 20-O ) :   0.8534
B( 19-C , 26-H ) :   0.9337 B( 19-C , 27-H ) :   0.9382 B( 22-O , 28-H ) :   0.7934

FINAL SINGLE POINT ENERGY      -652.859526131643

DIPOLE MOMENT
-------------
                                X             Y             Z
Electronic contribution:     -1.96679      -4.68924      -2.88555
Nuclear contribution   :      2.46528       5.75139       3.51342
                        -----------------------------------------
Total Dipole Moment    :      0.49849       1.06215       0.62787
                        -----------------------------------------
Magnitude (a.u.)       :      1.33074
Magnitude (Debye)      :      3.38247

Rotational constants in cm-1:     0.060002     0.012034     0.011667
Rotational constants in MHz :  1798.822471   360.782806   349.780735

                             ****ORCA TERMINATED NORMALLY****
TOTAL RUN TIME: 0 days 0 hours 31 minutes 54 seconds 687 msec
