                         Program Version 4.2.0 -  RELEASE  -
|  1> # Test redundant internal optimization
|  2> #
|  3> ! RKS B3LYP  Opt TightSCF SmallPrint
|  4>
|  5> %basis
|  6>         Basis "6-31G"
|  7> end
|  8>
|  9> %geom
| 10> Constraints
| 11> { D 4  0  15  12  270.0   C } # D for Dihedral angle
| 12> { D 0  15  12  16  255.0   C } # D for Dihedral angle
| 13> { D 0  4  3  2   C } # D for Dihedral angle
| 14> { D 4  3  2  1   C } # D for Dihedral angle
| 15> { D 3  2  1  0   C } # D for Dihedral angle
| 16> { D 2  1  0  4   C } # D for Dihedral angle
| 17> { D 1  0  4  3   C } # D for Dihedral angle
| 18> { D 16  20  19  18   C } # D for Dihedral angle
| 19> { D 20  19  18  17   C } # D for Dihedral angle
| 20> { D 19  18  17  16   C } # D for Dihedral angle
| 21> { D 18  17  16  20   C } # D for Dihedral angle
| 22> { D 17  16  20  19   C } # D for Dihedral angle
| 23> { D 15  12  16  20   C } # D for Dihedral angle
| 24> end
| 25> end
| 26>
| 27>
| 28> #%pal
| 29> #nprocs 8
| 30> #end
| 31>
| 32> * xyz 0 1
| 33> C  -21.048   26.222   46.251
| 34> C  -20.361   27.558   45.944
| 35> C  -20.329   28.222   47.341
| 36> C  -20.110   27.022   48.296
| 37> O  -20.473   25.807   47.535
| 38> H  -20.833   25.428   45.533
| 39> H  -19.344   27.382   45.576
| 40> H  -20.898   28.157   45.201
| 41> H  -19.543   28.978   47.434
| 42> H  -21.289   28.710   47.548
| 43> H  -20.733   27.082   49.195
| 44> H  -19.064   26.913   48.597
| 45> C  -23.420   25.119   46.072
| 46> H  -22.760   24.242   46.089
| 47> H  -24.197   24.978   46.835
| 48> O  -22.586   26.394   46.375
| 49> C  -24.122   25.175   44.687
| 50> C  -23.099   25.201   43.546
| 51> C  -22.695   23.711   43.453
| 52> C  -24.013   22.967   43.784
| 53> O  -24.893   23.949   44.453
| 54> H  -24.830   26.005   44.679
| 55> O  -23.781   25.668   42.231
| 56> H  -22.248   25.861   43.745
| 57> H  -22.298   23.439   42.469
| 58> H  -21.924   23.483   44.199
| 59> H  -23.857   22.113   44.450
| 60> H  -24.536   22.625   42.886
| 61> H  -24.638   25.020   42.010
| 62> *
| 63>
| 64>                          ****END OF INPUT****
 Total Charge           Charge          ....    0
 Multiplicity           Mult            ....    1
 Number of Electrons    NEL             ....  102
FINAL SINGLE POINT ENERGY      -652.837151850315
FINAL SINGLE POINT ENERGY      -652.860172116066
FINAL SINGLE POINT ENERGY      -652.864261228695
FINAL SINGLE POINT ENERGY      -652.864957535938
FINAL SINGLE POINT ENERGY      -652.865048477923
FINAL SINGLE POINT ENERGY      -652.865059795182
                    ***********************HURRAY********************

CARTESIAN COORDINATES (ANGSTROEM)
---------------------------------
  C    -21.048715   26.139848   46.241255
  C    -20.432933   27.502071   45.921297
  C    -20.453283   28.192806   47.305094
  C    -20.182328   27.025621   48.280500
  O    -20.476322   25.784439   47.520009
  H    -20.796604   25.325969   45.555352
  H    -19.404384   27.360375   45.569733
  H    -20.998743   28.043231   45.160441
  H    -19.706406   28.988039   47.389652
  H    -21.442423   28.623815   47.484405
  H    -20.818498   27.052798   49.168632
  H    -19.134214   26.962317   48.587976
  C    -23.319339   25.147899   46.094695
  H    -22.732165   24.226818   46.209117
  H    -24.096108   25.145555   46.863333
  O    -22.479828   26.317493   46.326305
  C    -23.983952   25.207162   44.714114
  C    -23.036037   25.190339   43.505302
  C    -22.692096   23.681138   43.394652
  C    -24.012960   22.989435   43.816873
  O    -24.812092   24.009233   44.538006
  H    -24.649565   26.073714   44.665736
  O    -23.714487   25.674444   42.313105
  H    -22.165448   25.833768   43.619785
  H    -22.383953   23.427045   42.377854
  H    -21.873982   23.423220   44.076813
  H    -23.851816   22.131718   44.476885
  H    -24.607941   22.661949   42.958658
  H    -24.615379   25.288739   42.278419

 Multiplicity           Mult            ....    1
 Number of Electrons    NEL             ....  102
 Basis Dimension        Dim             ....  149

ORBITAL ENERGIES
----------------

  NO   OCC          E(Eh)            E(eV)
   0   2.0000     -19.148011      -521.0439
   1   2.0000     -19.146422      -521.0006
   2   2.0000     -19.139930      -520.8240
   3   2.0000     -19.139149      -520.8027
   4   2.0000     -10.282165      -279.7919
   5   2.0000     -10.242657      -278.7169
   6   2.0000     -10.235241      -278.5151
   7   2.0000     -10.234511      -278.4952
   8   2.0000     -10.231349      -278.4092
   9   2.0000     -10.224464      -278.2218
  10   2.0000     -10.192756      -277.3590
  11   2.0000     -10.186003      -277.1752
  12   2.0000     -10.184811      -277.1428
  13   2.0000      -1.054710       -28.7001
  14   2.0000      -1.039761       -28.2933
  15   2.0000      -1.008532       -27.4435
  16   2.0000      -0.995951       -27.1012
  17   2.0000      -0.789447       -21.4820
  18   2.0000      -0.781722       -21.2717
  19   2.0000      -0.768378       -20.9086
  20   2.0000      -0.733052       -19.9474
  21   2.0000      -0.676564       -18.4102
  22   2.0000      -0.607116       -16.5205
  23   2.0000      -0.599096       -16.3022
  24   2.0000      -0.594862       -16.1870
  25   2.0000      -0.586412       -15.9571
  26   2.0000      -0.524710       -14.2781
  27   2.0000      -0.520831       -14.1725
  28   2.0000      -0.500265       -13.6129
  29   2.0000      -0.488674       -13.2975
  30   2.0000      -0.472347       -12.8532
  31   2.0000      -0.459777       -12.5112
  32   2.0000      -0.446653       -12.1540
  33   2.0000      -0.438111       -11.9216
  34   2.0000      -0.428548       -11.6614
  35   2.0000      -0.418970       -11.4008
  36   2.0000      -0.402316       -10.9476
  37   2.0000      -0.396692       -10.7945
  38   2.0000      -0.377720       -10.2783
  39   2.0000      -0.372255       -10.1296
  40   2.0000      -0.356922        -9.7123
  41   2.0000      -0.354395        -9.6436
  42   2.0000      -0.349843        -9.5197
  43   2.0000      -0.335687        -9.1345
  44   2.0000      -0.325003        -8.8438
  45   2.0000      -0.310101        -8.4383
  46   2.0000      -0.303170        -8.2497
  47   2.0000      -0.278162        -7.5692
  48   2.0000      -0.271672        -7.3926
  49   2.0000      -0.256713        -6.9855
  50   2.0000      -0.241568        -6.5734
  51   0.0000       0.063331         1.7233
  52   0.0000       0.064934         1.7669
  53   0.0000       0.091377         2.4865
  54   0.0000       0.096661         2.6303
  55   0.0000       0.101653         2.7661

MULLIKEN ATOMIC CHARGES
-----------------------
   0 C :    0.282921
   1 C :   -0.260766
   2 C :   -0.299544
   3 C :   -0.001692
   4 O :   -0.511571
   5 H :    0.138129
   6 H :    0.144574
   7 H :    0.158538
   8 H :    0.141561
   9 H :    0.165758
  10 H :    0.149925
  11 H :    0.141296
  12 C :   -0.021781
  13 H :    0.138204
  14 H :    0.168732
  15 O :   -0.519462
  16 C :    0.064587
  17 C :    0.084075
  18 C :   -0.299837
  19 C :   -0.033735
  20 O :   -0.525440
  21 H :    0.166424
  22 O :   -0.604052
  23 H :    0.159131
  24 H :    0.162757
  25 H :    0.144776
  26 H :    0.150739
  27 H :    0.150437
  28 H :    0.365314
Sum of atomic charges:   -0.0000000

LOEWDIN ATOMIC CHARGES
----------------------
   0 C :    0.169107
   1 C :   -0.217398
   2 C :   -0.215512
   3 C :   -0.026529
   4 O :   -0.326826
   5 H :    0.093298
   6 H :    0.113761
   7 H :    0.123402
   8 H :    0.113773
   9 H :    0.120829
  10 H :    0.107040
  11 H :    0.102156
  12 C :   -0.039077
  13 H :    0.101413
  14 H :    0.121250
  15 O :   -0.328672
  16 C :    0.010005
  17 C :    0.034270
  18 C :   -0.241598
  19 C :   -0.038702
  20 O :   -0.329986
  21 H :    0.118436
  22 O :   -0.414242
  23 H :    0.117796
  24 H :    0.127286
  25 H :    0.111378
  26 H :    0.105880
  27 H :    0.104196
  28 H :    0.283269

  Mayer bond orders larger than 0.100000
B(  0-C ,  1-C ) :   0.9458 B(  0-C ,  4-O ) :   0.9157 B(  0-C ,  5-H ) :   0.9155
B(  0-C , 15-O ) :   0.8509 B(  1-C ,  2-C ) :   0.9571 B(  1-C ,  6-H ) :   0.9393
B(  1-C ,  7-H ) :   0.9352 B(  2-C ,  3-C ) :   0.9548 B(  2-C ,  8-H ) :   0.9451
B(  2-C ,  9-H ) :   0.9436 B(  3-C ,  4-O ) :   0.8368 B(  3-C , 10-H ) :   0.9353
B(  3-C , 11-H ) :   0.9403 B( 12-C , 13-H ) :   0.9248 B( 12-C , 14-H ) :   0.9316
B( 12-C , 15-O ) :   0.8335 B( 12-C , 16-C ) :   0.8871 B( 16-C , 17-C ) :   0.9117
B( 16-C , 20-O ) :   0.8377 B( 16-C , 21-H ) :   0.9256 B( 17-C , 18-C ) :   0.9115
B( 17-C , 22-O ) :   0.8915 B( 17-C , 23-H ) :   0.9257 B( 18-C , 19-C ) :   0.9417
B( 18-C , 24-H ) :   0.9378 B( 18-C , 25-H ) :   0.9323 B( 19-C , 20-O ) :   0.8428
B( 19-C , 26-H ) :   0.9346 B( 19-C , 27-H ) :   0.9372 B( 22-O , 28-H ) :   0.7941

FINAL SINGLE POINT ENERGY      -652.865061668208

DIPOLE MOMENT
-------------
                                X             Y             Z
Electronic contribution:     -3.86611      -1.09541      -0.59460
Nuclear contribution   :      4.43127       0.95848       0.53155
                        -----------------------------------------
Total Dipole Moment    :      0.56516      -0.13693      -0.06305
                        -----------------------------------------
Magnitude (a.u.)       :      0.58492
Magnitude (Debye)      :      1.48675

Rotational constants in cm-1:     0.058320     0.012922     0.012131
Rotational constants in MHz :  1748.383024   387.394265   363.672053

                             ****ORCA TERMINATED NORMALLY****
TOTAL RUN TIME: 0 days 1 hours 18 minutes 19 seconds 59 msec
