                         Program Version 4.2.0 -  RELEASE  -
|  1> # Test redundant internal optimization
|  2> #
|  3> ! RKS B3LYP  Opt TightSCF SmallPrint
|  4>
|  5> %basis
|  6>         Basis "6-31G"
|  7> end
|  8>
|  9> %geom
| 10> Constraints
| 11> { D 4  0  15  12  315.0   C } # D for Dihedral angle
| 12> { D 0  15  12  16  240.0   C } # D for Dihedral angle
| 13> { D 0  4  3  2   C } # D for Dihedral angle
| 14> { D 4  3  2  1   C } # D for Dihedral angle
| 15> { D 3  2  1  0   C } # D for Dihedral angle
| 16> { D 2  1  0  4   C } # D for Dihedral angle
| 17> { D 1  0  4  3   C } # D for Dihedral angle
| 18> { D 16  20  19  18   C } # D for Dihedral angle
| 19> { D 20  19  18  17   C } # D for Dihedral angle
| 20> { D 19  18  17  16   C } # D for Dihedral angle
| 21> { D 18  17  16  20   C } # D for Dihedral angle
| 22> { D 17  16  20  19   C } # D for Dihedral angle
| 23> { D 15  12  16  20   C } # D for Dihedral angle
| 24> end
| 25> end
| 26>
| 27>
| 28> #%pal
| 29> #nprocs 8
| 30> #end
| 31>
| 32> * xyz 0 1
| 33> C  -21.048   26.222   46.251
| 34> C  -20.361   27.558   45.944
| 35> C  -20.329   28.222   47.341
| 36> C  -20.110   27.022   48.296
| 37> O  -20.473   25.807   47.535
| 38> H  -20.833   25.428   45.533
| 39> H  -19.344   27.382   45.576
| 40> H  -20.898   28.157   45.201
| 41> H  -19.543   28.978   47.434
| 42> H  -21.289   28.710   47.548
| 43> H  -20.733   27.082   49.195
| 44> H  -19.064   26.913   48.597
| 45> C  -23.319   25.255   47.135
| 46> H  -22.584   24.510   47.466
| 47> H  -23.829   25.651   48.022
| 48> O  -22.586   26.394   46.375
| 49> C  -24.382   24.536   46.259
| 50> C  -25.164   23.498   47.073
| 51> C  -26.171   24.392   47.835
| 52> C  -26.489   25.513   46.814
| 53> O  -25.404   25.487   45.810
| 54> H  -23.899   24.138   45.364
| 55> O  -25.908   22.524   46.119
| 56> H  -24.528   22.909   47.742
| 57> H  -27.068   23.848   48.150
| 58> H  -25.700   24.809   48.733
| 59> H  -26.525   26.505   47.279
| 60> H  -27.428   25.338   46.280
| 61> H  -26.552   23.093   45.440
| 62> *
| 63>
| 64>                          ****END OF INPUT****
 Total Charge           Charge          ....    0
 Multiplicity           Mult            ....    1
 Number of Electrons    NEL             ....  102
FINAL SINGLE POINT ENERGY      -652.835784852518
FINAL SINGLE POINT ENERGY      -652.859006387576
FINAL SINGLE POINT ENERGY      -652.862936020316
FINAL SINGLE POINT ENERGY      -652.863657164102
FINAL SINGLE POINT ENERGY      -652.863746264476
FINAL SINGLE POINT ENERGY      -652.863758710142
                    ***********************HURRAY********************

CARTESIAN COORDINATES (ANGSTROEM)
---------------------------------
  C    -21.120327   26.131407   46.278196
  C    -20.524846   27.496528   45.935487
  C    -20.438879   28.159132   47.327066
  C    -20.100395   26.979060   48.264300
  O    -20.455694   25.746408   47.506782
  H    -20.914605   25.325018   45.566876
  H    -19.529748   27.356693   45.498285
  H    -21.151167   28.049941   45.232894
  H    -19.684527   28.950999   47.370353
  H    -21.409786   28.591018   47.585952
  H    -20.666505   26.994389   49.199245
  H    -19.032762   26.905399   48.490734
  C    -23.248747   25.281055   47.201229
  H    -22.539150   24.532393   47.571502
  H    -23.702429   25.777400   48.066557
  O    -22.547652   26.310352   46.439644
  C    -24.317726   24.621719   46.332666
  C    -25.142345   23.555137   47.069432
  C    -26.197148   24.424276   47.804071
  C    -26.459603   25.575748   46.801200
  O    -25.317182   25.583283   45.858290
  H    -23.845788   24.204834   45.437250
  O    -25.765549   22.639433   46.126901
  H    -24.556482   22.924569   47.739519
  H    -27.091746   23.837891   48.027701
  H    -25.788302   24.801968   48.747762
  H    -26.526769   26.553380   47.288018
  H    -27.367196   25.418478   46.209764
  H    -26.117945   23.153088   45.369324

 Multiplicity           Mult            ....    1
 Number of Electrons    NEL             ....  102
 Basis Dimension        Dim             ....  149

ORBITAL ENERGIES
----------------

  NO   OCC          E(Eh)            E(eV)
   0   2.0000     -19.144705      -520.9539
   1   2.0000     -19.139015      -520.7991
   2   2.0000     -19.138148      -520.7755
   3   2.0000     -19.137392      -520.7549
   4   2.0000     -10.277140      -279.6552
   5   2.0000     -10.241197      -278.6771
   6   2.0000     -10.230964      -278.3987
   7   2.0000     -10.228221      -278.3241
   8   2.0000     -10.227859      -278.3142
   9   2.0000     -10.226024      -278.2642
  10   2.0000     -10.188256      -277.2365
  11   2.0000     -10.185318      -277.1566
  12   2.0000     -10.183632      -277.1107
  13   2.0000      -1.053641       -28.6710
  14   2.0000      -1.034151       -28.1407
  15   2.0000      -1.004374       -27.3304
  16   2.0000      -0.990079       -26.9414
  17   2.0000      -0.790529       -21.5114
  18   2.0000      -0.780298       -21.2330
  19   2.0000      -0.764753       -20.8100
  20   2.0000      -0.731153       -19.8957
  21   2.0000      -0.671156       -18.2631
  22   2.0000      -0.603253       -16.4153
  23   2.0000      -0.600688       -16.3455
  24   2.0000      -0.593995       -16.1634
  25   2.0000      -0.574122       -15.6226
  26   2.0000      -0.525746       -14.3063
  27   2.0000      -0.507087       -13.7985
  28   2.0000      -0.495304       -13.4779
  29   2.0000      -0.491086       -13.3631
  30   2.0000      -0.473042       -12.8721
  31   2.0000      -0.455998       -12.4083
  32   2.0000      -0.452831       -12.3222
  33   2.0000      -0.436162       -11.8686
  34   2.0000      -0.421666       -11.4741
  35   2.0000      -0.409040       -11.1305
  36   2.0000      -0.400584       -10.9004
  37   2.0000      -0.391941       -10.6653
  38   2.0000      -0.370710       -10.0875
  39   2.0000      -0.368829       -10.0364
  40   2.0000      -0.357286        -9.7223
  41   2.0000      -0.355608        -9.6766
  42   2.0000      -0.347024        -9.4430
  43   2.0000      -0.337910        -9.1950
  44   2.0000      -0.325965        -8.8699
  45   2.0000      -0.306422        -8.3382
  46   2.0000      -0.295507        -8.0412
  47   2.0000      -0.269656        -7.3377
  48   2.0000      -0.267621        -7.2823
  49   2.0000      -0.257592        -7.0094
  50   2.0000      -0.236554        -6.4370
  51   0.0000       0.068075         1.8524
  52   0.0000       0.085277         2.3205
  53   0.0000       0.090923         2.4741
  54   0.0000       0.102403         2.7865
  55   0.0000       0.104436         2.8419

MULLIKEN ATOMIC CHARGES
-----------------------
   0 C :    0.283726
   1 C :   -0.260077
   2 C :   -0.300083
   3 C :   -0.008644
   4 O :   -0.515551
   5 H :    0.146117
   6 H :    0.143725
   7 H :    0.165864
   8 H :    0.142382
   9 H :    0.162741
  10 H :    0.143827
  11 H :    0.146284
  12 C :   -0.011484
  13 H :    0.158079
  14 H :    0.135735
  15 O :   -0.513705
  16 C :    0.069970
  17 C :    0.080191
  18 C :   -0.299476
  19 C :   -0.021589
  20 O :   -0.512628
  21 H :    0.156715
  22 O :   -0.604540
  23 H :    0.151957
  24 H :    0.162790
  25 H :    0.142867
  26 H :    0.145834
  27 H :    0.143240
  28 H :    0.365733
Sum of atomic charges:   -0.0000000

LOEWDIN ATOMIC CHARGES
----------------------
   0 C :    0.173816
   1 C :   -0.213876
   2 C :   -0.216625
   3 C :   -0.029395
   4 O :   -0.330797
   5 H :    0.096144
   6 H :    0.113493
   7 H :    0.128748
   8 H :    0.114327
   9 H :    0.119486
  10 H :    0.103490
  11 H :    0.104526
  12 C :   -0.045911
  13 H :    0.115043
  14 H :    0.102196
  15 O :   -0.323283
  16 C :    0.012228
  17 C :    0.034953
  18 C :   -0.241651
  19 C :   -0.036783
  20 O :   -0.323027
  21 H :    0.115127
  22 O :   -0.415657
  23 H :    0.115378
  24 H :    0.126490
  25 H :    0.112240
  26 H :    0.104320
  27 H :    0.101310
  28 H :    0.283691

  Mayer bond orders larger than 0.100000
B(  0-C ,  1-C ) :   0.9488 B(  0-C ,  4-O ) :   0.8945 B(  0-C ,  5-H ) :   0.9205
B(  0-C , 15-O ) :   0.8663 B(  1-C ,  2-C ) :   0.9543 B(  1-C ,  6-H ) :   0.9392
B(  1-C ,  7-H ) :   0.9344 B(  2-C ,  3-C ) :   0.9564 B(  2-C ,  8-H ) :   0.9449
B(  2-C ,  9-H ) :   0.9442 B(  3-C ,  4-O ) :   0.8328 B(  3-C , 10-H ) :   0.9363
B(  3-C , 11-H ) :   0.9405 B( 12-C , 13-H ) :   0.9069 B( 12-C , 14-H ) :   0.9336
B( 12-C , 15-O ) :   0.8337 B( 12-C , 16-C ) :   0.8940 B( 16-C , 17-C ) :   0.8986
B( 16-C , 20-O ) :   0.8607 B( 16-C , 21-H ) :   0.9277 B( 17-C , 18-C ) :   0.9109
B( 17-C , 22-O ) :   0.8906 B( 17-C , 23-H ) :   0.9330 B( 18-C , 19-C ) :   0.9399
B( 18-C , 24-H ) :   0.9375 B( 18-C , 25-H ) :   0.9343 B( 19-C , 20-O ) :   0.8526
B( 19-C , 26-H ) :   0.9348 B( 19-C , 27-H ) :   0.9380 B( 22-O , 28-H ) :   0.7931

FINAL SINGLE POINT ENERGY      -652.863761276632

DIPOLE MOMENT
-------------
                                X             Y             Z
Electronic contribution:     -1.31840      -3.46516      -3.14668
Nuclear contribution   :      1.51969       4.16987       3.80773
                        -----------------------------------------
Total Dipole Moment    :      0.20129       0.70471       0.66105
                        -----------------------------------------
Magnitude (a.u.)       :      0.98698
Magnitude (Debye)      :      2.50870

Rotational constants in cm-1:     0.063761     0.011513     0.011172
Rotational constants in MHz :  1911.494318   345.156342   334.936147

                             ****ORCA TERMINATED NORMALLY****
TOTAL RUN TIME: 0 days 1 hours 48 minutes 38 seconds 968 msec
