                         Program Version 4.2.0 -  RELEASE  -
|  1> # Test redundant internal optimization
|  2> #
|  3> ! RKS B3LYP  Opt TightSCF SmallPrint
|  4>
|  5> %basis
|  6>         Basis "6-31G"
|  7> end
|  8>
|  9> %geom
| 10> Constraints
| 11> { D 4  0  15  12  120.0   C } # D for Dihedral angle
| 12> { D 0  15  12  16  60.0   C } # D for Dihedral angle
| 13> { D 0  4  3  2   C } # D for Dihedral angle
| 14> { D 4  3  2  1   C } # D for Dihedral angle
| 15> { D 3  2  1  0   C } # D for Dihedral angle
| 16> { D 2  1  0  4   C } # D for Dihedral angle
| 17> { D 1  0  4  3   C } # D for Dihedral angle
| 18> { D 16  20  19  18   C } # D for Dihedral angle
| 19> { D 20  19  18  17   C } # D for Dihedral angle
| 20> { D 19  18  17  16   C } # D for Dihedral angle
| 21> { D 18  17  16  20   C } # D for Dihedral angle
| 22> { D 17  16  20  19   C } # D for Dihedral angle
| 23> { D 15  12  16  20   C } # D for Dihedral angle
| 24> end
| 25> end
| 26>
| 27>
| 28> #%pal
| 29> #nprocs 8
| 30> #end
| 31>
| 32> * xyz 0 1
| 33> C  -21.048   26.222   46.251
| 34> C  -20.361   27.558   45.944
| 35> C  -20.329   28.222   47.341
| 36> C  -20.110   27.022   48.296
| 37> O  -20.473   25.807   47.535
| 38> H  -20.833   25.428   45.533
| 39> H  -19.344   27.382   45.576
| 40> H  -20.898   28.157   45.201
| 41> H  -19.543   28.978   47.434
| 42> H  -21.289   28.710   47.548
| 43> H  -20.733   27.082   49.195
| 44> H  -19.064   26.913   48.597
| 45> C  -23.119   27.818   46.058
| 46> H  -24.209   27.833   46.183
| 47> H  -22.684   28.553   46.747
| 48> O  -22.586   26.394   46.375
| 49> C  -22.788   28.275   44.610
| 50> C  -23.499   27.398   43.573
| 51> C  -24.931   27.985   43.596
| 52> C  -24.687   29.496   43.834
| 53> O  -23.313   29.622   44.365
| 54> H  -21.704   28.327   44.490
| 55> H  -23.041   27.534   42.587
| 56> O  -23.463   25.885   43.925
| 57> H  -25.483   27.792   42.671
| 58> H  -25.503   27.550   44.424
| 59> H  -25.391   29.926   44.555
| 60> H  -24.730   30.077   42.909
| 61> H  -23.917   25.725   44.909
| 62> *
| 63>
| 64>                          ****END OF INPUT****
 Total Charge           Charge          ....    0
 Multiplicity           Mult            ....    1
 Number of Electrons    NEL             ....  102
FINAL SINGLE POINT ENERGY      -652.783004641564
FINAL SINGLE POINT ENERGY      -652.826937611063
FINAL SINGLE POINT ENERGY      -652.846335254158
FINAL SINGLE POINT ENERGY      -652.850445062893
FINAL SINGLE POINT ENERGY      -652.851263742009
FINAL SINGLE POINT ENERGY      -652.851510212916
FINAL SINGLE POINT ENERGY      -652.851563495815
FINAL SINGLE POINT ENERGY      -652.851571878663
                    ***********************HURRAY********************

CARTESIAN COORDINATES (ANGSTROEM)
---------------------------------
  C    -21.136523   26.283539   46.367009
  C    -20.105244   27.357045   46.007162
  C    -19.981649   28.152691   47.338482
  C    -20.147981   27.042128   48.401219
  O    -20.772668   25.897387   47.700866
  H    -21.085931   25.383654   45.754481
  H    -19.162613   26.841625   45.789646
  H    -20.350646   27.973141   45.146027
  H    -19.021539   28.669606   47.423637
  H    -20.774315   28.904051   47.418511
  H    -20.788896   27.337409   49.236253
  H    -19.189541   26.688092   48.791252
  C    -23.189231   27.925601   46.016461
  H    -24.252168   27.732018   46.181578
  H    -22.882773   28.716358   46.712061
  O    -22.561285   26.645688   46.367835
  C    -22.944748   28.420975   44.582317
  C    -23.540325   27.506345   43.498106
  C    -25.043169   27.906663   43.542392
  C    -24.998638   29.417718   43.850576
  O    -23.634805   29.697670   44.400394
  H    -21.892360   28.633801   44.405179
  H    -23.115347   27.762021   42.523463
  O    -23.282312   26.097894   43.684557
  H    -25.550101   27.681635   42.600198
  H    -25.546117   27.340239   44.333938
  H    -25.744225   29.733221   44.586659
  H    -25.102866   30.034374   42.953770
  H    -23.274985   25.888410   44.647974

 Multiplicity           Mult            ....    1
 Number of Electrons    NEL             ....  102
 Basis Dimension        Dim             ....  149

ORBITAL ENERGIES
----------------

  NO   OCC          E(Eh)            E(eV)
   0   2.0000     -19.153043      -521.1808
   1   2.0000     -19.146814      -521.0113
   2   2.0000     -19.144802      -520.9566
   3   2.0000     -19.128309      -520.5078
   4   2.0000     -10.289771      -279.9989
   5   2.0000     -10.241591      -278.6878
   6   2.0000     -10.238754      -278.6107
   7   2.0000     -10.238265      -278.5973
   8   2.0000     -10.232570      -278.4424
   9   2.0000     -10.231692      -278.4185
  10   2.0000     -10.199042      -277.5300
  11   2.0000     -10.198100      -277.5044
  12   2.0000     -10.186917      -277.2001
  13   2.0000      -1.056949       -28.7610
  14   2.0000      -1.031086       -28.0573
  15   2.0000      -1.007575       -27.4175
  16   2.0000      -0.995814       -27.0975
  17   2.0000      -0.795351       -21.6426
  18   2.0000      -0.779904       -21.2223
  19   2.0000      -0.772774       -21.0282
  20   2.0000      -0.742129       -20.1944
  21   2.0000      -0.686195       -18.6723
  22   2.0000      -0.610765       -16.6198
  23   2.0000      -0.607645       -16.5349
  24   2.0000      -0.603359       -16.4182
  25   2.0000      -0.575628       -15.6636
  26   2.0000      -0.537939       -14.6381
  27   2.0000      -0.512185       -13.9373
  28   2.0000      -0.505313       -13.7503
  29   2.0000      -0.490944       -13.3593
  30   2.0000      -0.474181       -12.9031
  31   2.0000      -0.461531       -12.5589
  32   2.0000      -0.445013       -12.1094
  33   2.0000      -0.442627       -12.0445
  34   2.0000      -0.428589       -11.6625
  35   2.0000      -0.419991       -11.4285
  36   2.0000      -0.411420       -11.1953
  37   2.0000      -0.401670       -10.9300
  38   2.0000      -0.390177       -10.6173
  39   2.0000      -0.378692       -10.3047
  40   2.0000      -0.363999        -9.9049
  41   2.0000      -0.358182        -9.7466
  42   2.0000      -0.354627        -9.6499
  43   2.0000      -0.339765        -9.2455
  44   2.0000      -0.320498        -8.7212
  45   2.0000      -0.308833        -8.4038
  46   2.0000      -0.299193        -8.1415
  47   2.0000      -0.279376        -7.6022
  48   2.0000      -0.262123        -7.1327
  49   2.0000      -0.258665        -7.0386
  50   2.0000      -0.242113        -6.5882
  51   0.0000       0.053596         1.4584
  52   0.0000       0.066180         1.8009
  53   0.0000       0.082844         2.2543
  54   0.0000       0.092506         2.5172
  55   0.0000       0.102177         2.7804

MULLIKEN ATOMIC CHARGES
-----------------------
   0 C :    0.316913
   1 C :   -0.299394
   2 C :   -0.312899
   3 C :   -0.003781
   4 O :   -0.492322
   5 H :    0.168074
   6 H :    0.160947
   7 H :    0.151459
   8 H :    0.149299
   9 H :    0.156649
  10 H :    0.151947
  11 H :    0.148399
  12 C :   -0.037308
  13 H :    0.167437
  14 H :    0.155127
  15 O :   -0.554214
  16 C :    0.044767
  17 C :    0.111595
  18 C :   -0.308759
  19 C :   -0.021800
  20 O :   -0.521848
  21 H :    0.162905
  22 H :    0.151268
  23 O :   -0.629597
  24 H :    0.153994
  25 H :    0.148300
  26 H :    0.145127
  27 H :    0.152774
  28 H :    0.384942
Sum of atomic charges:   -0.0000000

LOEWDIN ATOMIC CHARGES
----------------------
   0 C :    0.184061
   1 C :   -0.229994
   2 C :   -0.220342
   3 C :   -0.029181
   4 O :   -0.305515
   5 H :    0.112662
   6 H :    0.125360
   7 H :    0.116997
   8 H :    0.118585
   9 H :    0.112408
  10 H :    0.107628
  11 H :    0.105717
  12 C :   -0.048965
  13 H :    0.118304
  14 H :    0.106406
  15 O :   -0.345436
  16 C :    0.001579
  17 C :    0.040038
  18 C :   -0.239501
  19 C :   -0.032478
  20 O :   -0.324147
  21 H :    0.110074
  22 H :    0.110311
  23 O :   -0.426239
  24 H :    0.122862
  25 H :    0.112183
  26 H :    0.103574
  27 H :    0.107964
  28 H :    0.285085

  Mayer bond orders larger than 0.100000
B(  0-C ,  1-C ) :   0.9335 B(  0-C ,  4-O ) :   0.9285 B(  0-C ,  5-H ) :   0.9278
B(  0-C , 15-O ) :   0.8219 B(  1-C ,  2-C ) :   0.9513 B(  1-C ,  6-H ) :   0.9312
B(  1-C ,  7-H ) :   0.9168 B(  2-C ,  3-C ) :   0.9490 B(  2-C ,  8-H ) :   0.9451
B(  2-C ,  9-H ) :   0.9403 B(  3-C ,  4-O ) :   0.8389 B(  3-C , 10-H ) :   0.9344
B(  3-C , 11-H ) :   0.9387 B( 12-C , 13-H ) :   0.9345 B( 12-C , 14-H ) :   0.9167
B( 12-C , 15-O ) :   0.8097 B( 12-C , 16-C ) :   0.8776 B( 16-C , 17-C ) :   0.9034
B( 16-C , 20-O ) :   0.8423 B( 16-C , 21-H ) :   0.9155 B( 17-C , 18-C ) :   0.9021
B( 17-C , 22-H ) :   0.9354 B( 17-C , 23-O ) :   0.9293 B( 18-C , 19-C ) :   0.9399
B( 18-C , 24-H ) :   0.9439 B( 18-C , 25-H ) :   0.9422 B( 19-C , 20-O ) :   0.8325
B( 19-C , 26-H ) :   0.9335 B( 19-C , 27-H ) :   0.9379 B( 23-O , 28-H ) :   0.7344

FINAL SINGLE POINT ENERGY      -652.851574187110

DIPOLE MOMENT
-------------
                                X             Y             Z
Electronic contribution:     -0.62913      -3.24468      -0.05304
Nuclear contribution   :      0.90223       4.24865       0.13841
                        -----------------------------------------
Total Dipole Moment    :      0.27310       1.00397       0.08537
                        -----------------------------------------
Magnitude (a.u.)       :      1.04395
Magnitude (Debye)      :      2.65350

Rotational constants in cm-1:     0.056716     0.014615     0.013235
Rotational constants in MHz :  1700.312441   438.138246   396.768092

                             ****ORCA TERMINATED NORMALLY****
TOTAL RUN TIME: 0 days 0 hours 21 minutes 18 seconds 261 msec
