                         Program Version 4.2.0 -  RELEASE  -
|  1> # Test redundant internal optimization
|  2> #
|  3> ! RKS B3LYP  Opt TightSCF SmallPrint
|  4>
|  5> %basis
|  6>         Basis "6-31G"
|  7> end
|  8>
|  9> %geom
| 10> Constraints
| 11> { D 4  0  15  12  0.0   C } # D for Dihedral angle
| 12> { D 0  15  12  16  195.0   C } # D for Dihedral angle
| 13> { D 0  4  3  2   C } # D for Dihedral angle
| 14> { D 4  3  2  1   C } # D for Dihedral angle
| 15> { D 3  2  1  0   C } # D for Dihedral angle
| 16> { D 2  1  0  4   C } # D for Dihedral angle
| 17> { D 1  0  4  3   C } # D for Dihedral angle
| 18> { D 16  20  19  18   C } # D for Dihedral angle
| 19> { D 20  19  18  17   C } # D for Dihedral angle
| 20> { D 19  18  17  16   C } # D for Dihedral angle
| 21> { D 18  17  16  20   C } # D for Dihedral angle
| 22> { D 17  16  20  19   C } # D for Dihedral angle
| 23> { D 15  12  16  20   C } # D for Dihedral angle
| 24> end
| 25> end
| 26>
| 27>
| 28> #%pal
| 29> #nprocs 8
| 30> #end
| 31>
| 32> * xyz 0 1
| 33> C  -21.048   26.222   46.251
| 34> C  -20.361   27.558   45.944
| 35> C  -20.329   28.222   47.341
| 36> C  -20.110   27.022   48.296
| 37> O  -20.473   25.807   47.535
| 38> H  -20.833   25.428   45.533
| 39> H  -19.344   27.382   45.576
| 40> H  -20.898   28.157   45.201
| 41> H  -19.543   28.978   47.434
| 42> H  -21.289   28.710   47.548
| 43> H  -20.733   27.082   49.195
| 44> H  -19.064   26.913   48.597
| 45> C  -23.172   26.101   47.783
| 46> H  -22.724   25.180   48.177
| 47> H  -22.937   26.920   48.475
| 48> O  -22.586   26.394   46.375
| 49> C  -24.716   25.924   47.767
| 50> C  -25.125   24.690   46.955
| 51> C  -24.851   23.547   47.962
| 52> C  -25.214   24.186   49.326
| 53> O  -25.214   25.649   49.118
| 54> H  -25.179   26.856   47.438
| 55> O  -26.637   24.761   46.605
| 56> H  -24.561   24.580   46.023
| 57> H  -25.437   22.647   47.753
| 58> H  -23.790   23.269   47.935
| 59> H  -24.494   23.935   50.112
| 60> H  -26.216   23.907   49.663
| 61> H  -27.224   24.870   47.525
| 62> *
| 63>
| 64>                          ****END OF INPUT****
 Total Charge           Charge          ....    0
 Multiplicity           Mult            ....    1
 Number of Electrons    NEL             ....  102
FINAL SINGLE POINT ENERGY      -652.836300940592
FINAL SINGLE POINT ENERGY      -652.858930410542
FINAL SINGLE POINT ENERGY      -652.862716043054
FINAL SINGLE POINT ENERGY      -652.863313593039
FINAL SINGLE POINT ENERGY      -652.863400328881
FINAL SINGLE POINT ENERGY      -652.863412990832
                    ***********************HURRAY********************

CARTESIAN COORDINATES (ANGSTROEM)
---------------------------------
  C    -21.140981   26.190435   46.377354
  C    -20.560032   27.539727   45.953476
  C    -20.363021   28.241857   47.317319
  C    -19.966130   27.082186   48.257138
  O    -20.391337   25.834935   47.558567
  H    -20.995153   25.379192   45.660810
  H    -19.599928   27.378837   45.449154
  H    -21.230461   28.080489   45.282206
  H    -19.599007   29.024454   47.281861
  H    -21.303103   28.701686   47.639361
  H    -20.458672   27.122486   49.232229
  H    -18.885163   27.000968   48.402421
  C    -23.112903   26.064820   47.931376
  H    -22.650673   25.178360   48.378435
  H    -22.923791   26.917044   48.596279
  O    -22.580054   26.306760   46.597467
  C    -24.621461   25.883994   47.775488
  C    -25.045251   24.672560   46.932864
  C    -24.891288   23.514297   47.951440
  C    -25.301131   24.166473   49.295420
  O    -25.213253   25.634617   49.095687
  H    -25.068812   26.802745   47.387189
  O    -26.422416   24.812293   46.482839
  H    -24.447572   24.553753   46.031271
  H    -25.528162   22.670129   47.676512
  H    -23.852898   23.166762   47.977708
  H    -24.645836   23.881404   50.124033
  H    -26.335103   23.941433   49.574006
  H    -26.968406   25.152306   47.223088

 Multiplicity           Mult            ....    1
 Number of Electrons    NEL             ....  102
 Basis Dimension        Dim             ....  149

ORBITAL ENERGIES
----------------

  NO   OCC          E(Eh)            E(eV)
   0   2.0000     -19.153522      -521.1938
   1   2.0000     -19.141989      -520.8800
   2   2.0000     -19.140908      -520.8506
   3   2.0000     -19.130918      -520.5788
   4   2.0000     -10.282223      -279.7935
   5   2.0000     -10.234923      -278.5064
   6   2.0000     -10.231474      -278.4126
   7   2.0000     -10.229112      -278.3483
   8   2.0000     -10.228675      -278.3364
   9   2.0000     -10.227198      -278.2962
  10   2.0000     -10.193275      -277.3731
  11   2.0000     -10.187868      -277.2260
  12   2.0000     -10.183710      -277.1128
  13   2.0000      -1.057887       -28.7866
  14   2.0000      -1.032731       -28.1020
  15   2.0000      -1.000652       -27.2291
  16   2.0000      -0.994585       -27.0640
  17   2.0000      -0.793870       -21.6023
  18   2.0000      -0.776908       -21.1407
  19   2.0000      -0.767098       -20.8738
  20   2.0000      -0.733114       -19.9491
  21   2.0000      -0.671947       -18.2846
  22   2.0000      -0.606318       -16.4988
  23   2.0000      -0.600267       -16.3341
  24   2.0000      -0.592208       -16.1148
  25   2.0000      -0.575816       -15.6688
  26   2.0000      -0.520378       -14.1602
  27   2.0000      -0.516178       -14.0459
  28   2.0000      -0.501297       -13.6410
  29   2.0000      -0.490070       -13.3355
  30   2.0000      -0.472645       -12.8613
  31   2.0000      -0.456263       -12.4155
  32   2.0000      -0.447899       -12.1879
  33   2.0000      -0.436150       -11.8682
  34   2.0000      -0.419741       -11.4217
  35   2.0000      -0.415327       -11.3016
  36   2.0000      -0.404641       -11.0108
  37   2.0000      -0.388878       -10.5819
  38   2.0000      -0.376584       -10.2474
  39   2.0000      -0.363972        -9.9042
  40   2.0000      -0.363659        -9.8957
  41   2.0000      -0.357092        -9.7170
  42   2.0000      -0.351036        -9.5522
  43   2.0000      -0.339601        -9.2410
  44   2.0000      -0.325426        -8.8553
  45   2.0000      -0.310761        -8.4562
  46   2.0000      -0.301431        -8.2023
  47   2.0000      -0.269109        -7.3228
  48   2.0000      -0.264350        -7.1933
  49   2.0000      -0.252524        -6.8715
  50   2.0000      -0.242933        -6.6106
  51   0.0000       0.068299         1.8585
  52   0.0000       0.070304         1.9131
  53   0.0000       0.095288         2.5929
  54   0.0000       0.099450         2.7062
  55   0.0000       0.101076         2.7504

MULLIKEN ATOMIC CHARGES
-----------------------
   0 C :    0.302185
   1 C :   -0.255048
   2 C :   -0.310199
   3 C :   -0.018784
   4 O :   -0.512790
   5 H :    0.156486
   6 H :    0.144638
   7 H :    0.162490
   8 H :    0.149014
   9 H :    0.158201
  10 H :    0.148927
  11 H :    0.152769
  12 C :    0.001163
  13 H :    0.151067
  14 H :    0.137589
  15 O :   -0.549803
  16 C :    0.060380
  17 C :    0.091640
  18 C :   -0.299359
  19 C :   -0.027734
  20 O :   -0.531440
  21 H :    0.161137
  22 O :   -0.604622
  23 H :    0.172430
  24 H :    0.160619
  25 H :    0.147537
  26 H :    0.145876
  27 H :    0.144242
  28 H :    0.361388
Sum of atomic charges:    0.0000000

LOEWDIN ATOMIC CHARGES
----------------------
   0 C :    0.182725
   1 C :   -0.220112
   2 C :   -0.219432
   3 C :   -0.032644
   4 O :   -0.319110
   5 H :    0.105450
   6 H :    0.113858
   7 H :    0.126542
   8 H :    0.118363
   9 H :    0.115790
  10 H :    0.104590
  11 H :    0.108018
  12 C :   -0.038059
  13 H :    0.104563
  14 H :    0.097533
  15 O :   -0.347770
  16 C :    0.019087
  17 C :    0.038672
  18 C :   -0.241324
  19 C :   -0.037513
  20 O :   -0.332759
  21 H :    0.116414
  22 O :   -0.415774
  23 H :    0.126098
  24 H :    0.125820
  25 H :    0.115069
  26 H :    0.103540
  27 H :    0.101807
  28 H :    0.280558

  Mayer bond orders larger than 0.100000
B(  0-C ,  1-C ) :   0.9326 B(  0-C ,  4-O ) :   0.9146 B(  0-C ,  5-H ) :   0.9297
B(  0-C , 15-O ) :   0.8358 B(  1-C ,  2-C ) :   0.9516 B(  1-C ,  6-H ) :   0.9350
B(  1-C ,  7-H ) :   0.9357 B(  2-C ,  3-C ) :   0.9537 B(  2-C ,  8-H ) :   0.9443
B(  2-C ,  9-H ) :   0.9446 B(  3-C ,  4-O ) :   0.8267 B(  3-C , 10-H ) :   0.9326
B(  3-C , 11-H ) :   0.9400 B( 12-C , 13-H ) :   0.9166 B( 12-C , 14-H ) :   0.9163
B( 12-C , 15-O ) :   0.8124 B( 12-C , 16-C ) :   0.9045 B( 16-C , 17-C ) :   0.9129
B( 16-C , 20-O ) :   0.8432 B( 16-C , 21-H ) :   0.9259 B( 17-C , 18-C ) :   0.9137
B( 17-C , 22-O ) :   0.8873 B( 17-C , 23-H ) :   0.9244 B( 18-C , 19-C ) :   0.9417
B( 18-C , 24-H ) :   0.9383 B( 18-C , 25-H ) :   0.9341 B( 19-C , 20-O ) :   0.8428
B( 19-C , 26-H ) :   0.9356 B( 19-C , 27-H ) :   0.9388 B( 22-O , 28-H ) :   0.7965

FINAL SINGLE POINT ENERGY      -652.863415445467

DIPOLE MOMENT
-------------
                                X             Y             Z
Electronic contribution:     -3.46188      -1.22130      -1.24299
Nuclear contribution   :      4.38714       1.50744       1.69880
                        -----------------------------------------
Total Dipole Moment    :      0.92526       0.28613       0.45582
                        -----------------------------------------
Magnitude (a.u.)       :      1.07040
Magnitude (Debye)      :      2.72074

Rotational constants in cm-1:     0.058043     0.012882     0.012138
Rotational constants in MHz :  1740.090699   386.195468   363.902717

                             ****ORCA TERMINATED NORMALLY****
TOTAL RUN TIME: 0 days 1 hours 0 minutes 5 seconds 179 msec
