                         Program Version 4.2.0 -  RELEASE  -
|  1> # Test redundant internal optimization
|  2> #
|  3> ! RKS B3LYP  Opt TightSCF SmallPrint
|  4>
|  5> %basis
|  6>         Basis "6-31G"
|  7> end
|  8>
|  9> %geom
| 10> Constraints
| 11> { D 4  0  15  12  135.0   C } # D for Dihedral angle
| 12> { D 0  15  12  16  240.0   C } # D for Dihedral angle
| 13> { D 0  4  3  2   C } # D for Dihedral angle
| 14> { D 4  3  2  1   C } # D for Dihedral angle
| 15> { D 3  2  1  0   C } # D for Dihedral angle
| 16> { D 2  1  0  4   C } # D for Dihedral angle
| 17> { D 1  0  4  3   C } # D for Dihedral angle
| 18> { D 16  20  19  18   C } # D for Dihedral angle
| 19> { D 20  19  18  17   C } # D for Dihedral angle
| 20> { D 19  18  17  16   C } # D for Dihedral angle
| 21> { D 18  17  16  20   C } # D for Dihedral angle
| 22> { D 17  16  20  19   C } # D for Dihedral angle
| 23> { D 15  12  16  20   C } # D for Dihedral angle
| 24> end
| 25> end
| 26>
| 27>
| 28> #%pal
| 29> #nprocs 8
| 30> #end
| 31>
| 32> * xyz 0 1
| 33> C  -21.048   26.222   46.251
| 34> C  -20.361   27.558   45.944
| 35> C  -20.329   28.222   47.341
| 36> C  -20.110   27.022   48.296
| 37> O  -20.473   25.807   47.535
| 38> H  -20.833   25.428   45.533
| 39> H  -19.344   27.382   45.576
| 40> H  -20.898   28.157   45.201
| 41> H  -19.543   28.978   47.434
| 42> H  -21.289   28.710   47.548
| 43> H  -20.733   27.082   49.195
| 44> H  -19.064   26.913   48.597
| 45> C  -23.162   27.680   45.721
| 46> H  -22.344   28.251   45.264
| 47> H  -23.881   27.421   44.933
| 48> O  -22.586   26.394   46.375
| 49> C  -23.889   28.599   46.741
| 50> C  -24.543   29.797   46.043
| 51> C  -25.829   29.160   45.465
| 52> C  -26.220   28.118   46.543
| 53> O  -25.011   27.887   47.363
| 54> H  -23.195   28.865   47.541
| 55> O  -24.894   30.894   47.085
| 56> H  -23.907   30.244   45.271
| 57> H  -26.623   29.893   45.287
| 58> H  -25.609   28.665   44.512
| 59> H  -26.545   27.166   46.108
| 60> H  -27.000   28.485   47.216
| 61> H  -25.531   30.468   47.868
| 62> *
| 63>
| 64>                          ****END OF INPUT****
 Total Charge           Charge          ....    0
 Multiplicity           Mult            ....    1
 Number of Electrons    NEL             ....  102
FINAL SINGLE POINT ENERGY      -652.812471009777
FINAL SINGLE POINT ENERGY      -652.836081099820
FINAL SINGLE POINT ENERGY      -652.845910882817
FINAL SINGLE POINT ENERGY      -652.847987254483
FINAL SINGLE POINT ENERGY      -652.848351800418
FINAL SINGLE POINT ENERGY      -652.848391150970
FINAL SINGLE POINT ENERGY      -652.848397392483
                    ***********************HURRAY********************

CARTESIAN COORDINATES (ANGSTROEM)
---------------------------------
  C    -21.107164   26.327138   46.251989
  C    -20.174460   27.504538   45.959206
  C    -20.149650   28.246441   47.323040
  C    -20.230770   27.083413   48.337786
  O    -20.734236   25.915225   47.577671
  H    -20.947358   25.456648   45.611953
  H    -19.184495   27.095503   45.729578
  H    -20.469385   28.138196   45.119425
  H    -19.245037   28.848438   47.451320
  H    -21.011787   28.914873   47.416277
  H    -20.913048   27.284511   49.167910
  H    -19.250986   26.803050   48.735151
  C    -23.157411   27.747705   45.622841
  H    -22.422351   28.399099   45.132723
  H    -23.840639   27.374141   44.849480
  O    -22.543312   26.589893   46.239368
  C    -23.928408   28.569444   46.660404
  C    -24.648774   29.789512   46.068401
  C    -25.955825   29.153173   45.524956
  C    -26.259582   28.043963   46.563158
  O    -24.996297   27.799344   47.299784
  H    -23.246569   28.865952   47.463387
  O    -24.917422   30.781234   47.097774
  H    -24.075956   30.318393   45.304896
  H    -26.748103   29.902631   45.451176
  H    -25.785745   28.731589   44.528017
  H    -26.587905   27.108562   46.100669
  H    -27.009268   28.350117   47.299804
  H    -25.252055   30.325273   47.898854

 Multiplicity           Mult            ....    1
 Number of Electrons    NEL             ....  102
 Basis Dimension        Dim             ....  149

ORBITAL ENERGIES
----------------

  NO   OCC          E(Eh)            E(eV)
   0   2.0000     -19.141763      -520.8738
   1   2.0000     -19.140785      -520.8472
   2   2.0000     -19.136688      -520.7357
   3   2.0000     -19.135043      -520.6910
   4   2.0000     -10.279977      -279.7324
   5   2.0000     -10.245941      -278.8062
   6   2.0000     -10.236629      -278.5528
   7   2.0000     -10.235543      -278.5233
   8   2.0000     -10.230348      -278.3819
   9   2.0000     -10.225414      -278.2477
  10   2.0000     -10.195288      -277.4279
  11   2.0000     -10.193860      -277.3890
  12   2.0000     -10.192023      -277.3390
  13   2.0000      -1.048924       -28.5427
  14   2.0000      -1.037463       -28.2308
  15   2.0000      -1.007865       -27.4254
  16   2.0000      -0.989655       -26.9299
  17   2.0000      -0.790816       -21.5192
  18   2.0000      -0.787152       -21.4195
  19   2.0000      -0.770227       -20.9589
  20   2.0000      -0.734434       -19.9850
  21   2.0000      -0.680378       -18.5140
  22   2.0000      -0.608288       -16.5524
  23   2.0000      -0.606123       -16.4934
  24   2.0000      -0.596975       -16.2445
  25   2.0000      -0.575920       -15.6716
  26   2.0000      -0.522639       -14.2217
  27   2.0000      -0.517895       -14.0927
  28   2.0000      -0.502142       -13.6640
  29   2.0000      -0.495788       -13.4911
  30   2.0000      -0.472902       -12.8683
  31   2.0000      -0.459756       -12.5106
  32   2.0000      -0.453268       -12.3340
  33   2.0000      -0.440902       -11.9976
  34   2.0000      -0.432333       -11.7644
  35   2.0000      -0.415404       -11.3037
  36   2.0000      -0.401418       -10.9231
  37   2.0000      -0.395327       -10.7574
  38   2.0000      -0.380766       -10.3612
  39   2.0000      -0.374411       -10.1882
  40   2.0000      -0.364132        -9.9085
  41   2.0000      -0.358893        -9.7660
  42   2.0000      -0.355609        -9.6766
  43   2.0000      -0.334730        -9.1085
  44   2.0000      -0.313174        -8.5219
  45   2.0000      -0.307800        -8.3757
  46   2.0000      -0.290074        -7.8933
  47   2.0000      -0.273753        -7.4492
  48   2.0000      -0.268363        -7.3025
  49   2.0000      -0.251867        -6.8536
  50   2.0000      -0.235793        -6.4163
  51   0.0000       0.062148         1.6911
  52   0.0000       0.071818         1.9543
  53   0.0000       0.084236         2.2922
  54   0.0000       0.088859         2.4180
  55   0.0000       0.095934         2.6105

MULLIKEN ATOMIC CHARGES
-----------------------
   0 C :    0.318857
   1 C :   -0.305301
   2 C :   -0.308144
   3 C :   -0.001058
   4 O :   -0.491544
   5 H :    0.153675
   6 H :    0.157147
   7 H :    0.144137
   8 H :    0.146717
   9 H :    0.151502
  10 H :    0.154612
  11 H :    0.143952
  12 C :   -0.002530
  13 H :    0.117912
  14 H :    0.143011
  15 O :   -0.513811
  16 C :    0.067427
  17 C :    0.072099
  18 C :   -0.299373
  19 C :   -0.027470
  20 O :   -0.505460
  21 H :    0.164001
  22 O :   -0.601306
  23 H :    0.148327
  24 H :    0.165312
  25 H :    0.143149
  26 H :    0.152005
  27 H :    0.145737
  28 H :    0.366416
Sum of atomic charges:    0.0000000

LOEWDIN ATOMIC CHARGES
----------------------
   0 C :    0.185508
   1 C :   -0.234038
   2 C :   -0.219553
   3 C :   -0.028251
   4 O :   -0.306223
   5 H :    0.103305
   6 H :    0.122999
   7 H :    0.112623
   8 H :    0.116713
   9 H :    0.109130
  10 H :    0.109164
  11 H :    0.103806
  12 C :   -0.040339
  13 H :    0.093889
  14 H :    0.103508
  15 O :   -0.323847
  16 C :    0.010345
  17 C :    0.032884
  18 C :   -0.242385
  19 C :   -0.037893
  20 O :   -0.317157
  21 H :    0.113087
  22 O :   -0.414709
  23 H :    0.112988
  24 H :    0.127573
  25 H :    0.112543
  26 H :    0.107568
  27 H :    0.102479
  28 H :    0.284283

  Mayer bond orders larger than 0.100000
B(  0-C ,  1-C ) :   0.9294 B(  0-C ,  4-O ) :   0.9252 B(  0-C ,  5-H ) :   0.9290
B(  0-C , 15-O ) :   0.8603 B(  1-C ,  2-C ) :   0.9506 B(  1-C ,  6-H ) :   0.9328
B(  1-C ,  7-H ) :   0.9258 B(  2-C ,  3-C ) :   0.9518 B(  2-C ,  8-H ) :   0.9454
B(  2-C ,  9-H ) :   0.9375 B(  3-C ,  4-O ) :   0.8427 B(  3-C , 10-H ) :   0.9330
B(  3-C , 11-H ) :   0.9393 B( 12-C , 13-H ) :   0.9009 B( 12-C , 14-H ) :   0.9279
B( 12-C , 15-O ) :   0.8570 B( 12-C , 16-C ) :   0.8871 B( 16-C , 17-C ) :   0.8941
B( 16-C , 20-O ) :   0.8682 B( 16-C , 21-H ) :   0.9175 B( 17-C , 18-C ) :   0.9129
B( 17-C , 22-O ) :   0.8936 B( 17-C , 23-H ) :   0.9331 B( 18-C , 19-C ) :   0.9387
B( 18-C , 24-H ) :   0.9365 B( 18-C , 25-H ) :   0.9338 B( 19-C , 20-O ) :   0.8512
B( 19-C , 26-H ) :   0.9338 B( 19-C , 27-H ) :   0.9372 B( 22-O , 28-H ) :   0.7929

FINAL SINGLE POINT ENERGY      -652.848398195196

DIPOLE MOMENT
-------------
                                X             Y             Z
Electronic contribution:     -1.57632      -3.19919       2.27972
Nuclear contribution   :      1.89653       4.06887      -3.25704
                        -----------------------------------------
Total Dipole Moment    :      0.32022       0.86968      -0.97732
                        -----------------------------------------
Magnitude (a.u.)       :      1.34686
Magnitude (Debye)      :      3.42344

Rotational constants in cm-1:     0.052981     0.013675     0.012842
Rotational constants in MHz :  1588.340113   409.952743   384.985335

                             ****ORCA TERMINATED NORMALLY****
TOTAL RUN TIME: 0 days 0 hours 22 minutes 11 seconds 678 msec
