                         Program Version 4.2.0 -  RELEASE  -
|  1> # Test redundant internal optimization
|  2> #
|  3> ! RKS B3LYP  Opt TightSCF SmallPrint
|  4>
|  5> %basis
|  6>         Basis "6-31G"
|  7> end
|  8>
|  9> %geom
| 10> Constraints
| 11> { D 4  0  15  12  45.0   C } # D for Dihedral angle
| 12> { D 0  15  12  16  165.0   C } # D for Dihedral angle
| 13> { D 0  4  3  2   C } # D for Dihedral angle
| 14> { D 4  3  2  1   C } # D for Dihedral angle
| 15> { D 3  2  1  0   C } # D for Dihedral angle
| 16> { D 2  1  0  4   C } # D for Dihedral angle
| 17> { D 1  0  4  3   C } # D for Dihedral angle
| 18> { D 16  20  19  18   C } # D for Dihedral angle
| 19> { D 20  19  18  17   C } # D for Dihedral angle
| 20> { D 19  18  17  16   C } # D for Dihedral angle
| 21> { D 18  17  16  20   C } # D for Dihedral angle
| 22> { D 17  16  20  19   C } # D for Dihedral angle
| 23> { D 15  12  16  20   C } # D for Dihedral angle
| 24> end
| 25> end
| 26>
| 27>
| 28> #%pal
| 29> #nprocs 8
| 30> #end
| 31>
| 32> * xyz 0 1
| 33> C  -21.048   26.222   46.251
| 34> C  -20.361   27.558   45.944
| 35> C  -20.329   28.222   47.341
| 36> C  -20.110   27.022   48.296
| 37> O  -20.473   25.807   47.535
| 38> H  -20.833   25.428   45.533
| 39> H  -19.344   27.382   45.576
| 40> H  -20.898   28.157   45.201
| 41> H  -19.543   28.978   47.434
| 42> H  -21.289   28.710   47.548
| 43> H  -20.733   27.082   49.195
| 44> H  -19.064   26.913   48.597
| 45> C  -23.065   27.161   47.638
| 46> H  -22.970   26.510   48.515
| 47> H  -22.446   28.053   47.803
| 48> O  -22.586   26.394   46.375
| 49> C  -24.544   27.626   47.533
| 50> C  -25.500   26.430   47.469
| 51> C  -25.576   26.010   48.957
| 52> C  -25.492   27.362   49.708
| 53> O  -24.943   28.343   48.749
| 54> H  -24.641   28.327   46.702
| 55> H  -26.483   26.753   47.108
| 56> O  -24.990   25.289   46.546
| 57> H  -26.489   25.456   49.195
| 58> H  -24.721   25.372   49.211
| 59> H  -24.839   27.314   50.586
| 60> H  -26.474   27.729   50.019
| 61> H  -24.007   24.950   46.889
| 62> *
| 63>
| 64>                          ****END OF INPUT****
 Total Charge           Charge          ....    0
 Multiplicity           Mult            ....    1
 Number of Electrons    NEL             ....  102
FINAL SINGLE POINT ENERGY      -652.812637632793
FINAL SINGLE POINT ENERGY      -652.840660293983
FINAL SINGLE POINT ENERGY      -652.855406822332
FINAL SINGLE POINT ENERGY      -652.859235088631
FINAL SINGLE POINT ENERGY      -652.860975935632
FINAL SINGLE POINT ENERGY      -652.862026344583
FINAL SINGLE POINT ENERGY      -652.862479125696
FINAL SINGLE POINT ENERGY      -652.862586121581
FINAL SINGLE POINT ENERGY      -652.862606251088
                    ***********************HURRAY********************

CARTESIAN COORDINATES (ANGSTROEM)
---------------------------------
  C    -21.174809   26.312202   46.459305
  C    -20.400998   27.522539   45.921817
  C    -20.010212   28.264682   47.232090
  C    -19.759725   27.100211   48.219912
  O    -20.424892   25.909233   47.622437
  H    -21.165274   25.463539   45.773528
  H    -19.510260   27.159428   45.398597
  H    -20.994338   28.130977   45.235077
  H    -19.115387   28.882325   47.104805
  H    -20.815410   28.923058   47.566452
  H    -20.177590   27.274423   49.215296
  H    -18.699369   26.850397   48.313309
  C    -23.102297   27.218663   47.866716
  H    -22.982020   26.591381   48.756714
  H    -22.573246   28.160632   48.024962
  O    -22.596023   26.495363   46.694586
  C    -24.576469   27.539616   47.593816
  C    -25.497793   26.316524   47.449700
  C    -25.722156   25.914124   48.937557
  C    -25.746753   27.272200   49.667737
  O    -25.113961   28.262189   48.744249
  H    -24.644138   28.210187   46.732751
  H    -26.449519   26.648786   47.019599
  O    -25.007781   25.244719   46.624146
  H    -26.646738   25.345317   49.066926
  H    -24.890120   25.281048   49.265311
  H    -25.191982   27.270184   50.610965
  H    -26.762299   27.631120   49.857167
  H    -24.039439   25.364933   46.478473

 Multiplicity           Mult            ....    1
 Number of Electrons    NEL             ....  102
 Basis Dimension        Dim             ....  149

ORBITAL ENERGIES
----------------

  NO   OCC          E(Eh)            E(eV)
   0   2.0000     -19.164728      -521.4988
   1   2.0000     -19.156777      -521.2824
   2   2.0000     -19.140174      -520.8306
   3   2.0000     -19.110109      -520.0125
   4   2.0000     -10.292782      -280.0808
   5   2.0000     -10.240331      -278.6536
   6   2.0000     -10.238552      -278.6052
   7   2.0000     -10.233964      -278.4803
   8   2.0000     -10.228188      -278.3231
   9   2.0000     -10.225757      -278.2570
  10   2.0000     -10.201858      -277.6067
  11   2.0000     -10.199261      -277.5360
  12   2.0000     -10.177271      -276.9376
  13   2.0000      -1.066918       -29.0323
  14   2.0000      -1.025671       -27.9099
  15   2.0000      -1.009383       -27.4667
  16   2.0000      -0.990291       -26.9472
  17   2.0000      -0.799038       -21.7429
  18   2.0000      -0.779287       -21.2055
  19   2.0000      -0.767182       -20.8761
  20   2.0000      -0.738287       -20.0898
  21   2.0000      -0.681984       -18.5577
  22   2.0000      -0.614473       -16.7207
  23   2.0000      -0.601793       -16.3756
  24   2.0000      -0.594680       -16.1821
  25   2.0000      -0.577655       -15.7188
  26   2.0000      -0.533279       -14.5113
  27   2.0000      -0.513830       -13.9820
  28   2.0000      -0.510431       -13.8895
  29   2.0000      -0.486952       -13.2506
  30   2.0000      -0.476272       -12.9600
  31   2.0000      -0.463140       -12.6027
  32   2.0000      -0.443135       -12.0583
  33   2.0000      -0.433116       -11.7857
  34   2.0000      -0.426568       -11.6075
  35   2.0000      -0.423849       -11.5335
  36   2.0000      -0.410018       -11.1572
  37   2.0000      -0.391115       -10.6428
  38   2.0000      -0.387288       -10.5386
  39   2.0000      -0.370689       -10.0870
  40   2.0000      -0.368254       -10.0207
  41   2.0000      -0.358236        -9.7481
  42   2.0000      -0.351267        -9.5585
  43   2.0000      -0.339287        -9.2325
  44   2.0000      -0.331583        -9.0228
  45   2.0000      -0.320265        -8.7149
  46   2.0000      -0.292033        -7.9466
  47   2.0000      -0.273366        -7.4387
  48   2.0000      -0.266608        -7.2548
  49   2.0000      -0.249822        -6.7980
  50   2.0000      -0.239431        -6.5153
  51   0.0000       0.056677         1.5422
  52   0.0000       0.070542         1.9195
  53   0.0000       0.087688         2.3861
  54   0.0000       0.099264         2.7011
  55   0.0000       0.100228         2.7274

MULLIKEN ATOMIC CHARGES
-----------------------
   0 C :    0.310418
   1 C :   -0.267070
   2 C :   -0.322041
   3 C :   -0.015573
   4 O :   -0.505752
   5 H :    0.169342
   6 H :    0.158147
   7 H :    0.157903
   8 H :    0.151336
   9 H :    0.158694
  10 H :    0.149878
  11 H :    0.155650
  12 C :   -0.017036
  13 H :    0.156298
  14 H :    0.151367
  15 O :   -0.567566
  16 C :    0.051209
  17 C :    0.124207
  18 C :   -0.304810
  19 C :   -0.021078
  20 O :   -0.523539
  21 H :    0.157747
  22 H :    0.143959
  23 O :   -0.638500
  24 H :    0.151779
  25 H :    0.149171
  26 H :    0.141334
  27 H :    0.148770
  28 H :    0.395757
Sum of atomic charges:   -0.0000000

LOEWDIN ATOMIC CHARGES
----------------------
   0 C :    0.179663
   1 C :   -0.224500
   2 C :   -0.223590
   3 C :   -0.032957
   4 O :   -0.316816
   5 H :    0.114825
   6 H :    0.122755
   7 H :    0.123780
   8 H :    0.118842
   9 H :    0.112475
  10 H :    0.105719
  11 H :    0.109346
  12 C :   -0.046561
  13 H :    0.106753
  14 H :    0.106291
  15 O :   -0.336114
  16 C :    0.019118
  17 C :    0.043053
  18 C :   -0.238030
  19 C :   -0.032320
  20 O :   -0.326181
  21 H :    0.114387
  22 H :    0.104428
  23 O :   -0.433729
  24 H :    0.121424
  25 H :    0.112797
  26 H :    0.101387
  27 H :    0.105913
  28 H :    0.287844

  Mayer bond orders larger than 0.100000
B(  0-C ,  1-C ) :   0.9230 B(  0-C ,  4-O ) :   0.9209 B(  0-C ,  5-H ) :   0.9350
B(  0-C , 15-O ) :   0.8371 B(  1-C ,  2-C ) :   0.9538 B(  1-C ,  6-H ) :   0.9337
B(  1-C ,  7-H ) :   0.9360 B(  2-C ,  3-C ) :   0.9483 B(  2-C ,  8-H ) :   0.9434
B(  2-C ,  9-H ) :   0.9369 B(  3-C ,  4-O ) :   0.8335 B(  3-C , 10-H ) :   0.9334
B(  3-C , 11-H ) :   0.9387 B( 12-C , 13-H ) :   0.9210 B( 12-C , 14-H ) :   0.9092
B( 12-C , 15-O ) :   0.7793 B( 12-C , 16-C ) :   0.9059 B( 16-C , 17-C ) :   0.9139
B( 16-C , 20-O ) :   0.8577 B( 16-C , 21-H ) :   0.9292 B( 17-C , 18-C ) :   0.8996
B( 17-C , 22-H ) :   0.9307 B( 17-C , 23-O ) :   0.9393 B( 18-C , 19-C ) :   0.9398
B( 18-C , 24-H ) :   0.9449 B( 18-C , 25-H ) :   0.9425 B( 19-C , 20-O ) :   0.8301
B( 19-C , 26-H ) :   0.9342 B( 19-C , 27-H ) :   0.9387 B( 23-O , 28-H ) :   0.7230

FINAL SINGLE POINT ENERGY      -652.862608433132

DIPOLE MOMENT
-------------
                                X             Y             Z
Electronic contribution:     -2.17031      -2.33932      -2.10232
Nuclear contribution   :      3.34310       3.21973       2.41051
                        -----------------------------------------
Total Dipole Moment    :      1.17278       0.88041       0.30819
                        -----------------------------------------
Magnitude (a.u.)       :      1.49851
Magnitude (Debye)      :      3.80891

Rotational constants in cm-1:     0.051051     0.014406     0.013135
Rotational constants in MHz :  1530.483022   431.869289   393.765826

                             ****ORCA TERMINATED NORMALLY****
TOTAL RUN TIME: 0 days 0 hours 43 minutes 55 seconds 219 msec
